Title t=  29.00000 step= 14500
44389
    1GLY      N    1   5.674   3.674   1.450
    1GLY    HT1    2   5.637   3.726   1.368
    1GLY    HT2    3   5.594   3.620   1.488
    1GLY    HT3    4   5.755   3.617   1.416
    1GLY     CA    5   5.712   3.773   1.561
    1GLY    HA1    6   5.623   3.830   1.583
    1GLY    HA2    7   5.791   3.831   1.517
    1GLY      C    8   5.749   3.701   1.687
    1GLY      O    9   5.784   3.580   1.672
    2PRO      N   10   5.730   3.761   1.805
    2PRO     CD   11   5.736   3.908   1.800
    2PRO    HD1   12   5.649   3.944   1.741
    2PRO    HD2   13   5.831   3.958   1.770
    2PRO     CA   14   5.677   3.709   1.935
    2PRO     HA   15   5.761   3.661   1.984
    2PRO     CB   16   5.631   3.834   2.001
    2PRO    HB1   17   5.638   3.823   2.112
    2PRO    HB2   18   5.524   3.843   1.973
    2PRO     CG   19   5.720   3.952   1.950
    2PRO    HG1   20   5.677   4.054   1.959
    2PRO    HG2   21   5.812   3.956   2.012
    2PRO      C   22   5.564   3.609   1.925
    2PRO      O   23   5.496   3.607   1.822
    3GLY      N   24   5.535   3.537   2.030
    3GLY     HN   25   5.577   3.561   2.117
    3GLY     CA   26   5.439   3.424   2.031
    3GLY    HA1   27   5.341   3.465   2.011
    3GLY    HA2   28   5.454   3.388   2.131
    3GLY      C   29   5.459   3.314   1.938
    3GLY      O   30   5.563   3.280   1.878
    4ASP      N   31   5.346   3.243   1.915
    4ASP     HN   32   5.269   3.277   1.968
    4ASP     CA   33   5.337   3.129   1.836
    4ASP     HA   34   5.404   3.054   1.876
    4ASP     CB   35   5.194   3.067   1.838
    4ASP    HB1   36   5.192   2.964   1.798
    4ASP    HB2   37   5.117   3.131   1.789
    4ASP     CG   38   5.149   3.038   1.983
    4ASP    OD1   39   5.208   2.954   2.056
    4ASP    OD2   40   5.048   3.096   2.024
    4ASP      C   41   5.375   3.157   1.690
    4ASP      O   42   5.349   3.263   1.637
    5PRO      N   43   5.437   3.059   1.618
    5PRO     CD   44   5.470   2.924   1.656
    5PRO    HD1   45   5.384   2.854   1.647
    5PRO    HD2   46   5.501   2.910   1.762
    5PRO     CA   47   5.475   3.083   1.479
    5PRO     HA   48   5.554   3.157   1.476
    5PRO     CB   49   5.535   2.951   1.437
    5PRO    HB1   50   5.612   2.953   1.357
    5PRO    HB2   51   5.463   2.874   1.401
    5PRO     CG   52   5.581   2.888   1.564
    5PRO    HG1   53   5.607   2.780   1.563
    5PRO    HG2   54   5.674   2.940   1.596
    5PRO      C   55   5.368   3.121   1.381
    5PRO      O   56   5.259   3.066   1.382
    6GLY      N   57   5.400   3.213   1.286
    6GLY     HN   58   5.494   3.247   1.284
    6GLY     CA   59   5.318   3.265   1.177
    6GLY    HA1   60   5.271   3.185   1.122
    6GLY    HA2   61   5.382   3.328   1.117
    6GLY      C   62   5.203   3.346   1.218
    6GLY      O   63   5.195   3.398   1.331
    7SER      N   64   5.115   3.376   1.122
    7SER     HN   65   5.128   3.332   1.033
    7SER     CA   66   4.995   3.470   1.142
    7SER     HA   67   5.035   3.562   1.180
    7SER     CB   68   4.910   3.506   1.020
    7SER    HB1   69   4.848   3.588   1.062
    7SER    HB2   70   4.859   3.420   0.972
    7SER     OG   71   4.986   3.568   0.920
    7SER    HG1   72   5.068   3.517   0.916
    7SER      C   73   4.896   3.428   1.250
    7SER      O   74   4.850   3.313   1.248
    8GLY      N   75   4.867   3.521   1.348
    8GLY     HN   76   4.923   3.603   1.350
    8GLY     CA   77   4.787   3.500   1.464
    8GLY    HA1   78   4.771   3.593   1.516
    8GLY    HA2   79   4.840   3.421   1.516
    8GLY      C   80   4.650   3.449   1.440
    8GLY      O   81   4.587   3.465   1.331
    9ASN      N   82   4.587   3.402   1.542
    9ASN     HN   83   4.641   3.399   1.625
    9ASN     CA   84   4.441   3.372   1.546
    9ASN     HA   85   4.418   3.304   1.465
    9ASN     CB   86   4.404   3.288   1.666
    9ASN    HB1   87   4.408   3.347   1.760
    9ASN    HB2   88   4.473   3.202   1.680
    9ASN     CG   89   4.264   3.227   1.664
    9ASN    OD1   90   4.247   3.114   1.611
    9ASN    ND2   91   4.166   3.295   1.724
    9ASN   HD21   92   4.072   3.261   1.724
    9ASN   HD22   93   4.205   3.371   1.777
    9ASN      C   94   4.354   3.497   1.516
    9ASN      O   95   4.367   3.590   1.598
   10PRO      N   96   4.267   3.513   1.414
   10PRO     CD   97   4.246   3.414   1.321
   10PRO    HD1   98   4.173   3.341   1.361
   10PRO    HD2   99   4.329   3.350   1.283
   10PRO     CA  100   4.166   3.617   1.401
   10PRO     HA  101   4.220   3.706   1.372
   10PRO     CB  102   4.074   3.568   1.286
   10PRO    HB1  103   4.033   3.649   1.222
   10PRO    HB2  104   3.987   3.511   1.326
   10PRO     CG  105   4.171   3.482   1.210
   10PRO    HG1  106   4.135   3.420   1.125
   10PRO    HG2  107   4.235   3.553   1.153
   10PRO      C  108   4.087   3.650   1.526
   10PRO      O  109   4.052   3.558   1.598
   11GLY      N  110   4.066   3.779   1.547
   11GLY     HN  111   4.096   3.841   1.475
   11GLY     CA  112   4.012   3.842   1.667
   11GLY    HA1  113   3.928   3.796   1.719
   11GLY    HA2  114   3.983   3.943   1.640
   11GLY      C  115   4.122   3.851   1.766
   11GLY      O  116   4.232   3.802   1.758
   12SER      N  117   4.095   3.924   1.867
   12SER     HN  118   4.014   3.982   1.871
   12SER     CA  119   4.197   3.941   1.965
   12SER     HA  120   4.248   3.848   1.980
   12SER     CB  121   4.294   4.066   1.949
   12SER    HB1  122   4.375   4.042   1.877
   12SER    HB2  123   4.352   4.084   2.043
   12SER     OG  124   4.228   4.185   1.911
   12SER    HG1  125   4.297   4.252   1.907
   12SER      C  126   4.127   3.954   2.094
   12SER      O  127   4.017   4.008   2.103
   13GLY      N  128   4.186   3.898   2.201
   13GLY     HN  129   4.277   3.857   2.192
   13GLY     CA  130   4.124   3.899   2.333
   13GLY    HA1  131   4.113   4.001   2.368
   13GLY    HA2  132   4.189   3.840   2.397
   13GLY      C  133   3.994   3.830   2.350
   13GLY      O  134   3.964   3.724   2.299
   14ASP      N  135   3.903   3.890   2.436
   14ASP     HN  136   3.909   3.986   2.462
   14ASP     CA  137   3.785   3.818   2.477
   14ASP     HA  138   3.801   3.711   2.472
   14ASP     CB  139   3.759   3.850   2.626
   14ASP    HB1  140   3.666   3.801   2.661
   14ASP    HB2  141   3.737   3.958   2.636
   14ASP     CG  142   3.867   3.814   2.716
   14ASP    OD1  143   3.928   3.712   2.698
   14ASP    OD2  144   3.883   3.887   2.818
   14ASP      C  145   3.674   3.849   2.381
   14ASP      O  146   3.681   3.962   2.325
   15PRO      N  147   3.573   3.765   2.348
   15PRO     CD  148   3.547   3.645   2.423
   15PRO    HD1  149   3.531   3.680   2.527
   15PRO    HD2  150   3.623   3.564   2.422
   15PRO     CA  151   3.471   3.802   2.250
   15PRO     HA  152   3.525   3.834   2.162
   15PRO     CB  153   3.389   3.675   2.238
   15PRO    HB1  154   3.442   3.616   2.159
   15PRO    HB2  155   3.284   3.695   2.207
   15PRO     CG  156   3.413   3.598   2.373
   15PRO    HG1  157   3.339   3.659   2.430
   15PRO    HG2  158   3.387   3.490   2.368
   15PRO      C  159   3.382   3.913   2.306
   15PRO    OT1  160   3.354   3.924   2.430
   15PRO    OT2  161   3.334   3.991   2.216
   16SOD    SOD  162   4.604   3.927   1.460
   17SOD    SOD  163   1.839   3.243   1.604
   18SOD    SOD  164   2.506   5.727   3.934
   19SOD    SOD  165   7.298   3.492   4.311
   20SOD    SOD  166   4.042   1.328   1.645
   21SOD    SOD  167   6.518   2.033   5.588
   22SOD    SOD  168   6.101   4.156   5.970
   23SOD    SOD  169   8.077   6.798   4.989
   24SOD    SOD  170   0.138   7.520   0.278
   25SOD    SOD  171   5.977   6.572   5.914
   26SOD    SOD  172   0.673   3.164   4.594
   27SOD    SOD  173   1.065   3.772   5.581
   28SOD    SOD  174   0.151   1.721   4.716
   29SOD    SOD  175   5.269   4.128   6.269
   30SOD    SOD  176   2.147   0.613   3.218
   31SOD    SOD  177   3.242   3.362   0.507
   32SOD    SOD  178   1.788   7.471   4.287
   33SOD    SOD  179   6.162   4.828   2.424
   34SOD    SOD  180   5.545   1.519   0.025
   35SOD    SOD  181   7.776   4.520   0.752
   36SOD    SOD  182   1.508   2.694   0.481
   37SOD    SOD  183   6.571   4.377   3.412
   38SOD    SOD  184   7.389   1.202   5.164
   39SOD    SOD  185   3.920   3.375   2.871
   40SOD    SOD  186   3.134   4.860   5.570
   41SOD    SOD  187   7.411   2.029   1.460
   42SOD    SOD  188   0.098   6.413   2.780
   43SOD    SOD  189   6.613   3.791   5.070
   44SOD    SOD  190   2.791   4.786   0.264
   45SOD    SOD  191   2.535   2.631   0.345
   46SOD    SOD  192   2.150   2.150   3.963
   47SOD    SOD  193   4.370   6.370   3.642
   48SOD    SOD  194   2.360   0.863   4.398
   49SOD    SOD  195   8.214   0.674   1.533
   50SOD    SOD  196   4.963   3.684   4.238
   51SOD    SOD  197   2.478   0.493   5.540
   52SOD    SOD  198   4.177   5.409   6.000
   53SOD    SOD  199   0.090   3.795   6.461
   54SOD    SOD  200   0.269   4.128   3.567
   55SOD    SOD  201   0.674   5.872   3.610
   56SOD    SOD  202   2.273   2.929   3.435
   57SOD    SOD  203   6.776   0.249   4.443
   58SOD    SOD  204   1.940   0.008   0.730
   59SOD    SOD  205   3.114   4.299   2.912
   60CLA    CLA  206   3.360   1.143   2.285
   61CLA    CLA  207   4.612   0.524   4.170
   62CLA    CLA  208   2.128   2.077   6.480
   63CLA    CLA  209   3.651   0.675   0.358
   64CLA    CLA  210   7.165   3.144   5.046
   65CLA    CLA  211   5.144   1.416   0.527
   66CLA    CLA  212   1.825   6.223   1.659
   67CLA    CLA  213   6.562   1.153   5.243
   68CLA    CLA  214   4.815   5.252   5.249
   69CLA    CLA  215   3.316   5.097   1.796
   70CLA    CLA  216   0.439   1.155   3.009
   71CLA    CLA  217   2.124   7.570   5.332
   72CLA    CLA  218   2.837   4.241   0.650
   73CLA    CLA  219   0.265   5.855   4.124
   74CLA    CLA  220   6.537   5.424   5.671
   75CLA    CLA  221   3.462   0.429   5.288
   76CLA    CLA  222   6.903   1.135   1.399
   77CLA    CLA  223   1.096   0.016   0.632
   78CLA    CLA  224   3.690   2.267   5.534
   79CLA    CLA  225   5.048   5.039   1.768
   80CLA    CLA  226   1.408   3.848   6.493
   81CLA    CLA  227   2.596   1.587   2.957
   82CLA    CLA  228   0.506   5.197   5.183
   83CLA    CLA  229   7.835   6.263   3.802
   84CLA    CLA  230   7.624   3.854   4.386
   85CLA    CLA  231   1.449   0.592   6.598
   86CLA    CLA  232   7.802   7.405   2.610
   87CLA    CLA  233   0.653   1.824   6.670
   88CLA    CLA  234   0.111   7.215   3.099
   89CLA    CLA  235   3.965   2.224   2.964
   90CLA    CLA  236   4.835   5.416   2.778
   91CLA    CLA  237   5.650   6.353   1.737
   92CLA    CLA  238   7.029   0.668   2.184
   93CLA    CLA  239   6.181   4.642   3.095
   94CLA    CLA  240   5.184   4.522   6.384
   95CLA    CLA  241   0.932   4.054   4.699
   96CLA    CLA  242   1.659   6.739   4.244
   97CLA    CLA  243   6.361   7.693   3.293
   98CLA    CLA  244   7.215   6.642   3.548
   99CLA    CLA  245   3.080   5.867   3.348
  100CLA    CLA  246   2.890   6.750   4.438
  101CLA    CLA  247   7.487   1.397   4.571
  102TIP3   OH2  248   5.031   5.814   3.830
  102TIP3    H1  249   5.072   5.768   3.757
  102TIP3    H2  250   5.026   5.905   3.801
  103TIP3   OH2  251   3.730   3.030   5.553
  103TIP3    H1  252   3.731   3.080   5.635
  103TIP3    H2  253   3.739   2.939   5.580
  104TIP3   OH2  254   3.878   6.390   5.191
  104TIP3    H1  255   3.795   6.373   5.146
  104TIP3    H2  256   3.859   6.375   5.284
  105TIP3   OH2  257   2.098   3.002   5.107
  105TIP3    H1  258   2.099   3.093   5.077
  105TIP3    H2  259   2.129   2.952   5.032
  106TIP3   OH2  260   6.237   4.481   1.875
  106TIP3    H1  261   6.305   4.539   1.840
  106TIP3    H2  262   6.267   4.461   1.964
  107TIP3   OH2  263   7.320   3.351   4.494
  107TIP3    H1  264   7.277   3.267   4.511
  107TIP3    H2  265   7.350   3.381   4.580
  108TIP3   OH2  266   5.799   0.510   2.091
  108TIP3    H1  267   5.862   0.445   2.062
  108TIP3    H2  268   5.847   0.561   2.158
  109TIP3   OH2  269   5.116   2.527   1.704
  109TIP3    H1  270   5.134   2.582   1.780
  109TIP3    H2  271   5.201   2.491   1.680
  110TIP3   OH2  272   6.057   6.446   5.287
  110TIP3    H1  273   6.001   6.370   5.296
  110TIP3    H2  274   6.094   6.438   5.199
  111TIP3   OH2  275   5.288   5.163   1.090
  111TIP3    H1  276   5.236   5.207   1.157
  111TIP3    H2  277   5.377   5.161   1.127
  112TIP3   OH2  278   4.145   3.288   2.773
  112TIP3    H1  279   4.122   3.225   2.705
  112TIP3    H2  280   4.218   3.338   2.736
  113TIP3   OH2  281   3.412   2.413   1.101
  113TIP3    H1  282   3.461   2.370   1.031
  113TIP3    H2  283   3.451   2.379   1.182
  114TIP3   OH2  284   6.009   3.500   3.321
  114TIP3    H1  285   5.981   3.409   3.332
  114TIP3    H2  286   6.082   3.510   3.383
  115TIP3   OH2  287   0.855   1.583   6.374
  115TIP3    H1  288   0.837   1.508   6.431
  115TIP3    H2  289   0.772   1.630   6.370
  116TIP3   OH2  290   2.810   4.539   5.940
  116TIP3    H1  291   2.773   4.483   5.872
  116TIP3    H2  292   2.889   4.493   5.968
  117TIP3   OH2  293   4.788   7.353   1.221
  117TIP3    H1  294   4.793   7.310   1.135
  117TIP3    H2  295   4.707   7.404   1.217
  118TIP3   OH2  296   6.321   2.860   2.137
  118TIP3    H1  297   6.282   2.947   2.148
  118TIP3    H2  298   6.302   2.814   2.219
  119TIP3   OH2  299   4.090   1.581   6.540
  119TIP3    H1  300   4.132   1.662   6.509
  119TIP3    H2  301   4.117   1.575   6.632
  120TIP3   OH2  302   3.470   2.279   0.150
  120TIP3    H1  303   3.456   2.236   0.066
  120TIP3    H2  304   3.527   2.353   0.129
  121TIP3   OH2  305   1.329   4.973   2.297
  121TIP3    H1  306   1.411   5.022   2.298
  121TIP3    H2  307   1.280   5.009   2.222
  122TIP3   OH2  308   0.459   3.013   1.420
  122TIP3    H1  309   0.455   2.954   1.345
  122TIP3    H2  310   0.552   3.017   1.442
  123TIP3   OH2  311   7.262   1.788   0.610
  123TIP3    H1  312   7.249   1.703   0.568
  123TIP3    H2  313   7.188   1.841   0.580
  124TIP3   OH2  314   0.891   4.630   0.999
  124TIP3    H1  315   0.843   4.598   1.075
  124TIP3    H2  316   0.949   4.698   1.034
  125TIP3   OH2  317   5.303   1.587   3.769
  125TIP3    H1  318   5.274   1.655   3.709
  125TIP3    H2  319   5.399   1.589   3.763
  126TIP3   OH2  320   1.379   5.046   6.440
  126TIP3    H1  321   1.303   5.104   6.440
  126TIP3    H2  322   1.452   5.102   6.416
  127TIP3   OH2  323   0.315   4.020   2.955
  127TIP3    H1  324   0.265   4.057   2.883
  127TIP3    H2  325   0.400   4.062   2.949
  128TIP3   OH2  326   0.526   5.526   2.027
  128TIP3    H1  327   0.432   5.543   2.029
  128TIP3    H2  328   0.552   5.518   2.119
  129TIP3   OH2  329   4.645   2.676   1.329
  129TIP3    H1  330   4.599   2.758   1.311
  129TIP3    H2  331   4.621   2.654   1.419
  130TIP3   OH2  332   5.412   7.569   2.747
  130TIP3    H1  333   5.464   7.539   2.672
  130TIP3    H2  334   5.477   7.603   2.809
  131TIP3   OH2  335   5.382   6.100   4.378
  131TIP3    H1  336   5.459   6.045   4.361
  131TIP3    H2  337   5.384   6.117   4.472
  132TIP3   OH2  338   5.784   0.420   6.742
  132TIP3    H1  339   5.866   0.381   6.773
  132TIP3    H2  340   5.752   0.360   6.676
  133TIP3   OH2  341   3.804   0.579   2.099
  133TIP3    H1  342   3.768   0.609   2.015
  133TIP3    H2  343   3.892   0.547   2.076
  134TIP3   OH2  344   5.526   1.631   1.583
  134TIP3    H1  345   5.556   1.629   1.674
  134TIP3    H2  346   5.512   1.724   1.564
  135TIP3   OH2  347   3.405   4.655   1.597
  135TIP3    H1  348   3.353   4.577   1.574
  135TIP3    H2  349   3.340   4.723   1.612
  136TIP3   OH2  350   2.624   6.740   0.774
  136TIP3    H1  351   2.655   6.822   0.813
  136TIP3    H2  352   2.533   6.758   0.751
  137TIP3   OH2  353   2.710   0.644   6.244
  137TIP3    H1  354   2.731   0.737   6.253
  137TIP3    H2  355   2.790   0.605   6.208
  138TIP3   OH2  356   4.109   0.112   3.991
  138TIP3    H1  357   4.069   0.168   4.058
  138TIP3    H2  358   4.043   0.107   3.922
  139TIP3   OH2  359   5.313   5.171   3.826
  139TIP3    H1  360   5.394   5.206   3.788
  139TIP3    H2  361   5.283   5.106   3.762
  140TIP3   OH2  362   1.989   3.301   2.480
  140TIP3    H1  363   2.049   3.239   2.523
  140TIP3    H2  364   2.042   3.343   2.412
  141TIP3   OH2  365   2.946   4.799   4.877
  141TIP3    H1  366   2.927   4.770   4.966
  141TIP3    H2  367   2.863   4.832   4.844
  142TIP3   OH2  368   0.821   6.080   0.755
  142TIP3    H1  369   0.909   6.058   0.782
  142TIP3    H2  370   0.768   6.004   0.779
  143TIP3   OH2  371   6.025   1.203   5.236
  143TIP3    H1  372   6.077   1.177   5.160
  143TIP3    H2  373   6.068   1.283   5.268
  144TIP3   OH2  374   2.785   3.676   4.373
  144TIP3    H1  375   2.795   3.693   4.467
  144TIP3    H2  376   2.748   3.756   4.338
  145TIP3   OH2  377   6.970   2.946   1.089
  145TIP3    H1  378   6.913   2.991   1.152
  145TIP3    H2  379   6.914   2.876   1.053
  146TIP3   OH2  380   5.736   7.428   1.683
  146TIP3    H1  381   5.821   7.471   1.693
  146TIP3    H2  382   5.758   7.341   1.647
  147TIP3   OH2  383   0.621   6.433   0.580
  147TIP3    H1  384   0.541   6.439   0.528
  147TIP3    H2  385   0.658   6.522   0.578
  148TIP3   OH2  386   7.271   2.145   1.608
  148TIP3    H1  387   7.201   2.196   1.567
  148TIP3    H2  388   7.237   2.124   1.695
  149TIP3   OH2  389   3.634   5.303   5.194
  149TIP3    H1  390   3.717   5.347   5.176
  149TIP3    H2  391   3.567   5.368   5.174
  150TIP3   OH2  392   7.236   1.660   4.116
  150TIP3    H1  393   7.295   1.642   4.190
  150TIP3    H2  394   7.148   1.651   4.153
  151TIP3   OH2  395   5.391   4.533   1.351
  151TIP3    H1  396   5.441   4.553   1.431
  151TIP3    H2  397   5.366   4.619   1.317
  152TIP3   OH2  398   2.373   1.598   5.420
  152TIP3    H1  399   2.463   1.623   5.402
  152TIP3    H2  400   2.329   1.603   5.335
  153TIP3   OH2  401   3.967   6.625   6.272
  153TIP3    H1  402   4.006   6.610   6.185
  153TIP3    H2  403   3.899   6.558   6.279
  154TIP3   OH2  404   7.366   0.145   5.660
  154TIP3    H1  405   7.406   0.140   5.746
  154TIP3    H2  406   7.289   0.089   5.666
  155TIP3   OH2  407   2.896   3.223   5.320
  155TIP3    H1  408   2.876   3.275   5.243
  155TIP3    H2  409   2.836   3.148   5.316
  156TIP3   OH2  410   5.535   2.605   1.787
  156TIP3    H1  411   5.608   2.567   1.836
  156TIP3    H2  412   5.490   2.660   1.850
  157TIP3   OH2  413   0.669   4.983   2.872
  157TIP3    H1  414   0.664   5.076   2.853
  157TIP3    H2  415   0.739   4.950   2.815
  158TIP3   OH2  416   5.329   5.224   3.189
  158TIP3    H1  417   5.387   5.259   3.257
  158TIP3    H2  418   5.387   5.187   3.123
  159TIP3   OH2  419   7.125   4.565   0.312
  159TIP3    H1  420   7.075   4.634   0.355
  159TIP3    H2  421   7.149   4.602   0.227
  160TIP3   OH2  422   4.741   5.271   1.033
  160TIP3    H1  423   4.787   5.354   1.040
  160TIP3    H2  424   4.655   5.294   0.998
  161TIP3   OH2  425   7.616   6.616   2.774
  161TIP3    H1  426   7.687   6.553   2.768
  161TIP3    H2  427   7.540   6.571   2.736
  162TIP3   OH2  428   6.861   6.190   0.615
  162TIP3    H1  429   6.790   6.209   0.677
  162TIP3    H2  430   6.839   6.104   0.579
  163TIP3   OH2  431   6.487   6.239   2.546
  163TIP3    H1  432   6.415   6.283   2.593
  163TIP3    H2  433   6.507   6.297   2.473
  164TIP3   OH2  434   2.892   6.134   1.524
  164TIP3    H1  435   2.895   6.039   1.510
  164TIP3    H2  436   2.977   6.154   1.565
  165TIP3   OH2  437   1.349   4.802   2.690
  165TIP3    H1  438   1.372   4.889   2.721
  165TIP3    H2  439   1.272   4.777   2.741
  166TIP3   OH2  440   1.739   1.748   2.488
  166TIP3    H1  441   1.757   1.696   2.566
  166TIP3    H2  442   1.799   1.713   2.422
  167TIP3   OH2  443   4.362   2.095   5.235
  167TIP3    H1  444   4.391   2.058   5.152
  167TIP3    H2  445   4.270   2.070   5.242
  168TIP3   OH2  446   4.292   1.417   3.529
  168TIP3    H1  447   4.311   1.361   3.605
  168TIP3    H2  448   4.211   1.462   3.552
  169TIP3   OH2  449   7.120   6.419   1.813
  169TIP3    H1  450   7.188   6.480   1.843
  169TIP3    H2  451   7.039   6.453   1.849
  170TIP3   OH2  452   3.896   3.326   3.092
  170TIP3    H1  453   3.868   3.362   3.176
  170TIP3    H2  454   3.847   3.245   3.082
  171TIP3   OH2  455   0.930   7.280   6.318
  171TIP3    H1  456   0.969   7.365   6.298
  171TIP3    H2  457   0.978   7.218   6.263
  172TIP3   OH2  458   6.570   1.453   5.217
  172TIP3    H1  459   6.542   1.362   5.219
  172TIP3    H2  460   6.657   1.451   5.179
  173TIP3   OH2  461   0.842   4.190   5.376
  173TIP3    H1  462   0.849   4.280   5.343
  173TIP3    H2  463   0.836   4.200   5.471
  174TIP3   OH2  464   3.424   2.839   3.631
  174TIP3    H1  465   3.377   2.826   3.549
  174TIP3    H2  466   3.431   2.934   3.639
  175TIP3   OH2  467   0.451   0.160   2.945
  175TIP3    H1  468   0.534   0.113   2.959
  175TIP3    H2  469   0.475   0.234   2.889
  176TIP3   OH2  470   6.302   1.895   3.347
  176TIP3    H1  471   6.271   1.985   3.350
  176TIP3    H2  472   6.224   1.843   3.328
  177TIP3   OH2  473   5.798   0.394   4.977
  177TIP3    H1  474   5.792   0.311   4.930
  177TIP3    H2  475   5.708   0.414   5.002
  178TIP3   OH2  476   0.747   6.561   6.090
  178TIP3    H1  477   0.708   6.641   6.124
  178TIP3    H2  478   0.832   6.555   6.133
  179TIP3   OH2  479   4.925   4.816   0.661
  179TIP3    H1  480   4.889   4.820   0.750
  179TIP3    H2  481   5.010   4.773   0.671
  180TIP3   OH2  482   3.750   2.460   2.660
  180TIP3    H1  483   3.780   2.503   2.580
  180TIP3    H2  484   3.798   2.377   2.663
  181TIP3   OH2  485   8.256   5.281   5.728
  181TIP3    H1  486   8.181   5.336   5.752
  181TIP3    H2  487   8.320   5.343   5.693
  182TIP3   OH2  488   3.718   1.247   3.178
  182TIP3    H1  489   3.676   1.281   3.257
  182TIP3    H2  490   3.714   1.152   3.188
  183TIP3   OH2  491   5.836   5.221   4.138
  183TIP3    H1  492   5.792   5.260   4.214
  183TIP3    H2  493   5.843   5.128   4.160
  184TIP3   OH2  494   5.240   1.601   1.929
  184TIP3    H1  495   5.298   1.676   1.918
  184TIP3    H2  496   5.297   1.524   1.922
  185TIP3   OH2  497   3.097   0.251   3.951
  185TIP3    H1  498   3.076   0.159   3.964
  185TIP3    H2  499   3.050   0.296   4.022
  186TIP3   OH2  500   4.593   5.215   2.857
  186TIP3    H1  501   4.650   5.290   2.836
  186TIP3    H2  502   4.546   5.242   2.935
  187TIP3   OH2  503   2.395   5.877   2.653
  187TIP3    H1  504   2.388   5.855   2.560
  187TIP3    H2  505   2.331   5.947   2.666
  188TIP3   OH2  506   6.716   7.594   0.863
  188TIP3    H1  507   6.633   7.549   0.878
  188TIP3    H2  508   6.692   7.674   0.815
  189TIP3   OH2  509   4.056   4.725   4.424
  189TIP3    H1  510   4.078   4.818   4.418
  189TIP3    H2  511   4.126   4.687   4.476
  190TIP3   OH2  512   2.610   3.072   0.046
  190TIP3    H1  513   2.673   3.001   0.055
  190TIP3    H2  514   2.526   3.028   0.037
  191TIP3   OH2  515   6.858   1.498   4.441
  191TIP3    H1  516   6.859   1.414   4.487
  191TIP3    H2  517   6.770   1.505   4.405
  192TIP3   OH2  518   7.572   3.087   3.139
  192TIP3    H1  519   7.641   3.020   3.131
  192TIP3    H2  520   7.617   3.163   3.175
  193TIP3   OH2  521   7.928   0.070   4.751
  193TIP3    H1  522   7.955   0.141   4.693
  193TIP3    H2  523   7.972   0.088   4.834
  194TIP3   OH2  524   6.136   4.175   2.523
  194TIP3    H1  525   6.211   4.235   2.523
  194TIP3    H2  526   6.088   4.198   2.603
  195TIP3   OH2  527   0.812   6.307   6.619
  195TIP3    H1  528   0.885   6.334   6.563
  195TIP3    H2  529   0.797   6.382   6.676
  196TIP3   OH2  530   5.230   6.608   3.071
  196TIP3    H1  531   5.299   6.555   3.031
  196TIP3    H2  532   5.149   6.569   3.039
  197TIP3   OH2  533   7.416   0.704   2.562
  197TIP3    H1  534   7.457   0.791   2.567
  197TIP3    H2  535   7.399   0.691   2.469
  198TIP3   OH2  536   7.580   1.010   3.236
  198TIP3    H1  537   7.603   0.919   3.217
  198TIP3    H2  538   7.487   1.007   3.260
  199TIP3   OH2  539   7.135   5.064   1.456
  199TIP3    H1  540   7.040   5.052   1.456
  199TIP3    H2  541   7.148   5.152   1.421
  200TIP3   OH2  542   7.485   0.963   2.581
  200TIP3    H1  543   7.558   1.007   2.537
  200TIP3    H2  544   7.493   0.989   2.673
  201TIP3   OH2  545   7.221   6.699   1.467
  201TIP3    H1  546   7.174   6.619   1.441
  201TIP3    H2  547   7.307   6.668   1.495
  202TIP3   OH2  548   6.680   1.644   4.639
  202TIP3    H1  549   6.661   1.599   4.721
  202TIP3    H2  550   6.615   1.611   4.577
  203TIP3   OH2  551   7.754   5.983   3.661
  203TIP3    H1  552   7.837   6.024   3.682
  203TIP3    H2  553   7.762   5.893   3.693
  204TIP3   OH2  554   8.133   7.540   3.458
  204TIP3    H1  555   8.152   7.491   3.538
  204TIP3    H2  556   8.083   7.479   3.404
  205TIP3   OH2  557   3.218   4.475   4.665
  205TIP3    H1  558   3.244   4.567   4.661
  205TIP3    H2  559   3.130   4.477   4.703
  206TIP3   OH2  560   2.161   3.401   4.791
  206TIP3    H1  561   2.121   3.461   4.728
  206TIP3    H2  562   2.254   3.399   4.768
  207TIP3   OH2  563   0.460   4.512   4.078
  207TIP3    H1  564   0.469   4.417   4.090
  207TIP3    H2  565   0.365   4.527   4.077
  208TIP3   OH2  566   3.520   3.464   6.663
  208TIP3    H1  567   3.500   3.371   6.665
  208TIP3    H2  568   3.612   3.470   6.688
  209TIP3   OH2  569   2.402   3.005   1.865
  209TIP3    H1  570   2.326   3.051   1.901
  209TIP3    H2  571   2.465   3.004   1.937
  210TIP3   OH2  572   6.706   5.957   5.150
  210TIP3    H1  573   6.623   5.966   5.104
  210TIP3    H2  574   6.691   6.000   5.234
  211TIP3   OH2  575   5.711   6.251   0.822
  211TIP3    H1  576   5.699   6.335   0.779
  211TIP3    H2  577   5.634   6.200   0.798
  212TIP3   OH2  578   4.829   6.586   4.454
  212TIP3    H1  579   4.881   6.506   4.444
  212TIP3    H2  580   4.879   6.653   4.406
  213TIP3   OH2  581   1.144   5.547   4.808
  213TIP3    H1  582   1.097   5.546   4.725
  213TIP3    H2  583   1.175   5.637   4.819
  214TIP3   OH2  584   0.529   3.196   6.315
  214TIP3    H1  585   0.603   3.216   6.372
  214TIP3    H2  586   0.490   3.117   6.352
  215TIP3   OH2  587   4.118   5.099   4.643
  215TIP3    H1  588   4.182   5.028   4.652
  215TIP3    H2  589   4.147   5.166   4.705
  216TIP3   OH2  590   8.240   2.890   0.662
  216TIP3    H1  591   8.239   2.969   0.717
  216TIP3    H2  592   8.333   2.872   0.648
  217TIP3   OH2  593   8.224   5.855   2.294
  217TIP3    H1  594   8.168   5.859   2.216
  217TIP3    H2  595   8.307   5.821   2.262
  218TIP3   OH2  596   5.589   6.235   2.992
  218TIP3    H1  597   5.509   6.197   3.029
  218TIP3    H2  598   5.630   6.163   2.946
  219TIP3   OH2  599   1.489   7.471   0.566
  219TIP3    H1  600   1.437   7.398   0.601
  219TIP3    H2  601   1.578   7.436   0.559
  220TIP3   OH2  602   0.163   1.077   1.605
  220TIP3    H1  603   0.247   1.040   1.632
  220TIP3    H2  604   0.184   1.164   1.574
  221TIP3   OH2  605   2.680   3.317   3.077
  221TIP3    H1  606   2.719   3.356   2.999
  221TIP3    H2  607   2.712   3.371   3.149
  222TIP3   OH2  608   2.973   0.884   1.509
  222TIP3    H1  609   3.033   0.895   1.436
  222TIP3    H2  610   2.946   0.974   1.530
  223TIP3   OH2  611   6.238   2.159   3.260
  223TIP3    H1  612   6.150   2.196   3.262
  223TIP3    H2  613   6.293   2.228   3.297
  224TIP3   OH2  614   0.877   7.441   2.688
  224TIP3    H1  615   0.910   7.454   2.599
  224TIP3    H2  616   0.910   7.517   2.737
  225TIP3   OH2  617   6.246   4.863   4.370
  225TIP3    H1  618   6.277   4.824   4.452
  225TIP3    H2  619   6.151   4.869   4.381
  226TIP3   OH2  620   8.095   5.074   3.728
  226TIP3    H1  621   8.158   5.007   3.702
  226TIP3    H2  622   8.102   5.141   3.660
  227TIP3   OH2  623   3.100   0.211   6.338
  227TIP3    H1  624   3.161   0.285   6.347
  227TIP3    H2  625   3.126   0.168   6.257
  228TIP3   OH2  626   5.802   1.513   6.165
  228TIP3    H1  627   5.798   1.500   6.260
  228TIP3    H2  628   5.739   1.583   6.148
  229TIP3   OH2  629   4.671   4.166   5.618
  229TIP3    H1  630   4.750   4.161   5.672
  229TIP3    H2  631   4.617   4.234   5.659
  230TIP3   OH2  632   0.511   5.223   2.326
  230TIP3    H1  633   0.484   5.135   2.350
  230TIP3    H2  634   0.564   5.212   2.247
  231TIP3   OH2  635   4.176   4.490   5.877
  231TIP3    H1  636   4.138   4.449   5.799
  231TIP3    H2  637   4.229   4.421   5.917
  232TIP3   OH2  638   6.575   0.444   1.189
  232TIP3    H1  639   6.481   0.429   1.185
  232TIP3    H2  640   6.584   0.538   1.197
  233TIP3   OH2  641   2.242   4.649   0.808
  233TIP3    H1  642   2.182   4.581   0.838
  233TIP3    H2  643   2.326   4.625   0.847
  234TIP3   OH2  644   0.335   2.314   2.055
  234TIP3    H1  645   0.287   2.378   2.002
  234TIP3    H2  646   0.424   2.317   2.021
  235TIP3   OH2  647   2.104   3.054   4.556
  235TIP3    H1  648   2.091   3.088   4.645
  235TIP3    H2  649   2.065   2.966   4.558
  236TIP3   OH2  650   4.988   1.649   3.809
  236TIP3    H1  651   4.971   1.736   3.774
  236TIP3    H2  652   5.062   1.617   3.757
  237TIP3   OH2  653   3.498   5.792   4.485
  237TIP3    H1  654   3.561   5.726   4.456
  237TIP3    H2  655   3.421   5.776   4.431
  238TIP3   OH2  656   7.958   4.775   4.499
  238TIP3    H1  657   8.009   4.830   4.559
  238TIP3    H2  658   7.876   4.758   4.546
  239TIP3   OH2  659   7.020   5.659   1.219
  239TIP3    H1  660   6.940   5.670   1.269
  239TIP3    H2  661   7.090   5.676   1.282
  240TIP3   OH2  662   3.458   7.552   6.738
  240TIP3    H1  663   3.371   7.513   6.747
  240TIP3    H2  664   3.441   7.643   6.715
  241TIP3   OH2  665   4.035   1.778   0.925
  241TIP3    H1  666   3.976   1.853   0.920
  241TIP3    H2  667   4.098   1.801   0.993
  242TIP3   OH2  668   0.588   6.267   2.894
  242TIP3    H1  669   0.612   6.186   2.851
  242TIP3    H2  670   0.663   6.289   2.950
  243TIP3   OH2  671   3.742   3.954   2.056
  243TIP3    H1  672   3.837   3.962   2.047
  243TIP3    H2  673   3.726   3.955   2.150
  244TIP3   OH2  674   4.841   7.349   6.600
  244TIP3    H1  675   4.785   7.391   6.666
  244TIP3    H2  676   4.913   7.310   6.651
  245TIP3   OH2  677   6.735   5.195   2.793
  245TIP3    H1  678   6.769   5.244   2.718
  245TIP3    H2  679   6.640   5.210   2.790
  246TIP3   OH2  680   2.218   7.243   1.234
  246TIP3    H1  681   2.190   7.237   1.142
  246TIP3    H2  682   2.136   7.235   1.283
  247TIP3   OH2  683   7.280   6.129   3.810
  247TIP3    H1  684   7.283   6.146   3.904
  247TIP3    H2  685   7.304   6.036   3.802
  248TIP3   OH2  686   8.005   0.122   1.346
  248TIP3    H1  687   7.942   0.055   1.371
  248TIP3    H2  688   8.091   0.083   1.363
  249TIP3   OH2  689   5.165   2.234   3.441
  249TIP3    H1  690   5.171   2.247   3.346
  249TIP3    H2  691   5.076   2.202   3.455
  250TIP3   OH2  692   2.821   1.279   3.136
  250TIP3    H1  693   2.895   1.269   3.076
  250TIP3    H2  694   2.862   1.277   3.223
  251TIP3   OH2  695   4.422   1.846   5.644
  251TIP3    H1  696   4.328   1.836   5.628
  251TIP3    H2  697   4.443   1.932   5.606
  252TIP3   OH2  698   3.054   6.862   0.837
  252TIP3    H1  699   3.046   6.772   0.806
  252TIP3    H2  700   3.069   6.853   0.932
  253TIP3   OH2  701   7.719   3.892   3.006
  253TIP3    H1  702   7.651   3.828   2.986
  253TIP3    H2  703   7.738   3.934   2.922
  254TIP3   OH2  704   0.346   6.532   1.241
  254TIP3    H1  705   0.305   6.614   1.214
  254TIP3    H2  706   0.416   6.558   1.301
  255TIP3   OH2  707   7.908   1.587   5.838
  255TIP3    H1  708   7.897   1.628   5.924
  255TIP3    H2  709   7.989   1.536   5.847
  256TIP3   OH2  710   7.806   5.820   5.220
  256TIP3    H1  711   7.744   5.793   5.288
  256TIP3    H2  712   7.792   5.914   5.210
  257TIP3   OH2  713   4.847   3.136   6.064
  257TIP3    H1  714   4.890   3.056   6.033
  257TIP3    H2  715   4.880   3.204   6.005
  258TIP3   OH2  716   4.269   6.380   2.358
  258TIP3    H1  717   4.219   6.449   2.314
  258TIP3    H2  718   4.271   6.308   2.295
  259TIP3   OH2  719   1.211   7.643   4.576
  259TIP3    H1  720   1.225   7.638   4.670
  259TIP3    H2  721   1.152   7.570   4.556
  260TIP3   OH2  722   3.937   2.940   2.495
  260TIP3    H1  723   3.892   3.025   2.489
  260TIP3    H2  724   3.890   2.885   2.432
  261TIP3   OH2  725   1.691   0.289   0.193
  261TIP3    H1  726   1.632   0.293   0.118
  261TIP3    H2  727   1.635   0.265   0.267
  262TIP3   OH2  728   7.503   5.689   2.178
  262TIP3    H1  729   7.442   5.619   2.198
  262TIP3    H2  730   7.448   5.766   2.162
  263TIP3   OH2  731   7.012   5.884   5.578
  263TIP3    H1  732   6.919   5.863   5.591
  263TIP3    H2  733   7.044   5.814   5.521
  264TIP3   OH2  734   6.163   1.267   2.719
  264TIP3    H1  735   6.085   1.291   2.769
  264TIP3    H2  736   6.226   1.238   2.785
  265TIP3   OH2  737   2.647   4.027   5.457
  265TIP3    H1  738   2.605   3.943   5.476
  265TIP3    H2  739   2.576   4.092   5.466
  266TIP3   OH2  740   6.332   2.695   6.786
  266TIP3    H1  741   6.321   2.763   6.720
  266TIP3    H2  742   6.354   2.616   6.736
  267TIP3   OH2  743   1.191   7.170   5.262
  267TIP3    H1  744   1.260   7.109   5.286
  267TIP3    H2  745   1.151   7.196   5.345
  268TIP3   OH2  746   0.542   5.838   4.274
  268TIP3    H1  747   0.465   5.844   4.218
  268TIP3    H2  748   0.566   5.746   4.272
  269TIP3   OH2  749   1.169   4.077   5.380
  269TIP3    H1  750   1.185   4.009   5.445
  269TIP3    H2  751   1.161   4.158   5.430
  270TIP3   OH2  752   1.972   5.001   4.021
  270TIP3    H1  753   1.880   4.980   4.036
  270TIP3    H2  754   2.003   4.933   3.961
  271TIP3   OH2  755   1.950   4.810   5.081
  271TIP3    H1  756   1.859   4.838   5.074
  271TIP3    H2  757   1.990   4.835   4.998
  272TIP3   OH2  758   2.598   4.386   0.506
  272TIP3    H1  759   2.541   4.436   0.565
  272TIP3    H2  760   2.660   4.343   0.564
  273TIP3   OH2  761   4.777   6.612   5.268
  273TIP3    H1  762   4.685   6.608   5.243
  273TIP3    H2  763   4.776   6.626   5.363
  274TIP3   OH2  764   7.085   1.239   0.797
  274TIP3    H1  765   7.129   1.309   0.749
  274TIP3    H2  766   7.010   1.281   0.838
  275TIP3   OH2  767   3.457   4.871   5.875
  275TIP3    H1  768   3.527   4.807   5.872
  275TIP3    H2  769   3.500   4.955   5.859
  276TIP3   OH2  770   3.601   5.915   1.258
  276TIP3    H1  771   3.693   5.938   1.252
  276TIP3    H2  772   3.556   5.982   1.206
  277TIP3   OH2  773   2.091   5.717   5.831
  277TIP3    H1  774   2.138   5.683   5.755
  277TIP3    H2  775   2.034   5.785   5.796
  278TIP3   OH2  776   6.724   2.458   6.070
  278TIP3    H1  777   6.727   2.369   6.034
  278TIP3    H2  778   6.815   2.484   6.077
  279TIP3   OH2  779   0.582   5.354   6.022
  279TIP3    H1  780   0.515   5.419   5.999
  279TIP3    H2  781   0.537   5.270   6.011
  280TIP3   OH2  782   1.653   2.290   3.019
  280TIP3    H1  783   1.599   2.347   3.074
  280TIP3    H2  784   1.619   2.302   2.930
  281TIP3   OH2  785   7.304   2.392   2.525
  281TIP3    H1  786   7.292   2.323   2.590
  281TIP3    H2  787   7.272   2.355   2.443
  282TIP3   OH2  788   4.183   5.725   0.069
  282TIP3    H1  789   4.244   5.725   0.142
  282TIP3    H2  790   4.152   5.635   0.063
  283TIP3   OH2  791   6.431   4.051   6.580
  283TIP3    H1  792   6.453   4.090   6.665
  283TIP3    H2  793   6.502   3.990   6.563
  284TIP3   OH2  794   0.161   3.245   3.855
  284TIP3    H1  795   0.137   3.161   3.895
  284TIP3    H2  796   0.225   3.222   3.788
  285TIP3   OH2  797   6.439   2.195   4.300
  285TIP3    H1  798   6.393   2.272   4.266
  285TIP3    H2  799   6.372   2.127   4.305
  286TIP3   OH2  800   3.289   3.551   4.718
  286TIP3    H1  801   3.364   3.502   4.685
  286TIP3    H2  802   3.281   3.626   4.660
  287TIP3   OH2  803   3.597   6.730   3.751
  287TIP3    H1  804   3.658   6.778   3.806
  287TIP3    H2  805   3.592   6.782   3.670
  288TIP3   OH2  806   1.404   0.640   4.381
  288TIP3    H1  807   1.403   0.559   4.331
  288TIP3    H2  808   1.473   0.627   4.446
  289TIP3   OH2  809   1.479   0.291   2.869
  289TIP3    H1  810   1.408   0.312   2.929
  289TIP3    H2  811   1.536   0.232   2.919
  290TIP3   OH2  812   7.603   3.798   3.832
  290TIP3    H1  813   7.679   3.829   3.782
  290TIP3    H2  814   7.628   3.811   3.923
  291TIP3   OH2  815   4.960   7.466   0.600
  291TIP3    H1  816   5.042   7.493   0.642
  291TIP3    H2  817   4.967   7.371   0.593
  292TIP3   OH2  818   1.816   6.478   3.215
  292TIP3    H1  819   1.746   6.531   3.252
  292TIP3    H2  820   1.853   6.431   3.290
  293TIP3   OH2  821   5.915   2.066   6.628
  293TIP3    H1  822   5.822   2.089   6.629
  293TIP3    H2  823   5.917   1.979   6.587
  294TIP3   OH2  824   6.641   7.018   5.794
  294TIP3    H1  825   6.662   7.020   5.700
  294TIP3    H2  826   6.706   7.076   5.834
  295TIP3   OH2  827   1.605   5.078   2.596
  295TIP3    H1  828   1.557   5.119   2.525
  295TIP3    H2  829   1.541   5.069   2.667
  296TIP3   OH2  830   2.060   6.272   5.230
  296TIP3    H1  831   2.048   6.187   5.272
  296TIP3    H2  832   2.124   6.317   5.285
  297TIP3   OH2  833   1.861   0.323   2.175
  297TIP3    H1  834   1.790   0.326   2.240
  297TIP3    H2  835   1.827   0.373   2.101
  298TIP3   OH2  836   7.745   5.309   5.445
  298TIP3    H1  837   7.807   5.245   5.410
  298TIP3    H2  838   7.800   5.380   5.477
  299TIP3   OH2  839   1.756   1.314   4.656
  299TIP3    H1  840   1.674   1.328   4.703
  299TIP3    H2  841   1.825   1.323   4.722
  300TIP3   OH2  842   7.842   4.577   1.999
  300TIP3    H1  843   7.817   4.656   2.047
  300TIP3    H2  844   7.908   4.536   2.054
  301TIP3   OH2  845   7.729   1.725   4.187
  301TIP3    H1  846   7.776   1.658   4.137
  301TIP3    H2  847   7.645   1.733   4.142
  302TIP3   OH2  848   1.466   3.371   1.558
  302TIP3    H1  849   1.474   3.361   1.653
  302TIP3    H2  850   1.549   3.411   1.532
  303TIP3   OH2  851   8.199   4.400   4.436
  303TIP3    H1  852   8.292   4.420   4.427
  303TIP3    H2  853   8.187   4.377   4.528
  304TIP3   OH2  854   4.380   5.685   4.664
  304TIP3    H1  855   4.380   5.668   4.569
  304TIP3    H2  856   4.473   5.691   4.686
  305TIP3   OH2  857   2.276   7.065   0.580
  305TIP3    H1  858   2.204   7.101   0.528
  305TIP3    H2  859   2.296   7.134   0.644
  306TIP3   OH2  860   2.235   5.640   1.485
  306TIP3    H1  861   2.222   5.591   1.566
  306TIP3    H2  862   2.330   5.647   1.476
  307TIP3   OH2  863   5.600   1.717   2.448
  307TIP3    H1  864   5.571   1.792   2.397
  307TIP3    H2  865   5.646   1.662   2.385
  308TIP3   OH2  866   7.494   6.954   1.341
  308TIP3    H1  867   7.470   7.032   1.291
  308TIP3    H2  868   7.588   6.944   1.328
  309TIP3   OH2  869   4.890   1.235   4.963
  309TIP3    H1  870   4.985   1.228   4.976
  309TIP3    H2  871   4.864   1.147   4.935
  310TIP3   OH2  872   3.368   7.629   3.861
  310TIP3    H1  873   3.299   7.691   3.883
  310TIP3    H2  874   3.448   7.670   3.893
  311TIP3   OH2  875   3.259   4.579   5.059
  311TIP3    H1  876   3.235   4.507   5.118
  311TIP3    H2  877   3.267   4.655   5.117
  312TIP3   OH2  878   0.026   0.949   3.901
  312TIP3    H1  879   0.024   0.883   3.833
  312TIP3    H2  880  -0.061   0.946   3.941
  313TIP3   OH2  881   4.968   6.530   2.939
  313TIP3    H1  882   4.974   6.526   2.843
  313TIP3    H2  883   4.932   6.617   2.956
  314TIP3   OH2  884   1.504   6.104   4.979
  314TIP3    H1  885   1.465   6.185   5.012
  314TIP3    H2  886   1.519   6.121   4.886
  315TIP3   OH2  887   0.537   3.182   5.163
  315TIP3    H1  888   0.515   3.099   5.121
  315TIP3    H2  889   0.454   3.215   5.197
  316TIP3   OH2  890   6.228   6.666   1.208
  316TIP3    H1  891   6.148   6.701   1.247
  316TIP3    H2  892   6.296   6.683   1.273
  317TIP3   OH2  893   4.162   6.730   0.165
  317TIP3    H1  894   4.113   6.783   0.101
  317TIP3    H2  895   4.103   6.723   0.240
  318TIP3   OH2  896   0.103   3.626   3.646
  318TIP3    H1  897   0.045   3.639   3.571
  318TIP3    H2  898   0.159   3.552   3.621
  319TIP3   OH2  899   5.601   1.160   4.125
  319TIP3    H1  900   5.684   1.128   4.158
  319TIP3    H2  901   5.587   1.243   4.170
  320TIP3   OH2  902   4.721   7.025   4.670
  320TIP3    H1  903   4.690   6.988   4.588
  320TIP3    H2  904   4.789   7.088   4.645
  321TIP3   OH2  905   6.326   7.050   5.528
  321TIP3    H1  906   6.420   7.056   5.540
  321TIP3    H2  907   6.314   6.989   5.456
  322TIP3   OH2  908   3.661   2.526   5.723
  322TIP3    H1  909   3.692   2.588   5.657
  322TIP3    H2  910   3.643   2.446   5.674
  323TIP3   OH2  911   5.200   4.695   2.071
  323TIP3    H1  912   5.255   4.621   2.044
  323TIP3    H2  913   5.165   4.730   1.989
  324TIP3   OH2  914   6.222   6.476   3.314
  324TIP3    H1  915   6.280   6.540   3.274
  324TIP3    H2  916   6.265   6.392   3.299
  325TIP3   OH2  917   4.913   5.176   4.849
  325TIP3    H1  918   4.947   5.265   4.856
  325TIP3    H2  919   4.818   5.185   4.854
  326TIP3   OH2  920   7.918   2.283   0.989
  326TIP3    H1  921   7.850   2.287   1.056
  326TIP3    H2  922   7.993   2.328   1.028
  327TIP3   OH2  923   4.870   4.549   6.456
  327TIP3    H1  924   4.950   4.503   6.430
  327TIP3    H2  925   4.888   4.641   6.439
  328TIP3   OH2  926  -0.044   0.778   2.352
  328TIP3    H1  927   0.009   0.855   2.332
  328TIP3    H2  928   0.005   0.731   2.418
  329TIP3   OH2  929   8.032   6.592   0.923
  329TIP3    H1  930   8.026   6.516   0.866
  329TIP3    H2  931   7.982   6.568   1.001
  330TIP3   OH2  932   1.799   2.956   4.038
  330TIP3    H1  933   1.721   2.980   3.987
  330TIP3    H2  934   1.854   2.909   3.976
  331TIP3   OH2  935   5.071   1.391   3.268
  331TIP3    H1  936   5.089   1.479   3.235
  331TIP3    H2  937   5.152   1.363   3.309
  332TIP3   OH2  938   6.747   4.394   1.471
  332TIP3    H1  939   6.763   4.456   1.543
  332TIP3    H2  940   6.785   4.312   1.502
  333TIP3   OH2  941   7.349   5.360   1.613
  333TIP3    H1  942   7.436   5.386   1.644
  333TIP3    H2  943   7.300   5.442   1.610
  334TIP3   OH2  944   1.875   2.169   2.902
  334TIP3    H1  945   1.806   2.233   2.917
  334TIP3    H2  946   1.832   2.084   2.915
  335TIP3   OH2  947   4.111   6.006   6.180
  335TIP3    H1  948   4.055   6.053   6.242
  335TIP3    H2  949   4.152   6.075   6.129
  336TIP3   OH2  950   1.223   7.439   3.606
  336TIP3    H1  951   1.268   7.486   3.677
  336TIP3    H2  952   1.130   7.442   3.630
  337TIP3   OH2  953   5.545   4.896   5.295
  337TIP3    H1  954   5.623   4.850   5.266
  337TIP3    H2  955   5.491   4.829   5.338
  338TIP3   OH2  956   7.374   1.627   5.082
  338TIP3    H1  957   7.280   1.610   5.087
  338TIP3    H2  958   7.405   1.613   5.172
  339TIP3   OH2  959   5.821   7.292   4.876
  339TIP3    H1  960   5.916   7.293   4.859
  339TIP3    H2  961   5.784   7.345   4.806
  340TIP3   OH2  962   6.390   6.562   2.819
  340TIP3    H1  963   6.341   6.487   2.784
  340TIP3    H2  964   6.329   6.636   2.811
  341TIP3   OH2  965   4.074   6.647   3.343
  341TIP3    H1  966   4.121   6.641   3.260
  341TIP3    H2  967   4.108   6.725   3.385
  342TIP3   OH2  968   7.162   7.366   1.823
  342TIP3    H1  969   7.216   7.364   1.901
  342TIP3    H2  970   7.125   7.278   1.817
  343TIP3   OH2  971   3.937   3.931   3.678
  343TIP3    H1  972   3.901   3.999   3.735
  343TIP3    H2  973   3.913   3.958   3.589
  344TIP3   OH2  974   3.898   3.302   6.419
  344TIP3    H1  975   3.929   3.377   6.471
  344TIP3    H2  976   3.912   3.226   6.475
  345TIP3   OH2  977   5.174   1.710   0.387
  345TIP3    H1  978   5.083   1.736   0.406
  345TIP3    H2  979   5.175   1.615   0.401
  346TIP3   OH2  980   5.571   2.501   5.769
  346TIP3    H1  981   5.655   2.461   5.745
  346TIP3    H2  982   5.575   2.590   5.732
  347TIP3   OH2  983   6.937   5.898   2.190
  347TIP3    H1  984   7.029   5.873   2.179
  347TIP3    H2  985   6.896   5.876   2.107
  348TIP3   OH2  986   1.875   6.251   5.012
  348TIP3    H1  987   1.919   6.246   5.097
  348TIP3    H2  988   1.788   6.285   5.031
  349TIP3   OH2  989   3.135   2.732   2.376
  349TIP3    H1  990   3.051   2.743   2.330
  349TIP3    H2  991   3.184   2.811   2.354
  350TIP3   OH2  992   6.739   5.893   2.512
  350TIP3    H1  993   6.702   5.918   2.597
  350TIP3    H2  994   6.833   5.897   2.524
  351TIP3   OH2  995   5.570   3.538   5.023
  351TIP3    H1  996   5.574   3.633   5.032
  351TIP3    H2  997   5.661   3.510   5.027
  352TIP3   OH2  998   5.048   5.989   4.870
  352TIP3    H1  999   4.952   5.991   4.867
  352TIP3    H2 1000   5.068   5.979   4.963
  353TIP3   OH2 1001   6.392   5.631   1.508
  353TIP3    H1 1002   6.397   5.722   1.479
  353TIP3    H2 1003   6.300   5.608   1.500
  354TIP3   OH2 1004   0.262   2.992   6.603
  354TIP3    H1 1005   0.292   3.082   6.618
  354TIP3    H2 1006   0.198   2.977   6.672
  355TIP3   OH2 1007   4.731   2.570   2.042
  355TIP3    H1 1008   4.655   2.517   2.021
  355TIP3    H2 1009   4.728   2.643   1.981
  356TIP3   OH2 1010   7.123   2.668   1.613
  356TIP3    H1 1011   7.082   2.678   1.527
  356TIP3    H2 1012   7.216   2.688   1.598
  357TIP3   OH2 1013   2.806   3.819   3.619
  357TIP3    H1 1014   2.731   3.811   3.560
  357TIP3    H2 1015   2.881   3.791   3.567
  358TIP3   OH2 1016   5.041   1.701   6.619
  358TIP3    H1 1017   5.136   1.701   6.632
  358TIP3    H2 1018   5.010   1.623   6.665
  359TIP3   OH2 1019   2.448   2.117   3.143
  359TIP3    H1 1020   2.373   2.105   3.201
  359TIP3    H2 1021   2.471   2.029   3.115
  360TIP3   OH2 1022   1.074   1.449   3.869
  360TIP3    H1 1023   1.131   1.462   3.793
  360TIP3    H2 1024   0.987   1.475   3.839
  361TIP3   OH2 1025   4.132   6.191   0.965
  361TIP3    H1 1026   4.060   6.233   1.012
  361TIP3    H2 1027   4.126   6.226   0.876
  362TIP3   OH2 1028   4.753   6.830   5.610
  362TIP3    H1 1029   4.713   6.743   5.617
  362TIP3    H2 1030   4.724   6.863   5.525
  363TIP3   OH2 1031   0.242   6.752   1.560
  363TIP3    H1 1032   0.149   6.732   1.546
  363TIP3    H2 1033   0.287   6.670   1.538
  364TIP3   OH2 1034   7.967   5.770   3.974
  364TIP3    H1 1035   7.962   5.785   4.068
  364TIP3    H2 1036   8.034   5.831   3.943
  365TIP3   OH2 1037   1.075   3.589   1.969
  365TIP3    H1 1038   0.988   3.606   1.934
  365TIP3    H2 1039   1.071   3.620   2.060
  366TIP3   OH2 1040   4.834   5.948   4.654
  366TIP3    H1 1041   4.802   6.029   4.693
  366TIP3    H2 1042   4.783   5.938   4.574
  367TIP3   OH2 1043   1.384   0.949   0.185
  367TIP3    H1 1044   1.401   1.038   0.156
  367TIP3    H2 1045   1.441   0.895   0.130
  368TIP3   OH2 1046   5.816   1.809   3.855
  368TIP3    H1 1047   5.904   1.847   3.858
  368TIP3    H2 1048   5.831   1.715   3.852
  369TIP3   OH2 1049   6.271   2.816   4.632
  369TIP3    H1 1050   6.340   2.879   4.653
  369TIP3    H2 1051   6.191   2.868   4.633
  370TIP3   OH2 1052   7.173   1.378   0.541
  370TIP3    H1 1053   7.241   1.445   0.542
  370TIP3    H2 1054   7.221   1.296   0.529
  371TIP3   OH2 1055   0.503   4.055   6.274
  371TIP3    H1 1056   0.551   3.991   6.220
  371TIP3    H2 1057   0.552   4.058   6.356
  372TIP3   OH2 1058   6.588   7.759   4.527
  372TIP3    H1 1059   6.551   7.844   4.552
  372TIP3    H2 1060   6.534   7.729   4.454
  373TIP3   OH2 1061   6.513   4.254   5.045
  373TIP3    H1 1062   6.555   4.311   5.110
  373TIP3    H2 1063   6.555   4.277   4.962
  374TIP3   OH2 1064   4.050   2.522   3.373
  374TIP3    H1 1065   4.066   2.615   3.391
  374TIP3    H2 1066   4.060   2.514   3.278
  375TIP3   OH2 1067   5.952   2.693   4.618
  375TIP3    H1 1068   6.031   2.727   4.577
  375TIP3    H2 1069   5.920   2.626   4.557
  376TIP3   OH2 1070   0.274   4.994   6.674
  376TIP3    H1 1071   0.287   5.034   6.760
  376TIP3    H2 1072   0.205   5.046   6.633
  377TIP3   OH2 1073   1.978   1.314   6.664
  377TIP3    H1 1074   1.963   1.336   6.572
  377TIP3    H2 1075   2.068   1.281   6.667
  378TIP3   OH2 1076   5.257   3.763   0.679
  378TIP3    H1 1077   5.302   3.847   0.679
  378TIP3    H2 1078   5.253   3.738   0.586
  379TIP3   OH2 1079   0.408   7.431   6.636
  379TIP3    H1 1080   0.403   7.470   6.550
  379TIP3    H2 1081   0.342   7.476   6.688
  380TIP3   OH2 1082   2.769   7.154   5.097
  380TIP3    H1 1083   2.692   7.207   5.078
  380TIP3    H2 1084   2.754   7.072   5.049
  381TIP3   OH2 1085   1.155   1.461   2.062
  381TIP3    H1 1086   1.138   1.434   1.971
  381TIP3    H2 1087   1.221   1.399   2.093
  382TIP3   OH2 1088   7.787   2.117   6.485
  382TIP3    H1 1089   7.811   2.026   6.467
  382TIP3    H2 1090   7.845   2.168   6.428
  383TIP3   OH2 1091   2.976   0.101   3.281
  383TIP3    H1 1092   3.024   0.023   3.309
  383TIP3    H2 1093   3.041   0.153   3.234
  384TIP3   OH2 1094   7.646   5.740   2.433
  384TIP3    H1 1095   7.723   5.710   2.385
  384TIP3    H2 1096   7.574   5.734   2.370
  385TIP3   OH2 1097   0.439   3.555   2.959
  385TIP3    H1 1098   0.361   3.611   2.955
  385TIP3    H2 1099   0.501   3.595   2.898
  386TIP3   OH2 1100   6.176   0.344   3.747
  386TIP3    H1 1101   6.102   0.285   3.760
  386TIP3    H2 1102   6.152   0.398   3.672
  387TIP3   OH2 1103   5.788   6.819   4.577
  387TIP3    H1 1104   5.719   6.771   4.622
  387TIP3    H2 1105   5.831   6.754   4.521
  388TIP3   OH2 1106   3.270   6.362   3.574
  388TIP3    H1 1107   3.330   6.405   3.514
  388TIP3    H2 1108   3.185   6.402   3.556
  389TIP3   OH2 1109   3.156   1.106   5.872
  389TIP3    H1 1110   3.222   1.058   5.820
  389TIP3    H2 1111   3.113   1.163   5.808
  390TIP3   OH2 1112   1.589   0.091   4.528
  390TIP3    H1 1113   1.515   0.030   4.525
  390TIP3    H2 1114   1.657   0.050   4.474
  391TIP3   OH2 1115   2.343   5.969   1.081
  391TIP3    H1 1116   2.256   5.943   1.110
  391TIP3    H2 1117   2.355   5.922   0.998
  392TIP3   OH2 1118   2.397   0.163   0.940
  392TIP3    H1 1119   2.458   0.232   0.913
  392TIP3    H2 1120   2.338   0.153   0.865
  393TIP3   OH2 1121   7.081   7.707   2.475
  393TIP3    H1 1122   7.118   7.746   2.554
  393TIP3    H2 1123   7.034   7.630   2.506
  394TIP3   OH2 1124   2.556   0.969   6.777
  394TIP3    H1 1125   2.615   0.907   6.733
  394TIP3    H2 1126   2.504   0.915   6.837
  395TIP3   OH2 1127   3.912   4.588   3.853
  395TIP3    H1 1128   3.838   4.548   3.898
  395TIP3    H2 1129   3.957   4.638   3.921
  396TIP3   OH2 1130   5.526   4.160   3.529
  396TIP3    H1 1131   5.578   4.191   3.456
  396TIP3    H2 1132   5.539   4.225   3.598
  397TIP3   OH2 1133   2.155   1.048   2.701
  397TIP3    H1 1134   2.151   1.004   2.786
  397TIP3    H2 1135   2.110   0.989   2.641
  398TIP3   OH2 1136   1.481   5.933   3.258
  398TIP3    H1 1137   1.566   5.960   3.223
  398TIP3    H2 1138   1.502   5.876   3.332
  399TIP3   OH2 1139   0.300   0.046   3.814
  399TIP3    H1 1140   0.215   0.008   3.836
  399TIP3    H2 1141   0.278   0.126   3.765
  400TIP3   OH2 1142   6.102   7.267   1.712
  400TIP3    H1 1143   6.190   7.232   1.729
  400TIP3    H2 1144   6.043   7.197   1.739
  401TIP3   OH2 1145   2.330   3.146   3.476
  401TIP3    H1 1146   2.357   3.202   3.403
  401TIP3    H2 1147   2.360   3.193   3.554
  402TIP3   OH2 1148   5.177   4.179   2.175
  402TIP3    H1 1149   5.239   4.175   2.102
  402TIP3    H2 1150   5.190   4.266   2.213
  403TIP3   OH2 1151   8.212   7.494   0.982
  403TIP3    H1 1152   8.208   7.588   0.964
  403TIP3    H2 1153   8.244   7.488   1.072
  404TIP3   OH2 1154   1.366   6.991   4.163
  404TIP3    H1 1155   1.353   7.069   4.217
  404TIP3    H2 1156   1.459   6.970   4.173
  405TIP3   OH2 1157   5.536   3.284   0.617
  405TIP3    H1 1158   5.630   3.280   0.633
  405TIP3    H2 1159   5.524   3.363   0.564
  406TIP3   OH2 1160   4.410   7.100   6.258
  406TIP3    H1 1161   4.415   7.190   6.225
  406TIP3    H2 1162   4.455   7.049   6.191
  407TIP3   OH2 1163   2.718   2.545   4.387
  407TIP3    H1 1164   2.680   2.561   4.474
  407TIP3    H2 1165   2.684   2.460   4.361
  408TIP3   OH2 1166   8.066   6.057   2.413
  408TIP3    H1 1167   8.022   6.032   2.494
  408TIP3    H2 1168   8.132   5.989   2.399
  409TIP3   OH2 1169   2.653   2.971   5.304
  409TIP3    H1 1170   2.630   3.058   5.272
  409TIP3    H2 1171   2.654   2.980   5.400
  410TIP3   OH2 1172   5.709   2.498   3.914
  410TIP3    H1 1173   5.694   2.482   4.007
  410TIP3    H2 1174   5.700   2.411   3.874
  411TIP3   OH2 1175   5.748   1.319   5.933
  411TIP3    H1 1176   5.784   1.342   6.018
  411TIP3    H2 1177   5.738   1.224   5.936
  412TIP3   OH2 1178   1.007   0.403   4.914
  412TIP3    H1 1179   0.987   0.329   4.972
  412TIP3    H2 1180   0.947   0.472   4.942
  413TIP3   OH2 1181   7.923   2.297   3.720
  413TIP3    H1 1182   7.900   2.224   3.777
  413TIP3    H2 1183   7.953   2.366   3.780
  414TIP3   OH2 1184   3.980   0.311   6.692
  414TIP3    H1 1185   3.927   0.288   6.616
  414TIP3    H2 1186   4.044   0.240   6.700
  415TIP3   OH2 1187   4.051   6.472   2.948
  415TIP3    H1 1188   4.061   6.398   2.888
  415TIP3    H2 1189   4.010   6.434   3.025
  416TIP3   OH2 1190   7.359   0.719   6.567
  416TIP3    H1 1191   7.345   0.795   6.623
  416TIP3    H2 1192   7.387   0.650   6.627
  417TIP3   OH2 1193   6.021   4.514   3.338
  417TIP3    H1 1194   6.023   4.419   3.333
  417TIP3    H2 1195   6.078   4.543   3.267
  418TIP3   OH2 1196   2.515   4.813   2.680
  418TIP3    H1 1197   2.609   4.801   2.669
  418TIP3    H2 1198   2.489   4.870   2.607
  419TIP3   OH2 1199   7.893   6.266   6.568
  419TIP3    H1 1200   7.805   6.290   6.538
  419TIP3    H2 1201   7.883   6.178   6.604
  420TIP3   OH2 1202   4.941   0.683   2.636
  420TIP3    H1 1203   4.904   0.678   2.548
  420TIP3    H2 1204   4.870   0.717   2.690
  421TIP3   OH2 1205   2.745   2.730   0.445
  421TIP3    H1 1206   2.763   2.696   0.533
  421TIP3    H2 1207   2.819   2.699   0.393
  422TIP3   OH2 1208   4.451   3.694   2.425
  422TIP3    H1 1209   4.417   3.719   2.339
  422TIP3    H2 1210   4.533   3.743   2.434
  423TIP3   OH2 1211   5.298   5.473   5.807
  423TIP3    H1 1212   5.249   5.478   5.725
  423TIP3    H2 1213   5.238   5.431   5.868
  424TIP3   OH2 1214   5.890   7.750   4.205
  424TIP3    H1 1215   5.912   7.823   4.147
  424TIP3    H2 1216   5.797   7.734   4.188
  425TIP3   OH2 1217   1.352   4.582   4.075
  425TIP3    H1 1218   1.351   4.535   4.158
  425TIP3    H2 1219   1.310   4.522   4.013
  426TIP3   OH2 1220   4.221   3.209   6.532
  426TIP3    H1 1221   4.284   3.141   6.507
  426TIP3    H2 1222   4.272   3.290   6.534
  427TIP3   OH2 1223   1.837   3.150   5.821
  427TIP3    H1 1224   1.816   3.224   5.764
  427TIP3    H2 1225   1.755   3.128   5.864
  428TIP3   OH2 1226   2.754   1.924   1.577
  428TIP3    H1 1227   2.730   1.924   1.484
  428TIP3    H2 1228   2.793   1.838   1.592
  429TIP3   OH2 1229   8.247   1.592   5.092
  429TIP3    H1 1230   8.295   1.584   5.174
  429TIP3    H2 1231   8.314   1.589   5.024
  430TIP3   OH2 1232   3.236   2.256   1.575
  430TIP3    H1 1233   3.237   2.265   1.670
  430TIP3    H2 1234   3.248   2.163   1.559
  431TIP3   OH2 1235   4.895   0.773   1.049
  431TIP3    H1 1236   4.941   0.722   1.115
  431TIP3    H2 1237   4.964   0.819   1.001
  432TIP3   OH2 1238   0.592   3.252   3.666
  432TIP3    H1 1239   0.609   3.244   3.572
  432TIP3    H2 1240   0.577   3.346   3.680
  433TIP3   OH2 1241   2.588   2.154   5.168
  433TIP3    H1 1242   2.663   2.147   5.226
  433TIP3    H2 1243   2.622   2.196   5.089
  434TIP3   OH2 1244   6.241   5.692   4.296
  434TIP3    H1 1245   6.219   5.753   4.225
  434TIP3    H2 1246   6.321   5.728   4.334
  435TIP3   OH2 1247   7.212   6.354   4.956
  435TIP3    H1 1248   7.230   6.375   5.048
  435TIP3    H2 1249   7.119   6.374   4.944
  436TIP3   OH2 1250   6.879   6.834   3.847
  436TIP3    H1 1251   6.969   6.851   3.874
  436TIP3    H2 1252   6.881   6.835   3.752
  437TIP3   OH2 1253   1.331   6.093   0.896
  437TIP3    H1 1254   1.405   6.092   0.957
  437TIP3    H2 1255   1.364   6.046   0.819
  438TIP3   OH2 1256   3.673   6.551   1.280
  438TIP3    H1 1257   3.637   6.579   1.364
  438TIP3    H2 1258   3.636   6.613   1.217
  439TIP3   OH2 1259   3.843   5.580   5.663
  439TIP3    H1 1260   3.825   5.573   5.756
  439TIP3    H2 1261   3.774   5.528   5.621
  440TIP3   OH2 1262   5.254   0.788   2.070
  440TIP3    H1 1263   5.333   0.746   2.038
  440TIP3    H2 1264   5.182   0.734   2.037
  441TIP3   OH2 1265   2.626   1.088   0.806
  441TIP3    H1 1266   2.588   1.004   0.779
  441TIP3    H2 1267   2.702   1.099   0.749
  442TIP3   OH2 1268   0.864   4.262   6.315
  442TIP3    H1 1269   0.947   4.288   6.273
  442TIP3    H2 1270   0.814   4.344   6.320
  443TIP3   OH2 1271   2.828   0.321   4.315
  443TIP3    H1 1272   2.797   0.365   4.235
  443TIP3    H2 1273   2.850   0.232   4.286
  444TIP3   OH2 1274   2.895   5.931   1.006
  444TIP3    H1 1275   2.817   5.946   0.953
  444TIP3    H2 1276   2.933   5.851   0.971
  445TIP3   OH2 1277   6.623   7.695   3.471
  445TIP3    H1 1278   6.589   7.646   3.546
  445TIP3    H2 1279   6.547   7.703   3.412
  446TIP3   OH2 1280   5.694   3.674   0.945
  446TIP3    H1 1281   5.781   3.712   0.960
  446TIP3    H2 1282   5.689   3.602   1.008
  447TIP3   OH2 1283   0.359   7.130   3.621
  447TIP3    H1 1284   0.358   7.188   3.544
  447TIP3    H2 1285   0.315   7.051   3.592
  448TIP3   OH2 1286   1.608   4.227   4.177
  448TIP3    H1 1287   1.542   4.159   4.160
  448TIP3    H2 1288   1.580   4.267   4.259
  449TIP3   OH2 1289   5.533   6.280   5.950
  449TIP3    H1 1290   5.619   6.274   5.992
  449TIP3    H2 1291   5.502   6.368   5.971
  450TIP3   OH2 1292   4.342   2.051   2.582
  450TIP3    H1 1293   4.285   1.981   2.613
  450TIP3    H2 1294   4.431   2.018   2.595
  451TIP3   OH2 1295   0.462   1.752   2.358
  451TIP3    H1 1296   0.534   1.691   2.339
  451TIP3    H2 1297   0.419   1.766   2.274
  452TIP3   OH2 1298   3.525   5.160   2.979
  452TIP3    H1 1299   3.605   5.124   3.018
  452TIP3    H2 1300   3.555   5.234   2.928
  453TIP3   OH2 1301   0.678   6.826   6.157
  453TIP3    H1 1302   0.639   6.824   6.245
  453TIP3    H2 1303   0.772   6.836   6.173
  454TIP3   OH2 1304   2.760   1.535   4.064
  454TIP3    H1 1305   2.689   1.483   4.102
  454TIP3    H2 1306   2.755   1.516   3.970
  455TIP3   OH2 1307   7.567   1.850   3.117
  455TIP3    H1 1308   7.601   1.938   3.132
  455TIP3    H2 1309   7.633   1.793   3.158
  456TIP3   OH2 1310   0.605   1.788   0.771
  456TIP3    H1 1311   0.633   1.750   0.688
  456TIP3    H2 1312   0.608   1.714   0.833
  457TIP3   OH2 1313   1.659   1.030   1.492
  457TIP3    H1 1314   1.684   1.089   1.564
  457TIP3    H2 1315   1.740   0.985   1.470
  458TIP3   OH2 1316   3.430   2.024   5.671
  458TIP3    H1 1317   3.474   2.098   5.713
  458TIP3    H2 1318   3.501   1.976   5.629
  459TIP3   OH2 1319   3.013   7.526   0.080
  459TIP3    H1 1320   2.943   7.479   0.034
  459TIP3    H2 1321   3.037   7.469   0.153
  460TIP3   OH2 1322   0.335   0.788   5.693
  460TIP3    H1 1323   0.377   0.735   5.626
  460TIP3    H2 1324   0.247   0.804   5.660
  461TIP3   OH2 1325   8.288   5.719   6.434
  461TIP3    H1 1326   8.197   5.726   6.464
  461TIP3    H2 1327   8.292   5.634   6.390
  462TIP3   OH2 1328   3.230   6.267   0.763
  462TIP3    H1 1329   3.262   6.186   0.804
  462TIP3    H2 1330   3.135   6.259   0.766
  463TIP3   OH2 1331   5.376   1.940   4.712
  463TIP3    H1 1332   5.291   1.907   4.685
  463TIP3    H2 1333   5.429   1.940   4.632
  464TIP3   OH2 1334   6.065   6.505   3.536
  464TIP3    H1 1335   5.974   6.511   3.508
  464TIP3    H2 1336   6.114   6.487   3.456
  465TIP3   OH2 1337   0.507   1.516   3.392
  465TIP3    H1 1338   0.501   1.498   3.299
  465TIP3    H2 1339   0.425   1.560   3.414
  466TIP3   OH2 1340   5.625   3.716   6.286
  466TIP3    H1 1341   5.594   3.641   6.236
  466TIP3    H2 1342   5.720   3.708   6.285
  467TIP3   OH2 1343   5.992   6.319   0.911
  467TIP3    H1 1344   6.059   6.275   0.858
  467TIP3    H2 1345   5.910   6.277   0.885
  468TIP3   OH2 1346   1.405   0.341   2.356
  468TIP3    H1 1347   1.355   0.349   2.437
  468TIP3    H2 1348   1.426   0.431   2.331
  469TIP3   OH2 1349   1.799   4.435   5.668
  469TIP3    H1 1350   1.757   4.483   5.739
  469TIP3    H2 1351   1.764   4.475   5.588
  470TIP3   OH2 1352   1.469   1.550   4.043
  470TIP3    H1 1353   1.449   1.524   3.954
  470TIP3    H2 1354   1.463   1.469   4.094
  471TIP3   OH2 1355   0.453   2.134   5.317
  471TIP3    H1 1356   0.537   2.177   5.301
  471TIP3    H2 1357   0.395   2.203   5.349
  472TIP3   OH2 1358   3.632   3.569   1.586
  472TIP3    H1 1359   3.696   3.560   1.656
  472TIP3    H2 1360   3.560   3.510   1.610
  473TIP3   OH2 1361   6.084   6.529   0.114
  473TIP3    H1 1362   6.048   6.454   0.160
  473TIP3    H2 1363   6.148   6.492   0.053
  474TIP3   OH2 1364   8.115   3.906   0.215
  474TIP3    H1 1365   8.055   3.855   0.271
  474TIP3    H2 1366   8.183   3.843   0.191
  475TIP3   OH2 1367   7.844   0.776   3.390
  475TIP3    H1 1368   7.842   0.863   3.352
  475TIP3    H2 1369   7.879   0.720   3.321
  476TIP3   OH2 1370   2.054   2.221   3.493
  476TIP3    H1 1371   2.013   2.288   3.439
  476TIP3    H2 1372   2.083   2.267   3.572
  477TIP3   OH2 1373   6.965   0.691   5.750
  477TIP3    H1 1374   7.045   0.639   5.761
  477TIP3    H2 1375   6.916   0.644   5.683
  478TIP3   OH2 1376   1.372   4.779   4.600
  478TIP3    H1 1377   1.360   4.874   4.599
  478TIP3    H2 1378   1.283   4.744   4.605
  479TIP3   OH2 1379   4.445   5.715   3.746
  479TIP3    H1 1380   4.415   5.626   3.725
  479TIP3    H2 1381   4.501   5.739   3.672
  480TIP3   OH2 1382   7.212   2.216   2.373
  480TIP3    H1 1383   7.216   2.121   2.369
  480TIP3    H2 1384   7.251   2.246   2.291
  481TIP3   OH2 1385   3.657   3.462   5.844
  481TIP3    H1 1386   3.596   3.409   5.791
  481TIP3    H2 1387   3.600   3.510   5.904
  482TIP3   OH2 1388   5.558   5.082   3.004
  482TIP3    H1 1389   5.644   5.117   2.981
  482TIP3    H2 1390   5.510   5.079   2.921
  483TIP3   OH2 1391   2.491   3.791   5.129
  483TIP3    H1 1392   2.412   3.808   5.178
  483TIP3    H2 1393   2.464   3.797   5.037
  484TIP3   OH2 1394   3.805   3.345   4.797
  484TIP3    H1 1395   3.890   3.385   4.816
  484TIP3    H2 1396   3.756   3.353   4.879
  485TIP3   OH2 1397   4.662   5.551   1.832
  485TIP3    H1 1398   4.660   5.501   1.913
  485TIP3    H2 1399   4.574   5.588   1.824
  486TIP3   OH2 1400   1.569   3.449   5.039
  486TIP3    H1 1401   1.514   3.372   5.051
  486TIP3    H2 1402   1.649   3.429   5.088
  487TIP3   OH2 1403   1.671   5.047   2.223
  487TIP3    H1 1404   1.605   5.116   2.236
  487TIP3    H2 1405   1.664   4.992   2.301
  488TIP3   OH2 1406   5.935   6.311   0.209
  488TIP3    H1 1407   5.939   6.216   0.223
  488TIP3    H2 1408   5.843   6.333   0.225
  489TIP3   OH2 1409   1.537   5.513   3.565
  489TIP3    H1 1410   1.450   5.487   3.597
  489TIP3    H2 1411   1.576   5.560   3.639
  490TIP3   OH2 1412   6.140   5.298   1.081
  490TIP3    H1 1413   6.175   5.386   1.070
  490TIP3    H2 1414   6.201   5.255   1.141
  491TIP3   OH2 1415   6.247   4.838   2.620
  491TIP3    H1 1416   6.182   4.820   2.687
  491TIP3    H2 1417   6.319   4.880   2.666
  492TIP3   OH2 1418   6.213   3.335   5.758
  492TIP3    H1 1419   6.174   3.299   5.837
  492TIP3    H2 1420   6.149   3.314   5.689
  493TIP3   OH2 1421   3.747   6.458   0.592
  493TIP3    H1 1422   3.828   6.462   0.541
  493TIP3    H2 1423   3.677   6.472   0.528
  494TIP3   OH2 1424   7.992   4.672   5.981
  494TIP3    H1 1425   8.012   4.586   5.943
  494TIP3    H2 1426   8.016   4.663   6.073
  495TIP3   OH2 1427   3.860   3.652   2.029
  495TIP3    H1 1428   3.900   3.679   2.111
  495TIP3    H2 1429   3.839   3.559   2.042
  496TIP3   OH2 1430   1.090   1.896   5.000
  496TIP3    H1 1431   1.124   1.807   4.987
  496TIP3    H2 1432   1.165   1.953   4.988
  497TIP3   OH2 1433   4.257   7.287   6.688
  497TIP3    H1 1434   4.243   7.224   6.617
  497TIP3    H2 1435   4.178   7.282   6.741
  498TIP3   OH2 1436   7.382   2.620   2.795
  498TIP3    H1 1437   7.322   2.637   2.722
  498TIP3    H2 1438   7.437   2.699   2.799
  499TIP3   OH2 1439   1.203   7.699   0.036
  499TIP3    H1 1440   1.280   7.643   0.026
  499TIP3    H2 1441   1.135   7.640   0.067
  500TIP3   OH2 1442   5.082   7.544   2.731
  500TIP3    H1 1443   5.131   7.619   2.698
  500TIP3    H2 1444   5.115   7.470   2.680
  501TIP3   OH2 1445   6.899   4.261   0.723
  501TIP3    H1 1446   6.845   4.300   0.655
  501TIP3    H2 1447   6.838   4.241   0.794
  502TIP3   OH2 1448   4.379   2.229   6.655
  502TIP3    H1 1449   4.315   2.299   6.671
  502TIP3    H2 1450   4.464   2.273   6.654
  503TIP3   OH2 1451   3.549   4.865   0.463
  503TIP3    H1 1452   3.486   4.793   0.466
  503TIP3    H2 1453   3.535   4.906   0.377
  504TIP3   OH2 1454   6.818   2.926   5.380
  504TIP3    H1 1455   6.811   2.831   5.378
  504TIP3    H2 1456   6.904   2.945   5.342
  505TIP3   OH2 1457   7.661   2.396   3.914
  505TIP3    H1 1458   7.711   2.422   3.991
  505TIP3    H2 1459   7.679   2.465   3.850
  506TIP3   OH2 1460   2.921   3.123   0.349
  506TIP3    H1 1461   2.973   3.045   0.332
  506TIP3    H2 1462   2.832   3.099   0.324
  507TIP3   OH2 1463   1.877   6.645   3.991
  507TIP3    H1 1464   1.803   6.673   4.045
  507TIP3    H2 1465   1.899   6.558   4.023
  508TIP3   OH2 1466   6.165   0.498   4.829
  508TIP3    H1 1467   6.191   0.426   4.887
  508TIP3    H2 1468   6.085   0.534   4.870
  509TIP3   OH2 1469   1.651   0.874   3.990
  509TIP3    H1 1470   1.684   0.903   4.075
  509TIP3    H2 1471   1.561   0.845   4.007
  510TIP3   OH2 1472   7.805   6.590   4.469
  510TIP3    H1 1473   7.776   6.654   4.405
  510TIP3    H2 1474   7.724   6.547   4.499
  511TIP3   OH2 1475   8.199   0.175   0.758
  511TIP3    H1 1476   8.230   0.102   0.704
  511TIP3    H2 1477   8.148   0.134   0.827
  512TIP3   OH2 1478   5.528   6.958   6.486
  512TIP3    H1 1479   5.482   6.876   6.503
  512TIP3    H2 1480   5.459   7.024   6.477
  513TIP3   OH2 1481   6.870   4.894   4.403
  513TIP3    H1 1482   6.884   4.842   4.324
  513TIP3    H2 1483   6.839   4.978   4.371
  514TIP3   OH2 1484   3.600   3.968   4.856
  514TIP3    H1 1485   3.668   3.903   4.867
  514TIP3    H2 1486   3.637   4.048   4.894
  515TIP3   OH2 1487   0.528   6.914   2.885
  515TIP3    H1 1488   0.488   6.954   2.962
  515TIP3    H2 1489   0.471   6.840   2.864
  516TIP3   OH2 1490   1.932   6.351   1.948
  516TIP3    H1 1491   2.017   6.382   1.916
  516TIP3    H2 1492   1.885   6.326   1.869
  517TIP3   OH2 1493   4.121   5.090   4.304
  517TIP3    H1 1494   4.177   5.013   4.312
  517TIP3    H2 1495   4.175   5.163   4.334
  518TIP3   OH2 1496   5.358   0.208   4.741
  518TIP3    H1 1497   5.376   0.121   4.705
  518TIP3    H2 1498   5.326   0.258   4.666
  519TIP3   OH2 1499   1.334   3.599   0.987
  519TIP3    H1 1500   1.410   3.647   1.018
  519TIP3    H2 1501   1.270   3.666   0.966
  520TIP3   OH2 1502   2.965   0.217   5.478
  520TIP3    H1 1503   3.060   0.227   5.474
  520TIP3    H2 1504   2.936   0.226   5.387
  521TIP3   OH2 1505   2.274   1.053   0.808
  521TIP3    H1 1506   2.196   1.109   0.796
  521TIP3    H2 1507   2.302   1.071   0.898
  522TIP3   OH2 1508   4.951   7.531   3.503
  522TIP3    H1 1509   4.945   7.495   3.592
  522TIP3    H2 1510   5.030   7.491   3.466
  523TIP3   OH2 1511   2.948   2.704   3.776
  523TIP3    H1 1512   2.936   2.755   3.696
  523TIP3    H2 1513   3.042   2.685   3.779
  524TIP3   OH2 1514   4.715   2.736   2.884
  524TIP3    H1 1515   4.647   2.672   2.904
  524TIP3    H2 1516   4.711   2.799   2.955
  525TIP3   OH2 1517   6.801   6.345   3.489
  525TIP3    H1 1518   6.822   6.253   3.497
  525TIP3    H2 1519   6.880   6.385   3.453
  526TIP3   OH2 1520   7.510   0.884   5.432
  526TIP3    H1 1521   7.448   0.891   5.504
  526TIP3    H2 1522   7.525   0.974   5.404
  527TIP3   OH2 1523   0.884   0.020   4.814
  527TIP3    H1 1524   0.902   0.095   4.757
  527TIP3    H2 1525   0.907   0.049   4.902
  528TIP3   OH2 1526   2.714   6.129   3.093
  528TIP3    H1 1527   2.676   6.109   3.178
  528TIP3    H2 1528   2.664   6.076   3.031
  529TIP3   OH2 1529   0.025   4.015   6.480
  529TIP3    H1 1530   0.091   4.048   6.541
  529TIP3    H2 1531  -0.015   4.094   6.443
  530TIP3   OH2 1532   2.582   4.453   1.283
  530TIP3    H1 1533   2.596   4.517   1.213
  530TIP3    H2 1534   2.519   4.391   1.247
  531TIP3   OH2 1535   4.313   0.992   4.607
  531TIP3    H1 1536   4.342   1.078   4.635
  531TIP3    H2 1537   4.341   0.933   4.677
  532TIP3   OH2 1538   6.644   4.325   5.342
  532TIP3    H1 1539   6.686   4.351   5.424
  532TIP3    H2 1540   6.599   4.404   5.312
  533TIP3   OH2 1541   7.274   3.030   2.679
  533TIP3    H1 1542   7.290   3.096   2.746
  533TIP3    H2 1543   7.263   2.948   2.728
  534TIP3   OH2 1544   4.589   2.237   4.916
  534TIP3    H1 1545   4.655   2.167   4.918
  534TIP3    H2 1546   4.509   2.194   4.887
  535TIP3   OH2 1547   2.951   5.745   6.373
  535TIP3    H1 1548   3.005   5.803   6.320
  535TIP3    H2 1549   3.013   5.706   6.435
  536TIP3   OH2 1550   6.109   0.584   1.522
  536TIP3    H1 1551   6.046   0.640   1.476
  536TIP3    H2 1552   6.057   0.538   1.588
  537TIP3   OH2 1553   5.069   5.950   2.796
  537TIP3    H1 1554   5.054   5.934   2.889
  537TIP3    H2 1555   5.018   5.882   2.751
  538TIP3   OH2 1556   1.617   7.486   4.933
  538TIP3    H1 1557   1.609   7.419   5.000
  538TIP3    H2 1558   1.669   7.555   4.974
  539TIP3   OH2 1559   4.895   6.986   0.889
  539TIP3    H1 1560   4.957   6.987   0.962
  539TIP3    H2 1561   4.946   6.953   0.815
  540TIP3   OH2 1562   0.643   2.262   3.596
  540TIP3    H1 1563   0.664   2.204   3.669
  540TIP3    H2 1564   0.655   2.208   3.518
  541TIP3   OH2 1565   5.440   1.096   1.981
  541TIP3    H1 1566   5.392   1.055   1.909
  541TIP3    H2 1567   5.439   1.189   1.962
  542TIP3   OH2 1568   4.207   6.876   2.989
  542TIP3    H1 1569   4.116   6.899   2.973
  542TIP3    H2 1570   4.206   6.780   2.995
  543TIP3   OH2 1571   3.723   1.356   1.342
  543TIP3    H1 1572   3.641   1.312   1.368
  543TIP3    H2 1573   3.710   1.378   1.250
  544TIP3   OH2 1574   7.847   6.993   3.005
  544TIP3    H1 1575   7.935   6.997   2.967
  544TIP3    H2 1576   7.858   7.017   3.097
  545TIP3   OH2 1577   1.821   4.740   3.245
  545TIP3    H1 1578   1.884   4.755   3.317
  545TIP3    H2 1579   1.873   4.751   3.166
  546TIP3   OH2 1580   0.437   3.196   4.570
  546TIP3    H1 1581   0.409   3.262   4.508
  546TIP3    H2 1582   0.377   3.122   4.556
  547TIP3   OH2 1583   0.153   1.722   0.177
  547TIP3    H1 1584   0.153   1.671   0.258
  547TIP3    H2 1585   0.104   1.801   0.199
  548TIP3   OH2 1586   1.853   0.731   0.522
  548TIP3    H1 1587   1.890   0.794   0.460
  548TIP3    H2 1588   1.887   0.646   0.494
  549TIP3   OH2 1589   2.100   4.207   4.202
  549TIP3    H1 1590   2.152   4.232   4.278
  549TIP3    H2 1591   2.095   4.287   4.149
  550TIP3   OH2 1592   6.300   6.001   4.212
  550TIP3    H1 1593   6.352   5.966   4.285
  550TIP3    H2 1594   6.366   6.035   4.151
  551TIP3   OH2 1595   7.984   4.644   3.488
  551TIP3    H1 1596   8.077   4.622   3.489
  551TIP3    H2 1597   7.973   4.700   3.412
  552TIP3   OH2 1598   1.737   3.587   0.551
  552TIP3    H1 1599   1.736   3.682   0.540
  552TIP3    H2 1600   1.708   3.572   0.641
  553TIP3   OH2 1601   2.152   5.591   2.914
  553TIP3    H1 1602   2.239   5.551   2.909
  553TIP3    H2 1603   2.093   5.525   2.878
  554TIP3   OH2 1604   7.630   2.912   5.894
  554TIP3    H1 1605   7.565   2.961   5.944
  554TIP3    H2 1606   7.622   2.946   5.805
  555TIP3   OH2 1607   3.137   6.424   1.715
  555TIP3    H1 1608   3.168   6.413   1.626
  555TIP3    H2 1609   3.195   6.369   1.768
  556TIP3   OH2 1610   2.484   1.336   1.374
  556TIP3    H1 1611   2.417   1.404   1.384
  556TIP3    H2 1612   2.437   1.254   1.386
  557TIP3   OH2 1613   4.572   2.436   0.530
  557TIP3    H1 1614   4.559   2.530   0.517
  557TIP3    H2 1615   4.483   2.401   0.539
  558TIP3   OH2 1616   6.327   2.141   0.820
  558TIP3    H1 1617   6.311   2.135   0.726
  558TIP3    H2 1618   6.351   2.232   0.835
  559TIP3   OH2 1619   7.652   4.463   0.300
  559TIP3    H1 1620   7.747   4.455   0.296
  559TIP3    H2 1621   7.637   4.558   0.302
  560TIP3   OH2 1622   7.755   7.212   4.043
  560TIP3    H1 1623   7.830   7.266   4.068
  560TIP3    H2 1624   7.707   7.199   4.125
  561TIP3   OH2 1625   6.114   0.064   1.609
  561TIP3    H1 1626   6.133  -0.029   1.622
  561TIP3    H2 1627   6.120   0.102   1.697
  562TIP3   OH2 1628   4.201   2.364   3.556
  562TIP3    H1 1629   4.249   2.447   3.551
  562TIP3    H2 1630   4.165   2.353   3.468
  563TIP3   OH2 1631   5.674   1.341   6.573
  563TIP3    H1 1632   5.763   1.306   6.581
  563TIP3    H2 1633   5.626   1.302   6.646
  564TIP3   OH2 1634   6.357   2.390   3.285
  564TIP3    H1 1635   6.379   2.381   3.192
  564TIP3    H2 1636   6.280   2.447   3.286
  565TIP3   OH2 1637   5.954   4.262   3.218
  565TIP3    H1 1638   5.925   4.319   3.147
  565TIP3    H2 1639   5.917   4.176   3.197
  566TIP3   OH2 1640   5.274   3.777   4.001
  566TIP3    H1 1641   5.188   3.739   3.981
  566TIP3    H2 1642   5.317   3.784   3.916
  567TIP3   OH2 1643   1.029   1.545   5.770
  567TIP3    H1 1644   1.050   1.519   5.681
  567TIP3    H2 1645   1.054   1.469   5.824
  568TIP3   OH2 1646   3.700   6.023   5.434
  568TIP3    H1 1647   3.707   5.986   5.522
  568TIP3    H2 1648   3.777   6.080   5.427
  569TIP3   OH2 1649   2.063   7.413   3.803
  569TIP3    H1 1650   2.101   7.379   3.722
  569TIP3    H2 1651   1.969   7.398   3.792
  570TIP3   OH2 1652   0.030   1.319   0.932
  570TIP3    H1 1653   0.054   1.385   0.867
  570TIP3    H2 1654  -0.055   1.287   0.903
  571TIP3   OH2 1655   7.028   3.285   3.656
  571TIP3    H1 1656   7.042   3.243   3.571
  571TIP3    H2 1657   7.114   3.316   3.683
  572TIP3   OH2 1658   4.864   7.418   5.161
  572TIP3    H1 1659   4.902   7.505   5.152
  572TIP3    H2 1660   4.844   7.409   5.254
  573TIP3   OH2 1661   5.986   0.888   5.125
  573TIP3    H1 1662   6.070   0.902   5.081
  573TIP3    H2 1663   5.920   0.918   5.063
  574TIP3   OH2 1664   0.642   2.656   4.580
  574TIP3    H1 1665   0.733   2.629   4.576
  574TIP3    H2 1666   0.592   2.578   4.556
  575TIP3   OH2 1667   6.751   1.190   5.743
  575TIP3    H1 1668   6.794   1.105   5.737
  575TIP3    H2 1669   6.659   1.173   5.723
  576TIP3   OH2 1670   2.460   5.590   2.230
  576TIP3    H1 1671   2.457   5.567   2.137
  576TIP3    H2 1672   2.535   5.542   2.264
  577TIP3   OH2 1673   0.515   1.649   0.473
  577TIP3    H1 1674   0.512   1.665   0.379
  577TIP3    H2 1675   0.608   1.652   0.495
  578TIP3   OH2 1676   7.390   0.197   1.863
  578TIP3    H1 1677   7.335   0.136   1.813
  578TIP3    H2 1678   7.473   0.199   1.815
  579TIP3   OH2 1679   2.222   2.184   2.109
  579TIP3    H1 1680   2.267   2.100   2.097
  579TIP3    H2 1681   2.199   2.211   2.020
  580TIP3   OH2 1682   6.043   0.393   1.278
  580TIP3    H1 1683   5.973   0.421   1.337
  580TIP3    H2 1684   6.106   0.349   1.335
  581TIP3   OH2 1685   2.213   2.739   5.234
  581TIP3    H1 1686   2.209   2.793   5.156
  581TIP3    H2 1687   2.282   2.778   5.288
  582TIP3   OH2 1688   0.313   2.091   1.900
  582TIP3    H1 1689   0.247   2.062   1.837
  582TIP3    H2 1690   0.286   2.179   1.925
  583TIP3   OH2 1691   5.871   6.752   5.280
  583TIP3    H1 1692   5.941   6.699   5.240
  583TIP3    H2 1693   5.796   6.741   5.221
  584TIP3   OH2 1694   2.927   3.030   4.552
  584TIP3    H1 1695   2.894   2.995   4.635
  584TIP3    H2 1696   2.884   2.977   4.485
  585TIP3   OH2 1697   3.385   5.014   5.251
  585TIP3    H1 1698   3.417   5.076   5.316
  585TIP3    H2 1699   3.405   5.056   5.167
  586TIP3   OH2 1700   4.621   7.707   2.585
  586TIP3    H1 1701   4.646   7.723   2.494
  586TIP3    H2 1702   4.553   7.771   2.603
  587TIP3   OH2 1703   5.362   6.859   5.377
  587TIP3    H1 1704   5.305   6.803   5.430
  587TIP3    H2 1705   5.303   6.926   5.343
  588TIP3   OH2 1706   7.560   5.453   5.095
  588TIP3    H1 1707   7.508   5.516   5.146
  588TIP3    H2 1708   7.633   5.504   5.060
  589TIP3   OH2 1709   6.986   3.766   6.512
  589TIP3    H1 1710   7.053   3.820   6.554
  589TIP3    H2 1711   6.942   3.826   6.452
  590TIP3   OH2 1712   2.750   1.502   5.665
  590TIP3    H1 1713   2.656   1.495   5.683
  590TIP3    H2 1714   2.755   1.505   5.569
  591TIP3   OH2 1715   0.612   1.676   5.633
  591TIP3    H1 1716   0.574   1.762   5.649
  591TIP3    H2 1717   0.696   1.677   5.678
  592TIP3   OH2 1718   4.279   6.886   0.425
  592TIP3    H1 1719   4.373   6.874   0.412
  592TIP3    H2 1720   4.272   6.975   0.460
  593TIP3   OH2 1721   3.521   0.875   1.191
  593TIP3    H1 1722   3.518   0.969   1.175
  593TIP3    H2 1723   3.477   0.863   1.275
  594TIP3   OH2 1724   2.045   2.351   4.040
  594TIP3    H1 1725   2.082   2.414   4.102
  594TIP3    H2 1726   1.952   2.347   4.063
  595TIP3   OH2 1727   3.757   6.646   5.925
  595TIP3    H1 1728   3.674   6.677   5.887
  595TIP3    H2 1729   3.821   6.712   5.900
  596TIP3   OH2 1730   6.790   7.067   0.148
  596TIP3    H1 1731   6.772   7.065   0.054
  596TIP3    H2 1732   6.830   6.982   0.167
  597TIP3   OH2 1733   1.190   4.695   1.386
  597TIP3    H1 1734   1.146   4.775   1.415
  597TIP3    H2 1735   1.219   4.653   1.466
  598TIP3   OH2 1736   0.379   4.174   0.440
  598TIP3    H1 1737   0.402   4.262   0.470
  598TIP3    H2 1738   0.287   4.162   0.465
  599TIP3   OH2 1739   2.192   6.099   5.936
  599TIP3    H1 1740   2.206   6.012   5.974
  599TIP3    H2 1741   2.204   6.085   5.842
  600TIP3   OH2 1742   3.791   4.701   0.838
  600TIP3    H1 1743   3.809   4.619   0.885
  600TIP3    H2 1744   3.744   4.674   0.760
  601TIP3   OH2 1745   6.025   2.744   4.878
  601TIP3    H1 1746   6.069   2.662   4.900
  601TIP3    H2 1747   6.011   2.737   4.783
  602TIP3   OH2 1748   4.301   1.396   6.762
  602TIP3    H1 1749   4.326   1.354   6.845
  602TIP3    H2 1750   4.344   1.343   6.695
  603TIP3   OH2 1751   5.801   4.137   4.754
  603TIP3    H1 1752   5.825   4.230   4.755
  603TIP3    H2 1753   5.883   4.092   4.733
  604TIP3   OH2 1754   0.291   2.926   3.907
  604TIP3    H1 1755   0.378   2.966   3.910
  604TIP3    H2 1756   0.239   2.978   3.968
  605TIP3   OH2 1757   5.529   5.043   0.044
  605TIP3    H1 1758   5.615   5.005   0.064
  605TIP3    H2 1759   5.467   4.971   0.058
  606TIP3   OH2 1760   1.021   4.502   1.987
  606TIP3    H1 1761   1.019   4.469   2.076
  606TIP3    H2 1762   0.942   4.466   1.946
  607TIP3   OH2 1763   5.508   5.230   3.606
  607TIP3    H1 1764   5.598   5.258   3.589
  607TIP3    H2 1765   5.505   5.139   3.576
  608TIP3   OH2 1766   3.433   3.314   0.104
  608TIP3    H1 1767   3.499   3.371   0.065
  608TIP3    H2 1768   3.389   3.273   0.029
  609TIP3   OH2 1769   6.265   2.079   5.994
  609TIP3    H1 1770   6.251   2.027   6.073
  609TIP3    H2 1771   6.338   2.036   5.950
  610TIP3   OH2 1772   6.833   2.207   5.786
  610TIP3    H1 1773   6.775   2.216   5.710
  610TIP3    H2 1774   6.915   2.248   5.758
  611TIP3   OH2 1775   3.377   0.929   2.724
  611TIP3    H1 1776   3.311   0.925   2.655
  611TIP3    H2 1777   3.428   0.849   2.713
  612TIP3   OH2 1778   1.978   5.611   1.710
  612TIP3    H1 1779   2.025   5.605   1.794
  612TIP3    H2 1780   2.024   5.679   1.662
  613TIP3   OH2 1781   5.317   7.789   4.055
  613TIP3    H1 1782   5.265   7.737   3.993
  613TIP3    H2 1783   5.264   7.867   4.071
  614TIP3   OH2 1784   1.059   1.409   6.486
  614TIP3    H1 1785   1.132   1.395   6.426
  614TIP3    H2 1786   1.039   1.502   6.479
  615TIP3   OH2 1787   4.037   5.148   1.646
  615TIP3    H1 1788   4.058   5.142   1.739
  615TIP3    H2 1789   3.961   5.207   1.642
  616TIP3   OH2 1790   6.989   1.605   5.757
  616TIP3    H1 1791   6.914   1.590   5.700
  616TIP3    H2 1792   6.973   1.551   5.834
  617TIP3   OH2 1793   8.165   0.478   3.339
  617TIP3    H1 1794   8.199   0.406   3.285
  617TIP3    H2 1795   8.167   0.554   3.280
  618TIP3   OH2 1796   6.121   3.604   5.459
  618TIP3    H1 1797   6.160   3.542   5.397
  618TIP3    H2 1798   6.177   3.599   5.536
  619TIP3   OH2 1799   7.518   1.592   1.824
  619TIP3    H1 1800   7.554   1.680   1.833
  619TIP3    H2 1801   7.595   1.535   1.822
  620TIP3   OH2 1802   0.058   2.283   6.384
  620TIP3    H1 1803   0.010   2.363   6.406
  620TIP3    H2 1804   0.145   2.297   6.419
  621TIP3   OH2 1805   4.609   2.049   2.653
  621TIP3    H1 1806   4.661   2.127   2.637
  621TIP3    H2 1807   4.674   1.980   2.670
  622TIP3   OH2 1808   6.847   6.537   3.916
  622TIP3    H1 1809   6.874   6.619   3.875
  622TIP3    H2 1810   6.779   6.563   3.978
  623TIP3   OH2 1811   7.795   4.934   6.083
  623TIP3    H1 1812   7.880   4.896   6.102
  623TIP3    H2 1813   7.808   4.983   6.002
  624TIP3   OH2 1814   7.080   3.458   4.365
  624TIP3    H1 1815   7.029   3.381   4.340
  624TIP3    H2 1816   7.026   3.502   4.430
  625TIP3   OH2 1817   0.435   4.611   2.153
  625TIP3    H1 1818   0.525   4.580   2.159
  625TIP3    H2 1819   0.383   4.546   2.200
  626TIP3   OH2 1820   8.093   0.518   1.433
  626TIP3    H1 1821   8.012   0.467   1.440
  626TIP3    H2 1822   8.121   0.507   1.342
  627TIP3   OH2 1823   7.392   7.562   1.816
  627TIP3    H1 1824   7.403   7.519   1.731
  627TIP3    H2 1825   7.411   7.655   1.799
  628TIP3   OH2 1826   1.713   4.463   4.737
  628TIP3    H1 1827   1.712   4.525   4.664
  628TIP3    H2 1828   1.665   4.506   4.807
  629TIP3   OH2 1829   1.944   3.820   5.789
  629TIP3    H1 1830   1.938   3.893   5.727
  629TIP3    H2 1831   1.903   3.747   5.744
  630TIP3   OH2 1832   5.042   0.108   5.652
  630TIP3    H1 1833   4.949   0.088   5.663
  630TIP3    H2 1834   5.045   0.203   5.641
  631TIP3   OH2 1835   7.050   6.709   6.608
  631TIP3    H1 1836   7.056   6.803   6.591
  631TIP3    H2 1837   7.108   6.694   6.684
  632TIP3   OH2 1838   7.621   6.281   5.665
  632TIP3    H1 1839   7.693   6.282   5.602
  632TIP3    H2 1840   7.665   6.281   5.750
  633TIP3   OH2 1841   0.777   6.500   4.547
  633TIP3    H1 1842   0.822   6.483   4.464
  633TIP3    H2 1843   0.714   6.429   4.555
  634TIP3   OH2 1844   2.716   4.709   1.106
  634TIP3    H1 1845   2.777   4.742   1.040
  634TIP3    H2 1846   2.673   4.788   1.141
  635TIP3   OH2 1847   2.568   4.254   2.050
  635TIP3    H1 1848   2.501   4.187   2.062
  635TIP3    H2 1849   2.537   4.305   1.975
  636TIP3   OH2 1850   5.195   3.291   2.174
  636TIP3    H1 1851   5.111   3.257   2.141
  636TIP3    H2 1852   5.248   3.213   2.189
  637TIP3   OH2 1853   7.097   6.811   1.737
  637TIP3    H1 1854   7.161   6.792   1.668
  637TIP3    H2 1855   7.013   6.814   1.691
  638TIP3   OH2 1856   2.001   5.517   3.566
  638TIP3    H1 1857   2.019   5.548   3.655
  638TIP3    H2 1858   1.946   5.586   3.528
  639TIP3   OH2 1859   6.234   1.820   0.156
  639TIP3    H1 1860   6.279   1.746   0.195
  639TIP3    H2 1861   6.237   1.803   0.062
  640TIP3   OH2 1862   7.893   5.663   2.343
  640TIP3    H1 1863   7.939   5.723   2.285
  640TIP3    H2 1864   7.962   5.605   2.377
  641TIP3   OH2 1865   6.040   7.762   1.669
  641TIP3    H1 1866   6.116   7.813   1.639
  641TIP3    H2 1867   5.981   7.762   1.594
  642TIP3   OH2 1868   5.374   5.093   5.209
  642TIP3    H1 1869   5.456   5.044   5.208
  642TIP3    H2 1870   5.315   5.042   5.153
  643TIP3   OH2 1871   0.169   5.809   3.643
  643TIP3    H1 1872   0.216   5.878   3.689
  643TIP3    H2 1873   0.077   5.835   3.649
  644TIP3   OH2 1874   8.001   6.199   1.642
  644TIP3    H1 1875   8.047   6.192   1.725
  644TIP3    H2 1876   7.978   6.109   1.620
  645TIP3   OH2 1877   1.161   1.490   0.040
  645TIP3    H1 1878   1.178   1.432   0.115
  645TIP3    H2 1879   1.098   1.442  -0.013
  646TIP3   OH2 1880   4.915   7.748   0.450
  646TIP3    H1 1881   4.906   7.832   0.496
  646TIP3    H2 1882   4.970   7.768   0.374
  647TIP3   OH2 1883   4.378   0.314   1.810
  647TIP3    H1 1884   4.328   0.240   1.842
  647TIP3    H2 1885   4.338   0.336   1.726
  648TIP3   OH2 1886   0.797   5.597   1.123
  648TIP3    H1 1887   0.852   5.623   1.196
  648TIP3    H2 1888   0.769   5.508   1.145
  649TIP3   OH2 1889   6.213   2.930   4.180
  649TIP3    H1 1890   6.205   2.949   4.087
  649TIP3    H2 1891   6.300   2.961   4.204
  650TIP3   OH2 1892   4.495   4.251   3.434
  650TIP3    H1 1893   4.586   4.279   3.419
  650TIP3    H2 1894   4.472   4.286   3.519
  651TIP3   OH2 1895   0.269   0.192   6.040
  651TIP3    H1 1896   0.267   0.161   5.950
  651TIP3    H2 1897   0.360   0.216   6.055
  652TIP3   OH2 1898   0.454   7.854   3.582
  652TIP3    H1 1899   0.478   7.768   3.546
  652TIP3    H2 1900   0.506   7.862   3.662
  653TIP3   OH2 1901   4.459   5.251   3.094
  653TIP3    H1 1902   4.470   5.334   3.140
  653TIP3    H2 1903   4.364   5.240   3.088
  654TIP3   OH2 1904   7.122   3.802   0.067
  654TIP3    H1 1905   7.044   3.785   0.120
  654TIP3    H2 1906   7.167   3.873   0.113
  655TIP3   OH2 1907   7.303   5.492   0.163
  655TIP3    H1 1908   7.211   5.513   0.145
  655TIP3    H2 1909   7.349   5.518   0.084
  656TIP3   OH2 1910   3.970   2.684   6.383
  656TIP3    H1 1911   4.055   2.724   6.364
  656TIP3    H2 1912   3.915   2.708   6.308
  657TIP3   OH2 1913   7.325   7.408   1.137
  657TIP3    H1 1914   7.309   7.458   1.217
  657TIP3    H2 1915   7.293   7.465   1.067
  658TIP3   OH2 1916   4.584   4.449   3.950
  658TIP3    H1 1917   4.647   4.377   3.952
  658TIP3    H2 1918   4.635   4.526   3.924
  659TIP3   OH2 1919   6.202   0.543   0.371
  659TIP3    H1 1920   6.192   0.622   0.318
  659TIP3    H2 1921   6.260   0.486   0.319
  660TIP3   OH2 1922   2.344   0.758   6.730
  660TIP3    H1 1923   2.412   0.691   6.722
  660TIP3    H2 1924   2.330   0.789   6.640
  661TIP3   OH2 1925   6.361   5.576   0.769
  661TIP3    H1 1926   6.328   5.627   0.696
  661TIP3    H2 1927   6.402   5.499   0.728
  662TIP3   OH2 1928   3.247   5.307   5.554
  662TIP3    H1 1929   3.180   5.247   5.521
  662TIP3    H2 1930   3.227   5.390   5.511
  663TIP3   OH2 1931   1.004   1.197   4.615
  663TIP3    H1 1932   1.093   1.230   4.609
  663TIP3    H2 1933   0.977   1.182   4.524
  664TIP3   OH2 1934   7.314   4.820   2.579
  664TIP3    H1 1935   7.292   4.770   2.657
  664TIP3    H2 1936   7.348   4.903   2.612
  665TIP3   OH2 1937   7.434   3.305   0.864
  665TIP3    H1 1938   7.443   3.221   0.907
  665TIP3    H2 1939   7.385   3.286   0.784
  666TIP3   OH2 1940   6.915   2.262   2.373
  666TIP3    H1 1941   6.865   2.217   2.306
  666TIP3    H2 1942   7.007   2.243   2.353
  667TIP3   OH2 1943   6.167   4.370   1.226
  667TIP3    H1 1944   6.149   4.402   1.315
  667TIP3    H2 1945   6.081   4.352   1.188
  668TIP3   OH2 1946   1.681   3.844   0.618
  668TIP3    H1 1947   1.588   3.854   0.641
  668TIP3    H2 1948   1.685   3.861   0.524
  669TIP3   OH2 1949   7.042   4.871   0.442
  669TIP3    H1 1950   6.957   4.848   0.405
  669TIP3    H2 1951   7.036   4.964   0.462
  670TIP3   OH2 1952   7.135   3.444   1.870
  670TIP3    H1 1953   7.104   3.355   1.889
  670TIP3    H2 1954   7.217   3.452   1.919
  671TIP3   OH2 1955   1.854   4.499   0.496
  671TIP3    H1 1956   1.903   4.575   0.465
  671TIP3    H2 1957   1.804   4.470   0.421
  672TIP3   OH2 1958   3.123   7.069   4.731
  672TIP3    H1 1959   3.194   7.044   4.671
  672TIP3    H2 1960   3.066   6.992   4.733
  673TIP3   OH2 1961   2.361   0.105   5.142
  673TIP3    H1 1962   2.284   0.144   5.101
  673TIP3    H2 1963   2.354   0.012   5.122
  674TIP3   OH2 1964   7.919   2.173   1.372
  674TIP3    H1 1965   7.951   2.250   1.325
  674TIP3    H2 1966   7.952   2.099   1.321
  675TIP3   OH2 1967   0.509   3.954   4.809
  675TIP3    H1 1968   0.551   4.025   4.858
  675TIP3    H2 1969   0.576   3.923   4.749
  676TIP3   OH2 1970   0.034   6.733   3.885
  676TIP3    H1 1971  -0.031   6.802   3.872
  676TIP3    H2 1972   0.081   6.759   3.964
  677TIP3   OH2 1973   3.682   7.666   0.304
  677TIP3    H1 1974   3.697   7.597   0.239
  677TIP3    H2 1975   3.760   7.664   0.360
  678TIP3   OH2 1976   1.174   1.011   4.238
  678TIP3    H1 1977   1.239   1.050   4.179
  678TIP3    H2 1978   1.181   0.917   4.222
  679TIP3   OH2 1979   0.144   5.317   1.359
  679TIP3    H1 1980   0.172   5.275   1.278
  679TIP3    H2 1981   0.214   5.380   1.378
  680TIP3   OH2 1982   4.509   0.122   2.490
  680TIP3    H1 1983   4.518   0.191   2.424
  680TIP3    H2 1984   4.490   0.169   2.571
  681TIP3   OH2 1985   3.226   6.431   3.886
  681TIP3    H1 1986   3.301   6.400   3.937
  681TIP3    H2 1987   3.232   6.526   3.890
  682TIP3   OH2 1988   5.641   1.047   1.662
  682TIP3    H1 1989   5.635   0.957   1.693
  682TIP3    H2 1990   5.552   1.081   1.668
  683TIP3   OH2 1991   4.784   0.130   6.509
  683TIP3    H1 1992   4.812   0.215   6.475
  683TIP3    H2 1993   4.810   0.131   6.601
  684TIP3   OH2 1994   3.741   4.475   5.168
  684TIP3    H1 1995   3.705   4.506   5.085
  684TIP3    H2 1996   3.680   4.507   5.234
  685TIP3   OH2 1997   2.835   5.525   2.106
  685TIP3    H1 1998   2.913   5.493   2.061
  685TIP3    H2 1999   2.791   5.446   2.138
  686TIP3   OH2 2000   5.225   1.476   4.230
  686TIP3    H1 2001   5.286   1.401   4.229
  686TIP3    H2 2002   5.215   1.498   4.137
  687TIP3   OH2 2003   1.152   3.257   0.379
  687TIP3    H1 2004   1.148   3.352   0.391
  687TIP3    H2 2005   1.086   3.239   0.312
  688TIP3   OH2 2006   2.468   1.601   2.403
  688TIP3    H1 2007   2.551   1.562   2.432
  688TIP3    H2 2008   2.409   1.590   2.478
  689TIP3   OH2 2009   6.469   1.662   2.292
  689TIP3    H1 2010   6.458   1.738   2.350
  689TIP3    H2 2011   6.533   1.607   2.337
  690TIP3   OH2 2012   1.799   5.079   0.290
  690TIP3    H1 2013   1.720   5.112   0.247
  690TIP3    H2 2014   1.769   5.007   0.346
  691TIP3   OH2 2015   1.321   1.691   2.941
  691TIP3    H1 2016   1.348   1.768   2.891
  691TIP3    H2 2017   1.379   1.691   3.018
  692TIP3   OH2 2018   7.760   5.619   0.727
  692TIP3    H1 2019   7.853   5.640   0.730
  692TIP3    H2 2020   7.739   5.617   0.633
  693TIP3   OH2 2021   0.281   6.775   2.840
  693TIP3    H1 2022   0.260   6.857   2.795
  693TIP3    H2 2023   0.228   6.776   2.919
  694TIP3   OH2 2024   5.514   5.722   6.328
  694TIP3    H1 2025   5.453   5.781   6.372
  694TIP3    H2 2026   5.481   5.634   6.345
  695TIP3   OH2 2027   6.226   6.184   0.404
  695TIP3    H1 2028   6.176   6.265   0.406
  695TIP3    H2 2029   6.296   6.201   0.340
  696TIP3   OH2 2030   3.915   2.070   5.666
  696TIP3    H1 2031   3.857   2.137   5.632
  696TIP3    H2 2032   3.973   2.117   5.727
  697TIP3   OH2 2033   0.776   4.874   2.232
  697TIP3    H1 2034   0.870   4.865   2.219
  697TIP3    H2 2035   0.739   4.871   2.143
  698TIP3   OH2 2036   3.886   2.749   3.120
  698TIP3    H1 2037   3.848   2.767   3.034
  698TIP3    H2 2038   3.943   2.824   3.136
  699TIP3   OH2 2039   4.454   6.547   0.693
  699TIP3    H1 2040   4.469   6.627   0.742
  699TIP3    H2 2041   4.527   6.542   0.631
  700TIP3   OH2 2042   2.463   6.321   0.703
  700TIP3    H1 2043   2.387   6.282   0.659
  700TIP3    H2 2044   2.476   6.265   0.780
  701TIP3   OH2 2045   1.022   2.063   3.542
  701TIP3    H1 2046   0.946   2.009   3.566
  701TIP3    H2 2047   1.085   2.047   3.612
  702TIP3   OH2 2048   0.695   6.554   1.844
  702TIP3    H1 2049   0.652   6.469   1.835
  702TIP3    H2 2050   0.634   6.616   1.804
  703TIP3   OH2 2051   1.869   5.148   5.614
  703TIP3    H1 2052   1.885   5.201   5.536
  703TIP3    H2 2053   1.860   5.211   5.685
  704TIP3   OH2 2054   6.153   0.864   6.779
  704TIP3    H1 2055   6.205   0.896   6.705
  704TIP3    H2 2056   6.119   0.943   6.821
  705TIP3   OH2 2057   8.081   1.383   1.146
  705TIP3    H1 2058   8.167   1.358   1.179
  705TIP3    H2 2059   8.074   1.477   1.165
  706TIP3   OH2 2060   2.618   2.188   0.189
  706TIP3    H1 2061   2.603   2.103   0.231
  706TIP3    H2 2062   2.698   2.221   0.231
  707TIP3   OH2 2063   5.387   4.057   1.240
  707TIP3    H1 2064   5.343   4.143   1.242
  707TIP3    H2 2065   5.369   4.023   1.153
  708TIP3   OH2 2066   4.863   2.185   5.194
  708TIP3    H1 2067   4.931   2.231   5.144
  708TIP3    H2 2068   4.811   2.139   5.128
  709TIP3   OH2 2069   4.411   1.216   4.782
  709TIP3    H1 2070   4.429   1.289   4.723
  709TIP3    H2 2071   4.478   1.222   4.850
  710TIP3   OH2 2072   4.262   2.499   1.673
  710TIP3    H1 2073   4.247   2.415   1.716
  710TIP3    H2 2074   4.338   2.484   1.617
  711TIP3   OH2 2075   7.572   5.811   6.316
  711TIP3    H1 2076   7.499   5.783   6.261
  711TIP3    H2 2077   7.544   5.895   6.353
  712TIP3   OH2 2078   7.688   4.640   6.133
  712TIP3    H1 2079   7.767   4.619   6.182
  712TIP3    H2 2080   7.693   4.734   6.118
  713TIP3   OH2 2081   5.343   7.315   2.406
  713TIP3    H1 2082   5.285   7.272   2.469
  713TIP3    H2 2083   5.392   7.243   2.367
  714TIP3   OH2 2084   1.432   2.533   3.746
  714TIP3    H1 2085   1.490   2.609   3.740
  714TIP3    H2 2086   1.409   2.513   3.656
  715TIP3   OH2 2087   5.087   6.668   3.694
  715TIP3    H1 2088   5.086   6.572   3.696
  715TIP3    H2 2089   5.073   6.690   3.602
  716TIP3   OH2 2090   7.475   6.037   5.885
  716TIP3    H1 2091   7.395   5.986   5.888
  716TIP3    H2 2092   7.446   6.128   5.881
  717TIP3   OH2 2093   0.757   1.365   1.779
  717TIP3    H1 2094   0.686   1.305   1.754
  717TIP3    H2 2095   0.774   1.344   1.871
  718TIP3   OH2 2096   5.481   6.029   4.625
  718TIP3    H1 2097   5.493   5.934   4.621
  718TIP3    H2 2098   5.420   6.042   4.698
  719TIP3   OH2 2099   1.242   0.126   3.498
  719TIP3    H1 2100   1.179   0.054   3.501
  719TIP3    H2 2101   1.308   0.104   3.563
  720TIP3   OH2 2102   2.687   7.721   3.976
  720TIP3    H1 2103   2.647   7.636   3.992
  720TIP3    H2 2104   2.630   7.784   4.022
  721TIP3   OH2 2105   5.106   3.617   6.497
  721TIP3    H1 2106   5.147   3.630   6.412
  721TIP3    H2 2107   5.157   3.547   6.538
  722TIP3   OH2 2108   3.283   0.878   4.995
  722TIP3    H1 2109   3.319   0.889   4.907
  722TIP3    H2 2110   3.232   0.797   4.990
  723TIP3   OH2 2111   7.276   7.711   0.735
  723TIP3    H1 2112   7.202   7.764   0.765
  723TIP3    H2 2113   7.269   7.629   0.783
  724TIP3   OH2 2114   3.493   2.115   6.052
  724TIP3    H1 2115   3.424   2.053   6.029
  724TIP3    H2 2116   3.551   2.116   5.976
  725TIP3   OH2 2117   5.778   4.845   2.924
  725TIP3    H1 2118   5.871   4.854   2.906
  725TIP3    H2 2119   5.771   4.845   3.019
  726TIP3   OH2 2120   5.100   2.550   6.313
  726TIP3    H1 2121   5.065   2.613   6.250
  726TIP3    H2 2122   5.140   2.482   6.259
  727TIP3   OH2 2123   5.746   1.899   4.888
  727TIP3    H1 2124   5.779   1.878   4.800
  727TIP3    H2 2125   5.817   1.947   4.930
  728TIP3   OH2 2126   7.845   6.234   0.916
  728TIP3    H1 2127   7.860   6.211   1.008
  728TIP3    H2 2128   7.750   6.245   0.910
  729TIP3   OH2 2129   6.141   3.215   1.046
  729TIP3    H1 2130   6.193   3.292   1.027
  729TIP3    H2 2131   6.172   3.185   1.132
  730TIP3   OH2 2132   8.123   2.723   6.247
  730TIP3    H1 2133   8.159   2.806   6.277
  730TIP3    H2 2134   8.061   2.747   6.178
  731TIP3   OH2 2135   7.404   0.371   0.518
  731TIP3    H1 2136   7.362   0.314   0.582
  731TIP3    H2 2137   7.468   0.421   0.568
  732TIP3   OH2 2138   5.285   6.970   1.461
  732TIP3    H1 2139   5.248   7.022   1.390
  732TIP3    H2 2140   5.219   6.974   1.531
  733TIP3   OH2 2141   6.809   2.503   0.021
  733TIP3    H1 2142   6.860   2.502   0.102
  733TIP3    H2 2143   6.738   2.565   0.037
  734TIP3   OH2 2144   4.388   6.196   6.379
  734TIP3    H1 2145   4.401   6.255   6.305
  734TIP3    H2 2146   4.395   6.252   6.457
  735TIP3   OH2 2147   1.686   0.207   6.392
  735TIP3    H1 2148   1.723   0.184   6.307
  735TIP3    H2 2149   1.605   0.253   6.371
  736TIP3   OH2 2150   6.655   5.241   6.563
  736TIP3    H1 2151   6.656   5.247   6.658
  736TIP3    H2 2152   6.668   5.330   6.532
  737TIP3   OH2 2153   8.262   0.724   4.216
  737TIP3    H1 2154   8.217   0.803   4.247
  737TIP3    H2 2155   8.193   0.672   4.175
  738TIP3   OH2 2156   3.595   7.142   3.150
  738TIP3    H1 2157   3.680   7.103   3.170
  738TIP3    H2 2158   3.611   7.198   3.074
  739TIP3   OH2 2159   2.485   1.677   0.728
  739TIP3    H1 2160   2.566   1.725   0.713
  739TIP3    H2 2161   2.418   1.725   0.678
  740TIP3   OH2 2162   4.800   5.897   2.020
  740TIP3    H1 2163   4.895   5.895   2.029
  740TIP3    H2 2164   4.780   5.984   1.986
  741TIP3   OH2 2165   7.044   3.268   1.604
  741TIP3    H1 2166   7.065   3.283   1.696
  741TIP3    H2 2167   6.990   3.343   1.580
  742TIP3   OH2 2168   6.758   0.072   6.004
  742TIP3    H1 2169   6.829   0.017   5.971
  742TIP3    H2 2170   6.791   0.108   6.086
  743TIP3   OH2 2171   2.858   6.949   4.190
  743TIP3    H1 2172   2.952   6.968   4.185
  743TIP3    H2 2173   2.848   6.900   4.272
  744TIP3   OH2 2174   7.638   6.567   0.454
  744TIP3    H1 2175   7.723   6.527   0.473
  744TIP3    H2 2176   7.655   6.661   0.453
  745TIP3   OH2 2177   3.761   6.267   1.258
  745TIP3    H1 2178   3.713   6.235   1.181
  745TIP3    H2 2179   3.746   6.361   1.257
  746TIP3   OH2 2180   0.999   4.380   0.975
  746TIP3    H1 2181   1.084   4.411   0.944
  746TIP3    H2 2182   0.940   4.454   0.962
  747TIP3   OH2 2183   0.710   0.501   1.832
  747TIP3    H1 2184   0.785   0.483   1.890
  747TIP3    H2 2185   0.691   0.416   1.792
  748TIP3   OH2 2186   4.723   1.616   1.568
  748TIP3    H1 2187   4.817   1.619   1.587
  748TIP3    H2 2188   4.717   1.636   1.475
  749TIP3   OH2 2189   4.098   7.163   2.811
  749TIP3    H1 2190   4.092   7.230   2.744
  749TIP3    H2 2191   4.178   7.114   2.788
  750TIP3   OH2 2192   4.098   2.343   6.650
  750TIP3    H1 2193   4.044   2.290   6.708
  750TIP3    H2 2194   4.060   2.331   6.563
  751TIP3   OH2 2195   1.422   0.269   1.170
  751TIP3    H1 2196   1.350   0.328   1.146
  751TIP3    H2 2197   1.402   0.242   1.260
  752TIP3   OH2 2198   3.496   1.438   6.393
  752TIP3    H1 2199   3.540   1.353   6.389
  752TIP3    H2 2200   3.406   1.418   6.417
  753TIP3   OH2 2201   6.891   3.588   0.773
  753TIP3    H1 2202   6.938   3.510   0.744
  753TIP3    H2 2203   6.867   3.570   0.863
  754TIP3   OH2 2204   8.027   6.364   0.757
  754TIP3    H1 2205   7.967   6.311   0.810
  754TIP3    H2 2206   8.011   6.337   0.667
  755TIP3   OH2 2207   3.716   1.834   6.432
  755TIP3    H1 2208   3.673   1.907   6.387
  755TIP3    H2 2209   3.676   1.756   6.393
  756TIP3   OH2 2210   4.237   0.811   1.450
  756TIP3    H1 2211   4.266   0.887   1.499
  756TIP3    H2 2212   4.141   0.812   1.459
  757TIP3   OH2 2213   7.704   5.071   4.795
  757TIP3    H1 2214   7.647   5.144   4.818
  757TIP3    H2 2215   7.792   5.101   4.814
  758TIP3   OH2 2216   8.155   7.766   0.926
  758TIP3    H1 2217   8.229   7.815   0.963
  758TIP3    H2 2218   8.078   7.819   0.946
  759TIP3   OH2 2219   2.374   0.964   0.559
  759TIP3    H1 2220   2.335   1.022   0.494
  759TIP3    H2 2221   2.333   0.989   0.642
  760TIP3   OH2 2222   0.721   2.420   2.428
  760TIP3    H1 2223   0.796   2.472   2.399
  760TIP3    H2 2224   0.651   2.484   2.439
  761TIP3   OH2 2225   0.928   6.894   1.350
  761TIP3    H1 2226   0.833   6.893   1.339
  761TIP3    H2 2227   0.941   6.927   1.439
  762TIP3   OH2 2228   1.733   2.291   0.083
  762TIP3    H1 2229   1.697   2.369   0.042
  762TIP3    H2 2230   1.820   2.316   0.112
  763TIP3   OH2 2231   6.340   5.007   3.215
  763TIP3    H1 2232   6.341   5.091   3.259
  763TIP3    H2 2233   6.305   5.027   3.128
  764TIP3   OH2 2234   0.623   4.965   2.587
  764TIP3    H1 2235   0.700   4.910   2.603
  764TIP3    H2 2236   0.585   4.930   2.507
  765TIP3   OH2 2237   4.027   0.583   4.180
  765TIP3    H1 2238   3.973   0.565   4.257
  765TIP3    H2 2239   4.098   0.639   4.212
  766TIP3   OH2 2240   2.529   7.000   6.324
  766TIP3    H1 2241   2.461   7.057   6.287
  766TIP3    H2 2242   2.559   6.946   6.251
  767TIP3   OH2 2243   2.380   0.068   1.841
  767TIP3    H1 2244   2.410   0.112   1.761
  767TIP3    H2 2245   2.285   0.063   1.831
  768TIP3   OH2 2246   6.140   5.619   5.728
  768TIP3    H1 2247   6.217   5.617   5.785
  768TIP3    H2 2248   6.069   5.645   5.786
  769TIP3   OH2 2249   4.129   5.560   4.658
  769TIP3    H1 2250   4.216   5.600   4.651
  769TIP3    H2 2251   4.090   5.601   4.735
  770TIP3   OH2 2252   4.372   4.615   5.119
  770TIP3    H1 2253   4.410   4.617   5.207
  770TIP3    H2 2254   4.436   4.659   5.064
  771TIP3   OH2 2255   2.305   6.999   2.261
  771TIP3    H1 2256   2.269   6.999   2.172
  771TIP3    H2 2257   2.233   6.966   2.315
  772TIP3   OH2 2258   0.812   4.354   3.110
  772TIP3    H1 2259   0.746   4.413   3.145
  772TIP3    H2 2260   0.774   4.267   3.120
  773TIP3   OH2 2261   8.082   1.341   0.385
  773TIP3    H1 2262   8.136   1.264   0.368
  773TIP3    H2 2263   7.992   1.309   0.385
  774TIP3   OH2 2264   6.408   1.782   0.660
  774TIP3    H1 2265   6.406   1.729   0.740
  774TIP3    H2 2266   6.369   1.726   0.593
  775TIP3   OH2 2267   0.409   0.688   2.660
  775TIP3    H1 2268   0.486   0.636   2.636
  775TIP3    H2 2269   0.446   0.769   2.696
  776TIP3   OH2 2270   1.230   5.656   6.444
  776TIP3    H1 2271   1.172   5.619   6.378
  776TIP3    H2 2272   1.298   5.701   6.394
  777TIP3   OH2 2273   5.672   0.364   4.284
  777TIP3    H1 2274   5.759   0.392   4.312
  777TIP3    H2 2275   5.631   0.443   4.249
  778TIP3   OH2 2276   4.583   7.148   1.597
  778TIP3    H1 2277   4.544   7.186   1.518
  778TIP3    H2 2278   4.609   7.224   1.650
  779TIP3   OH2 2279   4.790   4.361   1.273
  779TIP3    H1 2280   4.741   4.360   1.191
  779TIP3    H2 2281   4.874   4.401   1.250
  780TIP3   OH2 2282   0.041   2.573   3.433
  780TIP3    H1 2283   0.099   2.497   3.429
  780TIP3    H2 2284  -0.021   2.552   3.503
  781TIP3   OH2 2285   0.516   4.194  -0.010
  781TIP3    H1 2286   0.469   4.146   0.058
  781TIP3    H2 2287   0.553   4.270   0.035
  782TIP3   OH2 2288   4.487   7.518   1.630
  782TIP3    H1 2289   4.431   7.518   1.553
  782TIP3    H2 2290   4.429   7.545   1.702
  783TIP3   OH2 2291   5.022   4.089   1.023
  783TIP3    H1 2292   5.011   4.182   1.004
  783TIP3    H2 2293   4.993   4.044   0.943
  784TIP3   OH2 2294   7.211   3.677   0.534
  784TIP3    H1 2295   7.223   3.635   0.619
  784TIP3    H2 2296   7.214   3.605   0.471
  785TIP3   OH2 2297   3.432   5.132   4.759
  785TIP3    H1 2298   3.374   5.152   4.831
  785TIP3    H2 2299   3.511   5.097   4.800
  786TIP3   OH2 2300   2.953   1.180   0.767
  786TIP3    H1 2301   3.006   1.101   0.754
  786TIP3    H2 2302   2.970   1.233   0.688
  787TIP3   OH2 2303   6.026   5.336   3.037
  787TIP3    H1 2304   6.086   5.409   3.051
  787TIP3    H2 2305   5.941   5.370   3.063
  788TIP3   OH2 2306   1.669   4.532   5.160
  788TIP3    H1 2307   1.700   4.582   5.084
  788TIP3    H2 2308   1.586   4.574   5.183
  789TIP3   OH2 2309   0.477   0.286   6.659
  789TIP3    H1 2310   0.560   0.323   6.690
  789TIP3    H2 2311   0.445   0.234   6.733
  790TIP3   OH2 2312   7.712   6.549   2.129
  790TIP3    H1 2313   7.670   6.469   2.159
  790TIP3    H2 2314   7.805   6.530   2.134
  791TIP3   OH2 2315   0.518   6.426   3.558
  791TIP3    H1 2316   0.509   6.479   3.637
  791TIP3    H2 2317   0.481   6.341   3.582
  792TIP3   OH2 2318   0.538   0.439   4.661
  792TIP3    H1 2319   0.528   0.428   4.567
  792TIP3    H2 2320   0.461   0.397   4.699
  793TIP3   OH2 2321   5.332   1.596   0.880
  793TIP3    H1 2322   5.402   1.634   0.828
  793TIP3    H2 2323   5.251   1.626   0.838
  794TIP3   OH2 2324   2.058   2.308   0.073
  794TIP3    H1 2325   2.152   2.309   0.088
  794TIP3    H2 2326   2.047   2.258  -0.008
  795TIP3   OH2 2327   7.495   6.543   1.378
  795TIP3    H1 2328   7.523   6.571   1.465
  795TIP3    H2 2329   7.414   6.495   1.393
  796TIP3   OH2 2330   5.881   3.454   5.021
  796TIP3    H1 2331   5.919   3.367   5.010
  796TIP3    H2 2332   5.912   3.484   5.106
  797TIP3   OH2 2333   6.633   6.997   1.858
  797TIP3    H1 2334   6.575   7.067   1.887
  797TIP3    H2 2335   6.712   7.043   1.829
  798TIP3   OH2 2336   7.279   1.768   1.124
  798TIP3    H1 2337   7.301   1.808   1.040
  798TIP3    H2 2338   7.363   1.739   1.159
  799TIP3   OH2 2339   4.106   3.517   5.913
  799TIP3    H1 2340   4.134   3.456   5.844
  799TIP3    H2 2341   4.102   3.464   5.992
  800TIP3   OH2 2342   1.958   5.753   4.073
  800TIP3    H1 2343   1.868   5.721   4.062
  800TIP3    H2 2344   2.005   5.681   4.114
  801TIP3   OH2 2345   2.017   5.825   2.851
  801TIP3    H1 2346   2.088   5.763   2.869
  801TIP3    H2 2347   1.944   5.794   2.906
  802TIP3   OH2 2348   3.824   5.859   2.041
  802TIP3    H1 2349   3.843   5.774   2.002
  802TIP3    H2 2350   3.730   5.871   2.030
  803TIP3   OH2 2351   2.674   5.459   4.874
  803TIP3    H1 2352   2.650   5.473   4.783
  803TIP3    H2 2353   2.706   5.544   4.904
  804TIP3   OH2 2354   1.488   6.857   2.594
  804TIP3    H1 2355   1.490   6.952   2.603
  804TIP3    H2 2356   1.470   6.842   2.501
  805TIP3   OH2 2357   6.151   2.835   0.745
  805TIP3    H1 2358   6.197   2.916   0.769
  805TIP3    H2 2359   6.127   2.796   0.829
  806TIP3   OH2 2360   4.254   2.765   5.513
  806TIP3    H1 2361   4.198   2.842   5.528
  806TIP3    H2 2362   4.193   2.693   5.501
  807TIP3   OH2 2363   6.341   1.321   6.282
  807TIP3    H1 2364   6.391   1.361   6.211
  807TIP3    H2 2365   6.279   1.262   6.238
  808TIP3   OH2 2366   2.907   1.717   6.686
  808TIP3    H1 2367   2.982   1.701   6.628
  808TIP3    H2 2368   2.874   1.803   6.660
  809TIP3   OH2 2369   3.866   0.478   2.826
  809TIP3    H1 2370   3.923   0.402   2.812
  809TIP3    H2 2371   3.778   0.441   2.829
  810TIP3   OH2 2372   6.955   4.446   6.153
  810TIP3    H1 2373   7.033   4.395   6.135
  810TIP3    H2 2374   6.893   4.383   6.190
  811TIP3   OH2 2375   2.955   3.257   1.570
  811TIP3    H1 2376   3.033   3.261   1.625
  811TIP3    H2 2377   2.949   3.344   1.530
  812TIP3   OH2 2378   6.037   7.804   1.931
  812TIP3    H1 2379   6.098   7.732   1.950
  812TIP3    H2 2380   6.024   7.799   1.836
  813TIP3   OH2 2381   4.669   0.597   3.105
  813TIP3    H1 2382   4.657   0.692   3.112
  813TIP3    H2 2383   4.658   0.579   3.012
  814TIP3   OH2 2384   0.935   5.912   1.661
  814TIP3    H1 2385   1.029   5.905   1.645
  814TIP3    H2 2386   0.926   5.990   1.716
  815TIP3   OH2 2387   2.997   0.261   1.572
  815TIP3    H1 2388   3.023   0.174   1.600
  815TIP3    H2 2389   3.063   0.286   1.507
  816TIP3   OH2 2390   2.595   2.864   6.679
  816TIP3    H1 2391   2.562   2.799   6.741
  816TIP3    H2 2392   2.517   2.911   6.649
  817TIP3   OH2 2393   1.519   0.056   0.760
  817TIP3    H1 2394   1.484   0.145   0.753
  817TIP3    H2 2395   1.525   0.040   0.854
  818TIP3   OH2 2396   5.514   2.643   2.794
  818TIP3    H1 2397   5.571   2.700   2.742
  818TIP3    H2 2398   5.564   2.562   2.804
  819TIP3   OH2 2399   3.701   4.242   3.124
  819TIP3    H1 2400   3.782   4.259   3.171
  819TIP3    H2 2401   3.721   4.263   3.033
  820TIP3   OH2 2402   0.466   7.035   1.355
  820TIP3    H1 2403   0.473   7.096   1.428
  820TIP3    H2 2404   0.477   6.948   1.394
  821TIP3   OH2 2405   5.942   2.048   3.122
  821TIP3    H1 2406   5.965   2.096   3.201
  821TIP3    H2 2407   5.899   2.113   3.066
  822TIP3   OH2 2408   0.874   0.447   4.057
  822TIP3    H1 2409   0.852   0.355   4.075
  822TIP3    H2 2410   0.937   0.470   4.126
  823TIP3   OH2 2411   6.463   5.963   3.234
  823TIP3    H1 2412   6.453   5.995   3.324
  823TIP3    H2 2413   6.551   5.990   3.209
  824TIP3   OH2 2414   7.406   7.076   6.447
  824TIP3    H1 2415   7.491   7.119   6.437
  824TIP3    H2 2416   7.368   7.116   6.525
  825TIP3   OH2 2417   4.841   0.756   5.559
  825TIP3    H1 2418   4.891   0.794   5.487
  825TIP3    H2 2419   4.792   0.830   5.595
  826TIP3   OH2 2420   0.149   3.483   4.272
  826TIP3    H1 2421   0.172   3.560   4.221
  826TIP3    H2 2422   0.085   3.514   4.336
  827TIP3   OH2 2423   6.605   2.264   0.694
  827TIP3    H1 2424   6.596   2.168   0.699
  827TIP3    H2 2425   6.625   2.281   0.602
  828TIP3   OH2 2426   7.399   1.841   6.299
  828TIP3    H1 2427   7.431   1.816   6.212
  828TIP3    H2 2428   7.390   1.759   6.346
  829TIP3   OH2 2429   3.017   3.285   0.870
  829TIP3    H1 2430   3.014   3.332   0.787
  829TIP3    H2 2431   2.932   3.301   0.911
  830TIP3   OH2 2432   6.466   7.636   3.744
  830TIP3    H1 2433   6.410   7.706   3.709
  830TIP3    H2 2434   6.430   7.556   3.706
  831TIP3   OH2 2435   3.973   4.914   0.805
  831TIP3    H1 2436   3.904   4.852   0.830
  831TIP3    H2 2437   3.932   5.000   0.812
  832TIP3   OH2 2438   5.064   5.962   5.448
  832TIP3    H1 2439   5.121   5.978   5.523
  832TIP3    H2 2440   5.108   5.893   5.399
  833TIP3   OH2 2441   7.545   2.002   2.786
  833TIP3    H1 2442   7.576   2.078   2.836
  833TIP3    H2 2443   7.449   2.009   2.789
  834TIP3   OH2 2444   3.655   2.731   6.782
  834TIP3    H1 2445   3.695   2.702   6.700
  834TIP3    H2 2446   3.598   2.803   6.756
  835TIP3   OH2 2447   0.355   3.154   3.682
  835TIP3    H1 2448   0.446   3.181   3.689
  835TIP3    H2 2449   0.359   3.061   3.660
  836TIP3   OH2 2450   1.509   7.124   6.353
  836TIP3    H1 2451   1.505   7.213   6.317
  836TIP3    H2 2452   1.602   7.104   6.356
  837TIP3   OH2 2453   8.207   6.982   1.777
  837TIP3    H1 2454   8.127   6.932   1.791
  837TIP3    H2 2455   8.217   6.986   1.682
  838TIP3   OH2 2456   5.399   4.570   1.677
  838TIP3    H1 2457   5.471   4.631   1.661
  838TIP3    H2 2458   5.326   4.627   1.703
  839TIP3   OH2 2459   3.156   0.225   1.933
  839TIP3    H1 2460   3.102   0.284   1.986
  839TIP3    H2 2461   3.116   0.139   1.945
  840TIP3   OH2 2462   4.455   0.646   1.009
  840TIP3    H1 2463   4.416   0.650   0.921
  840TIP3    H2 2464   4.525   0.711   1.007
  841TIP3   OH2 2465   2.445   6.898   5.047
  841TIP3    H1 2466   2.525   6.860   5.084
  841TIP3    H2 2467   2.416   6.835   4.981
  842TIP3   OH2 2468   1.040   7.371   5.848
  842TIP3    H1 2469   0.979   7.376   5.921
  842TIP3    H2 2470   0.999   7.423   5.779
  843TIP3   OH2 2471   2.081   4.309   5.402
  843TIP3    H1 2472   2.053   4.400   5.415
  843TIP3    H2 2473   2.062   4.267   5.485
  844TIP3   OH2 2474   0.101   6.151   3.450
  844TIP3    H1 2475   0.136   6.198   3.526
  844TIP3    H2 2476   0.142   6.192   3.374
  845TIP3   OH2 2477   8.019   5.451   4.333
  845TIP3    H1 2478   7.995   5.521   4.272
  845TIP3    H2 2479   8.049   5.379   4.277
  846TIP3   OH2 2480   4.784   7.492   1.506
  846TIP3    H1 2481   4.728   7.440   1.449
  846TIP3    H2 2482   4.729   7.565   1.534
  847TIP3   OH2 2483   4.359   5.697   4.947
  847TIP3    H1 2484   4.353   5.682   4.853
  847TIP3    H2 2485   4.286   5.757   4.966
  848TIP3   OH2 2486   0.305   2.470   0.116
  848TIP3    H1 2487   0.329   2.555   0.081
  848TIP3    H2 2488   0.341   2.406   0.054
  849TIP3   OH2 2489   5.167  -0.003   0.430
  849TIP3    H1 2490   5.082  -0.030   0.463
  849TIP3    H2 2491   5.204   0.051   0.500
  850TIP3   OH2 2492   6.846   2.946   3.507
  850TIP3    H1 2493   6.891   2.951   3.422
  850TIP3    H2 2494   6.753   2.958   3.486
  851TIP3   OH2 2495   1.657   5.793   1.285
  851TIP3    H1 2496   1.678   5.878   1.325
  851TIP3    H2 2497   1.623   5.740   1.357
  852TIP3   OH2 2498   1.188   6.998   0.516
  852TIP3    H1 2499   1.172   6.966   0.427
  852TIP3    H2 2500   1.244   6.930   0.555
  853TIP3   OH2 2501   1.625   4.468   6.370
  853TIP3    H1 2502   1.701   4.476   6.428
  853TIP3    H2 2503   1.658   4.489   6.283
  854TIP3   OH2 2504   0.930   1.779   5.230
  854TIP3    H1 2505   0.856   1.838   5.247
  854TIP3    H2 2506   0.992   1.832   5.179
  855TIP3   OH2 2507   6.144   6.878   5.683
  855TIP3    H1 2508   6.060   6.843   5.653
  855TIP3    H2 2509   6.173   6.934   5.610
  856TIP3   OH2 2510   3.429   7.326   2.532
  856TIP3    H1 2511   3.343   7.309   2.494
  856TIP3    H2 2512   3.471   7.239   2.536
  857TIP3   OH2 2513   5.030   2.523   2.165
  857TIP3    H1 2514   5.028   2.435   2.203
  857TIP3    H2 2515   4.940   2.541   2.140
  858TIP3   OH2 2516   4.056   1.870   3.344
  858TIP3    H1 2517   4.041   1.827   3.260
  858TIP3    H2 2518   4.099   1.803   3.397
  859TIP3   OH2 2519   7.610   0.764   3.076
  859TIP3    H1 2520   7.634   0.680   3.115
  859TIP3    H2 2521   7.517   0.753   3.052
  860TIP3   OH2 2522   3.647   1.653   6.233
  860TIP3    H1 2523   3.628   1.663   6.139
  860TIP3    H2 2524   3.592   1.579   6.260
  861TIP3   OH2 2525   2.651   3.409   3.557
  861TIP3    H1 2526   2.602   3.475   3.508
  861TIP3    H2 2527   2.707   3.459   3.616
  862TIP3   OH2 2528   7.711   0.809   2.497
  862TIP3    H1 2529   7.693   0.802   2.591
  862TIP3    H2 2530   7.805   0.792   2.490
  863TIP3   OH2 2531   0.558   4.569   1.877
  863TIP3    H1 2532   0.632   4.616   1.838
  863TIP3    H2 2533   0.563   4.590   1.970
  864TIP3   OH2 2534   6.222   4.494   4.334
  864TIP3    H1 2535   6.150   4.431   4.339
  864TIP3    H2 2536   6.298   4.446   4.366
  865TIP3   OH2 2537   6.552   4.558   6.604
  865TIP3    H1 2538   6.540   4.647   6.639
  865TIP3    H2 2539   6.486   4.506   6.650
  866TIP3   OH2 2540   7.502   1.439   4.251
  866TIP3    H1 2541   7.422   1.389   4.239
  866TIP3    H2 2542   7.522   1.431   4.344
  867TIP3   OH2 2543   0.900   1.098   1.730
  867TIP3    H1 2544   0.922   1.074   1.639
  867TIP3    H2 2545   0.943   1.030   1.783
  868TIP3   OH2 2546   4.430   6.175   2.550
  868TIP3    H1 2547   4.449   6.199   2.459
  868TIP3    H2 2548   4.392   6.088   2.544
  869TIP3   OH2 2549   6.744   5.656   4.790
  869TIP3    H1 2550   6.734   5.631   4.881
  869TIP3    H2 2551   6.785   5.743   4.793
  870TIP3   OH2 2552   0.041   3.920   1.818
  870TIP3    H1 2553   0.051   3.866   1.739
  870TIP3    H2 2554   0.129   3.954   1.835
  871TIP3   OH2 2555   4.247   0.329   3.334
  871TIP3    H1 2556   4.321   0.344   3.393
  871TIP3    H2 2557   4.282   0.274   3.264
  872TIP3   OH2 2558   4.214   2.430   6.398
  872TIP3    H1 2559   4.119   2.436   6.398
  872TIP3    H2 2560   4.236   2.394   6.484
  873TIP3   OH2 2561   7.977   1.373   5.450
  873TIP3    H1 2562   7.914   1.409   5.513
  873TIP3    H2 2563   8.050   1.435   5.450
  874TIP3   OH2 2564   3.394   7.591   1.608
  874TIP3    H1 2565   3.427   7.610   1.520
  874TIP3    H2 2566   3.471   7.556   1.655
  875TIP3   OH2 2567   0.521   6.954   4.001
  875TIP3    H1 2568   0.511   6.859   4.001
  875TIP3    H2 2569   0.447   6.986   3.950
  876TIP3   OH2 2570   4.625   1.315   0.862
  876TIP3    H1 2571   4.535   1.281   0.860
  876TIP3    H2 2572   4.680   1.236   0.861
  877TIP3   OH2 2573   1.898   5.336   4.595
  877TIP3    H1 2574   1.953   5.298   4.527
  877TIP3    H2 2575   1.857   5.412   4.553
  878TIP3   OH2 2576   3.387   5.056   4.505
  878TIP3    H1 2577   3.459   4.995   4.489
  878TIP3    H2 2578   3.397   5.082   4.596
  879TIP3   OH2 2579   5.095   4.681   5.011
  879TIP3    H1 2580   5.104   4.719   5.098
  879TIP3    H2 2581   5.031   4.738   4.968
  880TIP3   OH2 2582   3.650   3.120   0.384
  880TIP3    H1 2583   3.589   3.057   0.345
  880TIP3    H2 2584   3.673   3.179   0.312
  881TIP3   OH2 2585   7.221   3.343   1.340
  881TIP3    H1 2586   7.149   3.353   1.278
  881TIP3    H2 2587   7.195   3.396   1.415
  882TIP3   OH2 2588   1.004   4.641   4.871
  882TIP3    H1 2589   0.943   4.568   4.863
  882TIP3    H2 2590   1.071   4.624   4.805
  883TIP3   OH2 2591   0.799   6.262   5.902
  883TIP3    H1 2592   0.847   6.204   5.843
  883TIP3    H2 2593   0.795   6.346   5.856
  884TIP3   OH2 2594   1.634   5.087   4.053
  884TIP3    H1 2595   1.612   5.013   3.996
  884TIP3    H2 2596   1.577   5.158   4.023
  885TIP3   OH2 2597   2.976   0.746   3.752
  885TIP3    H1 2598   2.960   0.688   3.826
  885TIP3    H2 2599   2.998   0.830   3.792
  886TIP3   OH2 2600   6.541   2.136   5.798
  886TIP3    H1 2601   6.531   2.232   5.793
  886TIP3    H2 2602   6.608   2.123   5.865
  887TIP3   OH2 2603   5.566   2.929   6.360
  887TIP3    H1 2604   5.479   2.905   6.329
  887TIP3    H2 2605   5.609   2.846   6.379
  888TIP3   OH2 2606   5.024   3.783   3.495
  888TIP3    H1 2607   5.115   3.761   3.513
  888TIP3    H2 2608   5.028   3.866   3.449
  889TIP3   OH2 2609   4.299   6.620   2.706
  889TIP3    H1 2610   4.351   6.593   2.630
  889TIP3    H2 2611   4.287   6.539   2.757
  890TIP3   OH2 2612   3.425   2.170   3.307
  890TIP3    H1 2613   3.410   2.260   3.278
  890TIP3    H2 2614   3.357   2.154   3.372
  891TIP3   OH2 2615   2.917   3.961   6.132
  891TIP3    H1 2616   2.872   4.045   6.148
  891TIP3    H2 2617   2.962   3.943   6.214
  892TIP3   OH2 2618   5.362   0.774   2.780
  892TIP3    H1 2619   5.321   0.805   2.861
  892TIP3    H2 2620   5.354   0.848   2.719
  893TIP3   OH2 2621   2.293   1.884   2.697
  893TIP3    H1 2622   2.202   1.907   2.716
  893TIP3    H2 2623   2.314   1.817   2.762
  894TIP3   OH2 2624   0.983   3.379   4.369
  894TIP3    H1 2625   1.037   3.419   4.301
  894TIP3    H2 2626   1.036   3.385   4.449
  895TIP3   OH2 2627   5.284   4.747   5.917
  895TIP3    H1 2628   5.280   4.682   5.847
  895TIP3    H2 2629   5.373   4.783   5.912
  896TIP3   OH2 2630   7.082   6.183   1.244
  896TIP3    H1 2631   7.145   6.115   1.222
  896TIP3    H2 2632   7.080   6.184   1.340
  897TIP3   OH2 2633   0.621   2.095   3.399
  897TIP3    H1 2634   0.683   2.078   3.329
  897TIP3    H2 2635   0.578   2.011   3.414
  898TIP3   OH2 2636   6.417   0.320   5.400
  898TIP3    H1 2637   6.396   0.232   5.434
  898TIP3    H2 2638   6.512   0.325   5.403
  899TIP3   OH2 2639   3.644   7.641   3.891
  899TIP3    H1 2640   3.710   7.680   3.834
  899TIP3    H2 2641   3.646   7.548   3.870
  900TIP3   OH2 2642   5.702   0.547   5.269
  900TIP3    H1 2643   5.667   0.563   5.356
  900TIP3    H2 2644   5.796   0.561   5.277
  901TIP3   OH2 2645   4.957   2.147   1.768
  901TIP3    H1 2646   5.011   2.174   1.694
  901TIP3    H2 2647   4.926   2.059   1.746
  902TIP3   OH2 2648   0.991   0.422   4.478
  902TIP3    H1 2649   1.035   0.463   4.552
  902TIP3    H2 2650   0.911   0.472   4.466
  903TIP3   OH2 2651   4.036   2.511   0.149
  903TIP3    H1 2652   4.084   2.429   0.142
  903TIP3    H2 2653   3.948   2.485   0.178
  904TIP3   OH2 2654   7.703   2.074   4.196
  904TIP3    H1 2655   7.657   1.990   4.204
  904TIP3    H2 2656   7.745   2.085   4.282
  905TIP3   OH2 2657   0.343   7.165   4.415
  905TIP3    H1 2658   0.423   7.140   4.369
  905TIP3    H2 2659   0.373   7.199   4.500
  906TIP3   OH2 2660   3.538   1.800   5.961
  906TIP3    H1 2661   3.522   1.728   5.900
  906TIP3    H2 2662   3.452   1.821   5.996
  907TIP3   OH2 2663   4.382   3.459   5.116
  907TIP3    H1 2664   4.327   3.534   5.094
  907TIP3    H2 2665   4.434   3.487   5.191
  908TIP3   OH2 2666   5.860   3.049   1.176
  908TIP3    H1 2667   5.814   2.966   1.170
  908TIP3    H2 2668   5.936   3.031   1.231
  909TIP3   OH2 2669   6.400   5.725   6.135
  909TIP3    H1 2670   6.397   5.694   6.226
  909TIP3    H2 2671   6.488   5.759   6.123
  910TIP3   OH2 2672   4.532   4.722   6.227
  910TIP3    H1 2673   4.498   4.645   6.273
  910TIP3    H2 2674   4.602   4.688   6.171
  911TIP3   OH2 2675   3.073   7.185   4.379
  911TIP3    H1 2676   3.141   7.252   4.391
  911TIP3    H2 2677   3.022   7.216   4.304
  912TIP3   OH2 2678   2.439   2.857   4.286
  912TIP3    H1 2679   2.524   2.841   4.327
  912TIP3    H2 2680   2.455   2.932   4.228
  913TIP3   OH2 2681   6.998   0.532   6.624
  913TIP3    H1 2682   6.927   0.468   6.626
  913TIP3    H2 2683   6.995   0.573   6.711
  914TIP3   OH2 2684   8.334   3.164   2.992
  914TIP3    H1 2685   8.265   3.193   3.052
  914TIP3    H2 2686   8.361   3.079   3.026
  915TIP3   OH2 2687   7.069   6.729   4.210
  915TIP3    H1 2688   6.982   6.690   4.215
  915TIP3    H2 2689   7.086   6.740   4.117
  916TIP3   OH2 2690   5.162   5.048   4.280
  916TIP3    H1 2691   5.080   5.023   4.324
  916TIP3    H2 2692   5.189   5.129   4.324
  917TIP3   OH2 2693   6.047   1.792   2.038
  917TIP3    H1 2694   6.108   1.840   1.983
  917TIP3    H2 2695   6.040   1.706   1.996
  918TIP3   OH2 2696   0.946   3.902   3.199
  918TIP3    H1 2697   0.918   3.845   3.271
  918TIP3    H2 2698   1.023   3.860   3.163
  919TIP3   OH2 2699   1.782   3.866   6.222
  919TIP3    H1 2700   1.744   3.953   6.212
  919TIP3    H2 2701   1.707   3.807   6.214
  920TIP3   OH2 2702   5.011   2.218   5.583
  920TIP3    H1 2703   5.047   2.195   5.497
  920TIP3    H2 2704   5.074   2.182   5.645
  921TIP3   OH2 2705   1.047   0.177   3.818
  921TIP3    H1 2706   1.015   0.241   3.755
  921TIP3    H2 2707   1.127   0.142   3.779
  922TIP3   OH2 2708   1.310   2.627   0.598
  922TIP3    H1 2709   1.233   2.659   0.551
  922TIP3    H2 2710   1.282   2.543   0.634
  923TIP3   OH2 2711   6.919   3.829   6.152
  923TIP3    H1 2712   6.892   3.746   6.113
  923TIP3    H2 2713   6.996   3.807   6.204
  924TIP3   OH2 2714   2.573   0.693   1.645
  924TIP3    H1 2715   2.527   0.657   1.569
  924TIP3    H2 2716   2.603   0.779   1.617
  925TIP3   OH2 2717   6.159   6.695   5.925
  925TIP3    H1 2718   6.236   6.703   5.980
  925TIP3    H2 2719   6.166   6.767   5.862
  926TIP3   OH2 2720   4.010   0.187   4.900
  926TIP3    H1 2721   3.935   0.131   4.877
  926TIP3    H2 2722   3.987   0.273   4.865
  927TIP3   OH2 2723   5.421   2.724   5.043
  927TIP3    H1 2724   5.344   2.667   5.035
  927TIP3    H2 2725   5.496   2.664   5.035
  928TIP3   OH2 2726   0.741   5.280   4.438
  928TIP3    H1 2727   0.735   5.240   4.351
  928TIP3    H2 2728   0.817   5.239   4.479
  929TIP3   OH2 2729   2.724   5.531   4.392
  929TIP3    H1 2730   2.698   5.480   4.468
  929TIP3    H2 2731   2.680   5.615   4.403
  930TIP3   OH2 2732   2.003   6.717   4.620
  930TIP3    H1 2733   1.925   6.699   4.568
  930TIP3    H2 2734   2.045   6.790   4.575
  931TIP3   OH2 2735   4.688   7.660   5.372
  931TIP3    H1 2736   4.716   7.736   5.322
  931TIP3    H2 2737   4.766   7.632   5.419
  932TIP3   OH2 2738   0.734   3.133   5.833
  932TIP3    H1 2739   0.746   3.045   5.869
  932TIP3    H2 2740   0.775   3.191   5.898
  933TIP3   OH2 2741   3.648   2.197   2.033
  933TIP3    H1 2742   3.675   2.210   1.942
  933TIP3    H2 2743   3.558   2.229   2.037
  934TIP3   OH2 2744   6.582   1.871   0.132
  934TIP3    H1 2745   6.597   1.875   0.037
  934TIP3    H2 2746   6.639   1.800   0.162
  935TIP3   OH2 2747   6.221   5.522   3.107
  935TIP3    H1 2748   6.202   5.602   3.156
  935TIP3    H2 2749   6.309   5.536   3.072
  936TIP3   OH2 2750   1.979   1.813   4.951
  936TIP3    H1 2751   1.945   1.878   4.890
  936TIP3    H2 2752   1.907   1.751   4.964
  937TIP3   OH2 2753   3.902   2.549   2.407
  937TIP3    H1 2754   3.967   2.617   2.425
  937TIP3    H2 2755   3.933   2.506   2.328
  938TIP3   OH2 2756   8.027   6.024   3.809
  938TIP3    H1 2757   7.970   6.094   3.778
  938TIP3    H2 2758   8.108   6.069   3.836
  939TIP3   OH2 2759   6.854   2.211   4.969
  939TIP3    H1 2760   6.904   2.280   5.013
  939TIP3    H2 2761   6.916   2.139   4.959
  940TIP3   OH2 2762   6.674   7.105   1.552
  940TIP3    H1 2763   6.765   7.122   1.527
  940TIP3    H2 2764   6.625   7.115   1.470
  941TIP3   OH2 2765   5.890   2.295   0.350
  941TIP3    H1 2766   5.972   2.249   0.369
  941TIP3    H2 2767   5.875   2.349   0.427
  942TIP3   OH2 2768   5.825   5.239   2.392
  942TIP3    H1 2769   5.906   5.290   2.394
  942TIP3    H2 2770   5.787   5.259   2.307
  943TIP3   OH2 2771   2.441   6.118   4.406
  943TIP3    H1 2772   2.517   6.065   4.382
  943TIP3    H2 2773   2.443   6.192   4.345
  944TIP3   OH2 2774   0.052   6.168   4.169
  944TIP3    H1 2775  -0.015   6.229   4.139
  944TIP3    H2 2776   0.004   6.105   4.223
  945TIP3   OH2 2777   7.486   0.721   5.211
  945TIP3    H1 2778   7.512   0.759   5.295
  945TIP3    H2 2779   7.433   0.789   5.169
  946TIP3   OH2 2780   1.388   3.496   2.088
  946TIP3    H1 2781   1.381   3.587   2.118
  946TIP3    H2 2782   1.335   3.446   2.151
  947TIP3   OH2 2783   1.875   7.464   1.967
  947TIP3    H1 2784   1.910   7.385   1.926
  947TIP3    H2 2785   1.811   7.432   2.031
  948TIP3   OH2 2786   1.502   5.814   3.514
  948TIP3    H1 2787   1.505   5.904   3.546
  948TIP3    H2 2788   1.554   5.765   3.578
  949TIP3   OH2 2789   5.831   4.350   3.479
  949TIP3    H1 2790   5.738   4.361   3.461
  949TIP3    H2 2791   5.867   4.315   3.398
  950TIP3   OH2 2792   2.130   5.880   1.622
  950TIP3    H1 2793   2.149   5.888   1.529
  950TIP3    H2 2794   2.157   5.965   1.659
  951TIP3   OH2 2795   2.791   2.139   5.365
  951TIP3    H1 2796   2.766   2.180   5.447
  951TIP3    H2 2797   2.884   2.119   5.374
  952TIP3   OH2 2798   8.080   0.830   4.020
  952TIP3    H1 2799   8.033   0.904   4.059
  952TIP3    H2 2800   8.045   0.753   4.064
  953TIP3   OH2 2801   4.295   6.586   1.150
  953TIP3    H1 2802   4.208   6.611   1.181
  953TIP3    H2 2803   4.353   6.651   1.189
  954TIP3   OH2 2804   0.300   1.695   1.089
  954TIP3    H1 2805   0.316   1.764   1.153
  954TIP3    H2 2806   0.225   1.646   1.124
  955TIP3   OH2 2807   1.988   1.893   5.228
  955TIP3    H1 2808   1.957   1.803   5.237
  955TIP3    H2 2809   1.986   1.909   5.134
  956TIP3   OH2 2810   0.832   3.367   6.740
  956TIP3    H1 2811   0.775   3.321   6.802
  956TIP3    H2 2812   0.878   3.297   6.693
  957TIP3   OH2 2813   3.482   4.757   6.308
  957TIP3    H1 2814   3.394   4.765   6.271
  957TIP3    H2 2815   3.531   4.707   6.243
  958TIP3   OH2 2816   2.832   4.105   2.649
  958TIP3    H1 2817   2.741   4.078   2.664
  958TIP3    H2 2818   2.859   4.143   2.733
  959TIP3   OH2 2819   0.027   4.337   5.282
  959TIP3    H1 2820   0.081   4.313   5.207
  959TIP3    H2 2821  -0.055   4.289   5.269
  960TIP3   OH2 2822   7.420   3.007   2.097
  960TIP3    H1 2823   7.482   3.060   2.048
  960TIP3    H2 2824   7.344   3.063   2.108
  961TIP3   OH2 2825   1.715   3.917   0.354
  961TIP3    H1 2826   1.737   4.005   0.384
  961TIP3    H2 2827   1.630   3.926   0.312
  962TIP3   OH2 2828   2.726   7.025   1.288
  962TIP3    H1 2829   2.785   6.964   1.331
  962TIP3    H2 2830   2.722   7.100   1.347
  963TIP3   OH2 2831   2.693   4.894   0.076
  963TIP3    H1 2832   2.684   4.987   0.095
  963TIP3    H2 2833   2.603   4.863   0.062
  964TIP3   OH2 2834   1.694   0.282   0.889
  964TIP3    H1 2835   1.610   0.247   0.858
  964TIP3    H2 2836   1.708   0.240   0.973
  965TIP3   OH2 2837   5.684   0.776   6.496
  965TIP3    H1 2838   5.753   0.841   6.514
  965TIP3    H2 2839   5.671   0.782   6.401
  966TIP3   OH2 2840   0.789   4.512   4.263
  966TIP3    H1 2841   0.723   4.442   4.269
  966TIP3    H2 2842   0.794   4.532   4.169
  967TIP3   OH2 2843   3.154   5.852   0.615
  967TIP3    H1 2844   3.216   5.876   0.547
  967TIP3    H2 2845   3.079   5.910   0.603
  968TIP3   OH2 2846   2.244   1.549   3.356
  968TIP3    H1 2847   2.282   1.462   3.344
  968TIP3    H2 2848   2.256   1.593   3.272
  969TIP3   OH2 2849   6.836   5.506   5.906
  969TIP3    H1 2850   6.754   5.458   5.922
  969TIP3    H2 2851   6.859   5.485   5.816
  970TIP3   OH2 2852   7.778   1.063   5.173
  970TIP3    H1 2853   7.823   1.055   5.258
  970TIP3    H2 2854   7.848   1.089   5.112
  971TIP3   OH2 2855   2.466   4.237   5.404
  971TIP3    H1 2856   2.445   4.314   5.457
  971TIP3    H2 2857   2.527   4.270   5.338
  972TIP3   OH2 2858   2.347   3.849   2.576
  972TIP3    H1 2859   2.409   3.779   2.593
  972TIP3    H2 2860   2.270   3.805   2.540
  973TIP3   OH2 2861   6.708   4.666   4.951
  973TIP3    H1 2862   6.773   4.700   4.889
  973TIP3    H2 2863   6.624   4.689   4.911
  974TIP3   OH2 2864   1.644   7.287   5.132
  974TIP3    H1 2865   1.730   7.317   5.161
  974TIP3    H2 2866   1.606   7.244   5.209
  975TIP3   OH2 2867   4.529   5.285   1.323
  975TIP3    H1 2868   4.527   5.349   1.251
  975TIP3    H2 2869   4.570   5.333   1.396
  976TIP3   OH2 2870   4.324   0.409   5.755
  976TIP3    H1 2871   4.271   0.337   5.720
  976TIP3    H2 2872   4.415   0.380   5.741
  977TIP3   OH2 2873   2.733   3.833   2.854
  977TIP3    H1 2874   2.804   3.807   2.795
  977TIP3    H2 2875   2.777   3.861   2.934
  978TIP3   OH2 2876   2.988   6.413   0.441
  978TIP3    H1 2877   2.926   6.353   0.483
  978TIP3    H2 2878   3.023   6.363   0.368
  979TIP3   OH2 2879   6.850   2.704   5.882
  979TIP3    H1 2880   6.922   2.658   5.925
  979TIP3    H2 2881   6.832   2.652   5.803
  980TIP3   OH2 2882   1.195   0.390   1.074
  980TIP3    H1 2883   1.147   0.343   1.006
  980TIP3    H2 2884   1.189   0.482   1.049
  981TIP3   OH2 2885   1.817  -0.024   3.861
  981TIP3    H1 2886   1.807   0.061   3.904
  981TIP3    H2 2887   1.797  -0.007   3.769
  982TIP3   OH2 2888   8.277   4.379   3.779
  982TIP3    H1 2889   8.276   4.445   3.848
  982TIP3    H2 2890   8.190   4.339   3.783
  983TIP3   OH2 2891   2.238   5.974   3.233
  983TIP3    H1 2892   2.236   5.879   3.224
  983TIP3    H2 2893   2.203   6.006   3.150
  984TIP3   OH2 2894   7.177   3.063   5.583
  984TIP3    H1 2895   7.139   3.113   5.510
  984TIP3    H2 2896   7.195   2.977   5.546
  985TIP3   OH2 2897   4.955   3.726   0.569
  985TIP3    H1 2898   4.957   3.683   0.654
  985TIP3    H2 2899   4.868   3.765   0.564
  986TIP3   OH2 2900   3.247   5.350   2.210
  986TIP3    H1 2901   3.215   5.436   2.184
  986TIP3    H2 2902   3.193   5.288   2.160
  987TIP3   OH2 2903   4.039   1.596   0.298
  987TIP3    H1 2904   4.115   1.630   0.345
  987TIP3    H2 2905   4.060   1.505   0.279
  988TIP3   OH2 2906   4.563   2.419   5.163
  988TIP3    H1 2907   4.572   2.343   5.106
  988TIP3    H2 2908   4.469   2.430   5.174
  989TIP3   OH2 2909   3.381   5.122   6.108
  989TIP3    H1 2910   3.326   5.199   6.117
  989TIP3    H2 2911   3.400   5.095   6.198
  990TIP3   OH2 2912   3.241   3.788   4.591
  990TIP3    H1 2913   3.234   3.841   4.512
  990TIP3    H2 2914   3.320   3.819   4.634
  991TIP3   OH2 2915   5.114   0.052   4.386
  991TIP3    H1 2916   5.036   0.107   4.384
  991TIP3    H2 2917   5.084  -0.030   4.426
  992TIP3   OH2 2918   4.836   4.464   3.644
  992TIP3    H1 2919   4.771   4.405   3.605
  992TIP3    H2 2920   4.843   4.537   3.582
  993TIP3   OH2 2921   7.841   4.689   1.724
  993TIP3    H1 2922   7.894   4.768   1.716
  993TIP3    H2 2923   7.865   4.653   1.810
  994TIP3   OH2 2924   1.370   4.723   6.337
  994TIP3    H1 2925   1.347   4.653   6.398
  994TIP3    H2 2926   1.289   4.772   6.323
  995TIP3   OH2 2927   3.987   6.683   5.366
  995TIP3    H1 2928   3.937   6.764   5.376
  995TIP3    H2 2929   4.011   6.681   5.273
  996TIP3   OH2 2930   0.469   3.289   2.862
  996TIP3    H1 2931   0.469   3.246   2.948
  996TIP3    H2 2932   0.454   3.382   2.883
  997TIP3   OH2 2933   6.489   5.297   0.838
  997TIP3    H1 2934   6.557   5.238   0.808
  997TIP3    H2 2935   6.510   5.313   0.930
  998TIP3   OH2 2936   4.955   2.922   5.934
  998TIP3    H1 2937   4.880   2.863   5.927
  998TIP3    H2 2938   5.005   2.906   5.854
  999TIP3   OH2 2939   6.683   2.585   3.393
  999TIP3    H1 2940   6.776   2.599   3.377
  999TIP3    H2 2941   6.679   2.499   3.436
 1000TIP3   OH2 2942   0.475   0.978   0.680
 1000TIP3    H1 2943   0.457   1.061   0.724
 1000TIP3    H2 2944   0.569   0.963   0.693
 1001TIP3   OH2 2945   5.707   6.661   5.082
 1001TIP3    H1 2946   5.663   6.689   5.002
 1001TIP3    H2 2947   5.635   6.640   5.142
 1002TIP3   OH2 2948   4.383   6.935   0.067
 1002TIP3    H1 2949   4.324   6.874   0.112
 1002TIP3    H2 2950   4.329   7.011   0.047
 1003TIP3   OH2 2951   7.021   4.939   6.122
 1003TIP3    H1 2952   7.079   5.011   6.101
 1003TIP3    H2 2953   7.042   4.918   6.214
 1004TIP3   OH2 2954   2.897   6.261   4.231
 1004TIP3    H1 2955   2.862   6.173   4.216
 1004TIP3    H2 2956   2.947   6.280   4.151
 1005TIP3   OH2 2957   1.481   3.991   3.682
 1005TIP3    H1 2958   1.406   4.049   3.673
 1005TIP3    H2 2959   1.548   4.045   3.725
 1006TIP3   OH2 2960   1.046   3.060   0.014
 1006TIP3    H1 2961   1.073   3.094  -0.071
 1006TIP3    H2 2962   1.057   3.133   0.075
 1007TIP3   OH2 2963   3.850   5.671   3.424
 1007TIP3    H1 2964   3.850   5.676   3.519
 1007TIP3    H2 2965   3.768   5.714   3.398
 1008TIP3   OH2 2966   7.861   4.222   0.443
 1008TIP3    H1 2967   7.868   4.132   0.410
 1008TIP3    H2 2968   7.879   4.277   0.367
 1009TIP3   OH2 2969   3.743   4.494   5.773
 1009TIP3    H1 2970   3.682   4.422   5.793
 1009TIP3    H2 2971   3.793   4.464   5.698
 1010TIP3   OH2 2972   5.436   6.942   4.325
 1010TIP3    H1 2973   5.509   7.003   4.315
 1010TIP3    H2 2974   5.474   6.866   4.370
 1011TIP3   OH2 2975   6.643   0.386   4.327
 1011TIP3    H1 2976   6.605   0.451   4.387
 1011TIP3    H2 2977   6.674   0.437   4.253
 1012TIP3   OH2 2978   3.272   1.991   4.091
 1012TIP3    H1 2979   3.181   1.972   4.113
 1012TIP3    H2 2980   3.279   2.086   4.092
 1013TIP3   OH2 2981   0.782   2.999   5.601
 1013TIP3    H1 2982   0.774   3.066   5.669
 1013TIP3    H2 2983   0.855   3.030   5.547
 1014TIP3   OH2 2984   5.335   5.142   4.776
 1014TIP3    H1 2985   5.362   5.188   4.696
 1014TIP3    H2 2986   5.256   5.095   4.750
 1015TIP3   OH2 2987   6.624   6.642   1.680
 1015TIP3    H1 2988   6.610   6.624   1.587
 1015TIP3    H2 2989   6.702   6.698   1.682
 1016TIP3   OH2 2990   3.319   6.100   2.293
 1016TIP3    H1 2991   3.397   6.147   2.265
 1016TIP3    H2 2992   3.332   6.011   2.260
 1017TIP3   OH2 2993   1.875   5.265   1.344
 1017TIP3    H1 2994   1.878   5.351   1.384
 1017TIP3    H2 2995   1.910   5.206   1.411
 1018TIP3   OH2 2996   2.125   6.723   2.132
 1018TIP3    H1 2997   2.149   6.677   2.052
 1018TIP3    H2 2998   2.106   6.654   2.196
 1019TIP3   OH2 2999   4.090   1.892   2.648
 1019TIP3    H1 3000   4.000   1.922   2.632
 1019TIP3    H2 3001   4.101   1.896   2.743
 1020TIP3   OH2 3002   0.256   2.427   0.864
 1020TIP3    H1 3003   0.282   2.517   0.843
 1020TIP3    H2 3004   0.338   2.379   0.872
 1021TIP3   OH2 3005   6.340   1.655   4.252
 1021TIP3    H1 3006   6.340   1.607   4.169
 1021TIP3    H2 3007   6.260   1.625   4.296
 1022TIP3   OH2 3008   2.982   0.686   3.052
 1022TIP3    H1 3009   3.007   0.663   3.142
 1022TIP3    H2 3010   2.947   0.775   3.059
 1023TIP3   OH2 3011   6.574   0.067   0.865
 1023TIP3    H1 3012   6.534   0.149   0.838
 1023TIP3    H2 3013   6.569   0.010   0.788
 1024TIP3   OH2 3014   6.065   2.407   4.517
 1024TIP3    H1 3015   6.145   2.445   4.481
 1024TIP3    H2 3016   6.093   2.324   4.555
 1025TIP3   OH2 3017   6.197   0.336   6.242
 1025TIP3    H1 3018   6.240   0.379   6.168
 1025TIP3    H2 3019   6.268   0.312   6.301
 1026TIP3   OH2 3020   2.385   5.511   1.169
 1026TIP3    H1 3021   2.309   5.546   1.214
 1026TIP3    H2 3022   2.427   5.454   1.233
 1027TIP3   OH2 3023   5.645   0.067   2.615
 1027TIP3    H1 3024   5.656   0.162   2.617
 1027TIP3    H2 3025   5.554   0.054   2.644
 1028TIP3   OH2 3026   3.451   1.141   4.900
 1028TIP3    H1 3027   3.531   1.094   4.876
 1028TIP3    H2 3028   3.397   1.139   4.821
 1029TIP3   OH2 3029   5.128   2.496   3.569
 1029TIP3    H1 3030   5.051   2.473   3.517
 1029TIP3    H2 3031   5.128   2.434   3.642
 1030TIP3   OH2 3032   6.875   2.826   4.884
 1030TIP3    H1 3033   6.860   2.737   4.915
 1030TIP3    H2 3034   6.921   2.869   4.956
 1031TIP3   OH2 3035   0.787   6.191   1.682
 1031TIP3    H1 3036   0.871   6.221   1.645
 1031TIP3    H2 3037   0.808   6.163   1.771
 1032TIP3   OH2 3038   1.909   3.421   4.554
 1032TIP3    H1 3039   1.861   3.491   4.509
 1032TIP3    H2 3040   1.852   3.397   4.628
 1033TIP3   OH2 3041   5.513   2.606   3.741
 1033TIP3    H1 3042   5.582   2.589   3.804
 1033TIP3    H2 3043   5.545   2.681   3.690
 1034TIP3   OH2 3044   4.374   1.560   1.270
 1034TIP3    H1 3045   4.467   1.539   1.284
 1034TIP3    H2 3046   4.371   1.592   1.180
 1035TIP3   OH2 3047   4.303   0.421   2.604
 1035TIP3    H1 3048   4.297   0.362   2.529
 1035TIP3    H2 3049   4.380   0.391   2.652
 1036TIP3   OH2 3050   7.960   3.365   4.886
 1036TIP3    H1 3051   7.906   3.404   4.955
 1036TIP3    H2 3052   8.029   3.430   4.871
 1037TIP3   OH2 3053   7.720   7.601   2.210
 1037TIP3    H1 3054   7.812   7.575   2.209
 1037TIP3    H2 3055   7.684   7.567   2.128
 1038TIP3   OH2 3056   4.661   3.070   2.682
 1038TIP3    H1 3057   4.664   3.072   2.586
 1038TIP3    H2 3058   4.568   3.059   2.702
 1039TIP3   OH2 3059   0.544   6.696   4.260
 1039TIP3    H1 3060   0.490   6.774   4.255
 1039TIP3    H2 3061   0.578   6.696   4.350
 1040TIP3   OH2 3062   1.960   0.032   5.878
 1040TIP3    H1 3063   1.959   0.064   5.788
 1040TIP3    H2 3064   1.996   0.105   5.929
 1041TIP3   OH2 3065   8.086   2.303   1.707
 1041TIP3    H1 3066   8.001   2.341   1.730
 1041TIP3    H2 3067   8.097   2.229   1.767
 1042TIP3   OH2 3068   0.617   6.636   5.463
 1042TIP3    H1 3069   0.577   6.646   5.549
 1042TIP3    H2 3070   0.710   6.655   5.476
 1043TIP3   OH2 3071   3.961   0.852   1.701
 1043TIP3    H1 3072   3.928   0.925   1.752
 1043TIP3    H2 3073   3.968   0.780   1.764
 1044TIP3   OH2 3074   4.988   4.562   3.081
 1044TIP3    H1 3075   5.043   4.560   3.002
 1044TIP3    H2 3076   4.898   4.560   3.047
 1045TIP3   OH2 3077   4.512   3.584   4.673
 1045TIP3    H1 3078   4.573   3.550   4.738
 1045TIP3    H2 3079   4.432   3.533   4.685
 1046TIP3   OH2 3080   1.541   3.807   2.279
 1046TIP3    H1 3081   1.448   3.825   2.270
 1046TIP3    H2 3082   1.573   3.876   2.337
 1047TIP3   OH2 3083   4.388   2.877   0.216
 1047TIP3    H1 3084   4.481   2.860   0.206
 1047TIP3    H2 3085   4.380   2.972   0.211
 1048TIP3   OH2 3086   4.615   2.524   4.875
 1048TIP3    H1 3087   4.569   2.488   4.799
 1048TIP3    H2 3088   4.614   2.453   4.939
 1049TIP3   OH2 3089   6.961   7.799   0.217
 1049TIP3    H1 3090   6.994   7.741   0.286
 1049TIP3    H2 3091   6.920   7.740   0.154
 1050TIP3   OH2 3092   3.795   1.656   5.573
 1050TIP3    H1 3093   3.883   1.674   5.607
 1050TIP3    H2 3094   3.807   1.645   5.479
 1051TIP3   OH2 3095   8.212   2.892   2.176
 1051TIP3    H1 3096   8.180   2.802   2.183
 1051TIP3    H2 3097   8.171   2.938   2.249
 1052TIP3   OH2 3098   1.483   6.672   0.859
 1052TIP3    H1 3099   1.433   6.709   0.787
 1052TIP3    H2 3100   1.559   6.728   0.868
 1053TIP3   OH2 3101   2.663   3.240   3.987
 1053TIP3    H1 3102   2.687   3.281   3.904
 1053TIP3    H2 3103   2.693   3.301   4.054
 1054TIP3   OH2 3104   1.287   1.184   4.410
 1054TIP3    H1 3105   1.255   1.243   4.341
 1054TIP3    H2 3106   1.253   1.098   4.385
 1055TIP3   OH2 3107   2.479   4.483   0.840
 1055TIP3    H1 3108   2.558   4.532   0.817
 1055TIP3    H2 3109   2.505   4.391   0.828
 1056TIP3   OH2 3110   1.957   0.800   2.682
 1056TIP3    H1 3111   1.968   0.705   2.689
 1056TIP3    H2 3112   1.951   0.830   2.773
 1057TIP3   OH2 3113   3.305   1.191   4.094
 1057TIP3    H1 3114   3.385   1.241   4.114
 1057TIP3    H2 3115   3.326   1.143   4.014
 1058TIP3   OH2 3116   2.978   2.952   6.074
 1058TIP3    H1 3117   3.033   2.892   6.022
 1058TIP3    H2 3118   2.935   2.895   6.138
 1059TIP3   OH2 3119   1.219   5.307   3.197
 1059TIP3    H1 3120   1.152   5.364   3.233
 1059TIP3    H2 3121   1.245   5.251   3.270
 1060TIP3   OH2 3122   0.551   3.985   6.752
 1060TIP3    H1 3123   0.600   4.062   6.781
 1060TIP3    H2 3124   0.601   3.911   6.788
 1061TIP3   OH2 3125   7.060   3.366   0.768
 1061TIP3    H1 3126   7.066   3.299   0.835
 1061TIP3    H2 3127   7.100   3.327   0.690
 1062TIP3   OH2 3128   5.723   5.851   1.023
 1062TIP3    H1 3129   5.743   5.809   1.107
 1062TIP3    H2 3130   5.785   5.924   1.017
 1063TIP3   OH2 3131   6.369   7.489   6.256
 1063TIP3    H1 3132   6.375   7.403   6.215
 1063TIP3    H2 3133   6.388   7.551   6.187
 1064TIP3   OH2 3134   3.119   4.940   5.364
 1064TIP3    H1 3135   3.033   4.945   5.324
 1064TIP3    H2 3136   3.174   4.999   5.313
 1065TIP3   OH2 3137   3.926   1.709   6.258
 1065TIP3    H1 3138   3.937   1.780   6.321
 1065TIP3    H2 3139   3.832   1.702   6.244
 1066TIP3   OH2 3140   4.654   0.456   2.454
 1066TIP3    H1 3141   4.735   0.416   2.485
 1066TIP3    H2 3142   4.672   0.550   2.453
 1067TIP3   OH2 3143   4.238   4.429   6.172
 1067TIP3    H1 3144   4.180   4.504   6.160
 1067TIP3    H2 3145   4.321   4.467   6.200
 1068TIP3   OH2 3146   3.568   1.012   2.449
 1068TIP3    H1 3147   3.489   1.045   2.406
 1068TIP3    H2 3148   3.584   1.075   2.520
 1069TIP3   OH2 3149   7.005   6.318   3.899
 1069TIP3    H1 3150   6.946   6.393   3.903
 1069TIP3    H2 3151   7.048   6.327   3.814
 1070TIP3   OH2 3152   5.519   2.549   6.113
 1070TIP3    H1 3153   5.599   2.598   6.097
 1070TIP3    H2 3154   5.451   2.616   6.119
 1071TIP3   OH2 3155   7.070   4.013   1.764
 1071TIP3    H1 3156   7.165   4.026   1.768
 1071TIP3    H2 3157   7.034   4.084   1.818
 1072TIP3   OH2 3158   0.322   1.816   3.714
 1072TIP3    H1 3159   0.327   1.793   3.621
 1072TIP3    H2 3160   0.340   1.910   3.716
 1073TIP3   OH2 3161   3.245   6.045   2.925
 1073TIP3    H1 3162   3.160   6.088   2.927
 1073TIP3    H2 3163   3.309   6.116   2.921
 1074TIP3   OH2 3164   7.322   0.895   1.976
 1074TIP3    H1 3165   7.231   0.869   1.962
 1074TIP3    H2 3166   7.334   0.971   1.919
 1075TIP3   OH2 3167   4.053   5.593   1.735
 1075TIP3    H1 3168   3.996   5.570   1.661
 1075TIP3    H2 3169   4.116   5.656   1.698
 1076TIP3   OH2 3170   7.998   1.808   4.226
 1076TIP3    H1 3171   8.022   1.734   4.171
 1076TIP3    H2 3172   7.903   1.806   4.230
 1077TIP3   OH2 3173   4.475   0.407   1.156
 1077TIP3    H1 3174   4.538   0.447   1.216
 1077TIP3    H2 3175   4.453   0.478   1.095
 1078TIP3   OH2 3176   2.486   1.460   0.188
 1078TIP3    H1 3177   2.492   1.371   0.222
 1078TIP3    H2 3178   2.405   1.495   0.226
 1079TIP3   OH2 3179   3.716   7.322   1.792
 1079TIP3    H1 3180   3.747   7.377   1.865
 1079TIP3    H2 3181   3.697   7.237   1.832
 1080TIP3   OH2 3182   0.518   0.024   4.606
 1080TIP3    H1 3183   0.426   0.032   4.582
 1080TIP3    H2 3184   0.541  -0.065   4.581
 1081TIP3   OH2 3185   2.706   0.447   5.582
 1081TIP3    H1 3186   2.754   0.458   5.501
 1081TIP3    H2 3187   2.698   0.353   5.594
 1082TIP3   OH2 3188   2.711   2.161   3.078
 1082TIP3    H1 3189   2.632   2.157   3.132
 1082TIP3    H2 3190   2.702   2.242   3.027
 1083TIP3   OH2 3191   3.709   3.289   1.294
 1083TIP3    H1 3192   3.710   3.199   1.260
 1083TIP3    H2 3193   3.618   3.304   1.319
 1084TIP3   OH2 3194   7.283   2.343   3.130
 1084TIP3    H1 3195   7.204   2.291   3.116
 1084TIP3    H2 3196   7.330   2.296   3.199
 1085TIP3   OH2 3197   0.423   6.585   3.068
 1085TIP3    H1 3198   0.365   6.661   3.073
 1085TIP3    H2 3199   0.445   6.577   2.975
 1086TIP3   OH2 3200   6.326   0.667   5.156
 1086TIP3    H1 3201   6.238   0.663   5.193
 1086TIP3    H2 3202   6.363   0.748   5.190
 1087TIP3   OH2 3203   6.352   6.226   5.028
 1087TIP3    H1 3204   6.340   6.230   5.123
 1087TIP3    H2 3205   6.322   6.312   4.996
 1088TIP3   OH2 3206   5.357   3.190   4.606
 1088TIP3    H1 3207   5.313   3.254   4.662
 1088TIP3    H2 3208   5.441   3.174   4.649
 1089TIP3   OH2 3209   6.616   0.917   2.378
 1089TIP3    H1 3210   6.523   0.894   2.376
 1089TIP3    H2 3211   6.661   0.834   2.392
 1090TIP3   OH2 3212   0.269   4.748   0.361
 1090TIP3    H1 3213   0.312   4.817   0.310
 1090TIP3    H2 3214   0.196   4.720   0.306
 1091TIP3   OH2 3215   4.517   0.725   4.382
 1091TIP3    H1 3216   4.514   0.682   4.467
 1091TIP3    H2 3217   4.535   0.655   4.320
 1092TIP3   OH2 3218   0.104   3.054   4.062
 1092TIP3    H1 3219   0.111   3.108   4.141
 1092TIP3    H2 3220   0.011   3.053   4.042
 1093TIP3   OH2 3221   0.653   7.403   1.729
 1093TIP3    H1 3222   0.636   7.461   1.803
 1093TIP3    H2 3223   0.705   7.456   1.669
 1094TIP3   OH2 3224   1.536   0.740   3.555
 1094TIP3    H1 3225   1.493   0.654   3.557
 1094TIP3    H2 3226   1.514   0.776   3.469
 1095TIP3   OH2 3227   4.235   4.529   3.399
 1095TIP3    H1 3228   4.225   4.439   3.431
 1095TIP3    H2 3229   4.284   4.520   3.317
 1096TIP3   OH2 3230   0.735   3.506   4.125
 1096TIP3    H1 3231   0.734   3.591   4.081
 1096TIP3    H2 3232   0.780   3.522   4.207
 1097TIP3   OH2 3233   0.732   6.689   0.588
 1097TIP3    H1 3234   0.809   6.681   0.645
 1097TIP3    H2 3235   0.748   6.768   0.537
 1098TIP3   OH2 3236   6.578   7.525   0.591
 1098TIP3    H1 3237   6.508   7.560   0.535
 1098TIP3    H2 3238   6.639   7.598   0.601
 1099TIP3   OH2 3239   4.439   4.886   0.633
 1099TIP3    H1 3240   4.525   4.861   0.599
 1099TIP3    H2 3241   4.388   4.906   0.554
 1100TIP3   OH2 3242   4.863   1.972   3.068
 1100TIP3    H1 3243   4.801   1.961   3.140
 1100TIP3    H2 3244   4.871   1.885   3.029
 1101TIP3   OH2 3245   1.790   2.304   4.121
 1101TIP3    H1 3246   1.757   2.386   4.158
 1101TIP3    H2 3247   1.724   2.276   4.058
 1102TIP3   OH2 3248   4.214   5.072   0.837
 1102TIP3    H1 3249   4.137   5.019   0.813
 1102TIP3    H2 3250   4.283   5.008   0.852
 1103TIP3   OH2 3251   4.781   5.067   2.364
 1103TIP3    H1 3252   4.788   5.094   2.273
 1103TIP3    H2 3253   4.863   5.095   2.404
 1104TIP3   OH2 3254   5.971   4.640   3.705
 1104TIP3    H1 3255   5.972   4.683   3.619
 1104TIP3    H2 3256   5.880   4.644   3.732
 1105TIP3   OH2 3257   2.034   0.854   3.545
 1105TIP3    H1 3258   2.103   0.885   3.603
 1105TIP3    H2 3259   1.955   0.900   3.574
 1106TIP3   OH2 3260   4.268   7.122   1.553
 1106TIP3    H1 3261   4.231   7.077   1.629
 1106TIP3    H2 3262   4.318   7.054   1.507
 1107TIP3   OH2 3263   6.372   1.356   1.884
 1107TIP3    H1 3264   6.394   1.398   1.967
 1107TIP3    H2 3265   6.302   1.294   1.906
 1108TIP3   OH2 3266   3.756   5.828   1.637
 1108TIP3    H1 3267   3.785   5.737   1.647
 1108TIP3    H2 3268   3.662   5.821   1.620
 1109TIP3   OH2 3269   7.436   5.088   1.573
 1109TIP3    H1 3270   7.393   5.173   1.580
 1109TIP3    H2 3271   7.392   5.033   1.639
 1110TIP3   OH2 3272   5.237   5.221   0.423
 1110TIP3    H1 3273   5.184   5.265   0.357
 1110TIP3    H2 3274   5.173   5.179   0.481
 1111TIP3   OH2 3275   4.847   2.569   6.413
 1111TIP3    H1 3276   4.934   2.529   6.409
 1111TIP3    H2 3277   4.851   2.640   6.349
 1112TIP3   OH2 3278   5.998   7.387   0.563
 1112TIP3    H1 3279   6.076   7.340   0.535
 1112TIP3    H2 3280   6.018   7.479   0.547
 1113TIP3   OH2 3281   6.304   2.418   5.312
 1113TIP3    H1 3282   6.315   2.445   5.221
 1113TIP3    H2 3283   6.215   2.382   5.316
 1114TIP3   OH2 3284   4.950   4.733   6.683
 1114TIP3    H1 3285   4.994   4.655   6.651
 1114TIP3    H2 3286   4.974   4.802   6.620
 1115TIP3   OH2 3287   1.557   4.698   3.195
 1115TIP3    H1 3288   1.555   4.654   3.110
 1115TIP3    H2 3289   1.650   4.706   3.216
 1116TIP3   OH2 3290   8.232   4.932   5.714
 1116TIP3    H1 3291   8.226   5.005   5.652
 1116TIP3    H2 3292   8.238   4.854   5.660
 1117TIP3   OH2 3293   5.960   7.147   3.893
 1117TIP3    H1 3294   5.937   7.139   3.800
 1117TIP3    H2 3295   5.984   7.058   3.920
 1118TIP3   OH2 3296   4.810   1.770   5.220
 1118TIP3    H1 3297   4.873   1.812   5.280
 1118TIP3    H2 3298   4.846   1.786   5.133
 1119TIP3   OH2 3299   7.320   4.513   1.829
 1119TIP3    H1 3300   7.400   4.565   1.823
 1119TIP3    H2 3301   7.344   4.429   1.790
 1120TIP3   OH2 3302   1.189   1.153   5.960
 1120TIP3    H1 3303   1.188   1.209   6.038
 1120TIP3    H2 3304   1.240   1.076   5.987
 1121TIP3   OH2 3305   7.485   6.900   1.635
 1121TIP3    H1 3306   7.514   6.898   1.544
 1121TIP3    H2 3307   7.391   6.914   1.630
 1122TIP3   OH2 3308   3.902   0.178   3.837
 1122TIP3    H1 3309   3.921   0.270   3.822
 1122TIP3    H2 3310   3.862   0.148   3.755
 1123TIP3   OH2 3311   5.944   5.983   5.717
 1123TIP3    H1 3312   5.864   6.024   5.685
 1123TIP3    H2 3313   5.946   5.897   5.675
 1124TIP3   OH2 3314   1.001   5.259   4.619
 1124TIP3    H1 3315   1.096   5.248   4.610
 1124TIP3    H2 3316   0.988   5.354   4.623
 1125TIP3   OH2 3317   5.636   6.629   4.725
 1125TIP3    H1 3318   5.691   6.554   4.702
 1125TIP3    H2 3319   5.605   6.610   4.813
 1126TIP3   OH2 3320   2.665   6.954   2.794
 1126TIP3    H1 3321   2.581   7.000   2.791
 1126TIP3    H2 3322   2.643   6.867   2.827
 1127TIP3   OH2 3323   1.435   3.716   3.700
 1127TIP3    H1 3324   1.339   3.723   3.709
 1127TIP3    H2 3325   1.464   3.806   3.683
 1128TIP3   OH2 3326   6.373   4.016   1.643
 1128TIP3    H1 3327   6.290   3.969   1.648
 1128TIP3    H2 3328   6.382   4.060   1.727
 1129TIP3   OH2 3329   7.648   7.311   3.445
 1129TIP3    H1 3330   7.561   7.278   3.465
 1129TIP3    H2 3331   7.666   7.280   3.356
 1130TIP3   OH2 3332   1.557   7.336   3.268
 1130TIP3    H1 3333   1.528   7.247   3.285
 1130TIP3    H2 3334   1.515   7.388   3.336
 1131TIP3   OH2 3335   7.081   1.551   5.128
 1131TIP3    H1 3336   7.045   1.463   5.143
 1131TIP3    H2 3337   7.054   1.602   5.204
 1132TIP3   OH2 3338   2.614   5.425   0.028
 1132TIP3    H1 3339   2.628   5.520   0.021
 1132TIP3    H2 3340   2.521   5.413   0.011
 1133TIP3   OH2 3341   0.423   4.268   0.859
 1133TIP3    H1 3342   0.512   4.293   0.833
 1133TIP3    H2 3343   0.416   4.296   0.951
 1134TIP3   OH2 3344   5.930   7.700   1.396
 1134TIP3    H1 3345   5.872   7.698   1.320
 1134TIP3    H2 3346   5.924   7.612   1.434
 1135TIP3   OH2 3347   7.240   1.918   5.041
 1135TIP3    H1 3348   7.269   1.830   5.065
 1135TIP3    H2 3349   7.263   1.925   4.948
 1136TIP3   OH2 3350   7.958   7.013   4.932
 1136TIP3    H1 3351   7.875   6.990   4.973
 1136TIP3    H2 3352   7.939   7.092   4.881
 1137TIP3   OH2 3353   3.164   0.281   3.474
 1137TIP3    H1 3354   3.187   0.189   3.488
 1137TIP3    H2 3355   3.119   0.306   3.555
 1138TIP3   OH2 3356   0.498   3.782   5.601
 1138TIP3    H1 3357   0.543   3.708   5.641
 1138TIP3    H2 3358   0.408   3.775   5.630
 1139TIP3   OH2 3359   2.899   6.212   1.028
 1139TIP3    H1 3360   2.916   6.117   1.028
 1139TIP3    H2 3361   2.829   6.224   1.092
 1140TIP3   OH2 3362   7.257   6.712   2.201
 1140TIP3    H1 3363   7.261   6.704   2.105
 1140TIP3    H2 3364   7.175   6.670   2.225
 1141TIP3   OH2 3365   0.418   5.071   5.695
 1141TIP3    H1 3366   0.332   5.043   5.727
 1141TIP3    H2 3367   0.407   5.163   5.672
 1142TIP3   OH2 3368   0.381   2.150   4.717
 1142TIP3    H1 3369   0.441   2.151   4.792
 1142TIP3    H2 3370   0.302   2.106   4.750
 1143TIP3   OH2 3371   5.206   4.772   1.786
 1143TIP3    H1 3372   5.187   4.839   1.721
 1143TIP3    H2 3373   5.132   4.710   1.778
 1144TIP3   OH2 3374   0.358   4.099   0.170
 1144TIP3    H1 3375   0.272   4.071   0.199
 1144TIP3    H2 3376   0.403   4.126   0.250
 1145TIP3   OH2 3377   6.031   0.735   3.913
 1145TIP3    H1 3378   6.086   0.660   3.934
 1145TIP3    H2 3379   5.972   0.704   3.845
 1146TIP3   OH2 3380   4.624   4.061   5.360
 1146TIP3    H1 3381   4.562   4.124   5.324
 1146TIP3    H2 3382   4.622   4.076   5.455
 1147TIP3   OH2 3383   1.442   4.432   0.648
 1147TIP3    H1 3384   1.430   4.471   0.561
 1147TIP3    H2 3385   1.533   4.403   0.649
 1148TIP3   OH2 3386   4.016   1.129   3.029
 1148TIP3    H1 3387   3.951   1.165   2.969
 1148TIP3    H2 3388   4.033   1.200   3.091
 1149TIP3   OH2 3389   4.365   2.970   6.539
 1149TIP3    H1 3390   4.420   2.894   6.525
 1149TIP3    H2 3391   4.306   2.945   6.610
 1150TIP3   OH2 3392   1.697   7.852   3.286
 1150TIP3    H1 3393   1.786   7.883   3.304
 1150TIP3    H2 3394   1.709   7.761   3.258
 1151TIP3   OH2 3395   3.407   5.388   4.629
 1151TIP3    H1 3396   3.393   5.364   4.538
 1151TIP3    H2 3397   3.412   5.304   4.676
 1152TIP3   OH2 3398   7.139   7.052   6.254
 1152TIP3    H1 3399   7.140   6.962   6.222
 1152TIP3    H2 3400   7.186   7.048   6.338
 1153TIP3   OH2 3401   3.514   5.642   3.027
 1153TIP3    H1 3402   3.569   5.591   2.968
 1153TIP3    H2 3403   3.551   5.627   3.114
 1154TIP3   OH2 3404   1.588   5.816   1.967
 1154TIP3    H1 3405   1.645   5.888   1.939
 1154TIP3    H2 3406   1.518   5.859   2.016
 1155TIP3   OH2 3407   5.321   3.938   5.816
 1155TIP3    H1 3408   5.297   3.846   5.805
 1155TIP3    H2 3409   5.291   3.980   5.735
 1156TIP3   OH2 3410   3.460   5.655   0.808
 1156TIP3    H1 3411   3.515   5.728   0.779
 1156TIP3    H2 3412   3.503   5.623   0.887
 1157TIP3   OH2 3413   7.936   3.422   5.581
 1157TIP3    H1 3414   7.918   3.364   5.507
 1157TIP3    H2 3415   7.860   3.479   5.586
 1158TIP3   OH2 3416   7.035   0.624   4.271
 1158TIP3    H1 3417   6.962   0.567   4.247
 1158TIP3    H2 3418   7.058   0.597   4.360
 1159TIP3   OH2 3419   1.819   2.721   5.691
 1159TIP3    H1 3420   1.762   2.652   5.725
 1159TIP3    H2 3421   1.828   2.701   5.597
 1160TIP3   OH2 3422   2.799   3.518   0.137
 1160TIP3    H1 3423   2.761   3.434   0.110
 1160TIP3    H2 3424   2.725   3.567   0.172
 1161TIP3   OH2 3425   8.041   2.255   4.727
 1161TIP3    H1 3426   8.119   2.272   4.673
 1161TIP3    H2 3427   7.973   2.233   4.664
 1162TIP3   OH2 3428   4.842   3.891   1.365
 1162TIP3    H1 3429   4.877   3.869   1.279
 1162TIP3    H2 3430   4.920   3.899   1.421
 1163TIP3   OH2 3431   5.033   1.146   3.108
 1163TIP3    H1 3432   5.031   1.222   3.166
 1163TIP3    H2 3433   4.941   1.121   3.097
 1164TIP3   OH2 3434   6.760   5.829   1.696
 1164TIP3    H1 3435   6.759   5.747   1.745
 1164TIP3    H2 3436   6.670   5.860   1.698
 1165TIP3   OH2 3437   7.338   6.488   2.670
 1165TIP3    H1 3438   7.270   6.431   2.634
 1165TIP3    H2 3439   7.343   6.561   2.608
 1166TIP3   OH2 3440   6.010   1.221   2.451
 1166TIP3    H1 3441   5.992   1.312   2.428
 1166TIP3    H2 3442   6.042   1.224   2.541
 1167TIP3   OH2 3443   3.966   6.529   5.586
 1167TIP3    H1 3444   3.957   6.570   5.500
 1167TIP3    H2 3445   4.027   6.586   5.633
 1168TIP3   OH2 3446   6.171   3.078   1.314
 1168TIP3    H1 3447   6.132   2.991   1.304
 1168TIP3    H2 3448   6.151   3.103   1.404
 1169TIP3   OH2 3449   1.088   3.167   1.015
 1169TIP3    H1 3450   1.128   3.223   0.948
 1169TIP3    H2 3451   1.013   3.218   1.047
 1170TIP3   OH2 3452   5.423   6.703   6.479
 1170TIP3    H1 3453   5.346   6.758   6.495
 1170TIP3    H2 3454   5.399   6.649   6.404
 1171TIP3   OH2 3455   3.083   4.034   0.789
 1171TIP3    H1 3456   3.014   4.097   0.807
 1171TIP3    H2 3457   3.068   4.007   0.699
 1172TIP3   OH2 3458   4.474   5.673   6.293
 1172TIP3    H1 3459   4.467   5.739   6.224
 1172TIP3    H2 3460   4.447   5.718   6.373
 1173TIP3   OH2 3461   0.387   6.042   2.835
 1173TIP3    H1 3462   0.431   5.957   2.842
 1173TIP3    H2 3463   0.323   6.041   2.906
 1174TIP3   OH2 3464   5.958   2.135   6.128
 1174TIP3    H1 3465   6.014   2.085   6.187
 1174TIP3    H2 3466   5.989   2.225   6.138
 1175TIP3   OH2 3467   5.157   1.115   5.187
 1175TIP3    H1 3468   5.212   1.037   5.187
 1175TIP3    H2 3469   5.171   1.154   5.101
 1176TIP3   OH2 3470   4.965   6.556   1.436
 1176TIP3    H1 3471   5.038   6.499   1.410
 1176TIP3    H2 3472   4.915   6.569   1.355
 1177TIP3   OH2 3473   4.897   1.547   0.385
 1177TIP3    H1 3474   4.975   1.498   0.410
 1177TIP3    H2 3475   4.832   1.481   0.362
 1178TIP3   OH2 3476   1.150   6.218   3.278
 1178TIP3    H1 3477   1.163   6.285   3.211
 1178TIP3    H2 3478   1.239   6.192   3.303
 1179TIP3   OH2 3479   4.147   1.500   4.611
 1179TIP3    H1 3480   4.228   1.495   4.662
 1179TIP3    H2 3481   4.170   1.551   4.534
 1180TIP3   OH2 3482   7.970   5.955   3.316
 1180TIP3    H1 3483   8.020   6.001   3.384
 1180TIP3    H2 3484   7.885   5.999   3.316
 1181TIP3   OH2 3485   6.668   4.132   3.998
 1181TIP3    H1 3486   6.578   4.100   4.004
 1181TIP3    H2 3487   6.703   4.120   4.087
 1182TIP3   OH2 3488   1.181   3.584   2.767
 1182TIP3    H1 3489   1.103   3.529   2.763
 1182TIP3    H2 3490   1.152   3.669   2.734
 1183TIP3   OH2 3491   4.348   2.098   4.818
 1183TIP3    H1 3492   4.278   2.075   4.757
 1183TIP3    H2 3493   4.331   2.189   4.841
 1184TIP3   OH2 3494   4.967   3.276   6.497
 1184TIP3    H1 3495   4.892   3.220   6.477
 1184TIP3    H2 3496   5.024   3.220   6.550
 1185TIP3   OH2 3497   1.391   7.566   0.951
 1185TIP3    H1 3498   1.410   7.621   0.876
 1185TIP3    H2 3499   1.416   7.619   1.027
 1186TIP3   OH2 3500   2.608   4.089   4.736
 1186TIP3    H1 3501   2.635   4.134   4.656
 1186TIP3    H2 3502   2.520   4.122   4.754
 1187TIP3   OH2 3503   0.623   6.746   6.438
 1187TIP3    H1 3504   0.581   6.810   6.494
 1187TIP3    H2 3505   0.709   6.731   6.478
 1188TIP3   OH2 3506   2.930   7.251   2.275
 1188TIP3    H1 3507   2.867   7.252   2.203
 1188TIP3    H2 3508   3.006   7.204   2.240
 1189TIP3   OH2 3509   5.560   2.323   2.815
 1189TIP3    H1 3510   5.475   2.296   2.782
 1189TIP3    H2 3511   5.546   2.339   2.908
 1190TIP3   OH2 3512   2.708   5.629   6.270
 1190TIP3    H1 3513   2.661   5.586   6.341
 1190TIP3    H2 3514   2.790   5.658   6.310
 1191TIP3   OH2 3515   0.209   5.056   3.971
 1191TIP3    H1 3516   0.160   5.134   3.943
 1191TIP3    H2 3517   0.279   5.090   4.027
 1192TIP3   OH2 3518   6.172   4.599   0.855
 1192TIP3    H1 3519   6.192   4.666   0.790
 1192TIP3    H2 3520   6.250   4.596   0.910
 1193TIP3   OH2 3521   4.071   1.354   4.097
 1193TIP3    H1 3522   3.980   1.381   4.091
 1193TIP3    H2 3523   4.110   1.383   4.014
 1194TIP3   OH2 3524   7.542   0.159   5.884
 1194TIP3    H1 3525   7.596   0.114   5.950
 1194TIP3    H2 3526   7.605   0.201   5.826
 1195TIP3   OH2 3527   2.078   1.298   3.820
 1195TIP3    H1 3528   1.997   1.331   3.781
 1195TIP3    H2 3529   2.138   1.372   3.815
 1196TIP3   OH2 3530   1.436   1.511   3.422
 1196TIP3    H1 3531   1.417   1.418   3.438
 1196TIP3    H2 3532   1.482   1.540   3.500
 1197TIP3   OH2 3533   7.886   1.269   1.675
 1197TIP3    H1 3534   7.946   1.195   1.670
 1197TIP3    H2 3535   7.835   1.265   1.594
 1198TIP3   OH2 3536   0.335   4.276   1.673
 1198TIP3    H1 3537   0.326   4.190   1.633
 1198TIP3    H2 3538   0.287   4.269   1.756
 1199TIP3   OH2 3539   0.661   1.767   6.375
 1199TIP3    H1 3540   0.676   1.800   6.463
 1199TIP3    H2 3541   0.616   1.839   6.330
 1200TIP3   OH2 3542   6.391   6.686   4.438
 1200TIP3    H1 3543   6.455   6.697   4.368
 1200TIP3    H2 3544   6.443   6.670   4.516
 1201TIP3   OH2 3545   6.827   3.895   1.528
 1201TIP3    H1 3546   6.732   3.881   1.525
 1201TIP3    H2 3547   6.837   3.989   1.544
 1202TIP3   OH2 3548   6.905   0.130   6.684
 1202TIP3    H1 3549   6.867   0.149   6.598
 1202TIP3    H2 3550   6.835   0.151   6.746
 1203TIP3   OH2 3551   0.776   0.256   5.906
 1203TIP3    H1 3552   0.862   0.214   5.904
 1203TIP3    H2 3553   0.794   0.347   5.880
 1204TIP3   OH2 3554   5.680   1.265   0.367
 1204TIP3    H1 3555   5.611   1.332   0.369
 1204TIP3    H2 3556   5.652   1.201   0.433
 1205TIP3   OH2 3557   6.038   4.782   2.777
 1205TIP3    H1 3558   6.005   4.721   2.711
 1205TIP3    H2 3559   6.035   4.732   2.859
 1206TIP3   OH2 3560   0.436   6.291   1.128
 1206TIP3    H1 3561   0.529   6.280   1.150
 1206TIP3    H2 3562   0.410   6.370   1.176
 1207TIP3   OH2 3563   3.882   5.448   6.245
 1207TIP3    H1 3564   3.960   5.418   6.292
 1207TIP3    H2 3565   3.825   5.371   6.239
 1208TIP3   OH2 3566   3.860   4.222   4.731
 1208TIP3    H1 3567   3.939   4.273   4.749
 1208TIP3    H2 3568   3.789   4.272   4.770
 1209TIP3   OH2 3569   5.433   7.118   3.733
 1209TIP3    H1 3570   5.437   7.047   3.796
 1209TIP3    H2 3571   5.465   7.081   3.651
 1210TIP3   OH2 3572   3.814   6.258   6.771
 1210TIP3    H1 3573   3.785   6.220   6.853
 1210TIP3    H2 3574   3.789   6.350   6.777
 1211TIP3   OH2 3575   4.745   4.672   3.865
 1211TIP3    H1 3576   4.790   4.757   3.870
 1211TIP3    H2 3577   4.780   4.631   3.786
 1212TIP3   OH2 3578   1.266   5.769   2.246
 1212TIP3    H1 3579   1.234   5.819   2.321
 1212TIP3    H2 3580   1.350   5.732   2.276
 1213TIP3   OH2 3581   4.271   5.417   2.270
 1213TIP3    H1 3582   4.219   5.347   2.230
 1213TIP3    H2 3583   4.267   5.489   2.207
 1214TIP3   OH2 3584   7.446   4.851   6.285
 1214TIP3    H1 3585   7.487   4.783   6.338
 1214TIP3    H2 3586   7.356   4.857   6.317
 1215TIP3   OH2 3587   0.105   2.262   2.582
 1215TIP3    H1 3588   0.149   2.216   2.511
 1215TIP3    H2 3589   0.014   2.269   2.554
 1216TIP3   OH2 3590   2.802   5.173   0.623
 1216TIP3    H1 3591   2.749   5.144   0.697
 1216TIP3    H2 3592   2.867   5.232   0.662
 1217TIP3   OH2 3593   3.290   7.677   4.637
 1217TIP3    H1 3594   3.324   7.598   4.678
 1217TIP3    H2 3595   3.211   7.649   4.592
 1218TIP3   OH2 3596   3.449   3.164   5.178
 1218TIP3    H1 3597   3.446   3.206   5.264
 1218TIP3    H2 3598   3.421   3.232   5.117
 1219TIP3   OH2 3599   2.861   2.547   4.755
 1219TIP3    H1 3600   2.920   2.520   4.825
 1219TIP3    H2 3601   2.903   2.515   4.675
 1220TIP3   OH2 3602   5.327   1.907   5.744
 1220TIP3    H1 3603   5.362   1.980   5.795
 1220TIP3    H2 3604   5.364   1.919   5.656
 1221TIP3   OH2 3605   3.361   7.647   0.359
 1221TIP3    H1 3606   3.443   7.598   0.368
 1221TIP3    H2 3607   3.317   7.636   0.443
 1222TIP3   OH2 3608   2.196   5.410   0.682
 1222TIP3    H1 3609   2.202   5.398   0.777
 1222TIP3    H2 3610   2.133   5.344   0.653
 1223TIP3   OH2 3611   6.556   5.083   4.255
 1223TIP3    H1 3612   6.475   5.071   4.306
 1223TIP3    H2 3613   6.595   5.163   4.291
 1224TIP3   OH2 3614   4.059   5.302   5.267
 1224TIP3    H1 3615   4.145   5.331   5.236
 1224TIP3    H2 3616   4.062   5.207   5.260
 1225TIP3   OH2 3617   7.596   6.345   2.257
 1225TIP3    H1 3618   7.612   6.260   2.215
 1225TIP3    H2 3619   7.534   6.326   2.327
 1226TIP3   OH2 3620   4.880   4.736   2.718
 1226TIP3    H1 3621   4.814   4.777   2.773
 1226TIP3    H2 3622   4.957   4.792   2.725
 1227TIP3   OH2 3623   7.419   6.902   2.780
 1227TIP3    H1 3624   7.386   6.831   2.836
 1227TIP3    H2 3625   7.428   6.977   2.839
 1228TIP3   OH2 3626   1.699   5.218   5.068
 1228TIP3    H1 3627   1.630   5.216   5.001
 1228TIP3    H2 3628   1.749   5.297   5.047
 1229TIP3   OH2 3629   1.517   6.596   1.357
 1229TIP3    H1 3630   1.438   6.597   1.412
 1229TIP3    H2 3631   1.500   6.662   1.290
 1230TIP3   OH2 3632   0.665   3.930   1.959
 1230TIP3    H1 3633   0.599   3.924   2.028
 1230TIP3    H2 3634   0.648   4.013   1.916
 1231TIP3   OH2 3635   3.759   5.458   3.059
 1231TIP3    H1 3636   3.851   5.483   3.045
 1231TIP3    H2 3637   3.763   5.397   3.132
 1232TIP3   OH2 3638   4.131   2.138   1.205
 1232TIP3    H1 3639   4.104   2.228   1.225
 1232TIP3    H2 3640   4.218   2.130   1.245
 1233TIP3   OH2 3641   2.134   2.122   5.714
 1233TIP3    H1 3642   2.082   2.193   5.677
 1233TIP3    H2 3643   2.199   2.165   5.769
 1234TIP3   OH2 3644   6.376   5.009   1.258
 1234TIP3    H1 3645   6.350   4.998   1.167
 1234TIP3    H2 3646   6.467   4.980   1.260
 1235TIP3   OH2 3647   4.251   7.697   4.553
 1235TIP3    H1 3648   4.307   7.737   4.486
 1235TIP3    H2 3649   4.308   7.634   4.597
 1236TIP3   OH2 3650   2.396   6.142   6.254
 1236TIP3    H1 3651   2.415   6.231   6.224
 1236TIP3    H2 3652   2.323   6.152   6.315
 1237TIP3   OH2 3653   4.804   5.845   4.157
 1237TIP3    H1 3654   4.847   5.864   4.073
 1237TIP3    H2 3655   4.867   5.790   4.204
 1238TIP3   OH2 3656   2.507   4.465   3.958
 1238TIP3    H1 3657   2.567   4.487   3.887
 1238TIP3    H2 3658   2.513   4.370   3.966
 1239TIP3   OH2 3659   1.192   2.418   2.292
 1239TIP3    H1 3660   1.148   2.370   2.222
 1239TIP3    H2 3661   1.191   2.509   2.263
 1240TIP3   OH2 3662  -0.047   6.923   5.108
 1240TIP3    H1 3663   0.032   6.969   5.079
 1240TIP3    H2 3664  -0.051   6.939   5.202
 1241TIP3   OH2 3665   3.227   1.629   4.141
 1241TIP3    H1 3666   3.285   1.647   4.066
 1241TIP3    H2 3667   3.285   1.636   4.217
 1242TIP3   OH2 3668   0.410   4.345   5.154
 1242TIP3    H1 3669   0.486   4.341   5.096
 1242TIP3    H2 3670   0.447   4.359   5.242
 1243TIP3   OH2 3671   2.454   0.080   2.922
 1243TIP3    H1 3672   2.522   0.147   2.925
 1243TIP3    H2 3673   2.416   0.080   3.009
 1244TIP3   OH2 3674   5.451   2.765   1.099
 1244TIP3    H1 3675   5.383   2.749   1.165
 1244TIP3    H2 3676   5.438   2.695   1.035
 1245TIP3   OH2 3677   6.750   3.992   1.200
 1245TIP3    H1 3678   6.820   4.057   1.192
 1245TIP3    H2 3679   6.698   4.021   1.276
 1246TIP3   OH2 3680   3.594   0.934   1.672
 1246TIP3    H1 3681   3.641   0.944   1.755
 1246TIP3    H2 3682   3.533   1.008   1.671
 1247TIP3   OH2 3683   0.068   4.031   3.644
 1247TIP3    H1 3684   0.122   3.953   3.652
 1247TIP3    H2 3685   0.038   4.048   3.734
 1248TIP3   OH2 3686   1.360   3.563   3.092
 1248TIP3    H1 3687   1.375   3.481   3.139
 1248TIP3    H2 3688   1.428   3.622   3.124
 1249TIP3   OH2 3689   7.878   2.314   4.286
 1249TIP3    H1 3690   7.966   2.276   4.290
 1249TIP3    H2 3691   7.823   2.254   4.336
 1250TIP3   OH2 3692   1.008   0.165   6.689
 1250TIP3    H1 3693   1.015   0.231   6.619
 1250TIP3    H2 3694   1.059   0.201   6.761
 1251TIP3   OH2 3695   5.627   0.426   0.574
 1251TIP3    H1 3696   5.715   0.400   0.602
 1251TIP3    H2 3697   5.582   0.448   0.655
 1252TIP3   OH2 3698   1.149   7.456   3.917
 1252TIP3    H1 3699   1.192   7.381   3.958
 1252TIP3    H2 3700   1.148   7.524   3.985
 1253TIP3   OH2 3701   0.559   1.456   3.850
 1253TIP3    H1 3702   0.607   1.376   3.872
 1253TIP3    H2 3703   0.518   1.483   3.931
 1254TIP3   OH2 3704   6.521   6.045   4.040
 1254TIP3    H1 3705   6.513   6.103   3.964
 1254TIP3    H2 3706   6.522   5.956   4.003
 1255TIP3   OH2 3707   1.050   5.279   2.784
 1255TIP3    H1 3708   1.124   5.239   2.831
 1255TIP3    H2 3709   1.078   5.369   2.769
 1256TIP3   OH2 3710   4.364   2.505   0.097
 1256TIP3    H1 3711   4.318   2.424   0.075
 1256TIP3    H2 3712   4.294   2.570   0.107
 1257TIP3   OH2 3713   5.822   7.020   5.158
 1257TIP3    H1 3714   5.800   6.936   5.198
 1257TIP3    H2 3715   5.741   7.070   5.159
 1258TIP3   OH2 3716   1.119   2.304   1.175
 1258TIP3    H1 3717   1.069   2.236   1.129
 1258TIP3    H2 3718   1.170   2.347   1.107
 1259TIP3   OH2 3719   0.071   7.782   5.257
 1259TIP3    H1 3720   0.050   7.863   5.210
 1259TIP3    H2 3721   0.165   7.770   5.243
 1260TIP3   OH2 3722   0.517   7.346   4.216
 1260TIP3    H1 3723   0.573   7.270   4.231
 1260TIP3    H2 3724   0.445   7.335   4.278
 1261TIP3   OH2 3725   2.893   6.757   6.260
 1261TIP3    H1 3726   2.858   6.676   6.221
 1261TIP3    H2 3727   2.848   6.827   6.213
 1262TIP3   OH2 3728   4.621   0.452   5.908
 1262TIP3    H1 3729   4.612   0.375   5.852
 1262TIP3    H2 3730   4.638   0.524   5.848
 1263TIP3   OH2 3731   5.343   5.507   1.443
 1263TIP3    H1 3732   5.274   5.573   1.452
 1263TIP3    H2 3733   5.419   5.545   1.487
 1264TIP3   OH2 3734   7.083   4.890   4.085
 1264TIP3    H1 3735   7.140   4.908   4.159
 1264TIP3    H2 3736   7.032   4.970   4.073
 1265TIP3   OH2 3737   5.893   5.136   1.557
 1265TIP3    H1 3738   5.897   5.188   1.477
 1265TIP3    H2 3739   5.843   5.058   1.532
 1266TIP3   OH2 3740   6.066   2.570   3.038
 1266TIP3    H1 3741   6.025   2.543   2.956
 1266TIP3    H2 3742   6.154   2.531   3.035
 1267TIP3   OH2 3743   5.511   3.103   3.126
 1267TIP3    H1 3744   5.482   3.188   3.093
 1267TIP3    H2 3745   5.607   3.110   3.128
 1268TIP3   OH2 3746   1.638   6.774   0.380
 1268TIP3    H1 3747   1.598   6.843   0.326
 1268TIP3    H2 3748   1.719   6.813   0.413
 1269TIP3   OH2 3749   0.732   4.222   1.348
 1269TIP3    H1 3750   0.652   4.271   1.369
 1269TIP3    H2 3751   0.762   4.258   1.265
 1270TIP3   OH2 3752   2.458   3.110   4.146
 1270TIP3    H1 3753   2.498   3.152   4.070
 1270TIP3    H2 3754   2.364   3.124   4.134
 1271TIP3   OH2 3755   4.897   2.610   0.974
 1271TIP3    H1 3756   4.906   2.566   0.889
 1271TIP3    H2 3757   4.972   2.670   0.979
 1272TIP3   OH2 3758   4.454   2.196   4.321
 1272TIP3    H1 3759   4.494   2.185   4.407
 1272TIP3    H2 3760   4.528   2.220   4.264
 1273TIP3   OH2 3761   5.872   0.611   3.434
 1273TIP3    H1 3762   5.945   0.556   3.405
 1273TIP3    H2 3763   5.797   0.579   3.384
 1274TIP3   OH2 3764   5.737   5.365   0.458
 1274TIP3    H1 3765   5.828   5.339   0.441
 1274TIP3    H2 3766   5.704   5.299   0.519
 1275TIP3   OH2 3767   6.529   4.934   2.305
 1275TIP3    H1 3768   6.506   4.952   2.396
 1275TIP3    H2 3769   6.613   4.979   2.292
 1276TIP3   OH2 3770   1.572   1.994   4.127
 1276TIP3    H1 3771   1.480   1.989   4.153
 1276TIP3    H2 3772   1.600   1.902   4.121
 1277TIP3   OH2 3773   4.684   7.759   1.578
 1277TIP3    H1 3774   4.661   7.798   1.493
 1277TIP3    H2 3775   4.724   7.831   1.627
 1278TIP3   OH2 3776   1.754   1.274   6.410
 1278TIP3    H1 3777   1.687   1.277   6.341
 1278TIP3    H2 3778   1.831   1.314   6.370
 1279TIP3   OH2 3779   3.920   7.562   0.456
 1279TIP3    H1 3780   3.938   7.579   0.549
 1279TIP3    H2 3781   3.978   7.622   0.410
 1280TIP3   OH2 3782   8.058   5.653   0.738
 1280TIP3    H1 3783   8.067   5.563   0.705
 1280TIP3    H2 3784   8.078   5.647   0.831
 1281TIP3   OH2 3785   2.697   2.076   0.921
 1281TIP3    H1 3786   2.766   2.139   0.941
 1281TIP3    H2 3787   2.630   2.094   0.987
 1282TIP3   OH2 3788   6.246   3.780   1.048
 1282TIP3    H1 3789   6.238   3.874   1.063
 1282TIP3    H2 3790   6.316   3.773   0.983
 1283TIP3   OH2 3791   4.985   0.175   3.780
 1283TIP3    H1 3792   4.891   0.191   3.777
 1283TIP3    H2 3793   4.997   0.090   3.736
 1284TIP3   OH2 3794   3.646   3.769   1.863
 1284TIP3    H1 3795   3.680   3.836   1.922
 1284TIP3    H2 3796   3.662   3.687   1.908
 1285TIP3   OH2 3797   5.057   3.238   5.446
 1285TIP3    H1 3798   5.008   3.295   5.388
 1285TIP3    H2 3799   5.144   3.231   5.406
 1286TIP3   OH2 3800   0.598   6.983   2.385
 1286TIP3    H1 3801   0.516   7.032   2.375
 1286TIP3    H2 3802   0.615   6.983   2.479
 1287TIP3   OH2 3803   6.036   5.111   2.027
 1287TIP3    H1 3804   5.989   5.089   2.108
 1287TIP3    H2 3805   6.039   5.028   1.979
 1288TIP3   OH2 3806   7.702   0.059   6.153
 1288TIP3    H1 3807   7.765   0.011   6.099
 1288TIP3    H2 3808   7.721   0.031   6.243
 1289TIP3   OH2 3809   4.817   3.292   3.776
 1289TIP3    H1 3810   4.865   3.334   3.704
 1289TIP3    H2 3811   4.842   3.342   3.853
 1290TIP3   OH2 3812   5.819   2.800   0.149
 1290TIP3    H1 3813   5.748   2.840   0.097
 1290TIP3    H2 3814   5.788   2.712   0.167
 1291TIP3   OH2 3815   7.383   0.513   3.475
 1291TIP3    H1 3816   7.328   0.501   3.553
 1291TIP3    H2 3817   7.342   0.459   3.408
 1292TIP3   OH2 3818   0.651   7.459   4.890
 1292TIP3    H1 3819   0.690   7.530   4.840
 1292TIP3    H2 3820   0.720   7.394   4.898
 1293TIP3   OH2 3821   5.539   5.336   0.291
 1293TIP3    H1 3822   5.597   5.365   0.361
 1293TIP3    H2 3823   5.580   5.368   0.210
 1294TIP3   OH2 3824   5.078   2.216   1.546
 1294TIP3    H1 3825   5.044   2.296   1.505
 1294TIP3    H2 3826   5.103   2.160   1.472
 1295TIP3   OH2 3827   5.654   3.461   4.560
 1295TIP3    H1 3828   5.661   3.387   4.620
 1295TIP3    H2 3829   5.745   3.483   4.537
 1296TIP3   OH2 3830   2.912   6.630   3.122
 1296TIP3    H1 3831   2.826   6.623   3.163
 1296TIP3    H2 3832   2.918   6.721   3.094
 1297TIP3   OH2 3833   6.671   7.733   0.324
 1297TIP3    H1 3834   6.766   7.740   0.310
 1297TIP3    H2 3835   6.650   7.802   0.386
 1298TIP3   OH2 3836   6.234   3.590   3.491
 1298TIP3    H1 3837   6.328   3.572   3.494
 1298TIP3    H2 3838   6.227   3.685   3.496
 1299TIP3   OH2 3839   2.004   3.926   6.377
 1299TIP3    H1 3840   1.926   3.909   6.324
 1299TIP3    H2 3841   2.054   3.845   6.372
 1300TIP3   OH2 3842   1.680   4.137  -0.031
 1300TIP3    H1 3843   1.587   4.134  -0.008
 1300TIP3    H2 3844   1.726   4.115   0.050
 1301TIP3   OH2 3845   1.230   1.396   4.944
 1301TIP3    H1 3846   1.187   1.314   4.919
 1301TIP3    H2 3847   1.266   1.378   5.031
 1302TIP3   OH2 3848   6.615   7.227   3.257
 1302TIP3    H1 3849   6.600   7.228   3.351
 1302TIP3    H2 3850   6.552   7.290   3.222
 1303TIP3   OH2 3851   6.611   3.064   1.964
 1303TIP3    H1 3852   6.585   2.972   1.962
 1303TIP3    H2 3853   6.695   3.064   2.010
 1304TIP3   OH2 3854   2.512   2.918   3.445
 1304TIP3    H1 3855   2.558   3.002   3.445
 1304TIP3    H2 3856   2.566   2.861   3.499
 1305TIP3   OH2 3857   8.085   7.101   6.294
 1305TIP3    H1 3858   8.010   7.064   6.341
 1305TIP3    H2 3859   8.047   7.174   6.244
 1306TIP3   OH2 3860   5.680   3.203   1.044
 1306TIP3    H1 3861   5.755   3.166   1.090
 1306TIP3    H2 3862   5.692   3.298   1.050
 1307TIP3   OH2 3863   4.695   3.986   3.135
 1307TIP3    H1 3864   4.646   4.028   3.205
 1307TIP3    H2 3865   4.677   4.040   3.057
 1308TIP3   OH2 3866   7.043   3.341   1.145
 1308TIP3    H1 3867   7.031   3.436   1.133
 1308TIP3    H2 3868   7.069   3.309   1.059
 1309TIP3   OH2 3869   1.781   2.188   4.479
 1309TIP3    H1 3870   1.717   2.124   4.510
 1309TIP3    H2 3871   1.801   2.161   4.390
 1310TIP3   OH2 3872   3.972   6.970   0.800
 1310TIP3    H1 3873   4.032   6.912   0.753
 1310TIP3    H2 3874   4.022   7.002   0.874
 1311TIP3   OH2 3875   0.563   2.665   0.559
 1311TIP3    H1 3876   0.614   2.700   0.486
 1311TIP3    H2 3877   0.543   2.742   0.613
 1312TIP3   OH2 3878   2.397   5.277   2.198
 1312TIP3    H1 3879   2.340   5.308   2.269
 1312TIP3    H2 3880   2.366   5.188   2.180
 1313TIP3   OH2 3881   7.559   2.178   1.874
 1313TIP3    H1 3882   7.621   2.112   1.906
 1313TIP3    H2 3883   7.615   2.248   1.839
 1314TIP3   OH2 3884   8.260   4.576   3.544
 1314TIP3    H1 3885   8.257   4.552   3.637
 1314TIP3    H2 3886   8.325   4.646   3.541
 1315TIP3   OH2 3887   7.254   5.439   5.726
 1315TIP3    H1 3888   7.196   5.430   5.801
 1315TIP3    H2 3889   7.269   5.533   5.718
 1316TIP3   OH2 3890   7.363   5.927   2.145
 1316TIP3    H1 3891   7.439   5.985   2.150
 1316TIP3    H2 3892   7.288   5.986   2.135
 1317TIP3   OH2 3893   2.152   1.166   2.353
 1317TIP3    H1 3894   2.233   1.177   2.403
 1317TIP3    H2 3895   2.152   1.074   2.328
 1318TIP3   OH2 3896   7.673   2.130   5.252
 1318TIP3    H1 3897   7.730   2.129   5.329
 1318TIP3    H2 3898   7.638   2.042   5.247
 1319TIP3   OH2 3899   2.428   7.453   4.682
 1319TIP3    H1 3900   2.497   7.432   4.619
 1319TIP3    H2 3901   2.454   7.538   4.719
 1320TIP3   OH2 3902   3.225   2.525   1.390
 1320TIP3    H1 3903   3.139   2.526   1.349
 1320TIP3    H2 3904   3.285   2.560   1.323
 1321TIP3   OH2 3905   3.417   5.806   4.782
 1321TIP3    H1 3906   3.443   5.836   4.695
 1321TIP3    H2 3907   3.478   5.735   4.802
 1322TIP3   OH2 3908   1.436   2.375   5.484
 1322TIP3    H1 3909   1.462   2.286   5.459
 1322TIP3    H2 3910   1.354   2.364   5.532
 1323TIP3   OH2 3911   2.721   4.752   1.976
 1323TIP3    H1 3912   2.732   4.673   2.030
 1323TIP3    H2 3913   2.700   4.820   2.039
 1324TIP3   OH2 3914   2.147   6.120   1.763
 1324TIP3    H1 3915   2.189   6.130   1.848
 1324TIP3    H2 3916   2.061   6.160   1.774
 1325TIP3   OH2 3917   4.733   6.210   5.939
 1325TIP3    H1 3918   4.738   6.166   5.854
 1325TIP3    H2 3919   4.674   6.155   5.991
 1326TIP3   OH2 3920   3.501   7.218   3.404
 1326TIP3    H1 3921   3.445   7.292   3.381
 1326TIP3    H2 3922   3.523   7.177   3.320
 1327TIP3   OH2 3923   2.050   5.581   3.820
 1327TIP3    H1 3924   2.140   5.602   3.846
 1327TIP3    H2 3925   2.015   5.533   3.895
 1328TIP3   OH2 3926   1.776   2.974   0.216
 1328TIP3    H1 3927   1.743   2.910   0.154
 1328TIP3    H2 3928   1.779   3.057   0.167
 1329TIP3   OH2 3929   2.632   4.006   1.267
 1329TIP3    H1 3930   2.700   4.008   1.201
 1329TIP3    H2 3931   2.655   3.931   1.323
 1330TIP3   OH2 3932   5.942   5.185   6.075
 1330TIP3    H1 3933   5.923   5.275   6.104
 1330TIP3    H2 3934   6.021   5.194   6.021
 1331TIP3   OH2 3935   1.202   5.850   2.523
 1331TIP3    H1 3936   1.123   5.876   2.569
 1331TIP3    H2 3937   1.255   5.929   2.519
 1332TIP3   OH2 3938   3.257   7.448   6.436
 1332TIP3    H1 3939   3.234   7.384   6.369
 1332TIP3    H2 3940   3.267   7.397   6.516
 1333TIP3   OH2 3941   6.257   7.620   1.444
 1333TIP3    H1 3942   6.312   7.667   1.506
 1333TIP3    H2 3943   6.167   7.639   1.472
 1334TIP3   OH2 3944   2.487   2.964   0.951
 1334TIP3    H1 3945   2.451   3.053   0.951
 1334TIP3    H2 3946   2.486   2.938   0.859
 1335TIP3   OH2 3947   8.247   6.266  -0.025
 1335TIP3    H1 3948   8.334   6.248   0.011
 1335TIP3    H2 3949   8.191   6.281   0.051
 1336TIP3   OH2 3950   2.177   2.600   3.829
 1336TIP3    H1 3951   2.263   2.632   3.857
 1336TIP3    H2 3952   2.194   2.554   3.747
 1337TIP3   OH2 3953   2.455   1.392   5.156
 1337TIP3    H1 3954   2.475   1.314   5.106
 1337TIP3    H2 3955   2.519   1.457   5.128
 1338TIP3   OH2 3956   4.617   2.356   6.650
 1338TIP3    H1 3957   4.607   2.384   6.559
 1338TIP3    H2 3958   4.664   2.427   6.692
 1339TIP3   OH2 3959   3.056   2.435   4.036
 1339TIP3    H1 3960   3.085   2.367   4.097
 1339TIP3    H2 3961   3.131   2.494   4.029
 1340TIP3   OH2 3962   3.403   5.121   3.457
 1340TIP3    H1 3963   3.329   5.180   3.444
 1340TIP3    H2 3964   3.459   5.166   3.519
 1341TIP3   OH2 3965   5.389   5.971   0.050
 1341TIP3    H1 3966   5.325   5.901   0.056
 1341TIP3    H2 3967   5.460   5.944   0.108
 1342TIP3   OH2 3968   5.215   7.341   3.145
 1342TIP3    H1 3969   5.288   7.403   3.147
 1342TIP3    H2 3970   5.209   7.314   3.054
 1343TIP3   OH2 3971   1.124   7.332   2.328
 1343TIP3    H1 3972   1.086   7.250   2.358
 1343TIP3    H2 3973   1.054   7.396   2.338
 1344TIP3   OH2 3974   1.462   6.317   2.588
 1344TIP3    H1 3975   1.541   6.368   2.607
 1344TIP3    H2 3976   1.391   6.382   2.590
 1345TIP3   OH2 3977   1.078   5.587   6.244
 1345TIP3    H1 3978   1.066   5.678   6.217
 1345TIP3    H2 3979   0.999   5.568   6.296
 1346TIP3   OH2 3980   7.926   2.084   6.160
 1346TIP3    H1 3981   7.937   2.090   6.065
 1346TIP3    H2 3982   7.834   2.104   6.175
 1347TIP3   OH2 3983   7.545   6.644   0.796
 1347TIP3    H1 3984   7.573   6.627   0.886
 1347TIP3    H2 3985   7.467   6.590   0.784
 1348TIP3   OH2 3986   4.111   0.746   6.389
 1348TIP3    H1 3987   4.039   0.808   6.378
 1348TIP3    H2 3988   4.188   0.792   6.355
 1349TIP3   OH2 3989   1.436   4.085   3.130
 1349TIP3    H1 3990   1.391   4.045   3.204
 1349TIP3    H2 3991   1.511   4.130   3.168
 1350TIP3   OH2 3992   6.567   4.959   0.250
 1350TIP3    H1 3993   6.506   4.914   0.191
 1350TIP3    H2 3994   6.536   4.936   0.338
 1351TIP3   OH2 3995   3.837   3.318   4.511
 1351TIP3    H1 3996   3.932   3.321   4.511
 1351TIP3    H2 3997   3.812   3.323   4.603
 1352TIP3   OH2 3998   3.518   3.331   2.554
 1352TIP3    H1 3999   3.424   3.339   2.571
 1352TIP3    H2 4000   3.555   3.298   2.635
 1353TIP3   OH2 4001   8.209   2.373   0.891
 1353TIP3    H1 4002   8.181   2.464   0.882
 1353TIP3    H2 4003   8.303   2.375   0.870
 1354TIP3   OH2 4004   4.632   5.476   1.445
 1354TIP3    H1 4005   4.611   5.532   1.369
 1354TIP3    H2 4006   4.602   5.526   1.520
 1355TIP3   OH2 4007   2.811   0.296   6.216
 1355TIP3    H1 4008   2.832   0.332   6.302
 1355TIP3    H2 4009   2.871   0.340   6.156
 1356TIP3   OH2 4010   1.058   0.456   0.133
 1356TIP3    H1 4011   1.098   0.505   0.061
 1356TIP3    H2 4012   1.023   0.524   0.191
 1357TIP3   OH2 4013   0.544   4.460   4.744
 1357TIP3    H1 4014   0.590   4.437   4.824
 1357TIP3    H2 4015   0.609   4.505   4.690
 1358TIP3   OH2 4016   0.862   1.973   4.866
 1358TIP3    H1 4017   0.826   1.908   4.807
 1358TIP3    H2 4018   0.925   1.925   4.919
 1359TIP3   OH2 4019   4.451   0.367   0.260
 1359TIP3    H1 4020   4.413   0.361   0.172
 1359TIP3    H2 4021   4.391   0.319   0.316
 1360TIP3   OH2 4022   0.082   5.630   6.706
 1360TIP3    H1 4023   0.168   5.664   6.731
 1360TIP3    H2 4024   0.060   5.677   6.626
 1361TIP3   OH2 4025   1.952   2.083   2.265
 1361TIP3    H1 4026   2.008   2.144   2.314
 1361TIP3    H2 4027   1.978   1.997   2.297
 1362TIP3   OH2 4028   2.528   7.458   1.471
 1362TIP3    H1 4029   2.458   7.522   1.458
 1362TIP3    H2 4030   2.592   7.478   1.403
 1363TIP3   OH2 4031   2.441   0.737   0.141
 1363TIP3    H1 4032   2.438   0.673   0.070
 1363TIP3    H2 4033   2.514   0.795   0.118
 1364TIP3   OH2 4034   4.694   7.467   6.001
 1364TIP3    H1 4035   4.715   7.515   5.920
 1364TIP3    H2 4036   4.697   7.534   6.070
 1365TIP3   OH2 4037   5.178   2.338   2.970
 1365TIP3    H1 4038   5.233   2.389   3.030
 1365TIP3    H2 4039   5.158   2.398   2.898
 1366TIP3   OH2 4040   7.514   2.296   3.530
 1366TIP3    H1 4041   7.576   2.345   3.477
 1366TIP3    H2 4042   7.466   2.363   3.578
 1367TIP3   OH2 4043   6.546   5.970   5.441
 1367TIP3    H1 4044   6.610   6.038   5.418
 1367TIP3    H2 4045   6.461   6.010   5.426
 1368TIP3   OH2 4046   6.989   7.641   0.922
 1368TIP3    H1 4047   6.895   7.631   0.908
 1368TIP3    H2 4048   6.997   7.718   0.978
 1369TIP3   OH2 4049   8.154   1.737   2.270
 1369TIP3    H1 4050   8.103   1.656   2.278
 1369TIP3    H2 4051   8.239   1.707   2.237
 1370TIP3   OH2 4052   3.690   3.469   2.868
 1370TIP3    H1 4053   3.667   3.556   2.837
 1370TIP3    H2 4054   3.607   3.420   2.865
 1371TIP3   OH2 4055   0.342   2.048   2.164
 1371TIP3    H1 4056   0.302   2.122   2.117
 1371TIP3    H2 4057   0.381   1.994   2.095
 1372TIP3   OH2 4058   0.744   5.468   3.599
 1372TIP3    H1 4059   0.689   5.420   3.538
 1372TIP3    H2 4060   0.695   5.466   3.682
 1373TIP3   OH2 4061   1.923   6.397   1.405
 1373TIP3    H1 4062   2.002   6.345   1.389
 1373TIP3    H2 4063   1.867   6.340   1.458
 1374TIP3   OH2 4064   6.306   7.467   2.389
 1374TIP3    H1 4065   6.250   7.412   2.335
 1374TIP3    H2 4066   6.264   7.466   2.475
 1375TIP3   OH2 4067   2.483   3.892   2.268
 1375TIP3    H1 4068   2.529   3.877   2.186
 1375TIP3    H2 4069   2.531   3.963   2.310
 1376TIP3   OH2 4070   3.129   7.343   4.817
 1376TIP3    H1 4071   3.043   7.367   4.851
 1376TIP3    H2 4072   3.120   7.251   4.793
 1377TIP3   OH2 4073   2.321   5.200   6.513
 1377TIP3    H1 4074   2.409   5.182   6.544
 1377TIP3    H2 4075   2.293   5.277   6.562
 1378TIP3   OH2 4076   5.816   0.148   4.889
 1378TIP3    H1 4077   5.902   0.141   4.847
 1378TIP3    H2 4078   5.807   0.066   4.938
 1379TIP3   OH2 4079   7.560   4.565   0.690
 1379TIP3    H1 4080   7.509   4.638   0.723
 1379TIP3    H2 4081   7.536   4.559   0.597
 1380TIP3   OH2 4082   8.092   4.957   4.630
 1380TIP3    H1 4083   8.083   5.047   4.598
 1380TIP3    H2 4084   8.185   4.938   4.625
 1381TIP3   OH2 4085   0.428   7.049   6.143
 1381TIP3    H1 4086   0.376   6.976   6.178
 1381TIP3    H2 4087   0.378   7.127   6.168
 1382TIP3   OH2 4088   5.186   3.995   3.732
 1382TIP3    H1 4089   5.257   3.932   3.728
 1382TIP3    H2 4090   5.227   4.078   3.758
 1383TIP3   OH2 4091   7.172   3.982   6.045
 1383TIP3    H1 4092   7.241   3.934   5.998
 1383TIP3    H2 4093   7.183   3.958   6.137
 1384TIP3   OH2 4094   5.697   0.028   0.435
 1384TIP3    H1 4095   5.613   0.005   0.394
 1384TIP3    H2 4096   5.763  -0.011   0.378
 1385TIP3   OH2 4097   6.084   0.083   5.469
 1385TIP3    H1 4098   6.180   0.079   5.466
 1385TIP3    H2 4099   6.063   0.172   5.440
 1386TIP3   OH2 4100   2.980   4.246   0.378
 1386TIP3    H1 4101   2.950   4.245   0.469
 1386TIP3    H2 4102   3.073   4.268   0.383
 1387TIP3   OH2 4103   7.239   4.015   6.325
 1387TIP3    H1 4104   7.184   3.959   6.380
 1387TIP3    H2 4105   7.324   4.015   6.369
 1388TIP3   OH2 4106   2.270   1.338   4.106
 1388TIP3    H1 4107   2.363   1.347   4.128
 1388TIP3    H2 4108   2.269   1.314   4.014
 1389TIP3   OH2 4109   4.937   3.083   4.661
 1389TIP3    H1 4110   4.940   3.145   4.589
 1389TIP3    H2 4111   4.874   3.121   4.723
 1390TIP3   OH2 4112   4.684   0.270   1.572
 1390TIP3    H1 4113   4.672   0.269   1.667
 1390TIP3    H2 4114   4.721   0.184   1.552
 1391TIP3   OH2 4115   1.362   7.275   5.645
 1391TIP3    H1 4116   1.403   7.328   5.577
 1391TIP3    H2 4117   1.278   7.318   5.662
 1392TIP3   OH2 4118   3.200   1.230   1.706
 1392TIP3    H1 4119   3.186   1.232   1.801
 1392TIP3    H2 4120   3.116   1.201   1.670
 1393TIP3   OH2 4121   3.030   2.620   4.391
 1393TIP3    H1 4122   3.004   2.552   4.452
 1393TIP3    H2 4123   2.968   2.611   4.318
 1394TIP3   OH2 4124   4.172   6.001   0.150
 1394TIP3    H1 4125   4.183   5.913   0.114
 1394TIP3    H2 4126   4.259   6.039   0.149
 1395TIP3   OH2 4127   4.672   4.493   3.070
 1395TIP3    H1 4128   4.704   4.574   3.110
 1395TIP3    H2 4129   4.668   4.512   2.977
 1396TIP3   OH2 4130   4.122   5.546   3.806
 1396TIP3    H1 4131   4.067   5.472   3.783
 1396TIP3    H2 4132   4.193   5.509   3.858
 1397TIP3   OH2 4133   2.512   3.005   2.104
 1397TIP3    H1 4134   2.454   3.075   2.132
 1397TIP3    H2 4135   2.532   2.956   2.185
 1398TIP3   OH2 4136   2.849   2.697   4.194
 1398TIP3    H1 4137   2.840   2.634   4.123
 1398TIP3    H2 4138   2.807   2.656   4.269
 1399TIP3   OH2 4139   4.090   1.874   5.614
 1399TIP3    H1 4140   4.078   1.795   5.667
 1399TIP3    H2 4141   4.021   1.933   5.642
 1400TIP3   OH2 4142   0.442   4.292   4.543
 1400TIP3    H1 4143   0.488   4.327   4.620
 1400TIP3    H2 4144   0.450   4.361   4.477
 1401TIP3   OH2 4145   0.475   6.516   2.149
 1401TIP3    H1 4146   0.541   6.581   2.125
 1401TIP3    H2 4147   0.517   6.462   2.216
 1402TIP3   OH2 4148   7.279   5.278   2.341
 1402TIP3    H1 4149   7.283   5.305   2.433
 1402TIP3    H2 4150   7.306   5.187   2.341
 1403TIP3   OH2 4151   5.669   5.271   6.618
 1403TIP3    H1 4152   5.622   5.214   6.679
 1403TIP3    H2 4153   5.625   5.257   6.534
 1404TIP3   OH2 4154   0.223   6.624   4.376
 1404TIP3    H1 4155   0.160   6.691   4.349
 1404TIP3    H2 4156   0.292   6.629   4.310
 1405TIP3   OH2 4157   3.085   6.699   1.338
 1405TIP3    H1 4158   3.089   6.784   1.296
 1405TIP3    H2 4159   3.177   6.671   1.345
 1406TIP3   OH2 4160   3.407   3.746   6.023
 1406TIP3    H1 4161   3.393   3.740   6.118
 1406TIP3    H2 4162   3.401   3.656   5.992
 1407TIP3   OH2 4163   1.147   5.123  -0.013
 1407TIP3    H1 4164   1.186   5.170  -0.087
 1407TIP3    H2 4165   1.109   5.191   0.042
 1408TIP3   OH2 4166   8.081   7.288   5.960
 1408TIP3    H1 4167   8.138   7.295   5.883
 1408TIP3    H2 4168   8.009   7.348   5.941
 1409TIP3   OH2 4169   7.768   4.009   0.691
 1409TIP3    H1 4170   7.692   4.056   0.725
 1409TIP3    H2 4171   7.835   4.076   0.679
 1410TIP3   OH2 4172   6.511   2.959   5.559
 1410TIP3    H1 4173   6.429   2.912   5.548
 1410TIP3    H2 4174   6.519   3.013   5.480
 1411TIP3   OH2 4175   7.620   6.363   1.241
 1411TIP3    H1 4176   7.631   6.287   1.298
 1411TIP3    H2 4177   7.576   6.428   1.296
 1412TIP3   OH2 4178   7.623   0.367   0.316
 1412TIP3    H1 4179   7.559   0.360   0.387
 1412TIP3    H2 4180   7.597   0.297   0.255
 1413TIP3   OH2 4181   0.343   3.979   4.075
 1413TIP3    H1 4182   0.408   3.935   4.130
 1413TIP3    H2 4183   0.261   3.935   4.095
 1414TIP3   OH2 4184   1.244   4.077   2.541
 1414TIP3    H1 4185   1.171   4.138   2.547
 1414TIP3    H2 4186   1.322   4.131   2.552
 1415TIP3   OH2 4187   4.125   3.999   4.615
 1415TIP3    H1 4188   4.104   4.072   4.674
 1415TIP3    H2 4189   4.221   3.995   4.615
 1416TIP3   OH2 4190   6.799   2.902   4.203
 1416TIP3    H1 4191   6.777   2.811   4.224
 1416TIP3    H2 4192   6.845   2.896   4.119
 1417TIP3   OH2 4193   3.096   6.894   6.080
 1417TIP3    H1 4194   3.056   6.835   6.144
 1417TIP3    H2 4195   3.026   6.956   6.059
 1418TIP3   OH2 4196   6.305   0.055   1.300
 1418TIP3    H1 4197   6.398   0.044   1.281
 1418TIP3    H2 4198   6.267   0.089   1.219
 1419TIP3   OH2 4199   6.351   3.303   0.611
 1419TIP3    H1 4200   6.378   3.392   0.634
 1419TIP3    H2 4201   6.431   3.261   0.580
 1420TIP3   OH2 4202   6.915   6.077   3.384
 1420TIP3    H1 4203   6.854   6.049   3.316
 1420TIP3    H2 4204   6.885   6.032   3.463
 1421TIP3   OH2 4205   4.401   4.978   6.468
 1421TIP3    H1 4206   4.320   4.931   6.452
 1421TIP3    H2 4207   4.433   4.945   6.552
 1422TIP3   OH2 4208   7.946   5.817   0.922
 1422TIP3    H1 4209   8.023   5.868   0.948
 1422TIP3    H2 4210   7.965   5.790   0.832
 1423TIP3   OH2 4211   4.003   6.361   0.142
 1423TIP3    H1 4212   4.028   6.309   0.066
 1423TIP3    H2 4213   3.914   6.331   0.163
 1424TIP3   OH2 4214   1.283   6.746   0.042
 1424TIP3    H1 4215   1.291   6.728   0.136
 1424TIP3    H2 4216   1.228   6.675   0.009
 1425TIP3   OH2 4217   2.600   2.419   0.410
 1425TIP3    H1 4218   2.552   2.416   0.493
 1425TIP3    H2 4219   2.631   2.329   0.398
 1426TIP3   OH2 4220   6.831   1.281   4.203
 1426TIP3    H1 4221   6.768   1.300   4.134
 1426TIP3    H2 4222   6.793   1.322   4.281
 1427TIP3   OH2 4223   6.617   4.169   0.853
 1427TIP3    H1 4224   6.607   4.190   0.945
 1427TIP3    H2 4225   6.632   4.074   0.851
 1428TIP3   OH2 4226   7.549   6.730   3.472
 1428TIP3    H1 4227   7.461   6.716   3.507
 1428TIP3    H2 4228   7.586   6.642   3.463
 1429TIP3   OH2 4229   8.162   2.764   4.020
 1429TIP3    H1 4230   8.257   2.753   4.016
 1429TIP3    H2 4231   8.128   2.676   4.004
 1430TIP3   OH2 4232   7.074   3.269   6.336
 1430TIP3    H1 4233   7.010   3.199   6.350
 1430TIP3    H2 4234   7.032   3.347   6.373
 1431TIP3   OH2 4235   2.672   1.423   2.552
 1431TIP3    H1 4236   2.742   1.383   2.500
 1431TIP3    H2 4237   2.662   1.366   2.628
 1432TIP3   OH2 4238   3.128   0.351   5.795
 1432TIP3    H1 4239   3.068   0.278   5.782
 1432TIP3    H2 4240   3.210   0.322   5.754
 1433TIP3   OH2 4241   3.247   0.805   1.655
 1433TIP3    H1 4242   3.243   0.854   1.737
 1433TIP3    H2 4243   3.163   0.823   1.612
 1434TIP3   OH2 4244   3.876   0.255   2.356
 1434TIP3    H1 4245   3.886   0.339   2.401
 1434TIP3    H2 4246   3.784   0.232   2.367
 1435TIP3   OH2 4247   4.968   3.927   3.171
 1435TIP3    H1 4248   5.000   3.842   3.142
 1435TIP3    H2 4249   4.882   3.936   3.130
 1436TIP3   OH2 4250   0.349   1.182   2.473
 1436TIP3    H1 4251   0.370   1.089   2.466
 1436TIP3    H2 4252   0.431   1.227   2.456
 1437TIP3   OH2 4253   1.747   1.266   0.419
 1437TIP3    H1 4254   1.677   1.239   0.479
 1437TIP3    H2 4255   1.735   1.210   0.342
 1438TIP3   OH2 4256   0.202   5.969   4.430
 1438TIP3    H1 4257   0.208   5.977   4.334
 1438TIP3    H2 4258   0.110   5.989   4.449
 1439TIP3   OH2 4259   7.234   3.573   0.830
 1439TIP3    H1 4260   7.296   3.535   0.892
 1439TIP3    H2 4261   7.170   3.503   0.814
 1440TIP3   OH2 4262   6.854   5.111   1.572
 1440TIP3    H1 4263   6.784   5.118   1.507
 1440TIP3    H2 4264   6.827   5.039   1.628
 1441TIP3   OH2 4265   0.193   3.828   6.681
 1441TIP3    H1 4266   0.235   3.753   6.724
 1441TIP3    H2 4267   0.122   3.853   6.740
 1442TIP3   OH2 4268   6.251   3.659   1.297
 1442TIP3    H1 4269   6.242   3.706   1.214
 1442TIP3    H2 4270   6.309   3.585   1.276
 1443TIP3   OH2 4271   4.979   1.697   1.207
 1443TIP3    H1 4272   4.971   1.617   1.155
 1443TIP3    H2 4273   5.046   1.748   1.161
 1444TIP3   OH2 4274   6.335   0.796   2.545
 1444TIP3    H1 4275   6.252   0.806   2.593
 1444TIP3    H2 4276   6.314   0.821   2.455
 1445TIP3   OH2 4277   6.489   6.472   3.898
 1445TIP3    H1 4278   6.510   6.407   3.831
 1445TIP3    H2 4279   6.513   6.555   3.858
 1446TIP3   OH2 4280   6.730   4.448   0.561
 1446TIP3    H1 4281   6.640   4.435   0.531
 1446TIP3    H2 4282   6.781   4.459   0.480
 1447TIP3   OH2 4283   6.911   0.136   5.025
 1447TIP3    H1 4284   6.936   0.228   5.016
 1447TIP3    H2 4285   6.891   0.126   5.118
 1448TIP3   OH2 4286   6.170   7.587   0.072
 1448TIP3    H1 4287   6.265   7.592   0.059
 1448TIP3    H2 4288   6.140   7.528   0.002
 1449TIP3   OH2 4289   3.284   4.483   2.628
 1449TIP3    H1 4290   3.247   4.566   2.658
 1449TIP3    H2 4291   3.358   4.508   2.572
 1450TIP3   OH2 4292   2.053   5.629   1.286
 1450TIP3    H1 4293   2.128   5.636   1.345
 1450TIP3    H2 4294   1.978   5.615   1.344
 1451TIP3   OH2 4295   1.462   2.984   4.881
 1451TIP3    H1 4296   1.472   2.891   4.859
 1451TIP3    H2 4297   1.549   3.021   4.866
 1452TIP3   OH2 4298   6.761   0.899   5.772
 1452TIP3    H1 4299   6.696   0.834   5.748
 1452TIP3    H2 4300   6.845   0.855   5.760
 1453TIP3   OH2 4301   8.025   0.179   6.119
 1453TIP3    H1 4302   8.079   0.252   6.147
 1453TIP3    H2 4303   7.966   0.163   6.193
 1454TIP3   OH2 4304   8.244   5.356   0.398
 1454TIP3    H1 4305   8.307   5.374   0.328
 1454TIP3    H2 4306   8.212   5.442   0.424
 1455TIP3   OH2 4307   3.739   1.046   1.098
 1455TIP3    H1 4308   3.798   0.972   1.112
 1455TIP3    H2 4309   3.675   1.013   1.034
 1456TIP3   OH2 4310   2.017   3.682   1.824
 1456TIP3    H1 4311   2.082   3.642   1.882
 1456TIP3    H2 4312   2.048   3.661   1.736
 1457TIP3   OH2 4313   0.970   3.610   4.963
 1457TIP3    H1 4314   0.909   3.681   4.984
 1457TIP3    H2 4315   1.057   3.646   4.981
 1458TIP3   OH2 4316   1.165   1.686   0.941
 1458TIP3    H1 4317   1.242   1.643   0.979
 1458TIP3    H2 4318   1.130   1.738   1.013
 1459TIP3   OH2 4319   0.774   0.025   1.590
 1459TIP3    H1 4320   0.816  -0.027   1.657
 1459TIP3    H2 4321   0.835   0.097   1.572
 1460TIP3   OH2 4322   2.276   5.339   3.789
 1460TIP3    H1 4323   2.318   5.338   3.703
 1460TIP3    H2 4324   2.208   5.272   3.783
 1461TIP3   OH2 4325   4.906   4.169   1.534
 1461TIP3    H1 4326   4.928   4.136   1.447
 1461TIP3    H2 4327   4.982   4.148   1.588
 1462TIP3   OH2 4328   4.301   5.651   3.158
 1462TIP3    H1 4329   4.320   5.623   3.069
 1462TIP3    H2 4330   4.206   5.665   3.159
 1463TIP3   OH2 4331   1.803   1.779   3.611
 1463TIP3    H1 4332   1.861   1.851   3.586
 1463TIP3    H2 4333   1.768   1.805   3.696
 1464TIP3   OH2 4334   7.126   6.809   3.946
 1464TIP3    H1 4335   7.208   6.770   3.917
 1464TIP3    H2 4336   7.146   6.902   3.958
 1465TIP3   OH2 4337   7.867   1.884   3.645
 1465TIP3    H1 4338   7.791   1.897   3.701
 1465TIP3    H2 4339   7.861   1.952   3.579
 1466TIP3   OH2 4340   7.972   3.061   6.065
 1466TIP3    H1 4341   8.056   3.041   6.107
 1466TIP3    H2 4342   7.976   3.155   6.047
 1467TIP3   OH2 4343   5.711   6.576   2.608
 1467TIP3    H1 4344   5.666   6.602   2.527
 1467TIP3    H2 4345   5.656   6.505   2.643
 1468TIP3   OH2 4346   7.270   4.591   6.047
 1468TIP3    H1 4347   7.338   4.525   6.028
 1468TIP3    H2 4348   7.196   4.565   5.993
 1469TIP3   OH2 4349   4.505   0.115   5.331
 1469TIP3    H1 4350   4.513   0.210   5.319
 1469TIP3    H2 4351   4.595   0.083   5.323
 1470TIP3   OH2 4352   5.987   3.560   3.050
 1470TIP3    H1 4353   5.945   3.478   3.023
 1470TIP3    H2 4354   5.989   3.556   3.146
 1471TIP3   OH2 4355   6.172   7.628   0.338
 1471TIP3    H1 4356   6.140   7.614   0.249
 1471TIP3    H2 4357   6.188   7.540   0.372
 1472TIP3   OH2 4358   4.324   2.463   0.431
 1472TIP3    H1 4359   4.264   2.535   0.413
 1472TIP3    H2 4360   4.335   2.419   0.346
 1473TIP3   OH2 4361   3.739   7.337   0.876
 1473TIP3    H1 4362   3.728   7.422   0.833
 1473TIP3    H2 4363   3.788   7.284   0.813
 1474TIP3   OH2 4364   6.679   7.057   6.717
 1474TIP3    H1 4365   6.702   7.045   6.625
 1474TIP3    H2 4366   6.763   7.060   6.762
 1475TIP3   OH2 4367   3.981   5.263   1.307
 1475TIP3    H1 4368   3.963   5.184   1.359
 1475TIP3    H2 4369   4.040   5.233   1.237
 1476TIP3   OH2 4370   3.917   0.465   5.420
 1476TIP3    H1 4371   3.910   0.502   5.509
 1476TIP3    H2 4372   3.849   0.510   5.370
 1477TIP3   OH2 4373   3.261   7.342   4.437
 1477TIP3    H1 4374   3.320   7.404   4.393
 1477TIP3    H2 4375   3.319   7.274   4.470
 1478TIP3   OH2 4376   1.790   7.703   0.638
 1478TIP3    H1 4377   1.782   7.797   0.620
 1478TIP3    H2 4378   1.780   7.697   0.733
 1479TIP3   OH2 4379   4.718   5.278   0.287
 1479TIP3    H1 4380   4.741   5.266   0.379
 1479TIP3    H2 4381   4.799   5.262   0.240
 1480TIP3   OH2 4382   6.059   4.861   1.897
 1480TIP3    H1 4383   5.978   4.875   1.847
 1480TIP3    H2 4384   6.083   4.770   1.879
 1481TIP3   OH2 4385   4.238   3.743   5.965
 1481TIP3    H1 4386   4.189   3.663   5.947
 1481TIP3    H2 4387   4.295   3.720   6.039
 1482TIP3   OH2 4388   1.873   0.509   4.892
 1482TIP3    H1 4389   1.787   0.468   4.892
 1482TIP3    H2 4390   1.862   0.590   4.942
 1483TIP3   OH2 4391   3.565   4.510   1.806
 1483TIP3    H1 4392   3.568   4.530   1.899
 1483TIP3    H2 4393   3.539   4.592   1.764
 1484TIP3   OH2 4394   0.574   2.372   1.917
 1484TIP3    H1 4395   0.630   2.360   1.993
 1484TIP3    H2 4396   0.634   2.397   1.846
 1485TIP3   OH2 4397   5.621   4.998   1.453
 1485TIP3    H1 4398   5.572   4.979   1.373
 1485TIP3    H2 4399   5.577   5.074   1.491
 1486TIP3   OH2 4400   8.038   1.759   5.263
 1486TIP3    H1 4401   8.089   1.830   5.224
 1486TIP3    H2 4402   8.028   1.695   5.193
 1487TIP3   OH2 4403   5.049   5.776   1.226
 1487TIP3    H1 4404   5.132   5.728   1.225
 1487TIP3    H2 4405   5.001   5.739   1.300
 1488TIP3   OH2 4406   4.841   6.988   3.859
 1488TIP3    H1 4407   4.932   6.969   3.881
 1488TIP3    H2 4408   4.810   6.909   3.815
 1489TIP3   OH2 4409   3.612   1.562   4.348
 1489TIP3    H1 4410   3.638   1.609   4.269
 1489TIP3    H2 4411   3.694   1.528   4.384
 1490TIP3   OH2 4412   3.453   1.034   0.438
 1490TIP3    H1 4413   3.459   0.973   0.365
 1490TIP3    H2 4414   3.425   1.117   0.398
 1491TIP3   OH2 4415   2.516   2.272   2.136
 1491TIP3    H1 4416   2.463   2.308   2.206
 1491TIP3    H2 4417   2.475   2.303   2.055
 1492TIP3   OH2 4418   7.085   4.267   3.716
 1492TIP3    H1 4419   7.126   4.314   3.788
 1492TIP3    H2 4420   7.098   4.175   3.737
 1493TIP3   OH2 4421   6.651   4.123   1.696
 1493TIP3    H1 4422   6.617   4.085   1.616
 1493TIP3    H2 4423   6.733   4.165   1.670
 1494TIP3   OH2 4424   3.456   3.905   5.322
 1494TIP3    H1 4425   3.460   4.000   5.331
 1494TIP3    H2 4426   3.440   3.891   5.228
 1495TIP3   OH2 4427   7.794   4.739   5.779
 1495TIP3    H1 4428   7.863   4.710   5.838
 1495TIP3    H2 4429   7.713   4.705   5.819
 1496TIP3   OH2 4430   6.599   1.622   5.570
 1496TIP3    H1 4431   6.523   1.616   5.512
 1496TIP3    H2 4432   6.636   1.709   5.551
 1497TIP3   OH2 4433   8.258   2.258   3.716
 1497TIP3    H1 4434   8.352   2.274   3.706
 1497TIP3    H2 4435   8.252   2.175   3.764
 1498TIP3   OH2 4436   0.252   3.891   6.270
 1498TIP3    H1 4437   0.320   3.932   6.324
 1498TIP3    H2 4438   0.193   3.962   6.247
 1499TIP3   OH2 4439   0.052   7.159   6.282
 1499TIP3    H1 4440  -0.042   7.151   6.292
 1499TIP3    H2 4441   0.067   7.148   6.188
 1500TIP3   OH2 4442   4.430   2.086   2.312
 1500TIP3    H1 4443   4.365   2.085   2.241
 1500TIP3    H2 4444   4.377   2.086   2.392
 1501TIP3   OH2 4445   6.877   3.458   5.929
 1501TIP3    H1 4446   6.927   3.512   5.991
 1501TIP3    H2 4447   6.886   3.503   5.845
 1502TIP3   OH2 4448   0.144   2.428   1.125
 1502TIP3    H1 4449   0.088   2.355   1.150
 1502TIP3    H2 4450   0.161   2.415   1.032
 1503TIP3   OH2 4451   1.222   7.183   3.056
 1503TIP3    H1 4452   1.262   7.112   3.106
 1503TIP3    H2 4453   1.288   7.206   2.990
 1504TIP3   OH2 4454   2.328   6.692   1.217
 1504TIP3    H1 4455   2.375   6.745   1.153
 1504TIP3    H2 4456   2.335   6.603   1.183
 1505TIP3   OH2 4457   5.691   6.486   5.581
 1505TIP3    H1 4458   5.610   6.523   5.615
 1505TIP3    H2 4459   5.674   6.474   5.487
 1506TIP3   OH2 4460   5.222   7.639   3.108
 1506TIP3    H1 4461   5.314   7.611   3.107
 1506TIP3    H2 4462   5.212   7.690   3.027
 1507TIP3   OH2 4463   3.259   7.260   5.534
 1507TIP3    H1 4464   3.164   7.259   5.544
 1507TIP3    H2 4465   3.273   7.253   5.440
 1508TIP3   OH2 4466   3.472   2.044   3.064
 1508TIP3    H1 4467   3.381   2.038   3.093
 1508TIP3    H2 4468   3.516   2.092   3.134
 1509TIP3   OH2 4469   0.309   4.327   3.141
 1509TIP3    H1 4470   0.270   4.361   3.060
 1509TIP3    H2 4471   0.402   4.315   3.120
 1510TIP3   OH2 4472   4.703   6.440   6.742
 1510TIP3    H1 4473   4.656   6.471   6.819
 1510TIP3    H2 4474   4.753   6.364   6.773
 1511TIP3   OH2 4475   4.298   7.810   6.184
 1511TIP3    H1 4476   4.278   7.724   6.222
 1511TIP3    H2 4477   4.363   7.848   6.243
 1512TIP3   OH2 4478   0.989   7.561   5.321
 1512TIP3    H1 4479   1.002   7.490   5.259
 1512TIP3    H2 4480   1.037   7.635   5.284
 1513TIP3   OH2 4481   0.792   3.395   4.953
 1513TIP3    H1 4482   0.854   3.468   4.961
 1513TIP3    H2 4483   0.753   3.386   5.040
 1514TIP3   OH2 4484   7.988   5.744   3.147
 1514TIP3    H1 4485   8.000   5.831   3.187
 1514TIP3    H2 4486   7.982   5.684   3.222
 1515TIP3   OH2 4487   1.470   4.544   0.117
 1515TIP3    H1 4488   1.378   4.546   0.143
 1515TIP3    H2 4489   1.485   4.629   0.076
 1516TIP3   OH2 4490   1.465   2.042   3.171
 1516TIP3    H1 4491   1.529   1.996   3.225
 1516TIP3    H2 4492   1.380   2.020   3.210
 1517TIP3   OH2 4493   3.745   5.024   5.799
 1517TIP3    H1 4494   3.719   5.047   5.888
 1517TIP3    H2 4495   3.840   5.036   5.799
 1518TIP3   OH2 4496   3.481   7.314   6.611
 1518TIP3    H1 4497   3.468   7.257   6.686
 1518TIP3    H2 4498   3.506   7.399   6.649
 1519TIP3   OH2 4499   3.699   4.892   5.572
 1519TIP3    H1 4500   3.655   4.973   5.544
 1519TIP3    H2 4501   3.732   4.912   5.659
 1520TIP3   OH2 4502   6.692   3.076   5.167
 1520TIP3    H1 4503   6.650   3.126   5.237
 1520TIP3    H2 4504   6.733   3.002   5.212
 1521TIP3   OH2 4505   7.918   1.018   2.332
 1521TIP3    H1 4506   7.987   1.072   2.369
 1521TIP3    H2 4507   7.926   0.934   2.377
 1522TIP3   OH2 4508   4.969   1.023   0.176
 1522TIP3    H1 4509   4.982   1.022   0.271
 1522TIP3    H2 4510   4.913   0.947   0.159
 1523TIP3   OH2 4511   6.917   3.678   5.454
 1523TIP3    H1 4512   6.975   3.663   5.529
 1523TIP3    H2 4513   6.882   3.592   5.433
 1524TIP3   OH2 4514   0.979   6.525   4.173
 1524TIP3    H1 4515   0.955   6.582   4.100
 1524TIP3    H2 4516   0.901   6.471   4.188
 1525TIP3   OH2 4517   4.043   7.080   6.217
 1525TIP3    H1 4518   4.055   6.997   6.172
 1525TIP3    H2 4519   3.950   7.084   6.238
 1526TIP3   OH2 4520   1.543   0.879   2.333
 1526TIP3    H1 4521   1.540   0.913   2.243
 1526TIP3    H2 4522   1.617   0.925   2.373
 1527TIP3   OH2 4523   0.605   4.850   4.355
 1527TIP3    H1 4524   0.527   4.831   4.406
 1527TIP3    H2 4525   0.666   4.890   4.417
 1528TIP3   OH2 4526   0.202   4.333   3.641
 1528TIP3    H1 4527   0.217   4.426   3.623
 1528TIP3    H2 4528   0.126   4.332   3.700
 1529TIP3   OH2 4529   4.557   4.865   6.696
 1529TIP3    H1 4530   4.616   4.931   6.734
 1529TIP3    H2 4531   4.604   4.782   6.706
 1530TIP3   OH2 4532   7.432   4.287   6.733
 1530TIP3    H1 4533   7.476   4.296   6.648
 1530TIP3    H2 4534   7.361   4.350   6.730
 1531TIP3   OH2 4535   5.621   6.299   2.043
 1531TIP3    H1 4536   5.626   6.290   1.948
 1531TIP3    H2 4537   5.530   6.320   2.061
 1532TIP3   OH2 4538   8.114   5.477   2.767
 1532TIP3    H1 4539   8.121   5.390   2.806
 1532TIP3    H2 4540   8.152   5.535   2.832
 1533TIP3   OH2 4541   1.180   1.148   6.426
 1533TIP3    H1 4542   1.267   1.175   6.457
 1533TIP3    H2 4543   1.161   1.069   6.477
 1534TIP3   OH2 4544   2.295   1.680   2.181
 1534TIP3    H1 4545   2.227   1.616   2.161
 1534TIP3    H2 4546   2.354   1.634   2.240
 1535TIP3   OH2 4547   2.112   7.792   0.502
 1535TIP3    H1 4548   2.051   7.758   0.568
 1535TIP3    H2 4549   2.057   7.840   0.440
 1536TIP3   OH2 4550   2.070   3.324   3.582
 1536TIP3    H1 4551   2.105   3.405   3.545
 1536TIP3    H2 4552   2.041   3.348   3.669
 1537TIP3   OH2 4553   0.463   6.041   0.849
 1537TIP3    H1 4554   0.513   6.087   0.781
 1537TIP3    H2 4555   0.496   5.952   0.846
 1538TIP3   OH2 4556   5.478   1.169   1.200
 1538TIP3    H1 4557   5.549   1.233   1.208
 1538TIP3    H2 4558   5.403   1.211   1.242
 1539TIP3   OH2 4559   5.520   7.468   0.239
 1539TIP3    H1 4560   5.514   7.535   0.170
 1539TIP3    H2 4561   5.441   7.481   0.291
 1540TIP3   OH2 4562   0.514   2.701   1.501
 1540TIP3    H1 4563   0.456   2.656   1.563
 1540TIP3    H2 4564   0.487   2.668   1.415
 1541TIP3   OH2 4565   5.900   7.158   0.806
 1541TIP3    H1 4566   5.992   7.182   0.795
 1541TIP3    H2 4567   5.901   7.062   0.813
 1542TIP3   OH2 4568   2.944   2.588   5.984
 1542TIP3    H1 4569   2.893   2.508   5.994
 1542TIP3    H2 4570   2.950   2.601   5.890
 1543TIP3   OH2 4571   7.557   2.207   4.436
 1543TIP3    H1 4572   7.529   2.115   4.434
 1543TIP3    H2 4573   7.507   2.249   4.366
 1544TIP3   OH2 4574   5.816   6.111   1.553
 1544TIP3    H1 4575   5.758   6.180   1.584
 1544TIP3    H2 4576   5.826   6.053   1.628
 1545TIP3   OH2 4577   6.762   3.682   4.946
 1545TIP3    H1 4578   6.817   3.755   4.975
 1545TIP3    H2 4579   6.824   3.619   4.908
 1546TIP3   OH2 4580   3.789   4.100   4.505
 1546TIP3    H1 4581   3.840   4.133   4.580
 1546TIP3    H2 4582   3.712   4.157   4.502
 1547TIP3   OH2 4583   7.747   1.521   1.393
 1547TIP3    H1 4584   7.740   1.547   1.301
 1547TIP3    H2 4585   7.707   1.434   1.397
 1548TIP3   OH2 4586   6.631   1.554   6.599
 1548TIP3    H1 4587   6.637   1.610   6.522
 1548TIP3    H2 4588   6.586   1.475   6.567
 1549TIP3   OH2 4589   5.549   0.434   5.603
 1549TIP3    H1 4590   5.467   0.386   5.616
 1549TIP3    H2 4591   5.604   0.374   5.553
 1550TIP3   OH2 4592   2.155   5.389   5.445
 1550TIP3    H1 4593   2.078   5.398   5.501
 1550TIP3    H2 4594   2.227   5.373   5.505
 1551TIP3   OH2 4595   0.340   5.306   0.249
 1551TIP3    H1 4596   0.305   5.376   0.304
 1551TIP3    H2 4597   0.302   5.323   0.163
 1552TIP3   OH2 4598   2.888   0.210   5.737
 1552TIP3    H1 4599   2.843   0.125   5.735
 1552TIP3    H2 4600   2.921   0.220   5.648
 1553TIP3   OH2 4601   5.547   4.973   3.402
 1553TIP3    H1 4602   5.590   5.026   3.334
 1553TIP3    H2 4603   5.617   4.919   3.438
 1554TIP3   OH2 4604   6.876   6.955   2.471
 1554TIP3    H1 4605   6.822   6.980   2.546
 1554TIP3    H2 4606   6.930   7.033   2.453
 1555TIP3   OH2 4607   0.362   6.186   4.396
 1555TIP3    H1 4608   0.322   6.112   4.441
 1555TIP3    H2 4609   0.354   6.165   4.303
 1556TIP3   OH2 4610   7.843   3.605   3.974
 1556TIP3    H1 4611   7.810   3.688   4.010
 1556TIP3    H2 4612   7.832   3.542   4.045
 1557TIP3   OH2 4613   0.528   0.320   6.077
 1557TIP3    H1 4614   0.543   0.326   6.172
 1557TIP3    H2 4615   0.611   0.289   6.042
 1558TIP3   OH2 4616   5.737   7.332   0.577
 1558TIP3    H1 4617   5.705   7.296   0.659
 1558TIP3    H2 4618   5.833   7.332   0.587
 1559TIP3   OH2 4619   3.778   7.503   1.377
 1559TIP3    H1 4620   3.799   7.577   1.435
 1559TIP3    H2 4621   3.797   7.426   1.430
 1560TIP3   OH2 4622   5.556   5.731   4.593
 1560TIP3    H1 4623   5.521   5.644   4.571
 1560TIP3    H2 4624   5.639   5.736   4.544
 1561TIP3   OH2 4625   4.637   0.127   5.986
 1561TIP3    H1 4626   4.590   0.070   5.925
 1561TIP3    H2 4627   4.602   0.105   6.072
 1562TIP3   OH2 4628   6.318   5.939   5.753
 1562TIP3    H1 4629   6.353   5.859   5.793
 1562TIP3    H2 4630   6.239   5.959   5.804
 1563TIP3   OH2 4631   6.646   5.837   0.744
 1563TIP3    H1 4632   6.670   5.873   0.829
 1563TIP3    H2 4633   6.684   5.897   0.680
 1564TIP3   OH2 4634   6.286   6.304   1.300
 1564TIP3    H1 4635   6.225   6.352   1.243
 1564TIP3    H2 4636   6.235   6.286   1.379
 1565TIP3   OH2 4637   2.112   4.767   6.402
 1565TIP3    H1 4638   2.069   4.717   6.332
 1565TIP3    H2 4639   2.075   4.731   6.483
 1566TIP3   OH2 4640   2.322   6.713   6.041
 1566TIP3    H1 4641   2.339   6.803   6.016
 1566TIP3    H2 4642   2.263   6.719   6.116
 1567TIP3   OH2 4643   2.907   5.776   5.616
 1567TIP3    H1 4644   2.926   5.870   5.617
 1567TIP3    H2 4645   2.832   5.767   5.674
 1568TIP3   OH2 4646   2.647   6.997   3.601
 1568TIP3    H1 4647   2.729   7.043   3.586
 1568TIP3    H2 4648   2.618   6.969   3.514
 1569TIP3   OH2 4649   6.582   4.055   6.329
 1569TIP3    H1 4650   6.549   4.098   6.408
 1569TIP3    H2 4651   6.576   4.121   6.261
 1570TIP3   OH2 4652   1.358   4.215   2.923
 1570TIP3    H1 4653   1.417   4.282   2.956
 1570TIP3    H2 4654   1.376   4.138   2.977
 1571TIP3   OH2 4655   3.296   7.583   5.323
 1571TIP3    H1 4656   3.250   7.660   5.357
 1571TIP3    H2 4657   3.309   7.601   5.230
 1572TIP3   OH2 4658   0.041   7.364   2.124
 1572TIP3    H1 4659   0.013   7.303   2.055
 1572TIP3    H2 4660   0.020   7.450   2.090
 1573TIP3   OH2 4661   2.310   5.515   1.745
 1573TIP3    H1 4662   2.242   5.536   1.809
 1573TIP3    H2 4663   2.387   5.564   1.775
 1574TIP3   OH2 4664   4.163   0.039   3.295
 1574TIP3    H1 4665   4.243   0.037   3.346
 1574TIP3    H2 4666   4.094   0.019   3.358
 1575TIP3   OH2 4667   4.527   3.625   5.291
 1575TIP3    H1 4668   4.484   3.682   5.355
 1575TIP3    H2 4669   4.562   3.686   5.225
 1576TIP3   OH2 4670   1.463   1.532   2.386
 1576TIP3    H1 4671   1.477   1.618   2.345
 1576TIP3    H2 4672   1.371   1.533   2.411
 1577TIP3   OH2 4673   6.522   7.240   1.907
 1577TIP3    H1 4674   6.507   7.257   2.000
 1577TIP3    H2 4675   6.521   7.326   1.866
 1578TIP3   OH2 4676   0.889   3.577   3.034
 1578TIP3    H1 4677   0.888   3.548   2.943
 1578TIP3    H2 4678   0.932   3.507   3.082
 1579TIP3   OH2 4679   6.592   2.965   0.438
 1579TIP3    H1 4680   6.622   2.889   0.488
 1579TIP3    H2 4681   6.497   2.953   0.432
 1580TIP3   OH2 4682   7.548   1.634   3.815
 1580TIP3    H1 4683   7.503   1.597   3.739
 1580TIP3    H2 4684   7.633   1.663   3.781
 1581TIP3   OH2 4685   4.220   7.783   2.085
 1581TIP3    H1 4686   4.292   7.728   2.054
 1581TIP3    H2 4687   4.224   7.861   2.029
 1582TIP3   OH2 4688   1.998   1.008   5.156
 1582TIP3    H1 4689   1.970   1.091   5.119
 1582TIP3    H2 4690   2.090   1.022   5.179
 1583TIP3   OH2 4691   1.630   7.145   3.977
 1583TIP3    H1 4692   1.668   7.110   4.057
 1583TIP3    H2 4693   1.692   7.122   3.908
 1584TIP3   OH2 4694   3.447   0.021   0.376
 1584TIP3    H1 4695   3.383  -0.001   0.443
 1584TIP3    H2 4696   3.399   0.016   0.294
 1585TIP3   OH2 4697   0.874   3.472   3.328
 1585TIP3    H1 4698   0.799   3.477   3.270
 1585TIP3    H2 4699   0.944   3.435   3.274
 1586TIP3   OH2 4700  -0.019   0.185   1.067
 1586TIP3    H1 4701   0.048   0.238   1.024
 1586TIP3    H2 4702  -0.094   0.245   1.075
 1587TIP3   OH2 4703   4.584   3.979   2.444
 1587TIP3    H1 4704   4.556   4.043   2.379
 1587TIP3    H2 4705   4.525   3.992   2.518
 1588TIP3   OH2 4706   8.163   7.648   2.871
 1588TIP3    H1 4707   8.255   7.659   2.895
 1588TIP3    H2 4708   8.123   7.733   2.889
 1589TIP3   OH2 4709   6.317   1.933   2.362
 1589TIP3    H1 4710   6.331   1.955   2.455
 1589TIP3    H2 4711   6.324   2.017   2.317
 1590TIP3   OH2 4712   3.557   6.536   3.004
 1590TIP3    H1 4713   3.538   6.497   3.089
 1590TIP3    H2 4714   3.568   6.629   3.021
 1591TIP3   OH2 4715   2.527   3.772   5.523
 1591TIP3    H1 4716   2.505   3.697   5.578
 1591TIP3    H2 4717   2.497   3.747   5.436
 1592TIP3   OH2 4718   4.453   7.069   5.709
 1592TIP3    H1 4719   4.425   7.069   5.800
 1592TIP3    H2 4720   4.398   7.135   5.667
 1593TIP3   OH2 4721   1.345   2.060   4.429
 1593TIP3    H1 4722   1.293   2.102   4.497
 1593TIP3    H2 4723   1.315   2.099   4.348
 1594TIP3   OH2 4724   6.243   0.017   4.367
 1594TIP3    H1 4725   6.334   0.011   4.396
 1594TIP3    H2 4726   6.219   0.108   4.384
 1595TIP3   OH2 4727   5.482   2.162   0.831
 1595TIP3    H1 4728   5.457   2.247   0.866
 1595TIP3    H2 4729   5.564   2.178   0.783
 1596TIP3   OH2 4730   6.701   3.517   4.394
 1596TIP3    H1 4731   6.637   3.447   4.408
 1596TIP3    H2 4732   6.760   3.511   4.470
 1597TIP3   OH2 4733   1.855   5.919   6.249
 1597TIP3    H1 4734   1.924   5.985   6.238
 1597TIP3    H2 4735   1.785   5.947   6.191
 1598TIP3   OH2 4736   2.332   2.237   4.936
 1598TIP3    H1 4737   2.408   2.290   4.961
 1598TIP3    H2 4738   2.369   2.162   4.891
 1599TIP3   OH2 4739   4.531   5.164   4.322
 1599TIP3    H1 4740   4.482   5.115   4.388
 1599TIP3    H2 4741   4.538   5.252   4.358
 1600TIP3   OH2 4742   1.552   0.657   2.951
 1600TIP3    H1 4743   1.585   0.746   2.959
 1600TIP3    H2 4744   1.469   0.667   2.905
 1601TIP3   OH2 4745   5.059   0.585   1.191
 1601TIP3    H1 4746   5.068   0.498   1.154
 1601TIP3    H2 4747   5.112   0.583   1.271
 1602TIP3   OH2 4748   3.910   1.368   0.081
 1602TIP3    H1 4749   4.006   1.368   0.092
 1602TIP3    H2 4750   3.879   1.305   0.146
 1603TIP3   OH2 4751   3.387   7.098   1.220
 1603TIP3    H1 4752   3.426   7.144   1.295
 1603TIP3    H2 4753   3.462   7.059   1.175
 1604TIP3   OH2 4754   6.924   5.580   6.192
 1604TIP3    H1 4755   6.846   5.524   6.190
 1604TIP3    H2 4756   6.993   5.523   6.227
 1605TIP3   OH2 4757   4.341   6.459   1.781
 1605TIP3    H1 4758   4.410   6.523   1.764
 1605TIP3    H2 4759   4.309   6.435   1.694
 1606TIP3   OH2 4760   5.911   6.084   1.063
 1606TIP3    H1 4761   5.970   6.160   1.058
 1606TIP3    H2 4762   5.851   6.105   1.134
 1607TIP3   OH2 4763   6.502   2.078   1.855
 1607TIP3    H1 4764   6.457   1.995   1.870
 1607TIP3    H2 4765   6.579   2.054   1.803
 1608TIP3   OH2 4766   5.591   6.426   6.222
 1608TIP3    H1 4767   5.567   6.346   6.269
 1608TIP3    H2 4768   5.511   6.478   6.221
 1609TIP3   OH2 4769   7.257   7.208   4.321
 1609TIP3    H1 4770   7.189   7.154   4.359
 1609TIP3    H2 4771   7.210   7.269   4.264
 1610TIP3   OH2 4772   5.788   7.736   1.943
 1610TIP3    H1 4773   5.883   7.746   1.941
 1610TIP3    H2 4774   5.775   7.647   1.977
 1611TIP3   OH2 4775   6.740   7.728   6.281
 1611TIP3    H1 4776   6.718   7.640   6.250
 1611TIP3    H2 4777   6.825   7.717   6.325
 1612TIP3   OH2 4778   2.277   5.349   5.035
 1612TIP3    H1 4779   2.269   5.441   5.059
 1612TIP3    H2 4780   2.213   5.303   5.089
 1613TIP3   OH2 4781   5.057   5.989   6.459
 1613TIP3    H1 4782   4.991   5.933   6.417
 1613TIP3    H2 4783   5.019   6.011   6.544
 1614TIP3   OH2 4784   3.132   7.481   5.900
 1614TIP3    H1 4785   3.052   7.491   5.952
 1614TIP3    H2 4786   3.101   7.467   5.811
 1615TIP3   OH2 4787   7.598   0.707   0.986
 1615TIP3    H1 4788   7.581   0.716   1.080
 1615TIP3    H2 4789   7.576   0.793   0.950
 1616TIP3   OH2 4790   8.023   4.534   5.211
 1616TIP3    H1 4791   8.036   4.499   5.299
 1616TIP3    H2 4792   8.061   4.622   5.214
 1617TIP3   OH2 4793   2.828   7.033   6.078
 1617TIP3    H1 4794   2.786   6.957   6.038
 1617TIP3    H2 4795   2.770   7.106   6.059
 1618TIP3   OH2 4796   5.210   6.046   0.351
 1618TIP3    H1 4797   5.183   5.990   0.278
 1618TIP3    H2 4798   5.249   5.985   0.414
 1619TIP3   OH2 4799   0.532   1.219   1.699
 1619TIP3    H1 4800   0.480   1.193   1.623
 1619TIP3    H2 4801   0.586   1.143   1.719
 1620TIP3   OH2 4802   0.926   0.806   2.425
 1620TIP3    H1 4803   0.957   0.876   2.368
 1620TIP3    H2 4804   0.972   0.728   2.395
 1621TIP3   OH2 4805   5.176   0.274   2.621
 1621TIP3    H1 4806   5.148   0.356   2.662
 1621TIP3    H2 4807   5.153   0.285   2.528
 1622TIP3   OH2 4808   6.132   5.601   6.498
 1622TIP3    H1 4809   6.144   5.585   6.592
 1622TIP3    H2 4810   6.220   5.613   6.464
 1623TIP3   OH2 4811   7.253   3.452   3.730
 1623TIP3    H1 4812   7.313   3.409   3.669
 1623TIP3    H2 4813   7.308   3.511   3.782
 1624TIP3   OH2 4814   7.305   2.214   2.097
 1624TIP3    H1 4815   7.377   2.152   2.083
 1624TIP3    H2 4816   7.236   2.183   2.039
 1625TIP3   OH2 4817   4.248   3.465   2.479
 1625TIP3    H1 4818   4.238   3.486   2.572
 1625TIP3    H2 4819   4.322   3.519   2.451
 1626TIP3   OH2 4820   7.850   4.814   5.281
 1626TIP3    H1 4821   7.940   4.808   5.248
 1626TIP3    H2 4822   7.796   4.806   5.202
 1627TIP3   OH2 4823   7.630   3.945   2.534
 1627TIP3    H1 4824   7.603   4.006   2.602
 1627TIP3    H2 4825   7.705   3.987   2.492
 1628TIP3   OH2 4826   6.514   6.705   3.407
 1628TIP3    H1 4827   6.594   6.655   3.392
 1628TIP3    H2 4828   6.458   6.683   3.332
 1629TIP3   OH2 4829   0.119   0.007   4.100
 1629TIP3    H1 4830   0.049  -0.045   4.062
 1629TIP3    H2 4831   0.114   0.091   4.054
 1630TIP3   OH2 4832   4.417   6.147   5.793
 1630TIP3    H1 4833   4.398   6.131   5.700
 1630TIP3    H2 4834   4.442   6.062   5.827
 1631TIP3   OH2 4835   7.039   4.274   5.577
 1631TIP3    H1 4836   7.006   4.327   5.649
 1631TIP3    H2 4837   7.086   4.203   5.620
 1632TIP3   OH2 4838   4.726   1.764   2.181
 1632TIP3    H1 4839   4.663   1.833   2.159
 1632TIP3    H2 4840   4.794   1.772   2.115
 1633TIP3   OH2 4841   2.558   4.923   1.133
 1633TIP3    H1 4842   2.471   4.884   1.130
 1633TIP3    H2 4843   2.545   5.014   1.107
 1634TIP3   OH2 4844   7.320   5.488   0.882
 1634TIP3    H1 4845   7.308   5.414   0.942
 1634TIP3    H2 4846   7.267   5.558   0.919
 1635TIP3   OH2 4847   8.056   3.625   5.371
 1635TIP3    H1 4848   8.006   3.631   5.452
 1635TIP3    H2 4849   8.038   3.708   5.326
 1636TIP3   OH2 4850   1.270   2.478   5.906
 1636TIP3    H1 4851   1.181   2.506   5.885
 1636TIP3    H2 4852   1.268   2.383   5.893
 1637TIP3   OH2 4853   2.072   2.865   2.178
 1637TIP3    H1 4854   2.013   2.791   2.167
 1637TIP3    H2 4855   2.157   2.826   2.195
 1638TIP3   OH2 4856   5.156   4.696   0.712
 1638TIP3    H1 4857   5.209   4.670   0.787
 1638TIP3    H2 4858   5.185   4.640   0.641
 1639TIP3   OH2 4859   1.132   0.515   2.814
 1639TIP3    H1 4860   1.038   0.503   2.819
 1639TIP3    H2 4861   1.168   0.450   2.875
 1640TIP3   OH2 4862   1.818   4.315   3.012
 1640TIP3    H1 4863   1.854   4.290   2.927
 1640TIP3    H2 4864   1.894   4.346   3.062
 1641TIP3   OH2 4865   5.616   3.979   5.499
 1641TIP3    H1 4866   5.525   3.961   5.478
 1641TIP3    H2 4867   5.619   4.071   5.523
 1642TIP3   OH2 4868   0.075   1.316   6.169
 1642TIP3    H1 4869   0.121   1.316   6.085
 1642TIP3    H2 4870   0.139   1.282   6.231
 1643TIP3   OH2 4871   2.085   5.886   1.163
 1643TIP3    H1 4872   2.027   5.933   1.223
 1643TIP3    H2 4873   2.081   5.795   1.193
 1644TIP3   OH2 4874   6.747   1.955   5.624
 1644TIP3    H1 4875   6.801   1.933   5.547
 1644TIP3    H2 4876   6.810   1.959   5.696
 1645TIP3   OH2 4877   3.608   2.863   6.290
 1645TIP3    H1 4878   3.610   2.770   6.312
 1645TIP3    H2 4879   3.693   2.879   6.248
 1646TIP3   OH2 4880   0.802   6.782   5.813
 1646TIP3    H1 4881   0.778   6.865   5.854
 1646TIP3    H2 4882   0.794   6.799   5.719
 1647TIP3   OH2 4883   4.878   0.599   4.004
 1647TIP3    H1 4884   4.845   0.603   3.914
 1647TIP3    H2 4885   4.799   0.603   4.058
 1648TIP3   OH2 4886   3.850   3.358   1.068
 1648TIP3    H1 4887   3.781   3.422   1.051
 1648TIP3    H2 4888   3.825   3.318   1.151
 1649TIP3   OH2 4889   0.105   1.352   3.295
 1649TIP3    H1 4890   0.109   1.299   3.374
 1649TIP3    H2 4891   0.196   1.363   3.268
 1650TIP3   OH2 4892   1.938   0.056   1.598
 1650TIP3    H1 4893   1.862   0.033   1.545
 1650TIP3    H2 4894   2.012   0.011   1.556
 1651TIP3   OH2 4895   0.274   0.306   4.494
 1651TIP3    H1 4896   0.268   0.211   4.497
 1651TIP3    H2 4897   0.281   0.327   4.401
 1652TIP3   OH2 4898   7.929   7.534   5.984
 1652TIP3    H1 4899   7.872   7.546   6.060
 1652TIP3    H2 4900   7.996   7.601   5.993
 1653TIP3   OH2 4901   4.042   4.073   2.717
 1653TIP3    H1 4902   3.974   4.005   2.719
 1653TIP3    H2 4903   3.994   4.154   2.702
 1654TIP3   OH2 4904   7.939   5.611   6.526
 1654TIP3    H1 4905   7.963   5.678   6.462
 1654TIP3    H2 4906   7.950   5.528   6.479
 1655TIP3   OH2 4907   5.762   4.612   6.353
 1655TIP3    H1 4908   5.696   4.634   6.288
 1655TIP3    H2 4909   5.757   4.684   6.417
 1656TIP3   OH2 4910   4.238   3.550   2.723
 1656TIP3    H1 4911   4.191   3.633   2.728
 1656TIP3    H2 4912   4.322   3.567   2.766
 1657TIP3   OH2 4913   0.328   6.166   4.127
 1657TIP3    H1 4914   0.234   6.173   4.143
 1657TIP3    H2 4915   0.340   6.078   4.092
 1658TIP3   OH2 4916   1.891   6.356   2.675
 1658TIP3    H1 4917   1.906   6.313   2.759
 1658TIP3    H2 4918   1.797   6.370   2.671
 1659TIP3   OH2 4919   7.032   5.241   2.173
 1659TIP3    H1 4920   7.116   5.237   2.219
 1659TIP3    H2 4921   7.007   5.333   2.177
 1660TIP3   OH2 4922   7.998   6.378   4.467
 1660TIP3    H1 4923   7.918   6.429   4.473
 1660TIP3    H2 4924   8.068   6.443   4.471
 1661TIP3   OH2 4925   5.585   3.061   2.199
 1661TIP3    H1 4926   5.496   3.085   2.225
 1661TIP3    H2 4927   5.608   2.989   2.257
 1662TIP3   OH2 4928   5.016   1.974   6.591
 1662TIP3    H1 4929   4.993   1.881   6.596
 1662TIP3    H2 4930   4.938   2.019   6.622
 1663TIP3   OH2 4931   4.930   4.229   5.191
 1663TIP3    H1 4932   5.008   4.220   5.136
 1663TIP3    H2 4933   4.941   4.313   5.235
 1664TIP3   OH2 4934   8.192   7.531   0.673
 1664TIP3    H1 4935   8.168   7.440   0.656
 1664TIP3    H2 4936   8.196   7.536   0.769
 1665TIP3   OH2 4937   3.061   2.659   6.581
 1665TIP3    H1 4938   3.051   2.575   6.626
 1665TIP3    H2 4939   2.997   2.716   6.622
 1666TIP3   OH2 4940   3.752   3.787   5.263
 1666TIP3    H1 4941   3.813   3.727   5.219
 1666TIP3    H2 4942   3.672   3.736   5.273
 1667TIP3   OH2 4943   1.578   1.779   0.656
 1667TIP3    H1 4944   1.514   1.849   0.669
 1667TIP3    H2 4945   1.529   1.709   0.612
 1668TIP3   OH2 4946   2.282   0.634   1.135
 1668TIP3    H1 4947   2.317   0.547   1.153
 1668TIP3    H2 4948   2.192   0.618   1.107
 1669TIP3   OH2 4949   1.725   4.175   1.379
 1669TIP3    H1 4950   1.700   4.105   1.318
 1669TIP3    H2 4951   1.779   4.131   1.445
 1670TIP3   OH2 4952   0.588   1.984   2.970
 1670TIP3    H1 4953   0.594   1.919   2.900
 1670TIP3    H2 4954   0.496   2.013   2.968
 1671TIP3   OH2 4955   2.280   1.517   1.420
 1671TIP3    H1 4956   2.227   1.578   1.470
 1671TIP3    H2 4957   2.318   1.570   1.349
 1672TIP3   OH2 4958   6.683   0.298   5.524
 1672TIP3    H1 4959   6.689   0.287   5.619
 1672TIP3    H2 4960   6.741   0.371   5.505
 1673TIP3   OH2 4961   1.806   3.781   4.653
 1673TIP3    H1 4962   1.778   3.690   4.669
 1673TIP3    H2 4963   1.738   3.817   4.596
 1674TIP3   OH2 4964   5.217   3.462   0.819
 1674TIP3    H1 4965   5.226   3.385   0.764
 1674TIP3    H2 4966   5.234   3.536   0.761
 1675TIP3   OH2 4967   3.002   7.285   5.575
 1675TIP3    H1 4968   3.007   7.378   5.596
 1675TIP3    H2 4969   2.971   7.282   5.485
 1676TIP3   OH2 4970   4.761   2.856   1.621
 1676TIP3    H1 4971   4.797   2.798   1.687
 1676TIP3    H2 4972   4.834   2.913   1.596
 1677TIP3   OH2 4973   4.278   0.015   5.780
 1677TIP3    H1 4974   4.357  -0.035   5.799
 1677TIP3    H2 4975   4.260   0.064   5.860
 1678TIP3   OH2 4976   2.322   0.177   3.468
 1678TIP3    H1 4977   2.300   0.136   3.551
 1678TIP3    H2 4978   2.256   0.146   3.407
 1679TIP3   OH2 4979   6.970   2.866   0.660
 1679TIP3    H1 4980   6.968   2.949   0.612
 1679TIP3    H2 4981   6.940   2.801   0.596
 1680TIP3   OH2 4982   7.307   1.330   3.654
 1680TIP3    H1 4983   7.340   1.414   3.622
 1680TIP3    H2 4984   7.372   1.267   3.626
 1681TIP3   OH2 4985   1.266   4.122   3.847
 1681TIP3    H1 4986   1.237   4.110   3.756
 1681TIP3    H2 4987   1.237   4.210   3.870
 1682TIP3   OH2 4988   0.591   3.644   1.829
 1682TIP3    H1 4989   0.603   3.665   1.737
 1682TIP3    H2 4990   0.557   3.554   1.829
 1683TIP3   OH2 4991   0.336   2.105   3.593
 1683TIP3    H1 4992   0.420   2.095   3.637
 1683TIP3    H2 4993   0.302   2.190   3.625
 1684TIP3   OH2 4994   3.449   4.334   5.144
 1684TIP3    H1 4995   3.362   4.349   5.180
 1684TIP3    H2 4996   3.456   4.395   5.071
 1685TIP3   OH2 4997   5.248   0.049   6.649
 1685TIP3    H1 4998   5.240  -0.021   6.714
 1685TIP3    H2 4999   5.338   0.043   6.619
 1686TIP3   OH2 5000   4.240   5.869   1.223
 1686TIP3    H1 5001   4.162   5.825   1.189
 1686TIP3    H2 5002   4.313   5.826   1.179
 1687TIP3   OH2 5003   1.039   3.318   6.279
 1687TIP3    H1 5004   0.972   3.306   6.346
 1687TIP3    H2 5005   1.119   3.335   6.328
 1688TIP3   OH2 5006   1.595   4.194   1.674
 1688TIP3    H1 5007   1.650   4.206   1.596
 1688TIP3    H2 5008   1.602   4.101   1.694
 1689TIP3   OH2 5009   2.885   5.293   5.178
 1689TIP3    H1 5010   2.814   5.232   5.195
 1689TIP3    H2 5011   2.844   5.380   5.183
 1690TIP3   OH2 5012   0.126   0.130   5.342
 1690TIP3    H1 5013   0.115   0.048   5.295
 1690TIP3    H2 5014   0.086   0.115   5.427
 1691TIP3   OH2 5015   6.876   1.412   6.725
 1691TIP3    H1 5016   6.828   1.483   6.682
 1691TIP3    H2 5017   6.961   1.411   6.681
 1692TIP3   OH2 5018   0.315   3.536   3.981
 1692TIP3    H1 5019   0.266   3.458   3.956
 1692TIP3    H2 5020   0.260   3.610   3.955
 1693TIP3   OH2 5021   1.509   2.122   5.432
 1693TIP3    H1 5022   1.452   2.079   5.495
 1693TIP3    H2 5023   1.581   2.060   5.417
 1694TIP3   OH2 5024   7.248   7.721   6.340
 1694TIP3    H1 5025   7.277   7.767   6.261
 1694TIP3    H2 5026   7.235   7.790   6.404
 1695TIP3   OH2 5027   3.321   6.105   4.672
 1695TIP3    H1 5028   3.282   6.057   4.745
 1695TIP3    H2 5029   3.247   6.124   4.614
 1696TIP3   OH2 5030   1.991   1.468   1.509
 1696TIP3    H1 5031   1.958   1.555   1.487
 1696TIP3    H2 5032   2.042   1.482   1.589
 1697TIP3   OH2 5033   3.687   0.125   0.982
 1697TIP3    H1 5034   3.688   0.057   1.050
 1697TIP3    H2 5035   3.737   0.197   1.019
 1698TIP3   OH2 5036   6.135   3.883   1.664
 1698TIP3    H1 5037   6.058   3.875   1.719
 1698TIP3    H2 5038   6.142   3.799   1.620
 1699TIP3   OH2 5039   7.670   2.426   0.624
 1699TIP3    H1 5040   7.586   2.389   0.595
 1699TIP3    H2 5041   7.662   2.433   0.719
 1700TIP3   OH2 5042   5.547   6.092   1.114
 1700TIP3    H1 5043   5.552   6.051   1.028
 1700TIP3    H2 5044   5.506   6.027   1.170
 1701TIP3   OH2 5045   8.161   3.380   3.133
 1701TIP3    H1 5046   8.158   3.445   3.062
 1701TIP3    H2 5047   8.097   3.412   3.197
 1702TIP3   OH2 5048   7.308   2.405   4.438
 1702TIP3    H1 5049   7.352   2.394   4.523
 1702TIP3    H2 5050   7.295   2.499   4.430
 1703TIP3   OH2 5051   2.174   7.671   2.681
 1703TIP3    H1 5052   2.132   7.592   2.646
 1703TIP3    H2 5053   2.233   7.700   2.611
 1704TIP3   OH2 5054   0.877   0.699   2.930
 1704TIP3    H1 5055   0.943   0.735   2.871
 1704TIP3    H2 5056   0.894   0.742   3.014
 1705TIP3   OH2 5057   7.977   1.213   6.623
 1705TIP3    H1 5058   7.895   1.257   6.646
 1705TIP3    H2 5059   8.034   1.284   6.591
 1706TIP3   OH2 5060   5.434   1.910   1.570
 1706TIP3    H1 5061   5.374   1.978   1.601
 1706TIP3    H2 5062   5.516   1.956   1.554
 1707TIP3   OH2 5063   6.901   6.169   2.259
 1707TIP3    H1 5064   6.915   6.183   2.352
 1707TIP3    H2 5065   6.905   6.074   2.248
 1708TIP3   OH2 5066   7.345   0.827   4.993
 1708TIP3    H1 5067   7.358   0.763   4.923
 1708TIP3    H2 5068   7.355   0.912   4.949
 1709TIP3   OH2 5069   0.364   2.339   2.894
 1709TIP3    H1 5070   0.393   2.273   2.957
 1709TIP3    H2 5071   0.371   2.296   2.809
 1710TIP3   OH2 5072   5.894   7.197   0.277
 1710TIP3    H1 5073   5.870   7.289   0.261
 1710TIP3    H2 5074   5.956   7.176   0.207
 1711TIP3   OH2 5075   7.063   7.015   6.582
 1711TIP3    H1 5076   6.985   6.976   6.542
 1711TIP3    H2 5077   7.031   7.091   6.629
 1712TIP3   OH2 5078   4.672   4.936   6.315
 1712TIP3    H1 5079   4.609   4.872   6.280
 1712TIP3    H2 5080   4.641   4.954   6.404
 1713TIP3   OH2 5081   5.623   3.491   1.120
 1713TIP3    H1 5082   5.549   3.548   1.140
 1713TIP3    H2 5083   5.636   3.440   1.200
 1714TIP3   OH2 5084   7.520   0.632   4.869
 1714TIP3    H1 5085   7.560   0.711   4.831
 1714TIP3    H2 5086   7.590   0.592   4.920
 1715TIP3   OH2 5087   7.107   5.438   1.088
 1715TIP3    H1 5088   7.079   5.515   1.137
 1715TIP3    H2 5089   7.050   5.436   1.011
 1716TIP3   OH2 5090   5.127   0.033   1.364
 1716TIP3    H1 5091   5.120   0.042   1.269
 1716TIP3    H2 5092   5.220   0.019   1.380
 1717TIP3   OH2 5093   0.485   7.589   1.885
 1717TIP3    H1 5094   0.555   7.632   1.934
 1717TIP3    H2 5095   0.407   7.600   1.940
 1718TIP3   OH2 5096   3.095   3.974   2.471
 1718TIP3    H1 5097   3.187   3.977   2.447
 1718TIP3    H2 5098   3.095   3.942   2.561
 1719TIP3   OH2 5099   1.745   2.093   1.118
 1719TIP3    H1 5100   1.782   2.166   1.167
 1719TIP3    H2 5101   1.787   2.015   1.155
 1720TIP3   OH2 5102   7.656   3.077   3.755
 1720TIP3    H1 5103   7.657   3.023   3.834
 1720TIP3    H2 5104   7.731   3.047   3.704
 1721TIP3   OH2 5105   0.294   6.932   5.322
 1721TIP3    H1 5106   0.300   6.974   5.236
 1721TIP3    H2 5107   0.375   6.881   5.329
 1722TIP3   OH2 5108   6.169   4.496   2.597
 1722TIP3    H1 5109   6.209   4.519   2.513
 1722TIP3    H2 5110   6.078   4.525   2.589
 1723TIP3   OH2 5111   2.578   4.973   6.581
 1723TIP3    H1 5112   2.657   4.918   6.582
 1723TIP3    H2 5113   2.516   4.924   6.527
 1724TIP3   OH2 5114   8.132   6.774   2.908
 1724TIP3    H1 5115   8.165   6.859   2.937
 1724TIP3    H2 5116   8.068   6.795   2.840
 1725TIP3   OH2 5117   5.786   2.477   3.302
 1725TIP3    H1 5118   5.748   2.478   3.389
 1725TIP3    H2 5119   5.766   2.562   3.264
 1726TIP3   OH2 5120   0.227   5.953   1.667
 1726TIP3    H1 5121   0.289   6.019   1.699
 1726TIP3    H2 5122   0.146   6.001   1.652
 1727TIP3   OH2 5123   7.444   0.366   2.258
 1727TIP3    H1 5124   7.368   0.313   2.232
 1727TIP3    H2 5125   7.493   0.309   2.317
 1728TIP3   OH2 5126   5.602   6.046   2.791
 1728TIP3    H1 5127   5.557   6.088   2.717
 1728TIP3    H2 5128   5.670   5.993   2.750
 1729TIP3   OH2 5129   7.298   4.502   4.013
 1729TIP3    H1 5130   7.331   4.426   3.964
 1729TIP3    H2 5131   7.203   4.490   4.014
 1730TIP3   OH2 5132   2.061   2.182   5.047
 1730TIP3    H1 5133   2.152   2.191   5.017
 1730TIP3    H2 5134   2.069   2.143   5.134
 1731TIP3   OH2 5135   7.406   7.443   3.030
 1731TIP3    H1 5136   7.431   7.351   3.040
 1731TIP3    H2 5137   7.418   7.461   2.937
 1732TIP3   OH2 5138   3.273   4.642   1.960
 1732TIP3    H1 5139   3.297   4.683   1.877
 1732TIP3    H2 5140   3.186   4.679   1.980
 1733TIP3   OH2 5141   8.222   0.201   5.843
 1733TIP3    H1 5142   8.192   0.292   5.843
 1733TIP3    H2 5143   8.142   0.150   5.855
 1734TIP3   OH2 5144   0.859   2.404   2.959
 1734TIP3    H1 5145   0.869   2.327   2.903
 1734TIP3    H2 5146   0.804   2.464   2.908
 1735TIP3   OH2 5147   6.658   3.287   1.061
 1735TIP3    H1 5148   6.699   3.258   0.979
 1735TIP3    H2 5149   6.595   3.218   1.081
 1736TIP3   OH2 5150   5.548   4.638   6.137
 1736TIP3    H1 5151   5.498   4.718   6.155
 1736TIP3    H2 5152   5.602   4.660   6.061
 1737TIP3   OH2 5153   4.184   6.706   2.353
 1737TIP3    H1 5154   4.125   6.657   2.409
 1737TIP3    H2 5155   4.140   6.790   2.339
 1738TIP3   OH2 5156   4.570   6.254   5.209
 1738TIP3    H1 5157   4.591   6.162   5.198
 1738TIP3    H2 5158   4.549   6.285   5.121
 1739TIP3   OH2 5159   3.531   4.176   5.340
 1739TIP3    H1 5160   3.570   4.219   5.416
 1739TIP3    H2 5161   3.498   4.248   5.287
 1740TIP3   OH2 5162   6.636   7.629   1.449
 1740TIP3    H1 5163   6.573   7.563   1.419
 1740TIP3    H2 5164   6.721   7.595   1.424
 1741TIP3   OH2 5165   0.641   6.748   3.624
 1741TIP3    H1 5166   0.717   6.694   3.604
 1741TIP3    H2 5167   0.581   6.690   3.670
 1742TIP3   OH2 5168   4.684   0.140   1.009
 1742TIP3    H1 5169   4.614   0.083   0.977
 1742TIP3    H2 5170   4.764   0.097   0.981
 1743TIP3   OH2 5171   1.694   5.615   4.132
 1743TIP3    H1 5172   1.680   5.540   4.075
 1743TIP3    H2 5173   1.621   5.674   4.113
 1744TIP3   OH2 5174   4.022   5.580   6.057
 1744TIP3    H1 5175   3.971   5.614   5.983
 1744TIP3    H2 5176   3.959   5.527   6.106
 1745TIP3   OH2 5177   6.123   5.692   1.453
 1745TIP3    H1 5178   6.083   5.639   1.384
 1745TIP3    H2 5179   6.128   5.780   1.416
 1746TIP3   OH2 5180   4.262   7.675   5.476
 1746TIP3    H1 5181   4.311   7.698   5.397
 1746TIP3    H2 5182   4.237   7.583   5.462
 1747TIP3   OH2 5183   6.062   5.275   6.572
 1747TIP3    H1 5184   6.130   5.254   6.635
 1747TIP3    H2 5185   6.013   5.347   6.613
 1748TIP3   OH2 5186   3.176   0.428   2.837
 1748TIP3    H1 5187   3.238   0.497   2.861
 1748TIP3    H2 5188   3.100   0.474   2.803
 1749TIP3   OH2 5189   5.762   7.781   2.526
 1749TIP3    H1 5190   5.775   7.817   2.438
 1749TIP3    H2 5191   5.847   7.788   2.568
 1750TIP3   OH2 5192   1.642   6.727   5.450
 1750TIP3    H1 5193   1.648   6.790   5.378
 1750TIP3    H2 5194   1.580   6.767   5.511
 1751TIP3   OH2 5195   1.684   0.481   0.584
 1751TIP3    H1 5196   1.645   0.565   0.561
 1751TIP3    H2 5197   1.686   0.481   0.680
 1752TIP3   OH2 5198   4.698   1.453   3.947
 1752TIP3    H1 5199   4.788   1.445   3.980
 1752TIP3    H2 5200   4.651   1.383   3.993
 1753TIP3   OH2 5201   0.686   3.848   4.647
 1753TIP3    H1 5202   0.758   3.911   4.644
 1753TIP3    H2 5203   0.728   3.762   4.648
 1754TIP3   OH2 5204   0.754   0.317   3.164
 1754TIP3    H1 5205   0.810   0.394   3.176
 1754TIP3    H2 5206   0.677   0.335   3.218
 1755TIP3   OH2 5207   7.503   1.633   5.329
 1755TIP3    H1 5208   7.536   1.551   5.293
 1755TIP3    H2 5209   7.507   1.621   5.424
 1756TIP3   OH2 5210   3.846   4.181   2.349
 1756TIP3    H1 5211   3.784   4.129   2.298
 1756TIP3    H2 5212   3.922   4.190   2.292
 1757TIP3   OH2 5213   4.985   6.073   1.160
 1757TIP3    H1 5214   4.894   6.048   1.179
 1757TIP3    H2 5215   4.983   6.168   1.152
 1758TIP3   OH2 5216   6.866   1.978   3.874
 1758TIP3    H1 5217   6.842   1.901   3.925
 1758TIP3    H2 5218   6.947   2.010   3.914
 1759TIP3   OH2 5219   2.116   2.627   2.571
 1759TIP3    H1 5220   2.188   2.572   2.603
 1759TIP3    H2 5221   2.159   2.702   2.529
 1760TIP3   OH2 5222   2.256   5.046   2.082
 1760TIP3    H1 5223   2.220   4.999   2.157
 1760TIP3    H2 5224   2.273   4.978   2.016
 1761TIP3   OH2 5225   1.418   7.557   0.100
 1761TIP3    H1 5226   1.394   7.588   0.187
 1761TIP3    H2 5227   1.466   7.476   0.116
 1762TIP3   OH2 5228   2.644   3.929   4.259
 1762TIP3    H1 5229   2.585   3.921   4.184
 1762TIP3    H2 5230   2.589   3.910   4.335
 1763TIP3   OH2 5231   4.076   0.008   6.132
 1763TIP3    H1 5232   4.087   0.103   6.132
 1763TIP3    H2 5233   4.061  -0.015   6.224
 1764TIP3   OH2 5234   3.467   5.117   5.557
 1764TIP3    H1 5235   3.398   5.180   5.538
 1764TIP3    H2 5236   3.434   5.068   5.632
 1765TIP3   OH2 5237   0.952   7.525   0.939
 1765TIP3    H1 5238   1.037   7.483   0.925
 1765TIP3    H2 5239   0.888   7.457   0.916
 1766TIP3   OH2 5240   4.738   4.352   3.380
 1766TIP3    H1 5241   4.834   4.344   3.384
 1766TIP3    H2 5242   4.723   4.426   3.321
 1767TIP3   OH2 5243   2.839   6.380   5.346
 1767TIP3    H1 5244   2.914   6.391   5.287
 1767TIP3    H2 5245   2.828   6.465   5.388
 1768TIP3   OH2 5246   3.979   2.350   4.807
 1768TIP3    H1 5247   3.995   2.444   4.804
 1768TIP3    H2 5248   3.908   2.336   4.743
 1769TIP3   OH2 5249   3.296   4.833   6.709
 1769TIP3    H1 5250   3.223   4.859   6.764
 1769TIP3    H2 5251   3.267   4.753   6.665
 1770TIP3   OH2 5252   2.014   2.361   6.369
 1770TIP3    H1 5253   1.926   2.327   6.355
 1770TIP3    H2 5254   2.063   2.288   6.408
 1771TIP3   OH2 5255   8.254   6.480   4.356
 1771TIP3    H1 5256   8.341   6.504   4.325
 1771TIP3    H2 5257   8.194   6.522   4.293
 1772TIP3   OH2 5258   5.020   5.850   3.057
 1772TIP3    H1 5259   5.092   5.818   3.113
 1772TIP3    H2 5260   4.953   5.878   3.119
 1773TIP3   OH2 5261   4.577   0.886   1.613
 1773TIP3    H1 5262   4.612   0.921   1.531
 1773TIP3    H2 5263   4.641   0.912   1.679
 1774TIP3   OH2 5264   5.657   7.510   5.414
 1774TIP3    H1 5265   5.630   7.547   5.498
 1774TIP3    H2 5266   5.731   7.453   5.435
 1775TIP3   OH2 5267   1.190   2.952   5.417
 1775TIP3    H1 5268   1.184   2.916   5.506
 1775TIP3    H2 5269   1.273   2.920   5.384
 1776TIP3   OH2 5270   6.235   1.341   5.382
 1776TIP3    H1 5271   6.287   1.390   5.446
 1776TIP3    H2 5272   6.300   1.306   5.320
 1777TIP3   OH2 5273   3.756   3.207   0.154
 1777TIP3    H1 5274   3.765   3.300   0.134
 1777TIP3    H2 5275   3.812   3.163   0.089
 1778TIP3   OH2 5276   1.790   0.460   5.829
 1778TIP3    H1 5277   1.878   0.490   5.805
 1778TIP3    H2 5278   1.732   0.506   5.769
 1779TIP3   OH2 5279   5.462   1.844   3.752
 1779TIP3    H1 5280   5.405   1.837   3.676
 1779TIP3    H2 5281   5.534   1.899   3.723
 1780TIP3   OH2 5282   4.545   6.482   6.494
 1780TIP3    H1 5283   4.574   6.400   6.456
 1780TIP3    H2 5284   4.591   6.488   6.578
 1781TIP3   OH2 5285   5.114   5.283   6.244
 1781TIP3    H1 5286   5.048   5.216   6.255
 1781TIP3    H2 5287   5.088   5.353   6.304
 1782TIP3   OH2 5288   1.573   7.357   0.943
 1782TIP3    H1 5289   1.518   7.434   0.956
 1782TIP3    H2 5290   1.521   7.300   0.885
 1783TIP3   OH2 5291   0.313   6.076   2.295
 1783TIP3    H1 5292   0.353   6.111   2.374
 1783TIP3    H2 5293   0.375   6.010   2.264
 1784TIP3   OH2 5294   2.189   4.992   1.251
 1784TIP3    H1 5295   2.221   4.912   1.208
 1784TIP3    H2 5296   2.153   5.044   1.180
 1785TIP3   OH2 5297   4.375   0.363   3.761
 1785TIP3    H1 5298   4.312   0.336   3.694
 1785TIP3    H2 5299   4.365   0.299   3.831
 1786TIP3   OH2 5300   1.020   0.157   5.945
 1786TIP3    H1 5301   1.096   0.178   6.000
 1786TIP3    H2 5302   1.041   0.073   5.906
 1787TIP3   OH2 5303   0.792   5.847   2.877
 1787TIP3    H1 5304   0.888   5.843   2.874
 1787TIP3    H2 5305   0.768   5.782   2.943
 1788TIP3   OH2 5306   3.235   2.338   1.835
 1788TIP3    H1 5307   3.301   2.344   1.905
 1788TIP3    H2 5308   3.221   2.428   1.808
 1789TIP3   OH2 5309   1.298   1.229   1.235
 1789TIP3    H1 5310   1.252   1.145   1.235
 1789TIP3    H2 5311   1.300   1.256   1.326
 1790TIP3   OH2 5312   2.224   6.851   4.057
 1790TIP3    H1 5313   2.215   6.932   4.006
 1790TIP3    H2 5314   2.146   6.849   4.112
 1791TIP3   OH2 5315   6.488   2.725   4.914
 1791TIP3    H1 5316   6.525   2.704   4.829
 1791TIP3    H2 5317   6.449   2.812   4.902
 1792TIP3   OH2 5318   7.708   2.700   0.553
 1792TIP3    H1 5319   7.701   2.608   0.580
 1792TIP3    H2 5320   7.785   2.732   0.599
 1793TIP3   OH2 5321   7.109   7.671   4.882
 1793TIP3    H1 5322   7.134   7.660   4.973
 1793TIP3    H2 5323   7.045   7.601   4.866
 1794TIP3   OH2 5324   4.614   4.473   1.446
 1794TIP3    H1 5325   4.550   4.510   1.385
 1794TIP3    H2 5326   4.678   4.428   1.390
 1795TIP3   OH2 5327   5.578   3.685   2.361
 1795TIP3    H1 5328   5.613   3.728   2.440
 1795TIP3    H2 5329   5.632   3.607   2.350
 1796TIP3   OH2 5330   2.978   3.686   3.474
 1796TIP3    H1 5331   2.987   3.691   3.379
 1796TIP3    H2 5332   3.055   3.635   3.502
 1797TIP3   OH2 5333   6.280   6.338   2.681
 1797TIP3    H1 5334   6.198   6.387   2.686
 1797TIP3    H2 5335   6.282   6.286   2.762
 1798TIP3   OH2 5336   2.367   1.843   6.625
 1798TIP3    H1 5337   2.438   1.858   6.688
 1798TIP3    H2 5338   2.335   1.930   6.604
 1799TIP3   OH2 5339   6.354   6.962   4.210
 1799TIP3    H1 5340   6.384   6.871   4.221
 1799TIP3    H2 5341   6.259   6.957   4.224
 1800TIP3   OH2 5342   2.225   6.434   1.482
 1800TIP3    H1 5343   2.270   6.385   1.551
 1800TIP3    H2 5344   2.144   6.465   1.524
 1801TIP3   OH2 5345   8.254   0.839   5.636
 1801TIP3    H1 5346   8.325   0.898   5.661
 1801TIP3    H2 5347   8.292   0.752   5.643
 1802TIP3   OH2 5348   0.604   0.506   5.348
 1802TIP3    H1 5349   0.547   0.517   5.273
 1802TIP3    H2 5350   0.585   0.581   5.405
 1803TIP3   OH2 5351   5.751   6.877   1.402
 1803TIP3    H1 5352   5.727   6.832   1.321
 1803TIP3    H2 5353   5.668   6.892   1.447
 1804TIP3   OH2 5354   5.052   2.748   6.132
 1804TIP3    H1 5355   5.010   2.816   6.078
 1804TIP3    H2 5356   5.066   2.675   6.071
 1805TIP3   OH2 5357   5.162   1.596   4.750
 1805TIP3    H1 5358   5.083   1.553   4.782
 1805TIP3    H2 5359   5.208   1.528   4.701
 1806TIP3   OH2 5360   5.566   2.848   2.990
 1806TIP3    H1 5361   5.505   2.908   3.035
 1806TIP3    H2 5362   5.511   2.798   2.931
 1807TIP3   OH2 5363   6.726   2.575   1.120
 1807TIP3    H1 5364   6.777   2.597   1.198
 1807TIP3    H2 5365   6.784   2.594   1.047
 1808TIP3   OH2 5366   6.636   7.775   1.665
 1808TIP3    H1 5367   6.624   7.725   1.584
 1808TIP3    H2 5368   6.712   7.831   1.647
 1809TIP3   OH2 5369   3.835   6.070   1.818
 1809TIP3    H1 5370   3.840   6.016   1.896
 1809TIP3    H2 5371   3.848   6.010   1.745
 1810TIP3   OH2 5372   0.452   4.916   0.545
 1810TIP3    H1 5373   0.403   4.899   0.625
 1810TIP3    H2 5374   0.408   4.992   0.506
 1811TIP3   OH2 5375   3.929   0.516   1.333
 1811TIP3    H1 5376   3.850   0.554   1.294
 1811TIP3    H2 5377   3.970   0.588   1.381
 1812TIP3   OH2 5378   6.743   3.180   0.810
 1812TIP3    H1 5379   6.832   3.147   0.797
 1812TIP3    H2 5380   6.701   3.172   0.725
 1813TIP3   OH2 5381   4.408   2.735   4.923
 1813TIP3    H1 5382   4.456   2.659   4.890
 1813TIP3    H2 5383   4.353   2.700   4.994
 1814TIP3   OH2 5384   6.634   0.261   4.644
 1814TIP3    H1 5385   6.590   0.323   4.703
 1814TIP3    H2 5386   6.689   0.208   4.703
 1815TIP3   OH2 5387   8.180   4.584   6.228
 1815TIP3    H1 5388   8.219   4.644   6.291
 1815TIP3    H2 5389   8.253   4.533   6.193
 1816TIP3   OH2 5390   0.942   1.067   4.369
 1816TIP3    H1 5391   1.033   1.073   4.339
 1816TIP3    H2 5392   0.931   0.974   4.392
 1817TIP3   OH2 5393   5.628   2.795   4.388
 1817TIP3    H1 5394   5.562   2.785   4.318
 1817TIP3    H2 5395   5.643   2.890   4.392
 1818TIP3   OH2 5396   4.611   2.896   4.785
 1818TIP3    H1 5397   4.662   2.839   4.842
 1818TIP3    H2 5398   4.527   2.906   4.829
 1819TIP3   OH2 5399   3.230   0.487   4.566
 1819TIP3    H1 5400   3.145   0.451   4.538
 1819TIP3    H2 5401   3.217   0.581   4.568
 1820TIP3   OH2 5402   4.506   0.978   5.949
 1820TIP3    H1 5403   4.552   1.010   6.026
 1820TIP3    H2 5404   4.460   1.055   5.915
 1821TIP3   OH2 5405   7.029   5.676   6.721
 1821TIP3    H1 5406   7.116   5.706   6.746
 1821TIP3    H2 5407   7.043   5.592   6.679
 1822TIP3   OH2 5408   1.723   3.488   5.403
 1822TIP3    H1 5409   1.808   3.455   5.432
 1822TIP3    H2 5410   1.680   3.412   5.365
 1823TIP3   OH2 5411   2.270   4.524   3.460
 1823TIP3    H1 5412   2.181   4.489   3.468
 1823TIP3    H2 5413   2.262   4.616   3.484
 1824TIP3   OH2 5414   1.170   5.761   0.708
 1824TIP3    H1 5415   1.240   5.773   0.773
 1824TIP3    H2 5416   1.173   5.668   0.686
 1825TIP3   OH2 5417   1.508   5.999   3.718
 1825TIP3    H1 5418   1.566   6.014   3.793
 1825TIP3    H2 5419   1.445   6.072   3.722
 1826TIP3   OH2 5420   1.571   4.327   3.582
 1826TIP3    H1 5421   1.595   4.417   3.561
 1826TIP3    H2 5422   1.484   4.317   3.543
 1827TIP3   OH2 5423   6.779   4.097   4.242
 1827TIP3    H1 5424   6.799   4.096   4.336
 1827TIP3    H2 5425   6.860   4.127   4.201
 1828TIP3   OH2 5426   2.396   5.847   4.632
 1828TIP3    H1 5427   2.411   5.929   4.678
 1828TIP3    H2 5428   2.302   5.830   4.645
 1829TIP3   OH2 5429   8.155   3.152   4.642
 1829TIP3    H1 5430   8.203   3.217   4.692
 1829TIP3    H2 5431   8.221   3.111   4.586
 1830TIP3   OH2 5432   1.849   4.747   6.191
 1830TIP3    H1 5433   1.808   4.785   6.269
 1830TIP3    H2 5434   1.856   4.654   6.211
 1831TIP3   OH2 5435   6.161   5.440   3.571
 1831TIP3    H1 5436   6.117   5.389   3.639
 1831TIP3    H2 5437   6.244   5.394   3.557
 1832TIP3   OH2 5438   5.115   2.287   0.236
 1832TIP3    H1 5439   5.179   2.216   0.236
 1832TIP3    H2 5440   5.167   2.366   0.246
 1833TIP3   OH2 5441   0.879   4.343   0.406
 1833TIP3    H1 5442   0.852   4.414   0.464
 1833TIP3    H2 5443   0.881   4.266   0.462
 1834TIP3   OH2 5444   6.253   1.306   5.695
 1834TIP3    H1 5445   6.188   1.331   5.761
 1834TIP3    H2 5446   6.202   1.296   5.614
 1835TIP3   OH2 5447   6.406  -0.001   4.977
 1835TIP3    H1 5448   6.320  -0.009   4.937
 1835TIP3    H2 5449   6.460   0.042   4.911
 1836TIP3   OH2 5450   2.924   1.262   5.455
 1836TIP3    H1 5451   2.856   1.319   5.421
 1836TIP3    H2 5452   2.878   1.198   5.510
 1837TIP3   OH2 5453   0.601   1.349   6.145
 1837TIP3    H1 5454   0.629   1.257   6.152
 1837TIP3    H2 5455   0.576   1.373   6.234
 1838TIP3   OH2 5456   7.856   4.007   1.458
 1838TIP3    H1 5457   7.879   4.006   1.365
 1838TIP3    H2 5458   7.764   3.978   1.461
 1839TIP3   OH2 5459   4.787   6.314   0.668
 1839TIP3    H1 5460   4.830   6.232   0.693
 1839TIP3    H2 5461   4.694   6.294   0.670
 1840TIP3   OH2 5462   5.796   2.247   5.447
 1840TIP3    H1 5463   5.764   2.282   5.364
 1840TIP3    H2 5464   5.884   2.216   5.428
 1841TIP3   OH2 5465   5.978   2.541   3.616
 1841TIP3    H1 5466   6.007   2.450   3.614
 1841TIP3    H2 5467   5.883   2.536   3.604
 1842TIP3   OH2 5468   3.417   4.002   4.599
 1842TIP3    H1 5469   3.427   4.078   4.656
 1842TIP3    H2 5470   3.478   3.937   4.635
 1843TIP3   OH2 5471   7.046   7.678   1.951
 1843TIP3    H1 5472   6.970   7.651   1.898
 1843TIP3    H2 5473   7.026   7.645   2.039
 1844TIP3   OH2 5474   5.466   0.024   0.002
 1844TIP3    H1 5475   5.474   0.063   0.088
 1844TIP3    H2 5476   5.383  -0.024   0.004
 1845TIP3   OH2 5477   6.627   4.878   2.648
 1845TIP3    H1 5478   6.668   4.827   2.718
 1845TIP3    H2 5479   6.694   4.884   2.580
 1846TIP3   OH2 5480   3.731   3.272   3.942
 1846TIP3    H1 5481   3.669   3.332   3.983
 1846TIP3    H2 5482   3.679   3.221   3.880
 1847TIP3   OH2 5483   3.377   4.998   3.182
 1847TIP3    H1 5484   3.395   5.035   3.268
 1847TIP3    H2 5485   3.405   5.066   3.120
 1848TIP3   OH2 5486   6.816   5.589   5.612
 1848TIP3    H1 5487   6.795   5.667   5.664
 1848TIP3    H2 5488   6.741   5.531   5.626
 1849TIP3   OH2 5489  -0.020   5.810   3.971
 1849TIP3    H1 5490  -0.036   5.896   3.932
 1849TIP3    H2 5491   0.067   5.818   4.011
 1850TIP3   OH2 5492   5.125   7.784   3.639
 1850TIP3    H1 5493   5.080   7.719   3.585
 1850TIP3    H2 5494   5.145   7.738   3.720
 1851TIP3   OH2 5495   0.301   0.220   6.457
 1851TIP3    H1 5496   0.357   0.241   6.532
 1851TIP3    H2 5497   0.212   0.224   6.492
 1852TIP3   OH2 5498   1.464   0.968   2.066
 1852TIP3    H1 5499   1.555   0.983   2.041
 1852TIP3    H2 5500   1.414   1.026   2.008
 1853TIP3   OH2 5501   5.700   2.714   5.977
 1853TIP3    H1 5502   5.766   2.653   5.944
 1853TIP3    H2 5503   5.745   2.798   5.981
 1854TIP3   OH2 5504   8.044   3.741   2.014
 1854TIP3    H1 5505   8.100   3.712   1.942
 1854TIP3    H2 5506   8.002   3.820   1.980
 1855TIP3   OH2 5507   1.315   1.355   2.874
 1855TIP3    H1 5508   1.354   1.352   2.787
 1855TIP3    H2 5509   1.220   1.352   2.858
 1856TIP3   OH2 5510   5.055   3.844   0.871
 1856TIP3    H1 5511   5.039   3.763   0.920
 1856TIP3    H2 5512   5.112   3.817   0.798
 1857TIP3   OH2 5513   3.805   1.540   4.975
 1857TIP3    H1 5514   3.799   1.458   4.927
 1857TIP3    H2 5515   3.895   1.543   5.007
 1858TIP3   OH2 5516   4.757   6.224   5.514
 1858TIP3    H1 5517   4.685   6.287   5.514
 1858TIP3    H2 5518   4.788   6.222   5.423
 1859TIP3   OH2 5519   2.792   1.777   4.775
 1859TIP3    H1 5520   2.832   1.798   4.691
 1859TIP3    H2 5521   2.754   1.860   4.805
 1860TIP3   OH2 5522   5.341   1.990   0.983
 1860TIP3    H1 5523   5.386   2.001   1.067
 1860TIP3    H2 5524   5.375   2.061   0.929
 1861TIP3   OH2 5525   1.504   3.640   2.813
 1861TIP3    H1 5526   1.491   3.671   2.723
 1861TIP3    H2 5527   1.417   3.613   2.842
 1862TIP3   OH2 5528   0.303   2.185   5.764
 1862TIP3    H1 5529   0.260   2.168   5.847
 1862TIP3    H2 5530   0.254   2.257   5.725
 1863TIP3   OH2 5531   6.907   2.553   4.953
 1863TIP3    H1 5532   7.000   2.553   4.974
 1863TIP3    H2 5533   6.903   2.524   4.862
 1864TIP3   OH2 5534   3.226   3.482   6.742
 1864TIP3    H1 5535   3.224   3.456   6.650
 1864TIP3    H2 5536   3.258   3.405   6.789
 1865TIP3   OH2 5537   2.068   7.085   3.045
 1865TIP3    H1 5538   2.150   7.094   3.094
 1865TIP3    H2 5539   2.045   7.174   3.019
 1866TIP3   OH2 5540   6.733   1.040   0.671
 1866TIP3    H1 5541   6.817   1.035   0.625
 1866TIP3    H2 5542   6.702   1.129   0.655
 1867TIP3   OH2 5543   4.625   1.266   4.940
 1867TIP3    H1 5544   4.721   1.270   4.933
 1867TIP3    H2 5545   4.601   1.351   4.977
 1868TIP3   OH2 5546   5.050   3.108   0.928
 1868TIP3    H1 5547   5.111   3.036   0.936
 1868TIP3    H2 5548   4.976   3.085   0.985
 1869TIP3   OH2 5549   8.124   3.807   3.610
 1869TIP3    H1 5550   8.195   3.868   3.629
 1869TIP3    H2 5551   8.130   3.741   3.678
 1870TIP3   OH2 5552   3.822   4.320   0.766
 1870TIP3    H1 5553   3.883   4.362   0.705
 1870TIP3    H2 5554   3.736   4.332   0.724
 1871TIP3   OH2 5555   6.695   2.885   0.191
 1871TIP3    H1 5556   6.665   2.926   0.271
 1871TIP3    H2 5557   6.618   2.839   0.157
 1872TIP3   OH2 5558   1.426   0.190   1.933
 1872TIP3    H1 5559   1.344   0.140   1.944
 1872TIP3    H2 5560   1.399   0.273   1.895
 1873TIP3   OH2 5561   7.733   0.341   5.727
 1873TIP3    H1 5562   7.820   0.338   5.688
 1873TIP3    H2 5563   7.702   0.430   5.710
 1874TIP3   OH2 5564   7.039   7.070   0.712
 1874TIP3    H1 5565   7.062   6.989   0.668
 1874TIP3    H2 5566   7.039   7.136   0.642
 1875TIP3   OH2 5567   4.830   1.869   2.679
 1875TIP3    H1 5568   4.798   1.807   2.613
 1875TIP3    H2 5569   4.856   1.813   2.753
 1876TIP3   OH2 5570   1.465   2.608   5.759
 1876TIP3    H1 5571   1.396   2.570   5.814
 1876TIP3    H2 5572   1.547   2.579   5.799
 1877TIP3   OH2 5573   2.630   0.056   4.366
 1877TIP3    H1 5574   2.674   0.067   4.450
 1877TIP3    H2 5575   2.700   0.029   4.306
 1878TIP3   OH2 5576   2.845   1.587   0.959
 1878TIP3    H1 5577   2.823   1.545   0.876
 1878TIP3    H2 5578   2.926   1.546   0.986
 1879TIP3   OH2 5579   0.155   7.585   3.631
 1879TIP3    H1 5580   0.161   7.593   3.536
 1879TIP3    H2 5581   0.069   7.544   3.646
 1880TIP3   OH2 5582   0.527   4.992   6.559
 1880TIP3    H1 5583   0.469   4.991   6.635
 1880TIP3    H2 5584   0.537   5.085   6.537
 1881TIP3   OH2 5585   2.431   5.771   0.508
 1881TIP3    H1 5586   2.440   5.722   0.589
 1881TIP3    H2 5587   2.502   5.739   0.452
 1882TIP3   OH2 5588   0.958   4.029   2.337
 1882TIP3    H1 5589   0.968   4.111   2.384
 1882TIP3    H2 5590   0.957   4.054   2.245
 1883TIP3   OH2 5591   4.055   2.274   4.174
 1883TIP3    H1 5592   4.027   2.189   4.209
 1883TIP3    H2 5593   3.986   2.335   4.203
 1884TIP3   OH2 5594   6.285   5.337   1.865
 1884TIP3    H1 5595   6.239   5.302   1.789
 1884TIP3    H2 5596   6.316   5.423   1.838
 1885TIP3   OH2 5597   4.748   6.829   0.661
 1885TIP3    H1 5598   4.666   6.841   0.710
 1885TIP3    H2 5599   4.730   6.754   0.603
 1886TIP3   OH2 5600   1.134   3.405   4.601
 1886TIP3    H1 5601   1.090   3.374   4.680
 1886TIP3    H2 5602   1.220   3.435   4.631
 1887TIP3   OH2 5603   5.828   0.372   2.447
 1887TIP3    H1 5604   5.896   0.440   2.441
 1887TIP3    H2 5605   5.852   0.322   2.525
 1888TIP3   OH2 5606   2.822   4.009   1.070
 1888TIP3    H1 5607   2.838   4.097   1.037
 1888TIP3    H2 5608   2.896   3.990   1.127
 1889TIP3   OH2 5609   0.304   0.767   0.743
 1889TIP3    H1 5610   0.337   0.759   0.833
 1889TIP3    H2 5611   0.353   0.840   0.706
 1890TIP3   OH2 5612   4.274   4.544   0.299
 1890TIP3    H1 5613   4.237   4.584   0.378
 1890TIP3    H2 5614   4.206   4.484   0.268
 1891TIP3   OH2 5615   2.384   6.156   2.964
 1891TIP3    H1 5616   2.397   6.222   3.032
 1891TIP3    H2 5617   2.294   6.125   2.977
 1892TIP3   OH2 5618   7.554   7.006   3.459
 1892TIP3    H1 5619   7.569   6.914   3.482
 1892TIP3    H2 5620   7.600   7.055   3.527
 1893TIP3   OH2 5621   6.509   0.267   6.694
 1893TIP3    H1 5622   6.522   0.315   6.776
 1893TIP3    H2 5623   6.534   0.177   6.715
 1894TIP3   OH2 5624   7.851   1.543   3.986
 1894TIP3    H1 5625   7.840   1.580   3.898
 1894TIP3    H2 5626   7.792   1.468   3.988
 1895TIP3   OH2 5627   3.682   2.499   3.159
 1895TIP3    H1 5628   3.720   2.424   3.204
 1895TIP3    H2 5629   3.726   2.501   3.074
 1896TIP3   OH2 5630   2.971   5.152   4.259
 1896TIP3    H1 5631   2.931   5.100   4.190
 1896TIP3    H2 5632   3.055   5.111   4.275
 1897TIP3   OH2 5633   0.933   2.605   4.569
 1897TIP3    H1 5634   1.027   2.591   4.556
 1897TIP3    H2 5635   0.921   2.599   4.664
 1898TIP3   OH2 5636   0.708   7.545   5.962
 1898TIP3    H1 5637   0.770   7.618   5.958
 1898TIP3    H2 5638   0.683   7.541   6.054
 1899TIP3   OH2 5639   5.712   7.152   6.382
 1899TIP3    H1 5640   5.659   7.079   6.414
 1899TIP3    H2 5641   5.737   7.200   6.461
 1900TIP3   OH2 5642   0.673   4.304   0.763
 1900TIP3    H1 5643   0.750   4.270   0.719
 1900TIP3    H2 5644   0.700   4.389   0.798
 1901TIP3   OH2 5645   6.675   5.397   4.668
 1901TIP3    H1 5646   6.693   5.344   4.745
 1901TIP3    H2 5647   6.680   5.487   4.699
 1902TIP3   OH2 5648   4.433   5.586   0.513
 1902TIP3    H1 5649   4.517   5.576   0.559
 1902TIP3    H2 5650   4.405   5.496   0.494
 1903TIP3   OH2 5651   5.449   1.361   6.042
 1903TIP3    H1 5652   5.378   1.299   6.027
 1903TIP3    H2 5653   5.526   1.321   6.002
 1904TIP3   OH2 5654   5.064   5.903   0.551
 1904TIP3    H1 5655   5.097   5.831   0.497
 1904TIP3    H2 5656   5.044   5.973   0.490
 1905TIP3   OH2 5657   5.695   3.351   1.357
 1905TIP3    H1 5658   5.692   3.338   1.451
 1905TIP3    H2 5659   5.787   3.369   1.338
 1906TIP3   OH2 5660   2.488   0.125   5.854
 1906TIP3    H1 5661   2.396   0.101   5.841
 1906TIP3    H2 5662   2.490   0.169   5.939
 1907TIP3   OH2 5663   7.827   6.960   3.991
 1907TIP3    H1 5664   7.806   7.052   4.008
 1907TIP3    H2 5665   7.805   6.915   4.072
 1908TIP3   OH2 5666   2.160   0.594   2.992
 1908TIP3    H1 5667   2.096   0.530   2.960
 1908TIP3    H2 5668   2.235   0.583   2.934
 1909TIP3   OH2 5669   6.715   3.307   6.666
 1909TIP3    H1 5670   6.692   3.350   6.584
 1909TIP3    H2 5671   6.809   3.323   6.676
 1910TIP3   OH2 5672   5.412   0.499   6.401
 1910TIP3    H1 5673   5.441   0.428   6.459
 1910TIP3    H2 5674   5.457   0.576   6.434
 1911TIP3   OH2 5675   0.497   1.743   1.533
 1911TIP3    H1 5676   0.432   1.813   1.546
 1911TIP3    H2 5677   0.574   1.789   1.499
 1912TIP3   OH2 5678   3.907   4.485   6.085
 1912TIP3    H1 5679   3.815   4.510   6.093
 1912TIP3    H2 5680   3.924   4.487   5.991
 1913TIP3   OH2 5681   8.071   6.515   4.116
 1913TIP3    H1 5682   8.063   6.560   4.032
 1913TIP3    H2 5683   7.980   6.501   4.144
 1914TIP3   OH2 5684   7.520   4.654   5.841
 1914TIP3    H1 5685   7.482   4.736   5.874
 1914TIP3    H2 5686   7.519   4.664   5.746
 1915TIP3   OH2 5687   1.258   0.819   2.193
 1915TIP3    H1 5688   1.340   0.856   2.160
 1915TIP3    H2 5689   1.247   0.737   2.145
 1916TIP3   OH2 5690   3.950   4.731   3.569
 1916TIP3    H1 5691   3.874   4.789   3.565
 1916TIP3    H2 5692   3.960   4.711   3.662
 1917TIP3   OH2 5693   0.310   6.899   4.322
 1917TIP3    H1 5694   0.335   6.902   4.415
 1917TIP3    H2 5695   0.261   6.980   4.308
 1918TIP3   OH2 5696   5.218   3.851   1.630
 1918TIP3    H1 5697   5.136   3.900   1.624
 1918TIP3    H2 5698   5.280   3.912   1.671
 1919TIP3   OH2 5699   1.681   2.314   6.181
 1919TIP3    H1 5700   1.766   2.358   6.177
 1919TIP3    H2 5701   1.696   2.239   6.239
 1920TIP3   OH2 5702   4.741   6.421   2.363
 1920TIP3    H1 5703   4.824   6.374   2.370
 1920TIP3    H2 5704   4.674   6.356   2.383
 1921TIP3   OH2 5705   6.564   5.784   3.926
 1921TIP3    H1 5706   6.553   5.735   3.845
 1921TIP3    H2 5707   6.521   5.730   3.993
 1922TIP3   OH2 5708   3.221   1.841   4.677
 1922TIP3    H1 5709   3.286   1.899   4.638
 1922TIP3    H2 5710   3.199   1.881   4.760
 1923TIP3   OH2 5711   1.388   6.379   0.713
 1923TIP3    H1 5712   1.433   6.421   0.640
 1923TIP3    H2 5713   1.409   6.286   0.705
 1924TIP3   OH2 5714   4.544   4.228   2.306
 1924TIP3    H1 5715   4.619   4.271   2.347
 1924TIP3    H2 5716   4.471   4.289   2.319
 1925TIP3   OH2 5717   2.271   7.547   3.272
 1925TIP3    H1 5718   2.320   7.484   3.324
 1925TIP3    H2 5719   2.306   7.632   3.298
 1926TIP3   OH2 5720   7.691   2.242   6.211
 1926TIP3    H1 5721   7.725   2.246   6.301
 1926TIP3    H2 5722   7.685   2.334   6.184
 1927TIP3   OH2 5723   7.932   2.671   3.711
 1927TIP3    H1 5724   8.004   2.610   3.693
 1927TIP3    H2 5725   7.886   2.680   3.628
 1928TIP3   OH2 5726   1.153   1.501   0.516
 1928TIP3    H1 5727   1.084   1.480   0.454
 1928TIP3    H2 5728   1.107   1.520   0.598
 1929TIP3   OH2 5729   7.431   5.644   3.224
 1929TIP3    H1 5730   7.384   5.718   3.264
 1929TIP3    H2 5731   7.518   5.679   3.204
 1930TIP3   OH2 5732   7.817   7.700   6.632
 1930TIP3    H1 5733   7.750   7.754   6.674
 1930TIP3    H2 5734   7.895   7.711   6.687
 1931TIP3   OH2 5735   0.908   3.716   0.875
 1931TIP3    H1 5736   0.852   3.659   0.928
 1931TIP3    H2 5737   0.972   3.656   0.837
 1932TIP3   OH2 5738   0.057   5.672   1.359
 1932TIP3    H1 5739   0.141   5.627   1.373
 1932TIP3    H2 5740   0.061   5.702   1.268
 1933TIP3   OH2 5741   7.264   1.834   0.225
 1933TIP3    H1 5742   7.329   1.793   0.282
 1933TIP3    H2 5743   7.243   1.766   0.161
 1934TIP3   OH2 5744   7.638   7.152   4.335
 1934TIP3    H1 5745   7.720   7.201   4.344
 1934TIP3    H2 5746   7.635   7.096   4.413
 1935TIP3   OH2 5747   6.341   7.796   3.579
 1935TIP3    H1 5748   6.269   7.859   3.569
 1935TIP3    H2 5749   6.362   7.769   3.489
 1936TIP3   OH2 5750   3.582   2.334   5.002
 1936TIP3    H1 5751   3.576   2.363   5.093
 1936TIP3    H2 5752   3.612   2.244   5.007
 1937TIP3   OH2 5753   7.173   6.417   3.126
 1937TIP3    H1 5754   7.178   6.351   3.195
 1937TIP3    H2 5755   7.263   6.449   3.116
 1938TIP3   OH2 5756   5.851   0.956   3.112
 1938TIP3    H1 5757   5.938   0.931   3.081
 1938TIP3    H2 5758   5.790   0.903   3.062
 1939TIP3   OH2 5759   0.334   3.494   0.490
 1939TIP3    H1 5760   0.281   3.525   0.564
 1939TIP3    H2 5761   0.390   3.568   0.467
 1940TIP3   OH2 5762   1.688   6.917   5.236
 1940TIP3    H1 5763   1.777   6.900   5.265
 1940TIP3    H2 5764   1.697   6.948   5.146
 1941TIP3   OH2 5765   3.129   0.070   6.606
 1941TIP3    H1 5766   3.182   0.138   6.648
 1941TIP3    H2 5767   3.140   0.085   6.512
 1942TIP3   OH2 5768   3.697   4.980   2.061
 1942TIP3    H1 5769   3.628   5.027   2.108
 1942TIP3    H2 5770   3.765   4.966   2.128
 1943TIP3   OH2 5771   5.786   5.961   3.931
 1943TIP3    H1 5772   5.805   5.869   3.910
 1943TIP3    H2 5773   5.869   5.995   3.965
 1944TIP3   OH2 5774   4.234   4.479   2.862
 1944TIP3    H1 5775   4.319   4.520   2.843
 1944TIP3    H2 5776   4.169   4.541   2.829
 1945TIP3   OH2 5777   1.066   6.924   2.013
 1945TIP3    H1 5778   0.997   6.925   2.079
 1945TIP3    H2 5779   1.145   6.902   2.062
 1946TIP3   OH2 5780   4.804   6.924   5.874
 1946TIP3    H1 5781   4.766   7.011   5.880
 1946TIP3    H2 5782   4.784   6.894   5.786
 1947TIP3   OH2 5783   7.151   0.009   0.764
 1947TIP3    H1 5784   7.124   0.020   0.855
 1947TIP3    H2 5785   7.069   0.014   0.714
 1948TIP3   OH2 5786   2.760   1.604   1.648
 1948TIP3    H1 5787   2.719   1.651   1.577
 1948TIP3    H2 5788   2.693   1.543   1.680
 1949TIP3   OH2 5789   8.204   0.973   4.337
 1949TIP3    H1 5790   8.137   1.035   4.368
 1949TIP3    H2 5791   8.254   0.951   4.415
 1950TIP3   OH2 5792   5.600   7.635   5.657
 1950TIP3    H1 5793   5.534   7.567   5.671
 1950TIP3    H2 5794   5.634   7.655   5.744
 1951TIP3   OH2 5795   7.842   0.083   5.272
 1951TIP3    H1 5796   7.820   0.033   5.350
 1951TIP3    H2 5797   7.934   0.063   5.255
 1952TIP3   OH2 5798   1.156   2.020   4.727
 1952TIP3    H1 5799   1.245   1.985   4.737
 1952TIP3    H2 5800   1.117   2.011   4.813
 1953TIP3   OH2 5801   5.909   7.539   3.662
 1953TIP3    H1 5802   5.825   7.575   3.633
 1953TIP3    H2 5803   5.898   7.525   3.756
 1954TIP3   OH2 5804   7.361   2.908   5.105
 1954TIP3    H1 5805   7.448   2.936   5.076
 1954TIP3    H2 5806   7.301   2.970   5.064
 1955TIP3   OH2 5807   8.314   0.084   5.598
 1955TIP3    H1 5808   8.249   0.093   5.667
 1955TIP3    H2 5809   8.331  -0.011   5.593
 1956TIP3   OH2 5810   4.523   0.774   1.262
 1956TIP3    H1 5811   4.522   0.851   1.319
 1956TIP3    H2 5812   4.551   0.808   1.177
 1957TIP3   OH2 5813   3.137   5.000   0.823
 1957TIP3    H1 5814   3.198   4.972   0.891
 1957TIP3    H2 5815   3.172   5.083   0.791
 1958TIP3   OH2 5816   7.884   7.735   4.404
 1958TIP3    H1 5817   7.889   7.711   4.496
 1958TIP3    H2 5818   7.974   7.727   4.372
 1959TIP3   OH2 5819   3.176   3.376   2.093
 1959TIP3    H1 5820   3.150   3.351   2.181
 1959TIP3    H2 5821   3.106   3.435   2.063
 1960TIP3   OH2 5822   6.162   4.482   6.486
 1960TIP3    H1 5823   6.142   4.488   6.580
 1960TIP3    H2 5824   6.144   4.569   6.452
 1961TIP3   OH2 5825   2.941   7.798   2.090
 1961TIP3    H1 5826   2.938   7.800   2.186
 1961TIP3    H2 5827   2.850   7.812   2.063
 1962TIP3   OH2 5828   5.595   3.076   5.825
 1962TIP3    H1 5829   5.584   3.157   5.775
 1962TIP3    H2 5830   5.630   3.105   5.909
 1963TIP3   OH2 5831   6.522   6.952   2.253
 1963TIP3    H1 5832   6.608   6.928   2.217
 1963TIP3    H2 5833   6.535   6.953   2.348
 1964TIP3   OH2 5834   4.346   6.614   2.135
 1964TIP3    H1 5835   4.306   6.671   2.200
 1964TIP3    H2 5836   4.283   6.609   2.064
 1965TIP3   OH2 5837   3.944   5.663   4.490
 1965TIP3    H1 5838   4.000   5.624   4.557
 1965TIP3    H2 5839   3.859   5.621   4.502
 1966TIP3   OH2 5840   7.013   0.162   0.312
 1966TIP3    H1 5841   7.081   0.145   0.248
 1966TIP3    H2 5842   7.030   0.252   0.342
 1967TIP3   OH2 5843   3.588   4.707   3.662
 1967TIP3    H1 5844   3.546   4.624   3.641
 1967TIP3    H2 5845   3.582   4.713   3.758
 1968TIP3   OH2 5846   7.207   0.245   2.198
 1968TIP3    H1 5847   7.147   0.288   2.259
 1968TIP3    H2 5848   7.177   0.274   2.112
 1969TIP3   OH2 5849   2.361   0.580   3.310
 1969TIP3    H1 5850   2.387   0.494   3.343
 1969TIP3    H2 5851   2.442   0.619   3.277
 1970TIP3   OH2 5852   7.016   6.914   2.044
 1970TIP3    H1 5853   6.970   6.908   1.961
 1970TIP3    H2 5854   7.084   6.847   2.038
 1971TIP3   OH2 5855  -0.015   0.254   3.235
 1971TIP3    H1 5856  -0.050   0.167   3.253
 1971TIP3    H2 5857   0.077   0.250   3.262
 1972TIP3   OH2 5858   5.381   7.236   0.673
 1972TIP3    H1 5859   5.313   7.199   0.730
 1972TIP3    H2 5860   5.454   7.255   0.731
 1973TIP3   OH2 5861   5.753   2.424   2.630
 1973TIP3    H1 5862   5.779   2.347   2.579
 1973TIP3    H2 5863   5.699   2.389   2.701
 1974TIP3   OH2 5864   2.086   3.467   0.283
 1974TIP3    H1 5865   2.012   3.512   0.242
 1974TIP3    H2 5866   2.055   3.377   0.294
 1975TIP3   OH2 5867   1.664   3.602   2.129
 1975TIP3    H1 5868   1.594   3.594   2.065
 1975TIP3    H2 5869   1.629   3.660   2.197
 1976TIP3   OH2 5870   0.035   6.546   0.980
 1976TIP3    H1 5871  -0.045   6.592   0.955
 1976TIP3    H2 5872   0.086   6.542   0.899
 1977TIP3   OH2 5873   3.704   6.879   0.827
 1977TIP3    H1 5874   3.665   6.884   0.740
 1977TIP3    H2 5875   3.794   6.912   0.815
 1978TIP3   OH2 5876   3.340   7.635   5.861
 1978TIP3    H1 5877   3.367   7.626   5.769
 1978TIP3    H2 5878   3.262   7.581   5.869
 1979TIP3   OH2 5879   0.293   5.124   0.885
 1979TIP3    H1 5880   0.336   5.045   0.918
 1979TIP3    H2 5881   0.231   5.092   0.820
 1980TIP3   OH2 5882   4.707   2.215   5.428
 1980TIP3    H1 5883   4.706   2.311   5.433
 1980TIP3    H2 5884   4.744   2.196   5.342
 1981TIP3   OH2 5885   0.110   6.202   5.397
 1981TIP3    H1 5886   0.159   6.252   5.461
 1981TIP3    H2 5887   0.176   6.174   5.333
 1982TIP3   OH2 5888   3.019   6.200   3.754
 1982TIP3    H1 5889   3.099   6.241   3.720
 1982TIP3    H2 5890   2.971   6.173   3.676
 1983TIP3   OH2 5891   4.200   2.714   2.932
 1983TIP3    H1 5892   4.154   2.644   2.979
 1983TIP3    H2 5893   4.178   2.794   2.979
 1984TIP3   OH2 5894   6.664   1.943   4.388
 1984TIP3    H1 5895   6.618   1.962   4.306
 1984TIP3    H2 5896   6.594   1.922   4.451
 1985TIP3   OH2 5897   7.333   0.751   3.093
 1985TIP3    H1 5898   7.255   0.702   3.067
 1985TIP3    H2 5899   7.355   0.718   3.180
 1986TIP3   OH2 5900   0.354   6.157   2.598
 1986TIP3    H1 5901   0.364   6.096   2.671
 1986TIP3    H2 5902   0.262   6.146   2.571
 1987TIP3   OH2 5903   0.924   2.575   2.280
 1987TIP3    H1 5904   1.007   2.607   2.245
 1987TIP3    H2 5905   0.943   2.556   2.372
 1988TIP3   OH2 5906   1.179   6.794   0.985
 1988TIP3    H1 5907   1.188   6.708   0.943
 1988TIP3    H2 5908   1.085   6.811   0.987
 1989TIP3   OH2 5909   6.556   3.055   6.382
 1989TIP3    H1 5910   6.475   3.085   6.341
 1989TIP3    H2 5911   6.582   2.978   6.331
 1990TIP3   OH2 5912   7.833   0.444   2.134
 1990TIP3    H1 5913   7.799   0.469   2.220
 1990TIP3    H2 5914   7.757   0.448   2.077
 1991TIP3   OH2 5915   2.072   1.857   5.729
 1991TIP3    H1 5916   2.029   1.856   5.814
 1991TIP3    H2 5917   2.118   1.942   5.727
 1992TIP3   OH2 5918   6.462   1.615   0.879
 1992TIP3    H1 5919   6.407   1.648   0.949
 1992TIP3    H2 5920   6.466   1.520   0.895
 1993TIP3   OH2 5921   6.429   5.181   4.814
 1993TIP3    H1 5922   6.461   5.220   4.732
 1993TIP3    H2 5923   6.336   5.202   4.816
 1994TIP3   OH2 5924   2.566   4.011   2.725
 1994TIP3    H1 5925   2.611   3.943   2.774
 1994TIP3    H2 5926   2.490   3.967   2.687
 1995TIP3   OH2 5927   6.864   0.457   4.534
 1995TIP3    H1 5928   6.951   0.473   4.499
 1995TIP3    H2 5929   6.863   0.499   4.620
 1996TIP3   OH2 5930   3.034   6.054   1.765
 1996TIP3    H1 5931   3.087   6.075   1.842
 1996TIP3    H2 5932   2.949   6.029   1.801
 1997TIP3   OH2 5933   0.925   5.708   2.294
 1997TIP3    H1 5934   0.997   5.738   2.239
 1997TIP3    H2 5935   0.860   5.675   2.232
 1998TIP3   OH2 5936   5.344   3.661   2.212
 1998TIP3    H1 5937   5.325   3.602   2.285
 1998TIP3    H2 5938   5.432   3.693   2.230
 1999TIP3   OH2 5939   2.689   0.167   2.095
 1999TIP3    H1 5940   2.638   0.160   2.176
 1999TIP3    H2 5941   2.776   0.195   2.123
 2000TIP3   OH2 5942   0.242   0.123   5.770
 2000TIP3    H1 5943   0.147   0.117   5.763
 2000TIP3    H2 5944   0.267   0.186   5.702
 2001TIP3   OH2 5945   1.397   2.950   2.185
 2001TIP3    H1 5946   1.332   2.980   2.248
 2001TIP3    H2 5947   1.428   2.867   2.221
 2002TIP3   OH2 5948   4.529   1.762   0.393
 2002TIP3    H1 5949   4.554   1.705   0.466
 2002TIP3    H2 5950   4.559   1.849   0.419
 2003TIP3   OH2 5951   3.925   2.314   6.158
 2003TIP3    H1 5952   3.903   2.221   6.168
 2003TIP3    H2 5953   3.865   2.347   6.092
 2004TIP3   OH2 5954   5.674   2.603   5.087
 2004TIP3    H1 5955   5.709   2.609   4.998
 2004TIP3    H2 5956   5.732   2.659   5.139
 2005TIP3   OH2 5957   1.326   5.184   5.503
 2005TIP3    H1 5958   1.309   5.154   5.414
 2005TIP3    H2 5959   1.397   5.248   5.494
 2006TIP3   OH2 5960   3.677   0.993   4.802
 2006TIP3    H1 5961   3.752   1.017   4.856
 2006TIP3    H2 5962   3.689   1.040   4.720
 2007TIP3   OH2 5963   0.521   6.460   6.622
 2007TIP3    H1 5964   0.557   6.548   6.629
 2007TIP3    H2 5965   0.522   6.441   6.528
 2008TIP3   OH2 5966   6.695   6.997   2.706
 2008TIP3    H1 5967   6.757   7.038   2.767
 2008TIP3    H2 5968   6.610   7.007   2.748
 2009TIP3   OH2 5969   1.432   2.596   0.873
 2009TIP3    H1 5970   1.467   2.508   0.867
 2009TIP3    H2 5971   1.451   2.636   0.788
 2010TIP3   OH2 5972   0.214   3.825   5.591
 2010TIP3    H1 5973   0.129   3.803   5.552
 2010TIP3    H2 5974   0.229   3.916   5.565
 2011TIP3   OH2 5975   1.632   6.364   5.109
 2011TIP3    H1 5976   1.555   6.344   5.056
 2011TIP3    H2 5977   1.635   6.459   5.114
 2012TIP3   OH2 5978   2.840   4.553   5.388
 2012TIP3    H1 5979   2.862   4.509   5.305
 2012TIP3    H2 5980   2.793   4.487   5.438
 2013TIP3   OH2 5981   5.854   5.889   2.632
 2013TIP3    H1 5982   5.912   5.940   2.575
 2013TIP3    H2 5983   5.909   5.818   2.664
 2014TIP3   OH2 5984   5.344   0.514   2.970
 2014TIP3    H1 5985   5.272   0.545   2.915
 2014TIP3    H2 5986   5.371   0.591   3.020
 2015TIP3   OH2 5987   1.239   1.434   3.159
 2015TIP3    H1 5988   1.234   1.354   3.211
 2015TIP3    H2 5989   1.280   1.407   3.077
 2016TIP3   OH2 5990   3.115   0.947   0.739
 2016TIP3    H1 5991   3.193   0.910   0.697
 2016TIP3    H2 5992   3.042   0.900   0.699
 2017TIP3   OH2 5993   4.235   5.073   3.326
 2017TIP3    H1 5994   4.303   5.114   3.379
 2017TIP3    H2 5995   4.214   4.992   3.372
 2018TIP3   OH2 5996   2.254   7.776   3.600
 2018TIP3    H1 5997   2.301   7.802   3.520
 2018TIP3    H2 5998   2.316   7.720   3.647
 2019TIP3   OH2 5999   1.783   7.018   4.557
 2019TIP3    H1 6000   1.815   7.088   4.615
 2019TIP3    H2 6001   1.814   7.043   4.470
 2020TIP3   OH2 6002   0.677   7.409   6.203
 2020TIP3    H1 6003   0.637   7.331   6.241
 2020TIP3    H2 6004   0.734   7.443   6.272
 2021TIP3   OH2 6005   7.557   6.099   3.901
 2021TIP3    H1 6006   7.647   6.114   3.872
 2021TIP3    H2 6007   7.503   6.149   3.840
 2022TIP3   OH2 6008   1.597   1.542   3.637
 2022TIP3    H1 6009   1.688   1.516   3.626
 2022TIP3    H2 6010   1.602   1.633   3.669
 2023TIP3   OH2 6011   3.492   1.625   0.337
 2023TIP3    H1 6012   3.476   1.676   0.417
 2023TIP3    H2 6013   3.588   1.622   0.330
 2024TIP3   OH2 6014   3.298   5.864   2.146
 2024TIP3    H1 6015   3.289   5.834   2.056
 2024TIP3    H2 6016   3.208   5.865   2.180
 2025TIP3   OH2 6017   4.881   2.712   1.838
 2025TIP3    H1 6018   4.965   2.722   1.884
 2025TIP3    H2 6019   4.865   2.617   1.839
 2026TIP3   OH2 6020   3.991   2.997   5.852
 2026TIP3    H1 6021   3.976   2.945   5.774
 2026TIP3    H2 6022   3.909   3.045   5.866
 2027TIP3   OH2 6023   1.147   6.389   2.473
 2027TIP3    H1 6024   1.217   6.437   2.517
 2027TIP3    H2 6025   1.075   6.452   2.465
 2028TIP3   OH2 6026   7.511   6.972   6.704
 2028TIP3    H1 6027   7.583   7.034   6.690
 2028TIP3    H2 6028   7.536   6.894   6.656
 2029TIP3   OH2 6029   2.304   1.756   5.178
 2029TIP3    H1 6030   2.284   1.833   5.230
 2029TIP3    H2 6031   2.363   1.787   5.110
 2030TIP3   OH2 6032   4.915   6.824   0.043
 2030TIP3    H1 6033   4.831   6.782   0.026
 2030TIP3    H2 6034   4.959   6.765   0.104
 2031TIP3   OH2 6035   6.562   1.917   5.377
 2031TIP3    H1 6036   6.618   1.940   5.303
 2031TIP3    H2 6037   6.515   1.839   5.348
 2032TIP3   OH2 6038   2.087   2.319   1.858
 2032TIP3    H1 6039   2.112   2.377   1.786
 2032TIP3    H2 6040   2.071   2.378   1.931
 2033TIP3   OH2 6041   6.132   6.907   3.099
 2033TIP3    H1 6042   6.132   6.930   3.006
 2033TIP3    H2 6043   6.072   6.833   3.106
 2034TIP3   OH2 6044   1.059   4.596   4.234
 2034TIP3    H1 6045   0.982   4.558   4.276
 2034TIP3    H2 6046   1.059   4.688   4.261
 2035TIP3   OH2 6047   0.958   2.228   3.317
 2035TIP3    H1 6048   0.998   2.175   3.385
 2035TIP3    H2 6049   0.897   2.169   3.273
 2036TIP3   OH2 6050   0.943   3.927   5.421
 2036TIP3    H1 6051   0.866   3.971   5.385
 2036TIP3    H2 6052   1.017   3.966   5.374
 2037TIP3   OH2 6053   2.902   3.733   2.667
 2037TIP3    H1 6054   2.967   3.800   2.690
 2037TIP3    H2 6055   2.949   3.676   2.606
 2038TIP3   OH2 6056   5.663   4.706   3.723
 2038TIP3    H1 6057   5.662   4.700   3.819
 2038TIP3    H2 6058   5.588   4.761   3.702
 2039TIP3   OH2 6059   2.753   3.308   5.579
 2039TIP3    H1 6060   2.834   3.331   5.534
 2039TIP3    H2 6061   2.775   3.310   5.672
 2040TIP3   OH2 6062   5.846   6.311   2.785
 2040TIP3    H1 6063   5.757   6.337   2.760
 2040TIP3    H2 6064   5.880   6.386   2.834
 2041TIP3   OH2 6065   0.266   0.547   6.534
 2041TIP3    H1 6066   0.173   0.556   6.516
 2041TIP3    H2 6067   0.307   0.538   6.448
 2042TIP3   OH2 6068   5.338   2.137   0.225
 2042TIP3    H1 6069   5.384   2.071   0.174
 2042TIP3    H2 6070   5.390   2.148   0.304
 2043TIP3   OH2 6071   4.277   7.107   0.612
 2043TIP3    H1 6072   4.337   7.180   0.629
 2043TIP3    H2 6073   4.255   7.073   0.698
 2044TIP3   OH2 6074   2.770   6.081   5.272
 2044TIP3    H1 6075   2.765   6.167   5.312
 2044TIP3    H2 6076   2.840   6.089   5.207
 2045TIP3   OH2 6077   3.226   2.856   6.499
 2045TIP3    H1 6078   3.179   2.783   6.539
 2045TIP3    H2 6079   3.168   2.931   6.511
 2046TIP3   OH2 6080   3.323   1.558   1.201
 2046TIP3    H1 6081   3.362   1.599   1.278
 2046TIP3    H2 6082   3.394   1.509   1.160
 2047TIP3   OH2 6083   6.457   4.529   0.520
 2047TIP3    H1 6084   6.452   4.488   0.606
 2047TIP3    H2 6085   6.398   4.477   0.465
 2048TIP3   OH2 6086   6.594   1.824   1.420
 2048TIP3    H1 6087   6.506   1.852   1.395
 2048TIP3    H2 6088   6.579   1.745   1.472
 2049TIP3   OH2 6089   1.851   2.883   6.793
 2049TIP3    H1 6090   1.791   2.939   6.842
 2049TIP3    H2 6091   1.796   2.837   6.730
 2050TIP3   OH2 6092   6.507   6.337   2.133
 2050TIP3    H1 6093   6.515   6.372   2.222
 2050TIP3    H2 6094   6.513   6.414   2.076
 2051TIP3   OH2 6095   2.564   0.870   5.128
 2051TIP3    H1 6096   2.533   0.879   5.038
 2051TIP3    H2 6097   2.655   0.899   5.125
 2052TIP3   OH2 6098   3.480   4.770   0.770
 2052TIP3    H1 6099   3.489   4.793   0.863
 2052TIP3    H2 6100   3.439   4.847   0.730
 2053TIP3   OH2 6101   7.308   6.750   4.973
 2053TIP3    H1 6102   7.219   6.782   4.986
 2053TIP3    H2 6103   7.356   6.779   5.050
 2054TIP3   OH2 6104   8.007   3.651   0.915
 2054TIP3    H1 6105   8.044   3.583   0.971
 2054TIP3    H2 6106   8.043   3.732   0.949
 2055TIP3   OH2 6107   7.212   1.032   2.449
 2055TIP3    H1 6108   7.290   1.002   2.403
 2055TIP3    H2 6109   7.149   0.961   2.436
 2056TIP3   OH2 6110   5.974   0.086   1.341
 2056TIP3    H1 6111   5.992   0.091   1.435
 2056TIP3    H2 6112   5.994   0.173   1.308
 2057TIP3   OH2 6113   5.850   1.593   4.331
 2057TIP3    H1 6114   5.907   1.523   4.301
 2057TIP3    H2 6115   5.775   1.591   4.272
 2058TIP3   OH2 6116   3.806   1.332   5.237
 2058TIP3    H1 6117   3.715   1.323   5.208
 2058TIP3    H2 6118   3.857   1.283   5.172
 2059TIP3   OH2 6119   8.185   0.471   0.645
 2059TIP3    H1 6120   8.241   0.543   0.672
 2059TIP3    H2 6121   8.245   0.398   0.629
 2060TIP3   OH2 6122   7.478   3.257   1.349
 2060TIP3    H1 6123   7.531   3.311   1.291
 2060TIP3    H2 6124   7.388   3.286   1.333
 2061TIP3   OH2 6125   3.073   7.710   6.765
 2061TIP3    H1 6126   3.006   7.765   6.724
 2061TIP3    H2 6127   3.146   7.769   6.782
 2062TIP3   OH2 6128   4.293   0.180   6.724
 2062TIP3    H1 6129   4.312   0.209   6.635
 2062TIP3    H2 6130   4.360   0.223   6.778
 2063TIP3   OH2 6131   8.007   6.301   0.494
 2063TIP3    H1 6132   7.955   6.355   0.434
 2063TIP3    H2 6133   8.049   6.236   0.438
 2064TIP3   OH2 6134   4.644   1.793   3.689
 2064TIP3    H1 6135   4.582   1.777   3.618
 2064TIP3    H2 6136   4.710   1.851   3.651
 2065TIP3   OH2 6137   7.934   4.890   2.426
 2065TIP3    H1 6138   7.854   4.938   2.407
 2065TIP3    H2 6139   7.971   4.868   2.340
 2066TIP3   OH2 6140   4.754   0.896   2.162
 2066TIP3    H1 6141   4.750   0.992   2.156
 2066TIP3    H2 6142   4.847   0.875   2.161
 2067TIP3   OH2 6143   3.596   1.210   2.630
 2067TIP3    H1 6144   3.658   1.183   2.698
 2067TIP3    H2 6145   3.603   1.305   2.627
 2068TIP3   OH2 6146   7.003   4.990   5.625
 2068TIP3    H1 6147   7.081   5.023   5.581
 2068TIP3    H2 6148   7.035   4.951   5.706
 2069TIP3   OH2 6149   1.253   7.397   5.088
 2069TIP3    H1 6150   1.246   7.325   5.151
 2069TIP3    H2 6151   1.297   7.467   5.137
 2070TIP3   OH2 6152   1.665   4.066   3.853
 2070TIP3    H1 6153   1.632   3.997   3.911
 2070TIP3    H2 6154   1.750   4.034   3.824
 2071TIP3   OH2 6155   4.115   0.624   2.528
 2071TIP3    H1 6156   4.166   0.652   2.451
 2071TIP3    H2 6157   4.151   0.539   2.551
 2072TIP3   OH2 6158   6.173   5.711   4.759
 2072TIP3    H1 6159   6.181   5.791   4.707
 2072TIP3    H2 6160   6.079   5.704   4.778
 2073TIP3   OH2 6161   3.819   6.276   4.720
 2073TIP3    H1 6162   3.724   6.281   4.731
 2073TIP3    H2 6163   3.847   6.207   4.779
 2074TIP3   OH2 6164   4.282   0.750   4.233
 2074TIP3    H1 6165   4.361   0.740   4.285
 2074TIP3    H2 6166   4.289   0.682   4.165
 2075TIP3   OH2 6167   0.158   3.520   1.968
 2075TIP3    H1 6168   0.118   3.515   2.055
 2075TIP3    H2 6169   0.099   3.470   1.911
 2076TIP3   OH2 6170   7.884   2.949   2.069
 2076TIP3    H1 6171   7.925   2.898   2.138
 2076TIP3    H2 6172   7.859   2.885   2.003
 2077TIP3   OH2 6173   5.280   6.328   0.967
 2077TIP3    H1 6174   5.195   6.342   1.009
 2077TIP3    H2 6175   5.268   6.359   0.877
 2078TIP3   OH2 6176   1.671   2.292   1.540
 2078TIP3    H1 6177   1.754   2.337   1.525
 2078TIP3    H2 6178   1.675   2.261   1.630
 2079TIP3   OH2 6179   6.981   6.264   6.359
 2079TIP3    H1 6180   6.888   6.285   6.370
 2079TIP3    H2 6181   7.004   6.305   6.275
 2080TIP3   OH2 6182   0.687   5.886   0.915
 2080TIP3    H1 6183   0.688   5.889   1.010
 2080TIP3    H2 6184   0.754   5.820   0.892
 2081TIP3   OH2 6185   1.924   0.717   3.176
 2081TIP3    H1 6186   1.866   0.764   3.236
 2081TIP3    H2 6187   1.866   0.657   3.128
 2082TIP3   OH2 6188   0.784   1.679   0.599
 2082TIP3    H1 6189   0.826   1.753   0.555
 2082TIP3    H2 6190   0.856   1.631   0.639
 2083TIP3   OH2 6191   7.131   4.370   1.122
 2083TIP3    H1 6192   7.166   4.458   1.109
 2083TIP3    H2 6193   7.103   4.342   1.035
 2084TIP3   OH2 6194   7.168   2.624   2.613
 2084TIP3    H1 6195   7.224   2.564   2.564
 2084TIP3    H2 6196   7.103   2.567   2.654
 2085TIP3   OH2 6197   5.154   5.692   1.491
 2085TIP3    H1 6198   5.198   5.777   1.496
 2085TIP3    H2 6199   5.109   5.684   1.575
 2086TIP3   OH2 6200   4.676   4.924   0.317
 2086TIP3    H1 6201   4.591   4.883   0.303
 2086TIP3    H2 6202   4.670   5.007   0.270
 2087TIP3   OH2 6203   6.157   7.736   4.864
 2087TIP3    H1 6204   6.252   7.746   4.867
 2087TIP3    H2 6205   6.129   7.784   4.787
 2088TIP3   OH2 6206   6.189   5.052   0.418
 2088TIP3    H1 6207   6.248   4.981   0.443
 2088TIP3    H2 6208   6.247   5.126   0.401
 2089TIP3   OH2 6209   6.632   7.423   5.632
 2089TIP3    H1 6210   6.634   7.331   5.607
 2089TIP3    H2 6211   6.548   7.455   5.601
 2090TIP3   OH2 6212   1.297   0.240   0.575
 2090TIP3    H1 6213   1.242   0.179   0.624
 2090TIP3    H2 6214   1.246   0.262   0.497
 2091TIP3   OH2 6215   3.617   5.672   0.139
 2091TIP3    H1 6216   3.701   5.680   0.093
 2091TIP3    H2 6217   3.553   5.664   0.068
 2092TIP3   OH2 6218   1.532   5.921   0.441
 2092TIP3    H1 6219   1.546   5.827   0.436
 2092TIP3    H2 6220   1.568   5.955   0.359
 2093TIP3   OH2 6221   5.729   4.239   5.978
 2093TIP3    H1 6222   5.714   4.157   6.026
 2093TIP3    H2 6223   5.641   4.268   5.952
 2094TIP3   OH2 6224   7.228   0.877   4.703
 2094TIP3    H1 6225   7.250   0.970   4.710
 2094TIP3    H2 6226   7.263   0.850   4.619
 2095TIP3   OH2 6227   4.310   4.945   6.111
 2095TIP3    H1 6228   4.361   4.906   6.182
 2095TIP3    H2 6229   4.319   4.883   6.038
 2096TIP3   OH2 6230   4.112   2.881   4.492
 2096TIP3    H1 6231   4.136   2.874   4.585
 2096TIP3    H2 6232   4.047   2.951   4.489
 2097TIP3   OH2 6233   2.465   4.813   4.031
 2097TIP3    H1 6234   2.535   4.827   3.967
 2097TIP3    H2 6235   2.387   4.847   3.988
 2098TIP3   OH2 6236   7.779   2.998   5.272
 2098TIP3    H1 6237   7.747   3.042   5.193
 2098TIP3    H2 6238   7.702   2.994   5.329
 2099TIP3   OH2 6239   2.247   6.337   1.943
 2099TIP3    H1 6240   2.333   6.327   1.985
 2099TIP3    H2 6241   2.248   6.426   1.909
 2100TIP3   OH2 6242   1.442   2.520   5.110
 2100TIP3    H1 6243   1.420   2.528   5.203
 2100TIP3    H2 6244   1.535   2.498   5.109
 2101TIP3   OH2 6245   7.938   0.736   5.351
 2101TIP3    H1 6246   8.005   0.803   5.365
 2101TIP3    H2 6247   7.887   0.736   5.432
 2102TIP3   OH2 6248   1.282   0.556   2.104
 2102TIP3    H1 6249   1.280   0.478   2.049
 2102TIP3    H2 6250   1.363   0.548   2.154
 2103TIP3   OH2 6251   5.270   4.555   5.735
 2103TIP3    H1 6252   5.227   4.479   5.697
 2103TIP3    H2 6253   5.361   4.547   5.706
 2104TIP3   OH2 6254   0.168   1.199   6.757
 2104TIP3    H1 6255   0.211   1.253   6.691
 2104TIP3    H2 6256   0.143   1.261   6.826
 2105TIP3   OH2 6257   3.583   7.757   0.578
 2105TIP3    H1 6258   3.564   7.753   0.485
 2105TIP3    H2 6259   3.665   7.806   0.583
 2106TIP3   OH2 6260   0.151   1.032   1.027
 2106TIP3    H1 6261   0.152   1.077   0.942
 2106TIP3    H2 6262   0.077   0.972   1.022
 2107TIP3   OH2 6263   4.051   1.930   2.912
 2107TIP3    H1 6264   4.050   2.024   2.928
 2107TIP3    H2 6265   3.984   1.895   2.972
 2108TIP3   OH2 6266   3.093   2.354   5.297
 2108TIP3    H1 6267   3.117   2.439   5.334
 2108TIP3    H2 6268   3.161   2.337   5.231
 2109TIP3   OH2 6269   3.403   7.406   0.908
 2109TIP3    H1 6270   3.373   7.494   0.886
 2109TIP3    H2 6271   3.461   7.418   0.984
 2110TIP3   OH2 6272   3.255   2.755   3.397
 2110TIP3    H1 6273   3.322   2.770   3.330
 2110TIP3    H2 6274   3.179   2.804   3.367
 2111TIP3   OH2 6275   5.106   6.530   0.518
 2111TIP3    H1 6276   5.088   6.490   0.432
 2111TIP3    H2 6277   5.163   6.604   0.498
 2112TIP3   OH2 6278   6.726   5.424   0.970
 2112TIP3    H1 6279   6.689   5.501   1.014
 2112TIP3    H2 6280   6.777   5.380   1.038
 2113TIP3   OH2 6281   3.913   6.330   6.445
 2113TIP3    H1 6282   3.925   6.343   6.539
 2113TIP3    H2 6283   3.975   6.261   6.422
 2114TIP3   OH2 6284   5.861   5.499   0.097
 2114TIP3    H1 6285   5.818   5.549   0.027
 2114TIP3    H2 6286   5.828   5.410   0.087
 2115TIP3   OH2 6287   8.266   6.686   1.533
 2115TIP3    H1 6288   8.269   6.608   1.476
 2115TIP3    H2 6289   8.183   6.679   1.580
 2116TIP3   OH2 6290   5.066   4.745   3.268
 2116TIP3    H1 6291   5.154   4.775   3.245
 2116TIP3    H2 6292   5.030   4.711   3.186
 2117TIP3   OH2 6293   3.323   5.680   5.084
 2117TIP3    H1 6294   3.325   5.677   4.989
 2117TIP3    H2 6295   3.298   5.770   5.105
 2118TIP3   OH2 6296   5.654   4.218   5.667
 2118TIP3    H1 6297   5.692   4.305   5.657
 2118TIP3    H2 6298   5.601   4.224   5.746
 2119TIP3   OH2 6299   3.193   5.924   5.097
 2119TIP3    H1 6300   3.186   5.895   5.188
 2119TIP3    H2 6301   3.108   5.902   5.058
 2120TIP3   OH2 6302   3.157   6.376   4.627
 2120TIP3    H1 6303   3.191   6.362   4.715
 2120TIP3    H2 6304   3.234   6.368   4.570
 2121TIP3   OH2 6305   6.868   2.993   5.909
 2121TIP3    H1 6306   6.829   2.932   5.846
 2121TIP3    H2 6307   6.928   2.939   5.960
 2122TIP3   OH2 6308   7.861   6.584   5.208
 2122TIP3    H1 6309   7.891   6.674   5.219
 2122TIP3    H2 6310   7.925   6.531   5.258
 2123TIP3   OH2 6311   8.129   7.110   4.536
 2123TIP3    H1 6312   8.200   7.058   4.575
 2123TIP3    H2 6313   8.174   7.169   4.475
 2124TIP3   OH2 6314   0.052   4.816   3.412
 2124TIP3    H1 6315   0.010   4.873   3.347
 2124TIP3    H2 6316   0.038   4.860   3.496
 2125TIP3   OH2 6317   3.793   6.863   5.464
 2125TIP3    H1 6318   3.865   6.909   5.507
 2125TIP3    H2 6319   3.725   6.856   5.531
 2126TIP3   OH2 6320   5.299   5.080   6.334
 2126TIP3    H1 6321   5.245   5.143   6.286
 2126TIP3    H2 6322   5.275   5.092   6.425
 2127TIP3   OH2 6323   3.985   7.674   5.598
 2127TIP3    H1 6324   4.058   7.737   5.603
 2127TIP3    H2 6325   3.970   7.662   5.505
 2128TIP3   OH2 6326   5.179   1.618   3.142
 2128TIP3    H1 6327   5.193   1.665   3.060
 2128TIP3    H2 6328   5.244   1.548   3.141
 2129TIP3   OH2 6329   7.163   6.514   4.356
 2129TIP3    H1 6330   7.229   6.558   4.410
 2129TIP3    H2 6331   7.131   6.583   4.297
 2130TIP3   OH2 6332   1.900   6.963   4.027
 2130TIP3    H1 6333   1.950   6.921   4.098
 2130TIP3    H2 6334   1.834   6.899   4.003
 2131TIP3   OH2 6335   2.532   6.932   1.547
 2131TIP3    H1 6336   2.541   6.886   1.464
 2131TIP3    H2 6337   2.488   7.014   1.524
 2132TIP3   OH2 6338   6.888   4.691   1.342
 2132TIP3    H1 6339   6.971   4.669   1.384
 2132TIP3    H2 6340   6.888   4.786   1.337
 2133TIP3   OH2 6341   0.864   7.589   3.879
 2133TIP3    H1 6342   0.924   7.661   3.899
 2133TIP3    H2 6343   0.814   7.577   3.960
 2134TIP3   OH2 6344   6.126   3.384   1.464
 2134TIP3    H1 6345   6.170   3.464   1.492
 2134TIP3    H2 6346   6.195   3.318   1.463
 2135TIP3   OH2 6347   5.066   5.227   3.953
 2135TIP3    H1 6348   5.013   5.272   3.887
 2135TIP3    H2 6349   5.154   5.262   3.941
 2136TIP3   OH2 6350   0.773   0.720   2.004
 2136TIP3    H1 6351   0.695   0.713   2.059
 2136TIP3    H2 6352   0.750   0.674   1.923
 2137TIP3   OH2 6353   4.189   0.990   0.099
 2137TIP3    H1 6354   4.258   1.055   0.111
 2137TIP3    H2 6355   4.234   0.910   0.074
 2138TIP3   OH2 6356   1.846   3.478   0.084
 2138TIP3    H1 6357   1.856   3.543   0.153
 2138TIP3    H2 6358   1.768   3.506   0.036
 2139TIP3   OH2 6359   5.424   3.732   0.930
 2139TIP3    H1 6360   5.380   3.683   0.861
 2139TIP3    H2 6361   5.515   3.702   0.928
 2140TIP3   OH2 6362   1.375   4.820   5.533
 2140TIP3    H1 6363   1.332   4.883   5.591
 2140TIP3    H2 6364   1.309   4.799   5.467
 2141TIP3   OH2 6365   7.222   4.681   2.789
 2141TIP3    H1 6366   7.151   4.625   2.757
 2141TIP3    H2 6367   7.179   4.762   2.816
 2142TIP3   OH2 6368   1.558   4.049   6.261
 2142TIP3    H1 6369   1.515   4.025   6.343
 2142TIP3    H2 6370   1.532   4.140   6.246
 2143TIP3   OH2 6371   4.374   6.467   5.052
 2143TIP3    H1 6372   4.370   6.562   5.042
 2143TIP3    H2 6373   4.290   6.444   5.092
 2144TIP3   OH2 6374   6.350   2.765   5.926
 2144TIP3    H1 6375   6.304   2.797   6.003
 2144TIP3    H2 6376   6.293   2.698   5.890
 2145TIP3   OH2 6377   4.598   3.735   1.610
 2145TIP3    H1 6378   4.633   3.681   1.681
 2145TIP3    H2 6379   4.510   3.700   1.595
 2146TIP3   OH2 6380   3.025   7.690   0.790
 2146TIP3    H1 6381   3.059   7.738   0.866
 2146TIP3    H2 6382   3.045   7.598   0.808
 2147TIP3   OH2 6383   4.934   6.208   5.305
 2147TIP3    H1 6384   4.906   6.131   5.255
 2147TIP3    H2 6385   4.994   6.173   5.371
 2148TIP3   OH2 6386   5.494   5.849   1.222
 2148TIP3    H1 6387   5.480   5.772   1.167
 2148TIP3    H2 6388   5.583   5.838   1.256
 2149TIP3   OH2 6389   3.454   3.265   6.038
 2149TIP3    H1 6390   3.527   3.257   6.100
 2149TIP3    H2 6391   3.381   3.221   6.082
 2150TIP3   OH2 6392   2.758   6.236   2.017
 2150TIP3    H1 6393   2.814   6.260   1.943
 2150TIP3    H2 6394   2.818   6.233   2.092
 2151TIP3   OH2 6395   4.739   0.264   3.822
 2151TIP3    H1 6396   4.677   0.192   3.811
 2151TIP3    H2 6397   4.686   0.337   3.853
 2152TIP3   OH2 6398   0.716   1.340   3.444
 2152TIP3    H1 6399   0.633   1.388   3.439
 2152TIP3    H2 6400   0.767   1.388   3.510
 2153TIP3   OH2 6401   3.179   6.692   5.240
 2153TIP3    H1 6402   3.238   6.761   5.273
 2153TIP3    H2 6403   3.141   6.653   5.319
 2154TIP3   OH2 6404   5.053   7.412   1.453
 2154TIP3    H1 6405   4.958   7.418   1.447
 2154TIP3    H2 6406   5.078   7.476   1.520
 2155TIP3   OH2 6407   1.768   7.556   4.080
 2155TIP3    H1 6408   1.745   7.502   4.004
 2155TIP3    H2 6409   1.821   7.627   4.043
 2156TIP3   OH2 6410   7.874   0.191   0.334
 2156TIP3    H1 6411   7.837   0.195   0.422
 2156TIP3    H2 6412   7.871   0.281   0.302
 2157TIP3   OH2 6413   0.605   3.490   6.528
 2157TIP3    H1 6414   0.604   3.529   6.441
 2157TIP3    H2 6415   0.595   3.565   6.588
 2158TIP3   OH2 6416   5.088   6.051   2.350
 2158TIP3    H1 6417   5.000   6.038   2.315
 2158TIP3    H2 6418   5.096   5.986   2.419
 2159TIP3   OH2 6419   3.410   0.151   1.031
 2159TIP3    H1 6420   3.504   0.153   1.011
 2159TIP3    H2 6421   3.401   0.081   1.096
 2160TIP3   OH2 6422   2.660   7.234   0.772
 2160TIP3    H1 6423   2.741   7.265   0.812
 2160TIP3    H2 6424   2.688   7.177   0.701
 2161TIP3   OH2 6425   0.953   7.355   5.137
 2161TIP3    H1 6426   0.899   7.330   5.062
 2161TIP3    H2 6427   1.005   7.277   5.155
 2162TIP3   OH2 6428   0.134   1.591   5.296
 2162TIP3    H1 6429   0.130   1.684   5.319
 2162TIP3    H2 6430   0.227   1.573   5.285
 2163TIP3   OH2 6431   7.186   4.573   4.547
 2163TIP3    H1 6432   7.143   4.631   4.610
 2163TIP3    H2 6433   7.165   4.610   4.461
 2164TIP3   OH2 6434   7.280   4.253   1.765
 2164TIP3    H1 6435   7.286   4.199   1.845
 2164TIP3    H2 6436   7.305   4.193   1.695
 2165TIP3   OH2 6437   0.301   4.842   3.809
 2165TIP3    H1 6438   0.273   4.896   3.883
 2165TIP3    H2 6439   0.357   4.900   3.757
 2166TIP3   OH2 6440   4.386   6.311   3.412
 2166TIP3    H1 6441   4.439   6.251   3.359
 2166TIP3    H2 6442   4.318   6.342   3.352
 2167TIP3   OH2 6443   0.712   0.969   0.786
 2167TIP3    H1 6444   0.798   0.934   0.764
 2167TIP3    H2 6445   0.702   0.950   0.879
 2168TIP3   OH2 6446   3.728   7.413   2.699
 2168TIP3    H1 6447   3.723   7.353   2.624
 2168TIP3    H2 6448   3.822   7.420   2.718
 2169TIP3   OH2 6449   5.503   6.159   0.630
 2169TIP3    H1 6450   5.471   6.247   0.649
 2169TIP3    H2 6451   5.432   6.101   0.659
 2170TIP3   OH2 6452   1.680   0.963   0.331
 2170TIP3    H1 6453   1.648   1.037   0.279
 2170TIP3    H2 6454   1.773   0.980   0.343
 2171TIP3   OH2 6455   2.381   1.357   6.420
 2171TIP3    H1 6456   2.400   1.289   6.485
 2171TIP3    H2 6457   2.336   1.426   6.468
 2172TIP3   OH2 6458   2.783   4.378   2.175
 2172TIP3    H1 6459   2.701   4.346   2.138
 2172TIP3    H2 6460   2.781   4.349   2.266
 2173TIP3   OH2 6461   3.242   3.548   0.660
 2173TIP3    H1 6462   3.313   3.549   0.724
 2173TIP3    H2 6463   3.162   3.546   0.713
 2174TIP3   OH2 6464   8.237   2.531   4.597
 2174TIP3    H1 6465   8.252   2.623   4.616
 2174TIP3    H2 6466   8.260   2.486   4.678
 2175TIP3   OH2 6467   2.382   5.468   5.976
 2175TIP3    H1 6468   2.411   5.379   5.960
 2175TIP3    H2 6469   2.418   5.519   5.903
 2176TIP3   OH2 6470   6.699   0.935   6.753
 2176TIP3    H1 6471   6.682   1.027   6.775
 2176TIP3    H2 6472   6.621   0.906   6.705
 2177TIP3   OH2 6473   6.921   1.819   0.794
 2177TIP3    H1 6474   6.990   1.882   0.773
 2177TIP3    H2 6475   6.943   1.741   0.743
 2178TIP3   OH2 6476   5.412   5.817   6.743
 2178TIP3    H1 6477   5.473   5.878   6.700
 2178TIP3    H2 6478   5.405   5.850   6.832
 2179TIP3   OH2 6479   4.932   2.538   2.495
 2179TIP3    H1 6480   4.978   2.490   2.425
 2179TIP3    H2 6481   4.849   2.564   2.455
 2180TIP3   OH2 6482   1.800   7.733   5.825
 2180TIP3    H1 6483   1.806   7.638   5.814
 2180TIP3    H2 6484   1.872   7.768   5.772
 2181TIP3   OH2 6485   0.072   3.867   2.376
 2181TIP3    H1 6486   0.009   3.820   2.430
 2181TIP3    H2 6487   0.085   3.810   2.300
 2182TIP3   OH2 6488   4.152   4.222   4.395
 2182TIP3    H1 6489   4.089   4.151   4.379
 2182TIP3    H2 6490   4.167   4.259   4.308
 2183TIP3   OH2 6491   1.447   7.685   2.660
 2183TIP3    H1 6492   1.439   7.736   2.580
 2183TIP3    H2 6493   1.502   7.738   2.717
 2184TIP3   OH2 6494   1.609   5.184   0.120
 2184TIP3    H1 6495   1.621   5.214   0.030
 2184TIP3    H2 6496   1.517   5.158   0.125
 2185TIP3   OH2 6497   0.665   3.363   3.188
 2185TIP3    H1 6498   0.607   3.422   3.236
 2185TIP3    H2 6499   0.655   3.278   3.232
 2186TIP3   OH2 6500   7.105   4.232   4.701
 2186TIP3    H1 6501   7.149   4.185   4.772
 2186TIP3    H2 6502   7.136   4.187   4.621
 2187TIP3   OH2 6503   4.497   2.620   5.521
 2187TIP3    H1 6504   4.471   2.702   5.479
 2187TIP3    H2 6505   4.416   2.573   5.535
 2188TIP3   OH2 6506   1.033   0.412   3.452
 2188TIP3    H1 6507   1.068   0.327   3.427
 2188TIP3    H2 6508   1.093   0.476   3.414
 2189TIP3   OH2 6509   1.998   5.425   5.663
 2189TIP3    H1 6510   1.920   5.473   5.633
 2189TIP3    H2 6511   1.996   5.432   5.758
 2190TIP3   OH2 6512   7.682   5.558   0.470
 2190TIP3    H1 6513   7.742   5.525   0.403
 2190TIP3    H2 6514   7.599   5.568   0.424
 2191TIP3   OH2 6515   0.634   0.933   1.337
 2191TIP3    H1 6516   0.714   0.966   1.377
 2191TIP3    H2 6517   0.593   1.010   1.297
 2192TIP3   OH2 6518   0.122   4.996   0.731
 2192TIP3    H1 6519   0.087   5.057   0.667
 2192TIP3    H2 6520   0.132   4.914   0.682
 2193TIP3   OH2 6521   5.156   7.168   3.950
 2193TIP3    H1 6522   5.080   7.171   4.007
 2193TIP3    H2 6523   5.152   7.081   3.910
 2194TIP3   OH2 6524   0.914   5.246   3.663
 2194TIP3    H1 6525   0.839   5.306   3.670
 2194TIP3    H2 6526   0.937   5.247   3.570
 2195TIP3   OH2 6527   3.448   7.176   4.528
 2195TIP3    H1 6528   3.541   7.175   4.550
 2195TIP3    H2 6529   3.437   7.102   4.467
 2196TIP3   OH2 6530   6.757   6.611   1.174
 2196TIP3    H1 6531   6.796   6.581   1.256
 2196TIP3    H2 6532   6.707   6.535   1.142
 2197TIP3   OH2 6533   6.490   1.682   5.279
 2197TIP3    H1 6534   6.407   1.679   5.232
 2197TIP3    H2 6535   6.522   1.591   5.276
 2198TIP3   OH2 6536   1.778   2.468   2.189
 2198TIP3    H1 6537   1.848   2.494   2.249
 2198TIP3    H2 6538   1.705   2.444   2.246
 2199TIP3   OH2 6539   0.856   1.851   2.220
 2199TIP3    H1 6540   0.776   1.809   2.249
 2199TIP3    H2 6541   0.826   1.930   2.175
 2200TIP3   OH2 6542   6.768   5.876   1.974
 2200TIP3    H1 6543   6.772   5.889   1.879
 2200TIP3    H2 6544   6.698   5.812   1.987
 2201TIP3   OH2 6545   5.528   4.710   0.597
 2201TIP3    H1 6546   5.583   4.762   0.539
 2201TIP3    H2 6547   5.447   4.698   0.549
 2202TIP3   OH2 6548   6.275   7.473   4.622
 2202TIP3    H1 6549   6.354   7.438   4.582
 2202TIP3    H2 6550   6.304   7.506   4.707
 2203TIP3   OH2 6551   4.781   6.232   1.343
 2203TIP3    H1 6552   4.834   6.294   1.293
 2203TIP3    H2 6553   4.833   6.215   1.422
 2204TIP3   OH2 6554   7.437   7.678   2.597
 2204TIP3    H1 6555   7.379   7.705   2.526
 2204TIP3    H2 6556   7.502   7.621   2.556
 2205TIP3   OH2 6557   0.222   1.422   5.582
 2205TIP3    H1 6558   0.177   1.491   5.631
 2205TIP3    H2 6559   0.168   1.344   5.596
 2206TIP3   OH2 6560   0.642   5.842   2.018
 2206TIP3    H1 6561   0.616   5.762   2.064
 2206TIP3    H2 6562   0.726   5.821   1.978
 2207TIP3   OH2 6563   1.585   5.808   5.605
 2207TIP3    H1 6564   1.554   5.896   5.583
 2207TIP3    H2 6565   1.532   5.783   5.681
 2208TIP3   OH2 6566   5.386   2.889   3.990
 2208TIP3    H1 6567   5.456   2.877   4.055
 2208TIP3    H2 6568   5.422   2.949   3.925
 2209TIP3   OH2 6569   6.188   1.245   3.906
 2209TIP3    H1 6570   6.222   1.218   3.820
 2209TIP3    H2 6571   6.173   1.162   3.952
 2210TIP3   OH2 6572   5.091   4.940   4.031
 2210TIP3    H1 6573   5.105   4.986   4.114
 2210TIP3    H2 6574   5.029   4.996   3.983
 2211TIP3   OH2 6575   5.824   0.866   6.188
 2211TIP3    H1 6576   5.903   0.856   6.136
 2211TIP3    H2 6577   5.753   0.835   6.131
 2212TIP3   OH2 6578   4.188   7.373   1.537
 2212TIP3    H1 6579   4.218   7.285   1.557
 2212TIP3    H2 6580   4.159   7.408   1.621
 2213TIP3   OH2 6581   2.942   1.303   2.848
 2213TIP3    H1 6582   2.852   1.333   2.860
 2213TIP3    H2 6583   2.995   1.382   2.856
 2214TIP3   OH2 6584   3.223   4.854   0.063
 2214TIP3    H1 6585   3.211   4.939   0.019
 2214TIP3    H2 6586   3.213   4.789  -0.006
 2215TIP3   OH2 6587   1.573   6.016   6.359
 2215TIP3    H1 6588   1.669   6.013   6.368
 2215TIP3    H2 6589   1.544   6.077   6.426
 2216TIP3   OH2 6590   7.597   1.655   6.769
 2216TIP3    H1 6591   7.548   1.668   6.688
 2216TIP3    H2 6592   7.630   1.742   6.791
 2217TIP3   OH2 6593   1.760   3.307   0.546
 2217TIP3    H1 6594   1.678   3.274   0.510
 2217TIP3    H2 6595   1.752   3.402   0.543
 2218TIP3   OH2 6596   4.222   6.348   6.799
 2218TIP3    H1 6597   4.215   6.380   6.709
 2218TIP3    H2 6598   4.169   6.269   6.800
 2219TIP3   OH2 6599   4.300   7.514   0.923
 2219TIP3    H1 6600   4.249   7.476   0.852
 2219TIP3    H2 6601   4.375   7.455   0.932
 2220TIP3   OH2 6602   2.610   2.380   6.210
 2220TIP3    H1 6603   2.671   2.382   6.284
 2220TIP3    H2 6604   2.526   2.404   6.247
 2221TIP3   OH2 6605   6.365   4.206   4.113
 2221TIP3    H1 6606   6.309   4.253   4.050
 2221TIP3    H2 6607   6.370   4.265   4.189
 2222TIP3   OH2 6608   7.325   2.096   6.408
 2222TIP3    H1 6609   7.343   2.069   6.318
 2222TIP3    H2 6610   7.326   2.014   6.458
 2223TIP3   OH2 6611   6.522   2.266   4.565
 2223TIP3    H1 6612   6.478   2.351   4.571
 2223TIP3    H2 6613   6.501   2.234   4.478
 2224TIP3   OH2 6614   7.239   1.972   4.228
 2224TIP3    H1 6615   7.317   1.988   4.175
 2224TIP3    H2 6616   7.251   1.885   4.264
 2225TIP3   OH2 6617   3.290   4.995   6.460
 2225TIP3    H1 6618   3.308   4.941   6.537
 2225TIP3    H2 6619   3.206   5.037   6.479
 2226TIP3   OH2 6620   5.554   1.386   2.569
 2226TIP3    H1 6621   5.605   1.395   2.488
 2226TIP3    H2 6622   5.598   1.316   2.617
 2227TIP3   OH2 6623   2.958   0.466   1.776
 2227TIP3    H1 6624   3.041   0.514   1.783
 2227TIP3    H2 6625   2.963   0.420   1.693
 2228TIP3   OH2 6626   3.655   4.539   0.299
 2228TIP3    H1 6627   3.635   4.505   0.211
 2228TIP3    H2 6628   3.746   4.568   0.293
 2229TIP3   OH2 6629   1.418   5.468   3.098
 2229TIP3    H1 6630   1.480   5.488   3.168
 2229TIP3    H2 6631   1.358   5.404   3.137
 2230TIP3   OH2 6632   6.603   1.457   2.874
 2230TIP3    H1 6633   6.539   1.451   2.944
 2230TIP3    H2 6634   6.579   1.386   2.813
 2231TIP3   OH2 6635   4.446   0.014   2.015
 2231TIP3    H1 6636   4.378   0.007   1.947
 2231TIP3    H2 6637   4.424   0.093   2.063
 2232TIP3   OH2 6638   2.617   1.710   5.416
 2232TIP3    H1 6639   2.639   1.755   5.497
 2232TIP3    H2 6640   2.685   1.736   5.354
 2233TIP3   OH2 6641   7.962   7.464   2.105
 2233TIP3    H1 6642   8.035   7.455   2.167
 2233TIP3    H2 6643   7.950   7.377   2.068
 2234TIP3   OH2 6644   6.182   3.923   2.350
 2234TIP3    H1 6645   6.202   3.836   2.385
 2234TIP3    H2 6646   6.206   3.983   2.421
 2235TIP3   OH2 6647   3.809   3.190   2.474
 2235TIP3    H1 6648   3.774   3.212   2.388
 2235TIP3    H2 6649   3.786   3.264   2.529
 2236TIP3   OH2 6650   6.611   2.177   1.371
 2236TIP3    H1 6651   6.564   2.226   1.304
 2236TIP3    H2 6652   6.545   2.121   1.411
 2237TIP3   OH2 6653   4.403   6.154   3.689
 2237TIP3    H1 6654   4.488   6.125   3.722
 2237TIP3    H2 6655   4.341   6.087   3.718
 2238TIP3   OH2 6656   0.904   4.029   4.140
 2238TIP3    H1 6657   0.836   3.990   4.085
 2238TIP3    H2 6658   0.871   4.020   4.229
 2239TIP3   OH2 6659   2.221   6.965   5.768
 2239TIP3    H1 6660   2.162   6.891   5.777
 2239TIP3    H2 6661   2.202   7.000   5.681
 2240TIP3   OH2 6662   2.497   1.584   5.970
 2240TIP3    H1 6663   2.534   1.498   5.985
 2240TIP3    H2 6664   2.408   1.567   5.939
 2241TIP3   OH2 6665   2.662   5.972   0.562
 2241TIP3    H1 6666   2.583   5.992   0.512
 2241TIP3    H2 6667   2.678   5.879   0.545
 2242TIP3   OH2 6668   8.186   7.650   2.508
 2242TIP3    H1 6669   8.124   7.691   2.569
 2242TIP3    H2 6670   8.248   7.720   2.486
 2243TIP3   OH2 6671   7.274   7.224   0.804
 2243TIP3    H1 6672   7.321   7.200   0.724
 2243TIP3    H2 6673   7.214   7.151   0.819
 2244TIP3   OH2 6674   4.943   7.562   6.282
 2244TIP3    H1 6675   5.008   7.505   6.241
 2244TIP3    H2 6676   4.880   7.502   6.321
 2245TIP3   OH2 6677   3.152   4.965   4.648
 2245TIP3    H1 6678   3.228   5.020   4.630
 2245TIP3    H2 6679   3.185   4.897   4.707
 2246TIP3   OH2 6680   7.892   3.905   0.988
 2246TIP3    H1 6681   7.802   3.873   0.987
 2246TIP3    H2 6682   7.922   3.895   0.898
 2247TIP3   OH2 6683   0.410   1.436   0.255
 2247TIP3    H1 6684   0.420   1.378   0.330
 2247TIP3    H2 6685   0.474   1.506   0.270
 2248TIP3   OH2 6686   4.505   7.491   4.561
 2248TIP3    H1 6687   4.593   7.527   4.550
 2248TIP3    H2 6688   4.480   7.517   4.650
 2249TIP3   OH2 6689   4.453   2.747   2.789
 2249TIP3    H1 6690   4.433   2.726   2.698
 2249TIP3    H2 6691   4.377   2.715   2.839
 2250TIP3   OH2 6692   0.871   1.771   3.289
 2250TIP3    H1 6693   0.925   1.691   3.284
 2250TIP3    H2 6694   0.913   1.832   3.230
 2251TIP3   OH2 6695   4.229   2.952   2.525
 2251TIP3    H1 6696   4.305   3.001   2.493
 2251TIP3    H2 6697   4.153   3.004   2.496
 2252TIP3   OH2 6698   2.884   0.119   6.473
 2252TIP3    H1 6699   2.953   0.128   6.407
 2252TIP3    H2 6700   2.921   0.160   6.551
 2253TIP3   OH2 6701   4.121   0.577   1.687
 2253TIP3    H1 6702   4.115   0.626   1.605
 2253TIP3    H2 6703   4.161   0.494   1.663
 2254TIP3   OH2 6704   6.085   1.929   1.502
 2254TIP3    H1 6705   6.044   1.892   1.580
 2254TIP3    H2 6706   6.169   1.884   1.495
 2255TIP3   OH2 6707   3.764   0.961   1.897
 2255TIP3    H1 6708   3.743   0.992   1.985
 2255TIP3    H2 6709   3.742   0.868   1.898
 2256TIP3   OH2 6710   2.340   2.060   5.203
 2256TIP3    H1 6711   2.427   2.099   5.196
 2256TIP3    H2 6712   2.306   2.092   5.286
 2257TIP3   OH2 6713   3.766   0.568   3.610
 2257TIP3    H1 6714   3.735   0.484   3.578
 2257TIP3    H2 6715   3.723   0.633   3.553
 2258TIP3   OH2 6716   0.478   6.707   1.784
 2258TIP3    H1 6717   0.400   6.727   1.732
 2258TIP3    H2 6718   0.455   6.730   1.873
 2259TIP3   OH2 6719   4.962   3.505   3.676
 2259TIP3    H1 6720   4.951   3.570   3.606
 2259TIP3    H2 6721   5.047   3.526   3.714
 2260TIP3   OH2 6722   0.142   2.782   4.394
 2260TIP3    H1 6723   0.215   2.742   4.347
 2260TIP3    H2 6724   0.072   2.788   4.329
 2261TIP3   OH2 6725   4.964   7.132   6.112
 2261TIP3    H1 6726   4.895   7.142   6.047
 2261TIP3    H2 6727   5.044   7.126   6.060
 2262TIP3   OH2 6728   4.466   7.412   0.636
 2262TIP3    H1 6729   4.535   7.478   0.644
 2262TIP3    H2 6730   4.408   7.446   0.567
 2263TIP3   OH2 6731   7.664   1.117   6.388
 2263TIP3    H1 6732   7.741   1.078   6.346
 2263TIP3    H2 6733   7.617   1.042   6.426
 2264TIP3   OH2 6734   3.649   5.298   6.181
 2264TIP3    H1 6735   3.572   5.245   6.203
 2264TIP3    H2 6736   3.612   5.382   6.155
 2265TIP3   OH2 6737   5.897   5.016   6.606
 2265TIP3    H1 6738   5.958   5.089   6.601
 2265TIP3    H2 6739   5.811   5.056   6.616
 2266TIP3   OH2 6740   2.552   6.139   4.072
 2266TIP3    H1 6741   2.647   6.135   4.081
 2266TIP3    H2 6742   2.527   6.223   4.109
 2267TIP3   OH2 6743   3.455   2.907   6.697
 2267TIP3    H1 6744   3.370   2.882   6.661
 2267TIP3    H2 6745   3.476   2.990   6.653
 2268TIP3   OH2 6746   5.094   0.609   3.666
 2268TIP3    H1 6747   5.007   0.574   3.684
 2268TIP3    H2 6748   5.148   0.577   3.738
 2269TIP3   OH2 6749   1.716   0.086   4.871
 2269TIP3    H1 6750   1.673   0.001   4.882
 2269TIP3    H2 6751   1.803   0.064   4.837
 2270TIP3   OH2 6752   0.432   6.811   5.982
 2270TIP3    H1 6753   0.345   6.832   5.950
 2270TIP3    H2 6754   0.470   6.895   6.006
 2271TIP3   OH2 6755   6.684   7.556   4.696
 2271TIP3    H1 6756   6.663   7.632   4.642
 2271TIP3    H2 6757   6.604   7.538   4.745
 2272TIP3   OH2 6758   2.268   6.940   1.027
 2272TIP3    H1 6759   2.351   6.895   1.047
 2272TIP3    H2 6760   2.225   6.949   1.112
 2273TIP3   OH2 6761   2.195   7.073   4.890
 2273TIP3    H1 6762   2.145   6.997   4.918
 2273TIP3    H2 6763   2.205   7.125   4.970
 2274TIP3   OH2 6764   0.997   6.554   2.161
 2274TIP3    H1 6765   1.059   6.627   2.157
 2274TIP3    H2 6766   0.911   6.595   2.164
 2275TIP3   OH2 6767   0.310   6.814   0.145
 2275TIP3    H1 6768   0.256   6.802   0.223
 2275TIP3    H2 6769   0.377   6.746   0.152
 2276TIP3   OH2 6770   6.836   0.312   2.465
 2276TIP3    H1 6771   6.773   0.246   2.436
 2276TIP3    H2 6772   6.796   0.350   2.543
 2277TIP3   OH2 6773   3.917   6.199   5.459
 2277TIP3    H1 6774   4.005   6.222   5.426
 2277TIP3    H2 6775   3.925   6.204   5.554
 2278TIP3   OH2 6776   4.989   5.175   1.468
 2278TIP3    H1 6777   4.986   5.100   1.527
 2278TIP3    H2 6778   5.003   5.250   1.525
 2279TIP3   OH2 6779   0.382   1.688   0.006
 2279TIP3    H1 6780   0.306   1.707   0.060
 2279TIP3    H2 6781   0.451   1.666   0.068
 2280TIP3   OH2 6782   4.950   2.608   5.434
 2280TIP3    H1 6783   5.002   2.602   5.514
 2280TIP3    H2 6784   4.860   2.595   5.462
 2281TIP3   OH2 6785   3.149   0.072   5.790
 2281TIP3    H1 6786   3.218   0.007   5.783
 2281TIP3    H2 6787   3.086   0.049   5.721
 2282TIP3   OH2 6788   0.659   4.397   6.717
 2282TIP3    H1 6789   0.565   4.380   6.706
 2282TIP3    H2 6790   0.699   4.368   6.635
 2283TIP3   OH2 6791   5.959   6.080   0.514
 2283TIP3    H1 6792   5.994   6.016   0.452
 2283TIP3    H2 6793   6.030   6.143   0.528
 2284TIP3   OH2 6794   4.810   1.300   3.451
 2284TIP3    H1 6795   4.895   1.332   3.421
 2284TIP3    H2 6796   4.813   1.312   3.546
 2285TIP3   OH2 6797   5.686   0.297   5.428
 2285TIP3    H1 6798   5.734   0.285   5.346
 2285TIP3    H2 6799   5.666   0.209   5.458
 2286TIP3   OH2 6800   8.107   7.409   0.059
 2286TIP3    H1 6801   8.126   7.418  -0.035
 2286TIP3    H2 6802   8.026   7.358   0.062
 2287TIP3   OH2 6803   8.062   1.040   1.690
 2287TIP3    H1 6804   8.069   0.976   1.761
 2287TIP3    H2 6805   8.079   0.989   1.611
 2288TIP3   OH2 6806   6.448   3.952   5.124
 2288TIP3    H1 6807   6.463   4.044   5.148
 2288TIP3    H2 6808   6.399   3.916   5.197
 2289TIP3   OH2 6809   0.754   5.164   5.837
 2289TIP3    H1 6810   0.682   5.160   5.900
 2289TIP3    H2 6811   0.832   5.141   5.887
 2290TIP3   OH2 6812   7.661   6.476   3.488
 2290TIP3    H1 6813   7.648   6.402   3.547
 2290TIP3    H2 6814   7.729   6.447   3.427
 2291TIP3   OH2 6815   7.913   0.164   3.932
 2291TIP3    H1 6816   7.984   0.201   3.880
 2291TIP3    H2 6817   7.845   0.142   3.868
 2292TIP3   OH2 6818   2.295   2.844   3.646
 2292TIP3    H1 6819   2.233   2.828   3.718
 2292TIP3    H2 6820   2.381   2.823   3.684
 2293TIP3   OH2 6821   6.236   2.957   2.432
 2293TIP3    H1 6822   6.288   2.898   2.487
 2293TIP3    H2 6823   6.151   2.914   2.426
 2294TIP3   OH2 6824   7.543   3.689   2.847
 2294TIP3    H1 6825   7.545   3.640   2.765
 2294TIP3    H2 6826   7.480   3.759   2.830
 2295TIP3   OH2 6827   5.264   2.068   6.637
 2295TIP3    H1 6828   5.181   2.025   6.617
 2295TIP3    H2 6829   5.303   2.087   6.551
 2296TIP3   OH2 6830   0.086   2.158   3.452
 2296TIP3    H1 6831   0.010   2.143   3.507
 2296TIP3    H2 6832   0.161   2.136   3.508
 2297TIP3   OH2 6833   6.024   3.701   2.044
 2297TIP3    H1 6834   5.980   3.622   2.074
 2297TIP3    H2 6835   6.035   3.689   1.949
 2298TIP3   OH2 6836   4.555   0.997   0.470
 2298TIP3    H1 6837   4.585   1.086   0.452
 2298TIP3    H2 6838   4.476   1.008   0.523
 2299TIP3   OH2 6839   0.063   6.269   2.589
 2299TIP3    H1 6840   0.019   6.186   2.574
 2299TIP3    H2 6841   0.095   6.295   2.502
 2300TIP3   OH2 6842   1.272   3.885   4.441
 2300TIP3    H1 6843   1.202   3.838   4.486
 2300TIP3    H2 6844   1.296   3.955   4.502
 2301TIP3   OH2 6845   1.709   1.739   3.050
 2301TIP3    H1 6846   1.692   1.830   3.030
 2301TIP3    H2 6847   1.801   1.726   3.029
 2302TIP3   OH2 6848   8.214   4.264   6.359
 2302TIP3    H1 6849   8.155   4.209   6.307
 2302TIP3    H2 6850   8.155   4.313   6.417
 2303TIP3   OH2 6851   2.946   4.430   0.887
 2303TIP3    H1 6852   3.030   4.410   0.928
 2303TIP3    H2 6853   2.922   4.350   0.841
 2304TIP3   OH2 6854   5.622   0.822   5.242
 2304TIP3    H1 6855   5.679   0.828   5.319
 2304TIP3    H2 6856   5.612   0.728   5.227
 2305TIP3   OH2 6857   5.269   5.269   2.605
 2305TIP3    H1 6858   5.313   5.268   2.521
 2305TIP3    H2 6859   5.274   5.360   2.634
 2306TIP3   OH2 6860   7.971   1.346   2.055
 2306TIP3    H1 6861   7.912   1.282   2.095
 2306TIP3    H2 6862   8.043   1.293   2.020
 2307TIP3   OH2 6863   6.479   5.938   0.171
 2307TIP3    H1 6864   6.389   5.939   0.203
 2307TIP3    H2 6865   6.473   5.900   0.083
 2308TIP3   OH2 6866   2.433   3.318   5.855
 2308TIP3    H1 6867   2.494   3.391   5.837
 2308TIP3    H2 6868   2.424   3.318   5.950
 2309TIP3   OH2 6869   0.772   1.266   2.044
 2309TIP3    H1 6870   0.732   1.229   2.123
 2309TIP3    H2 6871   0.864   1.281   2.069
 2310TIP3   OH2 6872   0.048   6.298   4.559
 2310TIP3    H1 6873  -0.006   6.354   4.503
 2310TIP3    H2 6874   0.134   6.339   4.559
 2311TIP3   OH2 6875   4.199   4.200   2.904
 2311TIP3    H1 6876   4.155   4.160   2.829
 2311TIP3    H2 6877   4.217   4.290   2.875
 2312TIP3   OH2 6878   6.061   6.428   0.416
 2312TIP3    H1 6879   6.006   6.433   0.338
 2312TIP3    H2 6880   6.017   6.484   0.480
 2313TIP3   OH2 6881   3.547   2.959   5.040
 2313TIP3    H1 6882   3.503   3.027   5.092
 2313TIP3    H2 6883   3.481   2.891   5.030
 2314TIP3   OH2 6884   1.535   3.643   4.872
 2314TIP3    H1 6885   1.546   3.577   4.940
 2314TIP3    H2 6886   1.512   3.723   4.920
 2315TIP3   OH2 6887   1.867   6.911   6.474
 2315TIP3    H1 6888   1.958   6.894   6.497
 2315TIP3    H2 6889   1.822   6.923   6.558
 2316TIP3   OH2 6890   4.879   4.851   1.980
 2316TIP3    H1 6891   4.912   4.923   1.926
 2316TIP3    H2 6892   4.796   4.826   1.938
 2317TIP3   OH2 6893   4.430   3.400   6.594
 2317TIP3    H1 6894   4.496   3.384   6.661
 2317TIP3    H2 6895   4.477   3.387   6.511
 2318TIP3   OH2 6896   3.567   6.565   1.561
 2318TIP3    H1 6897   3.613   6.514   1.628
 2318TIP3    H2 6898   3.505   6.618   1.611
 2319TIP3   OH2 6899   5.699   7.522   1.355
 2319TIP3    H1 6900   5.630   7.484   1.409
 2319TIP3    H2 6901   5.766   7.454   1.351
 2320TIP3   OH2 6902   7.293   5.557   5.037
 2320TIP3    H1 6903   7.328   5.646   5.034
 2320TIP3    H2 6904   7.268   5.537   4.947
 2321TIP3   OH2 6905   7.781   0.335   4.104
 2321TIP3    H1 6906   7.690   0.324   4.075
 2321TIP3    H2 6907   7.830   0.274   4.050
 2322TIP3   OH2 6908   5.794   1.001   3.948
 2322TIP3    H1 6909   5.862   0.982   4.012
 2322TIP3    H2 6910   5.732   1.058   3.994
 2323TIP3   OH2 6911   4.483   0.579   6.494
 2323TIP3    H1 6912   4.558   0.530   6.528
 2323TIP3    H2 6913   4.521   0.664   6.469
 2324TIP3   OH2 6914   3.400   6.482   0.931
 2324TIP3    H1 6915   3.477   6.524   0.892
 2324TIP3    H2 6916   3.374   6.416   0.867
 2325TIP3   OH2 6917   8.177   7.586   5.164
 2325TIP3    H1 6918   8.129   7.534   5.228
 2325TIP3    H2 6919   8.234   7.642   5.215
 2326TIP3   OH2 6920   1.144   0.063   1.963
 2326TIP3    H1 6921   1.142   0.012   1.882
 2326TIP3    H2 6922   1.125   0.000   2.032
 2327TIP3   OH2 6923   5.326   2.129   1.671
 2327TIP3    H1 6924   5.241   2.170   1.657
 2327TIP3    H2 6925   5.389   2.190   1.633
 2328TIP3   OH2 6926   0.645   2.325   3.146
 2328TIP3    H1 6927   0.687   2.248   3.184
 2328TIP3    H2 6928   0.709   2.359   3.083
 2329TIP3   OH2 6929   7.441   2.752   6.512
 2329TIP3    H1 6930   7.445   2.780   6.421
 2329TIP3    H2 6931   7.347   2.748   6.532
 2330TIP3   OH2 6932   0.319   2.111   0.300
 2330TIP3    H1 6933   0.272   2.039   0.258
 2330TIP3    H2 6934   0.260   2.139   0.370
 2331TIP3   OH2 6935   6.682   3.352   4.832
 2331TIP3    H1 6936   6.616   3.386   4.893
 2331TIP3    H2 6937   6.748   3.312   4.889
 2332TIP3   OH2 6938   1.162   4.395   1.285
 2332TIP3    H1 6939   1.154   4.425   1.194
 2332TIP3    H2 6940   1.253   4.414   1.309
 2333TIP3   OH2 6941   2.112   3.251   2.831
 2333TIP3    H1 6942   2.077   3.236   2.919
 2333TIP3    H2 6943   2.038   3.288   2.782
 2334TIP3   OH2 6944   6.449   3.339   5.560
 2334TIP3    H1 6945   6.526   3.300   5.600
 2334TIP3    H2 6946   6.382   3.336   5.628
 2335TIP3   OH2 6947   3.457   5.649   3.598
 2335TIP3    H1 6948   3.368   5.633   3.630
 2335TIP3    H2 6949   3.496   5.708   3.663
 2336TIP3   OH2 6950   7.103   4.617   3.086
 2336TIP3    H1 6951   7.170   4.606   3.018
 2336TIP3    H2 6952   7.066   4.704   3.069
 2337TIP3   OH2 6953   1.379   6.877   6.322
 2337TIP3    H1 6954   1.388   6.860   6.228
 2337TIP3    H2 6955   1.420   6.963   6.334
 2338TIP3   OH2 6956   1.495   5.745   3.037
 2338TIP3    H1 6957   1.481   5.669   3.093
 2338TIP3    H2 6958   1.437   5.812   3.074
 2339TIP3   OH2 6959   2.958   7.554   3.786
 2339TIP3    H1 6960   2.872   7.586   3.813
 2339TIP3    H2 6961   3.019   7.618   3.820
 2340TIP3   OH2 6962   7.950   5.243   2.951
 2340TIP3    H1 6963   8.045   5.241   2.935
 2340TIP3    H2 6964   7.933   5.165   3.004
 2341TIP3   OH2 6965   6.478   0.726   5.966
 2341TIP3    H1 6966   6.390   0.751   5.938
 2341TIP3    H2 6967   6.496   0.645   5.918
 2342TIP3   OH2 6968   1.114   4.357   3.154
 2342TIP3    H1 6969   1.152   4.440   3.125
 2342TIP3    H2 6970   1.026   4.358   3.117
 2343TIP3   OH2 6971   7.861   3.152   2.887
 2343TIP3    H1 6972   7.845   3.243   2.909
 2343TIP3    H2 6973   7.872   3.108   2.971
 2344TIP3   OH2 6974   3.431   1.861   1.826
 2344TIP3    H1 6975   3.338   1.842   1.812
 2344TIP3    H2 6976   3.458   1.906   1.746
 2345TIP3   OH2 6977   3.142   3.294   2.358
 2345TIP3    H1 6978   3.135   3.198   2.358
 2345TIP3    H2 6979   3.133   3.319   2.450
 2346TIP3   OH2 6980   8.251   5.353   5.358
 2346TIP3    H1 6981   8.179   5.415   5.349
 2346TIP3    H2 6982   8.251   5.305   5.275
 2347TIP3   OH2 6983   2.896   7.310   5.930
 2347TIP3    H1 6984   2.805   7.304   5.900
 2347TIP3    H2 6985   2.919   7.219   5.953
 2348TIP3   OH2 6986   4.949   7.434   3.166
 2348TIP3    H1 6987   5.029   7.389   3.192
 2348TIP3    H2 6988   4.963   7.525   3.193
 2349TIP3   OH2 6989   7.571   5.577   6.523
 2349TIP3    H1 6990   7.616   5.650   6.480
 2349TIP3    H2 6991   7.594   5.501   6.471
 2350TIP3   OH2 6992   2.141   0.502   2.633
 2350TIP3    H1 6993   2.066   0.462   2.677
 2350TIP3    H2 6994   2.127   0.485   2.540
 2351TIP3   OH2 6995   2.922   6.262   0.743
 2351TIP3    H1 6996   2.907   6.356   0.730
 2351TIP3    H2 6997   2.883   6.243   0.829
 2352TIP3   OH2 6998   0.560   3.454   0.301
 2352TIP3    H1 6999   0.475   3.442   0.343
 2352TIP3    H2 7000   0.606   3.371   0.316
 2353TIP3   OH2 7001   6.288   5.749   3.344
 2353TIP3    H1 7002   6.336   5.808   3.287
 2353TIP3    H2 7003   6.357   5.704   3.395
 2354TIP3   OH2 7004   5.561   2.843   0.334
 2354TIP3    H1 7005   5.536   2.841   0.426
 2354TIP3    H2 7006   5.599   2.756   0.318
 2355TIP3   OH2 7007   7.743   0.711   1.619
 2355TIP3    H1 7008   7.728   0.638   1.679
 2355TIP3    H2 7009   7.715   0.678   1.533
 2356TIP3   OH2 7010   0.072   2.016   0.979
 2356TIP3    H1 7011  -0.019   2.039   0.961
 2356TIP3    H2 7012   0.097   1.960   0.906
 2357TIP3   OH2 7013   5.017   3.458   4.309
 2357TIP3    H1 7014   4.989   3.371   4.281
 2357TIP3    H2 7015   5.107   3.445   4.341
 2358TIP3   OH2 7016   5.612   5.446   5.227
 2358TIP3    H1 7017   5.663   5.452   5.308
 2358TIP3    H2 7018   5.657   5.504   5.166
 2359TIP3   OH2 7019   5.060   1.478   3.570
 2359TIP3    H1 7020   5.046   1.547   3.506
 2359TIP3    H2 7021   5.137   1.430   3.539
 2360TIP3   OH2 7022   1.544   7.156   0.384
 2360TIP3    H1 7023   1.576   7.126   0.469
 2360TIP3    H2 7024   1.495   7.082   0.349
 2361TIP3   OH2 7025   2.417   7.630   2.873
 2361TIP3    H1 7026   2.360   7.698   2.839
 2361TIP3    H2 7027   2.439   7.660   2.962
 2362TIP3   OH2 7028   2.740   1.317   6.186
 2362TIP3    H1 7029   2.774   1.345   6.271
 2362TIP3    H2 7030   2.700   1.232   6.203
 2363TIP3   OH2 7031   0.106   2.013   1.712
 2363TIP3    H1 7032   0.067   1.937   1.755
 2363TIP3    H2 7033   0.031   2.062   1.678
 2364TIP3   OH2 7034   3.411   5.676   5.873
 2364TIP3    H1 7035   3.367   5.724   5.803
 2364TIP3    H2 7036   3.404   5.584   5.847
 2365TIP3   OH2 7037   7.092   3.152   0.913
 2365TIP3    H1 7038   7.055   3.093   0.979
 2365TIP3    H2 7039   7.173   3.109   0.886
 2366TIP3   OH2 7040   4.302   3.535   1.858
 2366TIP3    H1 7041   4.315   3.571   1.770
 2366TIP3    H2 7042   4.254   3.603   1.905
 2367TIP3   OH2 7043   2.938   6.641   2.228
 2367TIP3    H1 7044   2.896   6.662   2.312
 2367TIP3    H2 7045   2.872   6.593   2.179
 2368TIP3   OH2 7046   5.773   2.582   1.582
 2368TIP3    H1 7047   5.772   2.636   1.503
 2368TIP3    H2 7048   5.692   2.604   1.627
 2369TIP3   OH2 7049   1.264   5.427   3.632
 2369TIP3    H1 7050   1.294   5.350   3.583
 2369TIP3    H2 7051   1.170   5.429   3.618
 2370TIP3   OH2 7052   3.049   3.773   3.848
 2370TIP3    H1 7053   2.978   3.750   3.789
 2370TIP3    H2 7054   3.006   3.786   3.933
 2371TIP3   OH2 7055   2.221   5.224   1.440
 2371TIP3    H1 7056   2.162   5.213   1.515
 2371TIP3    H2 7057   2.240   5.135   1.411
 2372TIP3   OH2 7058   7.018   2.127   4.631
 2372TIP3    H1 7059   7.030   2.138   4.537
 2372TIP3    H2 7060   6.924   2.114   4.642
 2373TIP3   OH2 7061   7.800   5.716   4.629
 2373TIP3    H1 7062   7.858   5.751   4.696
 2373TIP3    H2 7063   7.736   5.665   4.678
 2374TIP3   OH2 7064   6.381   4.739   6.742
 2374TIP3    H1 7065   6.358   4.658   6.787
 2374TIP3    H2 7066   6.319   4.745   6.670
 2375TIP3   OH2 7067   3.703   3.735   3.849
 2375TIP3    H1 7068   3.681   3.776   3.933
 2375TIP3    H2 7069   3.745   3.652   3.873
 2376TIP3   OH2 7070   6.680   4.354   6.434
 2376TIP3    H1 7071   6.635   4.431   6.468
 2376TIP3    H2 7072   6.762   4.350   6.483
 2377TIP3   OH2 7073   3.022   3.930   1.228
 2377TIP3    H1 7074   2.985   3.915   1.315
 2377TIP3    H2 7075   3.114   3.907   1.238
 2378TIP3   OH2 7076   8.199   0.100   4.912
 2378TIP3    H1 7077   8.218   0.145   4.994
 2378TIP3    H2 7078   8.220   0.164   4.844
 2379TIP3   OH2 7079   2.888   2.598   1.988
 2379TIP3    H1 7080   2.859   2.507   1.999
 2379TIP3    H2 7081   2.904   2.607   1.894
 2380TIP3   OH2 7082   5.786   0.865   0.126
 2380TIP3    H1 7083   5.858   0.868   0.189
 2380TIP3    H2 7084   5.787   0.776   0.092
 2381TIP3   OH2 7085   5.954   3.204   3.710
 2381TIP3    H1 7086   5.917   3.126   3.751
 2381TIP3    H2 7087   6.006   3.169   3.636
 2382TIP3   OH2 7088   6.939   6.611   5.782
 2382TIP3    H1 7089   6.981   6.525   5.778
 2382TIP3    H2 7090   6.977   6.652   5.860
 2383TIP3   OH2 7091   1.517   6.616   6.190
 2383TIP3    H1 7092   1.508   6.521   6.202
 2383TIP3    H2 7093   1.444   6.641   6.133
 2384TIP3   OH2 7094   6.774   2.996   4.709
 2384TIP3    H1 7095   6.826   3.074   4.727
 2384TIP3    H2 7096   6.815   2.927   4.760
 2385TIP3   OH2 7097   4.232   6.431   1.536
 2385TIP3    H1 7098   4.155   6.374   1.529
 2385TIP3    H2 7099   4.234   6.479   1.454
 2386TIP3   OH2 7100   0.992   0.129   0.082
 2386TIP3    H1 7101   0.996   0.213   0.128
 2386TIP3    H2 7102   0.965   0.066   0.148
 2387TIP3   OH2 7103   7.576   6.732   0.102
 2387TIP3    H1 7104   7.543   6.649   0.138
 2387TIP3    H2 7105   7.520   6.751   0.028
 2388TIP3   OH2 7106   5.294   3.765   1.939
 2388TIP3    H1 7107   5.354   3.701   1.901
 2388TIP3    H2 7108   5.321   3.770   2.031
 2389TIP3   OH2 7109   0.995   5.232   0.423
 2389TIP3    H1 7110   0.934   5.282   0.476
 2389TIP3    H2 7111   0.944   5.206   0.346
 2390TIP3   OH2 7112   8.071   4.156   2.807
 2390TIP3    H1 7113   8.132   4.230   2.811
 2390TIP3    H2 7114   8.081   4.121   2.719
 2391TIP3   OH2 7115   8.173   6.988   2.174
 2391TIP3    H1 7116   8.227   7.032   2.239
 2391TIP3    H2 7117   8.088   7.031   2.179
 2392TIP3   OH2 7118   5.479   4.227   5.882
 2392TIP3    H1 7119   5.457   4.294   5.947
 2392TIP3    H2 7120   5.412   4.159   5.894
 2393TIP3   OH2 7121   6.610   2.659   4.242
 2393TIP3    H1 7122   6.612   2.602   4.165
 2393TIP3    H2 7123   6.546   2.728   4.219
 2394TIP3   OH2 7124   4.865   4.810   0.927
 2394TIP3    H1 7125   4.888   4.720   0.952
 2394TIP3    H2 7126   4.839   4.852   1.009
 2395TIP3   OH2 7127   0.368   5.571   4.008
 2395TIP3    H1 7128   0.344   5.660   4.035
 2395TIP3    H2 7129   0.435   5.544   4.071
 2396TIP3   OH2 7130   6.464   5.967   2.547
 2396TIP3    H1 7131   6.540   5.923   2.509
 2396TIP3    H2 7132   6.483   6.060   2.539
 2397TIP3   OH2 7133   3.244   4.466   1.467
 2397TIP3    H1 7134   3.228   4.426   1.552
 2397TIP3    H2 7135   3.234   4.395   1.404
 2398TIP3   OH2 7136   0.750   5.773   3.137
 2398TIP3    H1 7137   0.771   5.834   3.208
 2398TIP3    H2 7138   0.833   5.729   3.118
 2399TIP3   OH2 7139   6.884   4.415   3.207
 2399TIP3    H1 7140   6.889   4.485   3.142
 2399TIP3    H2 7141   6.793   4.386   3.204
 2400TIP3   OH2 7142   1.693   7.076   6.026
 2400TIP3    H1 7143   1.760   7.043   5.966
 2400TIP3    H2 7144   1.733   7.070   6.113
 2401TIP3   OH2 7145   6.713   6.361   1.047
 2401TIP3    H1 7146   6.652   6.352   0.974
 2401TIP3    H2 7147   6.717   6.273   1.086
 2402TIP3   OH2 7148   3.415   5.644   0.322
 2402TIP3    H1 7149   3.498   5.662   0.278
 2402TIP3    H2 7150   3.349   5.688   0.267
 2403TIP3   OH2 7151   6.001   2.496   5.720
 2403TIP3    H1 7152   5.959   2.424   5.673
 2403TIP3    H2 7153   5.941   2.514   5.793
 2404TIP3   OH2 7154   7.245   3.511   5.861
 2404TIP3    H1 7155   7.226   3.417   5.861
 2404TIP3    H2 7156   7.323   3.520   5.807
 2405TIP3   OH2 7157   7.297   4.026   0.982
 2405TIP3    H1 7158   7.247   4.054   0.906
 2405TIP3    H2 7159   7.275   3.934   0.993
 2406TIP3   OH2 7160   1.785   2.241   1.786
 2406TIP3    H1 7161   1.839   2.168   1.817
 2406TIP3    H2 7162   1.847   2.312   1.772
 2407TIP3   OH2 7163   1.082   6.893   0.271
 2407TIP3    H1 7164   1.151   6.942   0.225
 2407TIP3    H2 7165   1.001   6.935   0.243
 2408TIP3   OH2 7166   5.816   7.349   3.446
 2408TIP3    H1 7167   5.896   7.332   3.396
 2408TIP3    H2 7168   5.845   7.403   3.520
 2409TIP3   OH2 7169   4.424   3.539   0.534
 2409TIP3    H1 7170   4.391   3.450   0.543
 2409TIP3    H2 7171   4.479   3.537   0.456
 2410TIP3   OH2 7172   0.273   5.273   1.133
 2410TIP3    H1 7173   0.267   5.224   1.051
 2410TIP3    H2 7174   0.300   5.361   1.106
 2411TIP3   OH2 7175   4.763   7.644   3.332
 2411TIP3    H1 7176   4.818   7.586   3.385
 2411TIP3    H2 7177   4.825   7.696   3.281
 2412TIP3   OH2 7178   6.484   4.800   5.897
 2412TIP3    H1 7179   6.414   4.802   5.961
 2412TIP3    H2 7180   6.553   4.855   5.934
 2413TIP3   OH2 7181   4.946   4.324   0.927
 2413TIP3    H1 7182   4.864   4.367   0.904
 2413TIP3    H2 7183   4.995   4.321   0.845
 2414TIP3   OH2 7184   3.584   4.948   4.084
 2414TIP3    H1 7185   3.652   4.983   4.028
 2414TIP3    H2 7186   3.546   5.025   4.127
 2415TIP3   OH2 7187   5.098   5.600   2.837
 2415TIP3    H1 7188   5.030   5.532   2.843
 2415TIP3    H2 7189   5.113   5.627   2.928
 2416TIP3   OH2 7190   0.860   3.842   2.929
 2416TIP3    H1 7191   0.857   3.766   2.988
 2416TIP3    H2 7192   0.916   3.905   2.974
 2417TIP3   OH2 7193   3.446   5.527   6.707
 2417TIP3    H1 7194   3.462   5.457   6.643
 2417TIP3    H2 7195   3.425   5.603   6.653
 2418TIP3   OH2 7196   3.125   2.093   1.084
 2418TIP3    H1 7197   3.121   2.149   1.007
 2418TIP3    H2 7198   3.157   2.009   1.051
 2419TIP3   OH2 7199   6.757   0.578   2.848
 2419TIP3    H1 7200   6.675   0.600   2.892
 2419TIP3    H2 7201   6.773   0.650   2.787
 2420TIP3   OH2 7202   5.920   6.596   2.927
 2420TIP3    H1 7203   5.846   6.564   2.980
 2420TIP3    H2 7204   5.984   6.627   2.992
 2421TIP3   OH2 7205   5.562   4.599   3.463
 2421TIP3    H1 7206   5.632   4.655   3.497
 2421TIP3    H2 7207   5.509   4.577   3.540
 2422TIP3   OH2 7208   5.035   5.876   0.821
 2422TIP3    H1 7209   5.049   5.871   0.727
 2422TIP3    H2 7210   5.081   5.800   0.857
 2423TIP3   OH2 7211   6.297   4.678   3.751
 2423TIP3    H1 7212   6.276   4.664   3.659
 2423TIP3    H2 7213   6.245   4.755   3.777
 2424TIP3   OH2 7214   0.123   3.616   2.257
 2424TIP3    H1 7215   0.090   3.584   2.341
 2424TIP3    H2 7216   0.045   3.636   2.206
 2425TIP3   OH2 7217   3.496   4.350   5.852
 2425TIP3    H1 7218   3.540   4.311   5.928
 2425TIP3    H2 7219   3.411   4.379   5.886
 2426TIP3   OH2 7220   7.831   5.949   6.635
 2426TIP3    H1 7221   7.909   5.926   6.584
 2426TIP3    H2 7222   7.858   5.938   6.726
 2427TIP3   OH2 7223   5.859   0.144   3.079
 2427TIP3    H1 7224   5.810   0.205   3.024
 2427TIP3    H2 7225   5.855   0.061   3.032
 2428TIP3   OH2 7226   4.027   4.516   2.250
 2428TIP3    H1 7227   4.113   4.555   2.234
 2428TIP3    H2 7228   4.022   4.443   2.189
 2429TIP3   OH2 7229   2.072   6.219   6.743
 2429TIP3    H1 7230   1.995   6.275   6.754
 2429TIP3    H2 7231   2.117   6.224   6.827
 2430TIP3   OH2 7232   7.587   0.974   5.750
 2430TIP3    H1 7233   7.603   0.928   5.833
 2430TIP3    H2 7234   7.675   0.991   5.715
 2431TIP3   OH2 7235   6.649   6.193   4.218
 2431TIP3    H1 7236   6.720   6.136   4.248
 2431TIP3    H2 7237   6.591   6.135   4.169
 2432TIP3   OH2 7238   7.369   3.672   6.058
 2432TIP3    H1 7239   7.324   3.600   6.014
 2432TIP3    H2 7240   7.401   3.727   5.987
 2433TIP3   OH2 7241   8.189   5.128   1.488
 2433TIP3    H1 7242   8.226   5.199   1.436
 2433TIP3    H2 7243   8.220   5.048   1.446
 2434TIP3   OH2 7244   2.080   2.060   2.594
 2434TIP3    H1 7245   2.091   2.004   2.517
 2434TIP3    H2 7246   1.986   2.067   2.606
 2435TIP3   OH2 7247   7.770   7.445   0.644
 2435TIP3    H1 7248   7.765   7.353   0.618
 2435TIP3    H2 7249   7.834   7.447   0.715
 2436TIP3   OH2 7250   1.374   6.544   3.379
 2436TIP3    H1 7251   1.453   6.592   3.403
 2436TIP3    H2 7252   1.392   6.511   3.291
 2437TIP3   OH2 7253   7.721   7.331   0.975
 2437TIP3    H1 7254   7.706   7.237   0.987
 2437TIP3    H2 7255   7.647   7.361   0.924
 2438TIP3   OH2 7256   6.168   1.821   5.787
 2438TIP3    H1 7257   6.163   1.889   5.854
 2438TIP3    H2 7258   6.081   1.782   5.786
 2439TIP3   OH2 7259   4.712   2.587   2.321
 2439TIP3    H1 7260   4.622   2.585   2.352
 2439TIP3    H2 7261   4.706   2.595   2.226
 2440TIP3   OH2 7262   0.370   6.189   3.657
 2440TIP3    H1 7263   0.365   6.097   3.630
 2440TIP3    H2 7264   0.286   6.205   3.701
 2441TIP3   OH2 7265   5.334   3.599   3.584
 2441TIP3    H1 7266   5.305   3.519   3.629
 2441TIP3    H2 7267   5.279   3.603   3.505
 2442TIP3   OH2 7268   2.122   0.458   0.714
 2442TIP3    H1 7269   2.175   0.527   0.755
 2442TIP3    H2 7270   2.108   0.490   0.624
 2443TIP3   OH2 7271   6.829   4.716   2.176
 2443TIP3    H1 7272   6.896   4.765   2.128
 2443TIP3    H2 7273   6.778   4.673   2.108
 2444TIP3   OH2 7274   1.351   4.623   1.616
 2444TIP3    H1 7275   1.433   4.575   1.616
 2444TIP3    H2 7276   1.312   4.603   1.701
 2445TIP3   OH2 7277   1.422   1.526   4.426
 2445TIP3    H1 7278   1.494   1.545   4.367
 2445TIP3    H2 7279   1.385   1.612   4.448
 2446TIP3   OH2 7280   5.441   4.348   4.103
 2446TIP3    H1 7281   5.517   4.290   4.110
 2446TIP3    H2 7282   5.380   4.302   4.044
 2447TIP3   OH2 7283   5.434   5.852   3.542
 2447TIP3    H1 7284   5.464   5.924   3.486
 2447TIP3    H2 7285   5.457   5.773   3.493
 2448TIP3   OH2 7286   5.884   6.613   5.704
 2448TIP3    H1 7287   5.913   6.685   5.649
 2448TIP3    H2 7288   5.807   6.579   5.660
 2449TIP3   OH2 7289   7.572   7.503   2.425
 2449TIP3    H1 7290   7.649   7.486   2.479
 2449TIP3    H2 7291   7.607   7.534   2.341
 2450TIP3   OH2 7292   3.765   2.701   4.557
 2450TIP3    H1 7293   3.727   2.747   4.483
 2450TIP3    H2 7294   3.819   2.632   4.518
 2451TIP3   OH2 7295   5.342   3.873   2.503
 2451TIP3    H1 7296   5.310   3.903   2.589
 2451TIP3    H2 7297   5.325   3.779   2.503
 2452TIP3   OH2 7298   5.788   0.197   1.831
 2452TIP3    H1 7299   5.838   0.220   1.910
 2452TIP3    H2 7300   5.814   0.107   1.811
 2453TIP3   OH2 7301   2.095   5.262   5.213
 2453TIP3    H1 7302   2.095   5.328   5.281
 2453TIP3    H2 7303   2.008   5.223   5.216
 2454TIP3   OH2 7304   2.548   2.551   4.009
 2454TIP3    H1 7305   2.644   2.555   4.010
 2454TIP3    H2 7306   2.523   2.614   3.942
 2455TIP3   OH2 7307   8.087   7.380   2.762
 2455TIP3    H1 7308   8.000   7.408   2.733
 2455TIP3    H2 7309   8.129   7.461   2.791
 2456TIP3   OH2 7310   4.659   7.600   0.624
 2456TIP3    H1 7311   4.754   7.591   0.632
 2456TIP3    H2 7312   4.646   7.654   0.546
 2457TIP3   OH2 7313   5.149   5.114   5.803
 2457TIP3    H1 7314   5.091   5.037   5.801
 2457TIP3    H2 7315   5.163   5.136   5.711
 2458TIP3   OH2 7316   2.493   6.516   2.753
 2458TIP3    H1 7317   2.471   6.608   2.743
 2458TIP3    H2 7318   2.534   6.511   2.840
 2459TIP3   OH2 7319   6.959   5.141   4.051
 2459TIP3    H1 7320   6.982   5.224   4.009
 2459TIP3    H2 7321   6.876   5.116   4.010
 2460TIP3   OH2 7322   1.777   6.910   2.614
 2460TIP3    H1 7323   1.790   6.961   2.534
 2460TIP3    H2 7324   1.702   6.854   2.594
 2461TIP3   OH2 7325   3.111   1.826   1.715
 2461TIP3    H1 7326   3.081   1.744   1.676
 2461TIP3    H2 7327   3.062   1.833   1.798
 2462TIP3   OH2 7328   3.822   6.197   0.463
 2462TIP3    H1 7329   3.905   6.162   0.432
 2462TIP3    H2 7330   3.822   6.289   0.434
 2463TIP3   OH2 7331   6.484   6.352   4.428
 2463TIP3    H1 7332   6.435   6.343   4.346
 2463TIP3    H2 7333   6.576   6.352   4.401
 2464TIP3   OH2 7334   5.494   6.279   3.338
 2464TIP3    H1 7335   5.574   6.255   3.293
 2464TIP3    H2 7336   5.496   6.374   3.342
 2465TIP3   OH2 7337   0.922   0.807   3.199
 2465TIP3    H1 7338   0.856   0.876   3.195
 2465TIP3    H2 7339   0.935   0.792   3.293
 2466TIP3   OH2 7340   3.174   0.541   6.550
 2466TIP3    H1 7341   3.163   0.628   6.512
 2466TIP3    H2 7342   3.262   0.543   6.588
 2467TIP3   OH2 7343   1.864   0.346   3.802
 2467TIP3    H1 7344   1.804   0.309   3.867
 2467TIP3    H2 7345   1.916   0.409   3.852
 2468TIP3   OH2 7346   4.689   3.522   3.120
 2468TIP3    H1 7347   4.661   3.513   3.028
 2468TIP3    H2 7348   4.697   3.432   3.151
 2469TIP3   OH2 7349   0.921   1.646   2.954
 2469TIP3    H1 7350   0.946   1.633   3.046
 2469TIP3    H2 7351   0.988   1.706   2.920
 2470TIP3   OH2 7352   1.144   6.827   2.823
 2470TIP3    H1 7353   1.094   6.754   2.859
 2470TIP3    H2 7354   1.083   6.901   2.825
 2471TIP3   OH2 7355   1.385   1.640   5.848
 2471TIP3    H1 7356   1.340   1.557   5.833
 2471TIP3    H2 7357   1.327   1.705   5.808
 2472TIP3   OH2 7358   0.123   3.686   4.775
 2472TIP3    H1 7359   0.209   3.709   4.740
 2472TIP3    H2 7360   0.140   3.660   4.865
 2473TIP3   OH2 7361   0.860   1.441   6.066
 2473TIP3    H1 7362   0.831   1.513   6.122
 2473TIP3    H2 7363   0.780   1.390   6.050
 2474TIP3   OH2 7364   7.243   7.023   1.582
 2474TIP3    H1 7365   7.264   7.105   1.537
 2474TIP3    H2 7366   7.183   6.978   1.522
 2475TIP3   OH2 7367   2.255   6.184   0.603
 2475TIP3    H1 7368   2.214   6.099   0.621
 2475TIP3    H2 7369   2.182   6.241   0.579
 2476TIP3   OH2 7370   5.116   7.018   1.674
 2476TIP3    H1 7371   5.056   6.943   1.670
 2476TIP3    H2 7372   5.085   7.070   1.748
 2477TIP3   OH2 7373   7.048   0.606   5.147
 2477TIP3    H1 7374   6.980   0.659   5.188
 2477TIP3    H2 7375   7.059   0.530   5.205
 2478TIP3   OH2 7376   7.886   2.156   5.425
 2478TIP3    H1 7377   7.977   2.175   5.451
 2478TIP3    H2 7378   7.849   2.111   5.501
 2479TIP3   OH2 7379   7.357   3.306   4.164
 2479TIP3    H1 7380   7.385   3.336   4.077
 2479TIP3    H2 7381   7.324   3.218   4.149
 2480TIP3   OH2 7382   2.474   1.932   5.719
 2480TIP3    H1 7383   2.556   1.954   5.674
 2480TIP3    H2 7384   2.409   1.928   5.649
 2481TIP3   OH2 7385   6.364   4.238   3.016
 2481TIP3    H1 7386   6.425   4.164   3.014
 2481TIP3    H2 7387   6.376   4.282   2.932
 2482TIP3   OH2 7388   3.900   5.652   4.859
 2482TIP3    H1 7389   3.908   5.657   4.954
 2482TIP3    H2 7390   3.825   5.594   4.845
 2483TIP3   OH2 7391   3.782   4.071   5.269
 2483TIP3    H1 7392   3.699   4.103   5.303
 2483TIP3    H2 7393   3.778   3.976   5.282
 2484TIP3   OH2 7394   1.208   0.537   3.263
 2484TIP3    H1 7395   1.266   0.607   3.293
 2484TIP3    H2 7396   1.256   0.496   3.192
 2485TIP3   OH2 7397   2.755   7.575   4.589
 2485TIP3    H1 7398   2.763   7.520   4.511
 2485TIP3    H2 7399   2.767   7.515   4.663
 2486TIP3   OH2 7400   6.169   6.804   4.078
 2486TIP3    H1 7401   6.222   6.729   4.052
 2486TIP3    H2 7402   6.183   6.869   4.010
 2487TIP3   OH2 7403   1.484   5.899   4.100
 2487TIP3    H1 7404   1.555   5.931   4.043
 2487TIP3    H2 7405   1.460   5.975   4.153
 2488TIP3   OH2 7406   7.223   6.948   3.635
 2488TIP3    H1 7407   7.206   6.858   3.609
 2488TIP3    H2 7408   7.165   7.001   3.579
 2489TIP3   OH2 7409   0.829   7.706   0.067
 2489TIP3    H1 7410   0.881   7.626   0.057
 2489TIP3    H2 7411   0.892   7.773   0.094
 2490TIP3   OH2 7412   6.422   3.108   2.549
 2490TIP3    H1 7413   6.350   3.061   2.508
 2490TIP3    H2 7414   6.501   3.059   2.525
 2491TIP3   OH2 7415   8.138   3.826   4.788
 2491TIP3    H1 7416   8.215   3.783   4.751
 2491TIP3    H2 7417   8.158   3.834   4.881
 2492TIP3   OH2 7418   3.455   4.209   6.107
 2492TIP3    H1 7419   3.537   4.181   6.146
 2492TIP3    H2 7420   3.398   4.133   6.111
 2493TIP3   OH2 7421   7.014   1.043   1.110
 2493TIP3    H1 7422   6.985   1.085   1.191
 2493TIP3    H2 7423   6.937   1.046   1.053
 2494TIP3   OH2 7424   4.074   5.066   6.156
 2494TIP3    H1 7425   3.993   5.028   6.121
 2494TIP3    H2 7426   4.144   5.012   6.118
 2495TIP3   OH2 7427   7.738   7.172   6.694
 2495TIP3    H1 7428   7.767   7.262   6.711
 2495TIP3    H2 7429   7.790   7.119   6.753
 2496TIP3   OH2 7430   3.407   3.458   4.495
 2496TIP3    H1 7431   3.385   3.395   4.427
 2496TIP3    H2 7432   3.427   3.539   4.448
 2497TIP3   OH2 7433   2.988   4.510   4.417
 2497TIP3    H1 7434   2.957   4.563   4.490
 2497TIP3    H2 7435   2.926   4.437   4.413
 2498TIP3   OH2 7436   0.646   4.085   3.757
 2498TIP3    H1 7437   0.555   4.108   3.777
 2498TIP3    H2 7438   0.656   4.104   3.663
 2499TIP3   OH2 7439   4.443   0.861   3.282
 2499TIP3    H1 7440   4.530   0.881   3.247
 2499TIP3    H2 7441   4.448   0.768   3.305
 2500TIP3   OH2 7442   4.987   5.715   4.334
 2500TIP3    H1 7443   5.044   5.657   4.283
 2500TIP3    H2 7444   5.048   5.777   4.376
 2501TIP3   OH2 7445   1.386   4.881   1.811
 2501TIP3    H1 7446   1.297   4.848   1.801
 2501TIP3    H2 7447   1.378   4.975   1.793
 2502TIP3   OH2 7448   6.230   3.187   1.617
 2502TIP3    H1 7449   6.215   3.094   1.630
 2502TIP3    H2 7450   6.179   3.230   1.686
 2503TIP3   OH2 7451   2.396   7.288   0.727
 2503TIP3    H1 7452   2.374   7.380   0.713
 2503TIP3    H2 7453   2.492   7.286   0.724
 2504TIP3   OH2 7454   1.052   6.289   1.351
 2504TIP3    H1 7455   1.008   6.205   1.339
 2504TIP3    H2 7456   1.069   6.295   1.445
 2505TIP3   OH2 7457   6.201   3.218   2.338
 2505TIP3    H1 7458   6.188   3.141   2.394
 2505TIP3    H2 7459   6.293   3.215   2.313
 2506TIP3   OH2 7460   6.913   7.459   4.218
 2506TIP3    H1 7461   6.835   7.406   4.238
 2506TIP3    H2 7462   6.917   7.460   4.123
 2507TIP3   OH2 7463   0.542   2.677   2.372
 2507TIP3    H1 7464   0.551   2.770   2.355
 2507TIP3    H2 7465   0.457   2.653   2.335
 2508TIP3   OH2 7466   0.351   0.306   0.213
 2508TIP3    H1 7467   0.421   0.331   0.153
 2508TIP3    H2 7468   0.394   0.257   0.283
 2509TIP3   OH2 7469   3.395   0.047   1.994
 2509TIP3    H1 7470   3.482   0.086   2.004
 2509TIP3    H2 7471   3.338   0.120   1.971
 2510TIP3   OH2 7472   6.274   7.031   5.913
 2510TIP3    H1 7473   6.344   7.056   5.853
 2510TIP3    H2 7474   6.227   6.961   5.867
 2511TIP3   OH2 7475   5.571   5.912   5.436
 2511TIP3    H1 7476   5.664   5.925   5.417
 2511TIP3    H2 7477   5.537   6.000   5.452
 2512TIP3   OH2 7478   5.369   5.998   0.872
 2512TIP3    H1 7479   5.284   5.954   0.873
 2512TIP3    H2 7480   5.374   6.044   0.956
 2513TIP3   OH2 7481   0.457   3.483   3.323
 2513TIP3    H1 7482   0.412   3.423   3.382
 2513TIP3    H2 7483   0.397   3.557   3.315
 2514TIP3   OH2 7484   7.499   7.744   5.110
 2514TIP3    H1 7485   7.482   7.743   5.015
 2514TIP3    H2 7486   7.508   7.652   5.134
 2515TIP3   OH2 7487   0.306   6.289   0.099
 2515TIP3    H1 7488   0.381   6.248   0.141
 2515TIP3    H2 7489   0.236   6.224   0.105
 2516TIP3   OH2 7490   4.121   1.112   0.835
 2516TIP3    H1 7491   4.040   1.120   0.785
 2516TIP3    H2 7492   4.096   1.067   0.916
 2517TIP3   OH2 7493   0.062   1.379   4.304
 2517TIP3    H1 7494  -0.007   1.334   4.256
 2517TIP3    H2 7495   0.143   1.351   4.262
 2518TIP3   OH2 7496   0.969   2.545   1.187
 2518TIP3    H1 7497   0.996   2.454   1.200
 2518TIP3    H2 7498   1.050   2.590   1.163
 2519TIP3   OH2 7499   7.330   3.531   5.587
 2519TIP3    H1 7500   7.416   3.551   5.625
 2519TIP3    H2 7501   7.270   3.591   5.631
 2520TIP3   OH2 7502   5.984   2.444   6.209
 2520TIP3    H1 7503   6.076   2.416   6.206
 2520TIP3    H2 7504   5.955   2.420   6.297
 2521TIP3   OH2 7505   5.228   0.133   5.857
 2521TIP3    H1 7506   5.162   0.153   5.791
 2521TIP3    H2 7507   5.197   0.053   5.899
 2522TIP3   OH2 7508   2.294   7.100   3.205
 2522TIP3    H1 7509   2.381   7.063   3.185
 2522TIP3    H2 7510   2.311   7.164   3.274
 2523TIP3   OH2 7511   6.364   2.637   2.306
 2523TIP3    H1 7512   6.331   2.593   2.228
 2523TIP3    H2 7513   6.309   2.605   2.377
 2524TIP3   OH2 7514   1.458   1.167   5.683
 2524TIP3    H1 7515   1.478   1.075   5.703
 2524TIP3    H2 7516   1.372   1.165   5.641
 2525TIP3   OH2 7517   1.387   1.201   3.758
 2525TIP3    H1 7518   1.375   1.106   3.762
 2525TIP3    H2 7519   1.479   1.212   3.733
 2526TIP3   OH2 7520   7.983   7.105   1.108
 2526TIP3    H1 7521   8.056   7.114   1.047
 2526TIP3    H2 7522   7.906   7.091   1.053
 2527TIP3   OH2 7523   6.117   1.768   4.815
 2527TIP3    H1 7524   6.073   1.774   4.730
 2527TIP3    H2 7525   6.094   1.682   4.848
 2528TIP3   OH2 7526   6.073   4.809   2.198
 2528TIP3    H1 7527   6.145   4.798   2.135
 2528TIP3    H2 7528   6.006   4.856   2.149
 2529TIP3   OH2 7529   4.239   0.900   1.991
 2529TIP3    H1 7530   4.259   0.946   1.909
 2529TIP3    H2 7531   4.314   0.842   2.005
 2530TIP3   OH2 7532   7.110   0.588   3.120
 2530TIP3    H1 7533   7.060   0.663   3.154
 2530TIP3    H2 7534   7.052   0.550   3.054
 2531TIP3   OH2 7535   8.079   3.432   5.807
 2531TIP3    H1 7536   8.159   3.382   5.789
 2531TIP3    H2 7537   8.024   3.416   5.730
 2532TIP3   OH2 7538   1.928   0.547   4.494
 2532TIP3    H1 7539   1.925   0.451   4.489
 2532TIP3    H2 7540   1.891   0.576   4.410
 2533TIP3   OH2 7541   3.109   2.079   2.589
 2533TIP3    H1 7542   3.121   2.042   2.501
 2533TIP3    H2 7543   3.033   2.138   2.580
 2534TIP3   OH2 7544   0.010   4.912   1.364
 2534TIP3    H1 7545   0.085   4.903   1.424
 2534TIP3    H2 7546  -0.055   4.851   1.399
 2535TIP3   OH2 7547   4.692   0.777   6.476
 2535TIP3    H1 7548   4.758   0.769   6.545
 2535TIP3    H2 7549   4.707   0.703   6.418
 2536TIP3   OH2 7550   8.250   2.071   0.020
 2536TIP3    H1 7551   8.308   2.088  -0.055
 2536TIP3    H2 7552   8.184   2.011  -0.014
 2537TIP3   OH2 7553   4.639   6.015   1.282
 2537TIP3    H1 7554   4.686   6.089   1.320
 2537TIP3    H2 7555   4.548   6.028   1.309
 2538TIP3   OH2 7556   5.556   5.561   3.053
 2538TIP3    H1 7557   5.643   5.529   3.077
 2538TIP3    H2 7558   5.572   5.650   3.021
 2539TIP3   OH2 7559   2.919   6.851   4.742
 2539TIP3    H1 7560   2.949   6.769   4.781
 2539TIP3    H2 7561   2.880   6.825   4.659
 2540TIP3   OH2 7562   1.380   1.900   5.561
 2540TIP3    H1 7563   1.317   1.908   5.632
 2540TIP3    H2 7564   1.447   1.840   5.593
 2541TIP3   OH2 7565   1.602   2.054   3.637
 2541TIP3    H1 7566   1.631   2.070   3.727
 2541TIP3    H2 7567   1.539   1.983   3.644
 2542TIP3   OH2 7568   6.965   2.042   1.278
 2542TIP3    H1 7569   6.891   2.102   1.281
 2542TIP3    H2 7570   7.003   2.054   1.191
 2543TIP3   OH2 7571   2.750   5.789   1.237
 2543TIP3    H1 7572   2.759   5.829   1.150
 2543TIP3    H2 7573   2.697   5.851   1.286
 2544TIP3   OH2 7574   5.972   6.873   0.841
 2544TIP3    H1 7575   6.041   6.863   0.907
 2544TIP3    H2 7576   5.934   6.785   0.833
 2545TIP3   OH2 7577   1.453   6.232   1.166
 2545TIP3    H1 7578   1.412   6.311   1.129
 2545TIP3    H2 7579   1.540   6.260   1.193
 2546TIP3   OH2 7580   1.182   4.611   2.832
 2546TIP3    H1 7581   1.191   4.581   2.923
 2546TIP3    H2 7582   1.094   4.583   2.807
 2547TIP3   OH2 7583   3.529   6.284   1.443
 2547TIP3    H1 7584   3.615   6.273   1.401
 2547TIP3    H2 7585   3.475   6.325   1.375
 2548TIP3   OH2 7586   6.953   2.994   3.240
 2548TIP3    H1 7587   7.033   2.993   3.188
 2548TIP3    H2 7588   6.889   2.944   3.189
 2549TIP3   OH2 7589   5.146   6.398   3.740
 2549TIP3    H1 7590   5.170   6.453   3.815
 2549TIP3    H2 7591   5.159   6.309   3.771
 2550TIP3   OH2 7592   1.442   0.605   1.480
 2550TIP3    H1 7593   1.481   0.600   1.393
 2550TIP3    H2 7594   1.488   0.539   1.532
 2551TIP3   OH2 7595   7.370   7.195   3.491
 2551TIP3    H1 7596   7.320   7.200   3.409
 2551TIP3    H2 7597   7.416   7.111   3.485
 2552TIP3   OH2 7598   3.710   5.926   4.613
 2552TIP3    H1 7599   3.629   5.887   4.581
 2552TIP3    H2 7600   3.699   5.929   4.708
 2553TIP3   OH2 7601   5.689   5.064   6.205
 2553TIP3    H1 7602   5.767   5.117   6.189
 2553TIP3    H2 7603   5.622   5.127   6.231
 2554TIP3   OH2 7604   6.616   2.817   5.958
 2554TIP3    H1 7605   6.541   2.767   5.926
 2554TIP3    H2 7606   6.691   2.781   5.911
 2555TIP3   OH2 7607   6.627   2.029   4.129
 2555TIP3    H1 7608   6.576   2.060   4.054
 2555TIP3    H2 7609   6.665   2.108   4.166
 2556TIP3   OH2 7610   6.559   0.562   4.519
 2556TIP3    H1 7611   6.519   0.614   4.589
 2556TIP3    H2 7612   6.643   0.535   4.554
 2557TIP3   OH2 7613   6.982   3.492   6.465
 2557TIP3    H1 7614   7.001   3.447   6.547
 2557TIP3    H2 7615   6.993   3.585   6.486
 2558TIP3   OH2 7616   6.974   2.244   5.407
 2558TIP3    H1 7617   6.975   2.282   5.319
 2558TIP3    H2 7618   7.058   2.199   5.414
 2559TIP3   OH2 7619   7.986   0.916   3.175
 2559TIP3    H1 7620   8.017   0.862   3.248
 2559TIP3    H2 7621   8.066   0.937   3.126
 2560TIP3   OH2 7622   3.902   4.624   4.820
 2560TIP3    H1 7623   3.985   4.604   4.777
 2560TIP3    H2 7624   3.860   4.688   4.763
 2561TIP3   OH2 7625   5.537   6.812   4.906
 2561TIP3    H1 7626   5.518   6.902   4.934
 2561TIP3    H2 7627   5.514   6.810   4.813
 2562TIP3   OH2 7628   7.106   0.871   5.471
 2562TIP3    H1 7629   7.192   0.905   5.497
 2562TIP3    H2 7630   7.055   0.949   5.449
 2563TIP3   OH2 7631   6.974   7.070   2.806
 2563TIP3    H1 7632   7.061   7.106   2.819
 2563TIP3    H2 7633   6.973   6.989   2.857
 2564TIP3   OH2 7634  -0.003   4.617   5.296
 2564TIP3    H1 7635   0.080   4.644   5.258
 2564TIP3    H2 7636  -0.009   4.523   5.277
 2565TIP3   OH2 7637   5.072   5.453   1.660
 2565TIP3    H1 7638   5.019   5.482   1.585
 2565TIP3    H2 7639   5.139   5.520   1.670
 2566TIP3   OH2 7640   4.485   5.117   4.596
 2566TIP3    H1 7641   4.476   5.160   4.681
 2566TIP3    H2 7642   4.421   5.046   4.598
 2567TIP3   OH2 7643   3.122   2.461   2.808
 2567TIP3    H1 7644   3.205   2.461   2.760
 2567TIP3    H2 7645   3.065   2.518   2.756
 2568TIP3   OH2 7646   0.023   0.068   6.184
 2568TIP3    H1 7647  -0.071   0.063   6.165
 2568TIP3    H2 7648   0.052   0.148   6.140
 2569TIP3   OH2 7649   5.814   3.181   1.914
 2569TIP3    H1 7650   5.725   3.204   1.942
 2569TIP3    H2 7651   5.858   3.155   1.995
 2570TIP3   OH2 7652   5.101   3.057   2.416
 2570TIP3    H1 7653   5.105   2.980   2.472
 2570TIP3    H2 7654   5.069   3.127   2.472
 2571TIP3   OH2 7655   6.864   5.418   2.031
 2571TIP3    H1 7656   6.860   5.465   2.114
 2571TIP3    H2 7657   6.955   5.388   2.025
 2572TIP3   OH2 7658   1.885   1.922   0.902
 2572TIP3    H1 7659   1.879   1.884   0.814
 2572TIP3    H2 7660   1.839   1.860   0.958
 2573TIP3   OH2 7661   4.779   3.851   0.799
 2573TIP3    H1 7662   4.767   3.764   0.761
 2573TIP3    H2 7663   4.866   3.849   0.838
 2574TIP3   OH2 7664   5.009   0.987   2.491
 2574TIP3    H1 7665   4.921   0.978   2.529
 2574TIP3    H2 7666   5.024   1.081   2.489
 2575TIP3   OH2 7667   8.041   6.923   6.565
 2575TIP3    H1 7668   8.067   6.832   6.579
 2575TIP3    H2 7669   7.973   6.919   6.497
 2576TIP3   OH2 7670   3.324   7.068   3.728
 2576TIP3    H1 7671   3.395   7.126   3.701
 2576TIP3    H2 7672   3.336   6.989   3.675
 2577TIP3   OH2 7673   3.571   1.049   3.423
 2577TIP3    H1 7674   3.487   1.013   3.450
 2577TIP3    H2 7675   3.592   1.001   3.343
 2578TIP3   OH2 7676   0.628   7.790   3.801
 2578TIP3    H1 7677   0.623   7.701   3.835
 2578TIP3    H2 7678   0.663   7.841   3.874
 2579TIP3   OH2 7679   2.039   3.853   4.293
 2579TIP3    H1 7680   2.066   3.800   4.218
 2579TIP3    H2 7681   1.946   3.873   4.277
 2580TIP3   OH2 7682   1.710   5.292   0.581
 2580TIP3    H1 7683   1.804   5.292   0.561
 2580TIP3    H2 7684   1.671   5.343   0.510
 2581TIP3   OH2 7685   2.333   1.878   5.950
 2581TIP3    H1 7686   2.340   1.967   5.987
 2581TIP3    H2 7687   2.370   1.886   5.863
 2582TIP3   OH2 7688   1.801   7.088   6.282
 2582TIP3    H1 7689   1.832   7.014   6.334
 2582TIP3    H2 7690   1.827   7.165   6.334
 2583TIP3   OH2 7691   7.727   6.068   0.142
 2583TIP3    H1 7692   7.756   6.154   0.111
 2583TIP3    H2 7693   7.707   6.080   0.234
 2584TIP3   OH2 7694   6.284   0.930   3.102
 2584TIP3    H1 7695   6.332   1.008   3.128
 2584TIP3    H2 7696   6.351   0.870   3.069
 2585TIP3   OH2 7697   7.817   3.292   3.524
 2585TIP3    H1 7698   7.818   3.342   3.605
 2585TIP3    H2 7699   7.800   3.202   3.551
 2586TIP3   OH2 7700   2.815   3.348   2.406
 2586TIP3    H1 7701   2.828   3.349   2.311
 2586TIP3    H2 7702   2.809   3.256   2.429
 2587TIP3   OH2 7703   1.162   5.866   0.178
 2587TIP3    H1 7704   1.130   5.839   0.264
 2587TIP3    H2 7705   1.250   5.829   0.173
 2588TIP3   OH2 7706   6.339   4.814   0.165
 2588TIP3    H1 7707   6.323   4.789   0.256
 2588TIP3    H2 7708   6.307   4.739   0.114
 2589TIP3   OH2 7709   7.345   0.935   5.632
 2589TIP3    H1 7710   7.425   0.964   5.677
 2589TIP3    H2 7711   7.320   0.855   5.678
 2590TIP3   OH2 7712   6.763   5.502   4.014
 2590TIP3    H1 7713   6.715   5.419   4.012
 2590TIP3    H2 7714   6.715   5.557   4.075
 2591TIP3   OH2 7715   4.589   1.334   6.026
 2591TIP3    H1 7716   4.498   1.356   6.003
 2591TIP3    H2 7717   4.581   1.268   6.095
 2592TIP3   OH2 7718   6.510   3.270   3.083
 2592TIP3    H1 7719   6.522   3.178   3.105
 2592TIP3    H2 7720   6.514   3.316   3.167
 2593TIP3   OH2 7721   7.874   3.051   4.225
 2593TIP3    H1 7722   7.813   3.125   4.230
 2593TIP3    H2 7723   7.863   3.006   4.308
 2594TIP3   OH2 7724   5.567   5.847   2.981
 2594TIP3    H1 7725   5.534   5.907   3.047
 2594TIP3    H2 7726   5.530   5.879   2.899
 2595TIP3   OH2 7727   6.377   7.854   2.153
 2595TIP3    H1 7728   6.305   7.794   2.169
 2595TIP3    H2 7729   6.455   7.799   2.151
 2596TIP3   OH2 7730   7.515   6.751   4.085
 2596TIP3    H1 7731   7.479   6.837   4.103
 2596TIP3    H2 7732   7.438   6.695   4.072
 2597TIP3   OH2 7733   3.055   7.169   3.753
 2597TIP3    H1 7734   3.140   7.125   3.741
 2597TIP3    H2 7735   3.018   7.128   3.831
 2598TIP3   OH2 7736   7.923   2.339   6.376
 2598TIP3    H1 7737   7.905   2.388   6.296
 2598TIP3    H2 7738   8.016   2.353   6.393
 2599TIP3   OH2 7739   3.865   5.195   0.830
 2599TIP3    H1 7740   3.888   5.226   0.917
 2599TIP3    H2 7741   3.784   5.242   0.808
 2600TIP3   OH2 7742   7.912   1.637   2.912
 2600TIP3    H1 7743   7.868   1.646   2.827
 2600TIP3    H2 7744   8.001   1.609   2.890
 2601TIP3   OH2 7745   2.666   4.454   5.714
 2601TIP3    H1 7746   2.641   4.531   5.663
 2601TIP3    H2 7747   2.710   4.397   5.651
 2602TIP3   OH2 7748   1.654   2.761   5.083
 2602TIP3    H1 7749   1.689   2.680   5.121
 2602TIP3    H2 7750   1.560   2.756   5.097
 2603TIP3   OH2 7751   2.389   0.298   4.608
 2603TIP3    H1 7752   2.353   0.386   4.598
 2603TIP3    H2 7753   2.484   0.311   4.614
 2604TIP3   OH2 7754   1.409   5.961   6.696
 2604TIP3    H1 7755   1.478   5.959   6.762
 2604TIP3    H2 7756   1.397   5.870   6.670
 2605TIP3   OH2 7757   2.521   1.352   3.698
 2605TIP3    H1 7758   2.536   1.363   3.604
 2605TIP3    H2 7759   2.599   1.388   3.740
 2606TIP3   OH2 7760   6.613   7.182   5.488
 2606TIP3    H1 7761   6.593   7.232   5.409
 2606TIP3    H2 7762   6.621   7.091   5.458
 2607TIP3   OH2 7763   5.320   3.602   0.482
 2607TIP3    H1 7764   5.246   3.564   0.435
 2607TIP3    H2 7765   5.395   3.549   0.454
 2608TIP3   OH2 7766   5.035   4.360   3.284
 2608TIP3    H1 7767   5.122   4.389   3.312
 2608TIP3    H2 7768   5.009   4.422   3.216
 2609TIP3   OH2 7769   3.390   4.148   1.136
 2609TIP3    H1 7770   3.440   4.067   1.128
 2609TIP3    H2 7771   3.401   4.174   1.227
 2610TIP3   OH2 7772   6.575   5.297   4.018
 2610TIP3    H1 7773   6.594   5.205   3.999
 2610TIP3    H2 7774   6.511   5.294   4.090
 2611TIP3   OH2 7775   0.023   0.708   5.338
 2611TIP3    H1 7776  -0.036   0.752   5.400
 2611TIP3    H2 7777   0.022   0.765   5.261
 2612TIP3   OH2 7778   2.882   2.726   3.003
 2612TIP3    H1 7779   2.877   2.631   3.006
 2612TIP3    H2 7780   2.791   2.755   3.016
 2613TIP3   OH2 7781   1.018   5.717   3.061
 2613TIP3    H1 7782   1.098   5.723   3.113
 2613TIP3    H2 7783   1.035   5.774   2.986
 2614TIP3   OH2 7784   0.151   6.830   0.813
 2614TIP3    H1 7785   0.102   6.845   0.893
 2614TIP3    H2 7786   0.223   6.894   0.816
 2615TIP3   OH2 7787   4.121   0.186   3.069
 2615TIP3    H1 7788   4.138   0.115   3.131
 2615TIP3    H2 7789   4.069   0.250   3.119
 2616TIP3   OH2 7790   7.018   4.385   4.423
 2616TIP3    H1 7791   7.067   4.333   4.358
 2616TIP3    H2 7792   7.086   4.427   4.476
 2617TIP3   OH2 7793   4.085   6.699   1.790
 2617TIP3    H1 7794   4.167   6.651   1.785
 2617TIP3    H2 7795   4.066   6.705   1.884
 2618TIP3   OH2 7796   5.357   0.678   0.926
 2618TIP3    H1 7797   5.296   0.735   0.973
 2618TIP3    H2 7798   5.301   0.615   0.881
 2619TIP3   OH2 7799   3.021   1.619   2.610
 2619TIP3    H1 7800   2.970   1.665   2.677
 2619TIP3    H2 7801   3.081   1.563   2.659
 2620TIP3   OH2 7802   8.190   5.798   4.616
 2620TIP3    H1 7803   8.123   5.865   4.608
 2620TIP3    H2 7804   8.234   5.797   4.531
 2621TIP3   OH2 7805   1.845   1.359   2.833
 2621TIP3    H1 7806   1.851   1.292   2.764
 2621TIP3    H2 7807   1.773   1.415   2.805
 2622TIP3   OH2 7808   7.542   3.534   4.587
 2622TIP3    H1 7809   7.513   3.610   4.537
 2622TIP3    H2 7810   7.483   3.530   4.662
 2623TIP3   OH2 7811   4.117   6.959   2.286
 2623TIP3    H1 7812   4.206   6.993   2.297
 2623TIP3    H2 7813   4.063   7.012   2.344
 2624TIP3   OH2 7814   3.727   2.179   0.542
 2624TIP3    H1 7815   3.733   2.272   0.520
 2624TIP3    H2 7816   3.637   2.154   0.518
 2625TIP3   OH2 7817   4.923   6.747   2.747
 2625TIP3    H1 7818   4.933   6.653   2.735
 2625TIP3    H2 7819   4.911   6.781   2.659
 2626TIP3   OH2 7820   0.464   1.241   0.735
 2626TIP3    H1 7821   0.417   1.292   0.801
 2626TIP3    H2 7822   0.550   1.282   0.731
 2627TIP3   OH2 7823   5.028   6.506   2.673
 2627TIP3    H1 7824   5.090   6.433   2.672
 2627TIP3    H2 7825   4.974   6.493   2.595
 2628TIP3   OH2 7826   4.279   2.107   3.607
 2628TIP3    H1 7827   4.258   2.199   3.588
 2628TIP3    H2 7828   4.315   2.109   3.695
 2629TIP3   OH2 7829   1.468   1.730   6.300
 2629TIP3    H1 7830   1.562   1.749   6.306
 2629TIP3    H2 7831   1.432   1.756   6.384
 2630TIP3   OH2 7832   0.310   0.416   4.231
 2630TIP3    H1 7833   0.274   0.501   4.256
 2630TIP3    H2 7834   0.256   0.389   4.157
 2631TIP3   OH2 7835   2.232   6.589   1.818
 2631TIP3    H1 7836   2.155   6.580   1.761
 2631TIP3    H2 7837   2.287   6.654   1.774
 2632TIP3   OH2 7838   3.118   1.215   4.884
 2632TIP3    H1 7839   3.121   1.175   4.971
 2632TIP3    H2 7840   3.189   1.279   4.883
 2633TIP3   OH2 7841   1.475   3.340   1.866
 2633TIP3    H1 7842   1.417   3.269   1.839
 2633TIP3    H2 7843   1.420   3.397   1.921
 2634TIP3   OH2 7844   7.595   1.378   6.361
 2634TIP3    H1 7845   7.628   1.289   6.357
 2634TIP3    H2 7846   7.635   1.423   6.286
 2635TIP3   OH2 7847   0.901   3.928   6.589
 2635TIP3    H1 7848   0.977   3.886   6.632
 2635TIP3    H2 7849   0.831   3.921   6.654
 2636TIP3   OH2 7850   3.939   0.756   2.779
 2636TIP3    H1 7851   3.951   0.661   2.779
 2636TIP3    H2 7852   3.911   0.776   2.689
 2637TIP3   OH2 7853   1.107   3.638   5.405
 2637TIP3    H1 7854   1.036   3.624   5.342
 2637TIP3    H2 7855   1.184   3.600   5.364
 2638TIP3   OH2 7856   6.447   1.220   0.602
 2638TIP3    H1 7857   6.522   1.273   0.630
 2638TIP3    H2 7858   6.416   1.178   0.682
 2639TIP3   OH2 7859   6.496   2.032   6.218
 2639TIP3    H1 7860   6.519   1.995   6.132
 2639TIP3    H2 7861   6.579   2.066   6.252
 2640TIP3   OH2 7862   0.256   3.749   2.911
 2640TIP3    H1 7863   0.295   3.833   2.936
 2640TIP3    H2 7864   0.198   3.771   2.839
 2641TIP3   OH2 7865   5.521   6.033   3.952
 2641TIP3    H1 7866   5.509   6.093   4.025
 2641TIP3    H2 7867   5.615   6.019   3.947
 2642TIP3   OH2 7868   6.695   3.215   1.697
 2642TIP3    H1 7869   6.703   3.127   1.735
 2642TIP3    H2 7870   6.638   3.262   1.757
 2643TIP3   OH2 7871   4.514   6.148   2.842
 2643TIP3    H1 7872   4.571   6.123   2.915
 2643TIP3    H2 7873   4.513   6.070   2.785
 2644TIP3   OH2 7874   5.282   7.347   2.837
 2644TIP3    H1 7875   5.311   7.436   2.817
 2644TIP3    H2 7876   5.278   7.304   2.752
 2645TIP3   OH2 7877   7.004   5.503   0.821
 2645TIP3    H1 7878   7.049   5.504   0.737
 2645TIP3    H2 7879   6.912   5.518   0.799
 2646TIP3   OH2 7880   1.627   0.274   3.941
 2646TIP3    H1 7881   1.558   0.211   3.961
 2646TIP3    H2 7882   1.583   0.340   3.887
 2647TIP3   OH2 7883   2.743   0.542   4.112
 2647TIP3    H1 7884   2.733   0.503   4.025
 2647TIP3    H2 7885   2.775   0.630   4.095
 2648TIP3   OH2 7886   7.662   7.308   6.146
 2648TIP3    H1 7887   7.688   7.266   6.064
 2648TIP3    H2 7888   7.679   7.243   6.214
 2649TIP3   OH2 7889   0.876   6.379   4.979
 2649TIP3    H1 7890   0.856   6.319   5.051
 2649TIP3    H2 7891   0.971   6.385   4.979
 2650TIP3   OH2 7892   6.487   1.106   6.028
 2650TIP3    H1 7893   6.499   1.014   6.051
 2650TIP3    H2 7894   6.467   1.106   5.934
 2651TIP3   OH2 7895   6.957   5.688   1.492
 2651TIP3    H1 7896   6.867   5.721   1.487
 2651TIP3    H2 7897   6.989   5.717   1.578
 2652TIP3   OH2 7898   2.984   2.559   3.285
 2652TIP3    H1 7899   3.049   2.557   3.355
 2652TIP3    H2 7900   3.036   2.563   3.205
 2653TIP3   OH2 7901   6.722   2.996   2.970
 2653TIP3    H1 7902   6.658   3.032   2.909
 2653TIP3    H2 7903   6.779   2.942   2.915
 2654TIP3   OH2 7904   0.080   1.322   5.224
 2654TIP3    H1 7905   0.127   1.252   5.269
 2654TIP3    H2 7906   0.101   1.401   5.274
 2655TIP3   OH2 7907   0.594   7.148   0.607
 2655TIP3    H1 7908   0.586   7.055   0.584
 2655TIP3    H2 7909   0.607   7.147   0.702
 2656TIP3   OH2 7910   6.815   6.946   0.902
 2656TIP3    H1 7911   6.819   6.941   0.807
 2656TIP3    H2 7912   6.905   6.962   0.929
 2657TIP3   OH2 7913   3.949   2.636   5.161
 2657TIP3    H1 7914   3.944   2.545   5.132
 2657TIP3    H2 7915   3.858   2.665   5.165
 2658TIP3   OH2 7916   0.334   1.836   0.833
 2658TIP3    H1 7917   0.408   1.799   0.785
 2658TIP3    H2 7918   0.298   1.762   0.883
 2659TIP3   OH2 7919   3.934   4.822   6.616
 2659TIP3    H1 7920   3.923   4.902   6.565
 2659TIP3    H2 7921   3.863   4.825   6.680
 2660TIP3   OH2 7922   1.957   7.029   5.272
 2660TIP3    H1 7923   1.970   6.980   5.354
 2660TIP3    H2 7924   1.963   7.121   5.299
 2661TIP3   OH2 7925   7.489   4.331   3.094
 2661TIP3    H1 7926   7.463   4.420   3.070
 2661TIP3    H2 7927   7.579   4.340   3.124
 2662TIP3   OH2 7928   0.813   0.489   2.223
 2662TIP3    H1 7929   0.780   0.401   2.241
 2662TIP3    H2 7930   0.736   0.545   2.230
 2663TIP3   OH2 7931   0.639   4.404   5.004
 2663TIP3    H1 7932   0.677   4.319   4.985
 2663TIP3    H2 7933   0.715   4.461   5.019
 2664TIP3   OH2 7934   6.650   0.325   3.600
 2664TIP3    H1 7935   6.688   0.269   3.533
 2664TIP3    H2 7936   6.677   0.285   3.683
 2665TIP3   OH2 7937   1.524   6.026   0.686
 2665TIP3    H1 7938   1.548   6.119   0.689
 2665TIP3    H2 7939   1.522   6.005   0.592
 2666TIP3   OH2 7940   7.801   1.452   5.252
 2666TIP3    H1 7941   7.869   1.412   5.306
 2666TIP3    H2 7942   7.848   1.508   5.190
 2667TIP3   OH2 7943   3.813   1.827   3.790
 2667TIP3    H1 7944   3.772   1.906   3.826
 2667TIP3    H2 7945   3.880   1.861   3.731
 2668TIP3   OH2 7946   6.480   7.593   0.028
 2668TIP3    H1 7947   6.467   7.672   0.081
 2668TIP3    H2 7948   6.525   7.532   0.086
 2669TIP3   OH2 7949   5.764   4.736   5.246
 2669TIP3    H1 7950   5.789   4.764   5.158
 2669TIP3    H2 7951   5.847   4.719   5.291
 2670TIP3   OH2 7952   5.140   0.609   6.065
 2670TIP3    H1 7953   5.153   0.514   6.059
 2670TIP3    H2 7954   5.211   0.646   6.012
 2671TIP3   OH2 7955   0.453   3.742   6.481
 2671TIP3    H1 7956   0.535   3.760   6.436
 2671TIP3    H2 7957   0.423   3.828   6.512
 2672TIP3   OH2 7958   1.977   7.799   3.217
 2672TIP3    H1 7959   2.014   7.848   3.143
 2672TIP3    H2 7960   1.937   7.722   3.178
 2673TIP3   OH2 7961   2.197   1.691   0.649
 2673TIP3    H1 7962   2.128   1.754   0.668
 2673TIP3    H2 7963   2.192   1.628   0.721
 2674TIP3   OH2 7964   2.931   1.887   1.925
 2674TIP3    H1 7965   2.889   1.852   2.003
 2674TIP3    H2 7966   2.878   1.963   1.901
 2675TIP3   OH2 7967   5.667   3.989   4.552
 2675TIP3    H1 7968   5.634   4.060   4.497
 2675TIP3    H2 7969   5.705   4.032   4.628
 2676TIP3   OH2 7970   0.921   1.815   6.195
 2676TIP3    H1 7971   0.871   1.771   6.263
 2676TIP3    H2 7972   0.992   1.754   6.175
 2677TIP3   OH2 7973   6.113   5.684   1.763
 2677TIP3    H1 7974   6.188   5.693   1.822
 2677TIP3    H2 7975   6.153   5.675   1.676
 2678TIP3   OH2 7976   4.081   0.984   3.462
 2678TIP3    H1 7977   4.025   0.908   3.471
 2678TIP3    H2 7978   4.050   1.045   3.529
 2679TIP3   OH2 7979   3.668   5.562   4.500
 2679TIP3    H1 7980   3.626   5.541   4.416
 2679TIP3    H2 7981   3.702   5.479   4.532
 2680TIP3   OH2 7982   5.991   1.554   6.450
 2680TIP3    H1 7983   5.985   1.468   6.409
 2680TIP3    H2 7984   5.985   1.538   6.544
 2681TIP3   OH2 7985   0.762   6.989   5.168
 2681TIP3    H1 7986   0.844   6.944   5.147
 2681TIP3    H2 7987   0.784   7.046   5.242
 2682TIP3   OH2 7988   3.557   3.440   3.278
 2682TIP3    H1 7989   3.585   3.439   3.370
 2682TIP3    H2 7990   3.545   3.533   3.258
 2683TIP3   OH2 7991   1.084   5.842   4.144
 2683TIP3    H1 7992   1.092   5.931   4.178
 2683TIP3    H2 7993   1.077   5.787   4.222
 2684TIP3   OH2 7994   2.855   2.161   5.841
 2684TIP3    H1 7995   2.894   2.086   5.796
 2684TIP3    H2 7996   2.774   2.126   5.879
 2685TIP3   OH2 7997   5.644   3.591   3.114
 2685TIP3    H1 7998   5.690   3.507   3.116
 2685TIP3    H2 7999   5.552   3.568   3.132
 2686TIP3   OH2 8000   5.023   1.748   2.513
 2686TIP3    H1 8001   5.004   1.707   2.429
 2686TIP3    H2 8002   5.026   1.842   2.493
 2687TIP3   OH2 8003   2.466   5.866   5.912
 2687TIP3    H1 8004   2.461   5.959   5.935
 2687TIP3    H2 8005   2.459   5.821   5.996
 2688TIP3   OH2 8006   4.310   6.163   5.479
 2688TIP3    H1 8007   4.254   6.144   5.404
 2688TIP3    H2 8008   4.261   6.228   5.530
 2689TIP3   OH2 8009   1.874   0.991   2.288
 2689TIP3    H1 8010   1.858   0.918   2.347
 2689TIP3    H2 8011   1.969   0.989   2.273
 2690TIP3   OH2 8012   3.512   1.342   2.938
 2690TIP3    H1 8013   3.604   1.329   2.915
 2690TIP3    H2 8014   3.469   1.262   2.908
 2691TIP3   OH2 8015   1.030   2.918   4.467
 2691TIP3    H1 8016   1.088   2.845   4.488
 2691TIP3    H2 8017   0.998   2.898   4.379
 2692TIP3   OH2 8018   3.105   5.436   3.150
 2692TIP3    H1 8019   3.106   5.514   3.094
 2692TIP3    H2 8020   3.193   5.400   3.141
 2693TIP3   OH2 8021   0.967   4.676   6.056
 2693TIP3    H1 8022   1.041   4.669   6.117
 2693TIP3    H2 8023   1.000   4.728   5.983
 2694TIP3   OH2 8024   3.989   3.450   2.363
 2694TIP3    H1 8025   4.080   3.444   2.391
 2694TIP3    H2 8026   3.976   3.542   2.342
 2695TIP3   OH2 8027   3.006   5.636   1.159
 2695TIP3    H1 8028   2.980   5.727   1.174
 2695TIP3    H2 8029   3.004   5.626   1.064
 2696TIP3   OH2 8030   2.605   7.172   6.000
 2696TIP3    H1 8031   2.577   7.226   6.074
 2696TIP3    H2 8032   2.537   7.185   5.934
 2697TIP3   OH2 8033   6.388   7.544   3.987
 2697TIP3    H1 8034   6.424   7.620   3.941
 2697TIP3    H2 8035   6.443   7.471   3.959
 2698TIP3   OH2 8036   3.898   2.451   5.383
 2698TIP3    H1 8037   3.898   2.406   5.298
 2698TIP3    H2 8038   3.850   2.393   5.441
 2699TIP3   OH2 8039   6.427   5.150   0.148
 2699TIP3    H1 8040   6.379   5.172   0.227
 2699TIP3    H2 8041   6.484   5.077   0.174
 2700TIP3   OH2 8042   8.233   2.109   0.579
 2700TIP3    H1 8043   8.207   2.112   0.671
 2700TIP3    H2 8044   8.328   2.101   0.581
 2701TIP3   OH2 8045   3.821   1.253   3.837
 2701TIP3    H1 8046   3.827   1.344   3.867
 2701TIP3    H2 8047   3.860   1.202   3.908
 2702TIP3   OH2 8048   1.795   5.723   2.386
 2702TIP3    H1 8049   1.727   5.724   2.453
 2702TIP3    H2 8050   1.870   5.766   2.427
 2703TIP3   OH2 8051   1.548   7.364   2.062
 2703TIP3    H1 8052   1.524   7.367   1.969
 2703TIP3    H2 8053   1.465   7.379   2.108
 2704TIP3   OH2 8054   5.236   3.244   5.823
 2704TIP3    H1 8055   5.174   3.190   5.871
 2704TIP3    H2 8056   5.181   3.300   5.767
 2705TIP3   OH2 8057   7.693   1.753   5.784
 2705TIP3    H1 8058   7.631   1.685   5.810
 2705TIP3    H2 8059   7.779   1.712   5.792
 2706TIP3   OH2 8060   6.116   0.813   4.191
 2706TIP3    H1 8061   6.154   0.823   4.278
 2706TIP3    H2 8062   6.187   0.776   4.138
 2707TIP3   OH2 8063   4.827   3.478   6.641
 2707TIP3    H1 8064   4.879   3.407   6.603
 2707TIP3    H2 8065   4.789   3.522   6.565
 2708TIP3   OH2 8066   4.909   1.136   4.021
 2708TIP3    H1 8067   4.978   1.191   3.986
 2708TIP3    H2 8068   4.864   1.102   3.943
 2709TIP3   OH2 8069   3.792   7.795   2.298
 2709TIP3    H1 8070   3.817   7.801   2.205
 2709TIP3    H2 8071   3.703   7.763   2.296
 2710TIP3   OH2 8072   6.362   3.710   2.410
 2710TIP3    H1 8073   6.352   3.678   2.320
 2710TIP3    H2 8074   6.369   3.631   2.462
 2711TIP3   OH2 8075   3.292   0.629   2.378
 2711TIP3    H1 8076   3.374   0.678   2.372
 2711TIP3    H2 8077   3.298   0.564   2.308
 2712TIP3   OH2 8078   6.451   7.572   4.815
 2712TIP3    H1 8079   6.428   7.660   4.786
 2712TIP3    H2 8080   6.423   7.569   4.907
 2713TIP3   OH2 8081   3.185   7.685   1.967
 2713TIP3    H1 8082   3.103   7.714   2.006
 2713TIP3    H2 8083   3.172   7.697   1.873
 2714TIP3   OH2 8084   6.917   7.236   0.903
 2714TIP3    H1 8085   6.980   7.170   0.874
 2714TIP3    H2 8086   6.833   7.205   0.870
 2715TIP3   OH2 8087   4.054   6.490   3.829
 2715TIP3    H1 8088   3.980   6.443   3.866
 2715TIP3    H2 8089   4.131   6.439   3.853
 2716TIP3   OH2 8090   4.561   6.327   4.916
 2716TIP3    H1 8091   4.491   6.389   4.937
 2716TIP3    H2 8092   4.586   6.348   4.826
 2717TIP3   OH2 8093   6.309   3.063   0.738
 2717TIP3    H1 8094   6.354   3.147   0.738
 2717TIP3    H2 8095   6.282   3.050   0.647
 2718TIP3   OH2 8096   1.531   6.011   5.895
 2718TIP3    H1 8097   1.474   6.017   5.818
 2718TIP3    H2 8098   1.477   6.044   5.967
 2719TIP3   OH2 8099   4.806   4.967   5.369
 2719TIP3    H1 8100   4.823   4.907   5.297
 2719TIP3    H2 8101   4.831   5.053   5.334
 2720TIP3   OH2 8102   7.894   5.504   1.594
 2720TIP3    H1 8103   7.938   5.420   1.608
 2720TIP3    H2 8104   7.911   5.525   1.502
 2721TIP3   OH2 8105   5.889   7.000   0.511
 2721TIP3    H1 8106   5.922   7.049   0.436
 2721TIP3    H2 8107   5.824   7.058   0.552
 2722TIP3   OH2 8108   4.362   0.790   5.152
 2722TIP3    H1 8109   4.372   0.695   5.142
 2722TIP3    H2 8110   4.447   0.820   5.184
 2723TIP3   OH2 8111   6.678   3.232   5.716
 2723TIP3    H1 8112   6.770   3.227   5.688
 2723TIP3    H2 8113   6.663   3.150   5.764
 2724TIP3   OH2 8114   7.533   0.967   3.612
 2724TIP3    H1 8115   7.465   0.959   3.545
 2724TIP3    H2 8116   7.557   1.060   3.611
 2725TIP3   OH2 8117   0.988   6.424   0.947
 2725TIP3    H1 8118   0.983   6.340   0.902
 2725TIP3    H2 8119   0.900   6.439   0.981
 2726TIP3   OH2 8120   3.558   7.302   2.930
 2726TIP3    H1 8121   3.508   7.241   2.876
 2726TIP3    H2 8122   3.622   7.339   2.870
 2727TIP3   OH2 8123   7.595   5.114   0.412
 2727TIP3    H1 8124   7.527   5.062   0.456
 2727TIP3    H2 8125   7.547   5.189   0.377
 2728TIP3   OH2 8126   0.283   0.787   4.575
 2728TIP3    H1 8127   0.243   0.770   4.490
 2728TIP3    H2 8128   0.217   0.836   4.624
 2729TIP3   OH2 8129   2.830   5.119   3.500
 2729TIP3    H1 8130   2.923   5.121   3.477
 2729TIP3    H2 8131   2.785   5.125   3.416
 2730TIP3   OH2 8132   4.577   3.056   6.234
 2730TIP3    H1 8133   4.652   3.077   6.178
 2730TIP3    H2 8134   4.501   3.081   6.183
 2731TIP3   OH2 8135   3.150   7.447   1.257
 2731TIP3    H1 8136   3.184   7.535   1.240
 2731TIP3    H2 8137   3.225   7.399   1.295
 2732TIP3   OH2 8138   7.721   2.048   3.456
 2732TIP3    H1 8139   7.755   2.052   3.367
 2732TIP3    H2 8140   7.716   2.139   3.484
 2733TIP3   OH2 8141   3.416   3.286   1.305
 2733TIP3    H1 8142   3.379   3.317   1.223
 2733TIP3    H2 8143   3.370   3.335   1.373
 2734TIP3   OH2 8144   7.244   5.881   2.703
 2734TIP3    H1 8145   7.317   5.914   2.651
 2734TIP3    H2 8146   7.259   5.787   2.707
 2735TIP3   OH2 8147   4.527   1.668   6.463
 2735TIP3    H1 8148   4.578   1.729   6.409
 2735TIP3    H2 8149   4.437   1.678   6.431
 2736TIP3   OH2 8150   6.196   2.981   5.854
 2736TIP3    H1 8151   6.209   3.066   5.897
 2736TIP3    H2 8152   6.250   2.920   5.905
 2737TIP3   OH2 8153   7.921   2.540   3.467
 2737TIP3    H1 8154   7.855   2.479   3.500
 2737TIP3    H2 8155   8.002   2.488   3.463
 2738TIP3   OH2 8156   5.594   5.264   3.285
 2738TIP3    H1 8157   5.631   5.321   3.353
 2738TIP3    H2 8158   5.670   5.232   3.236
 2739TIP3   OH2 8159   2.605   5.966   6.283
 2739TIP3    H1 8160   2.539   6.031   6.257
 2739TIP3    H2 8161   2.575   5.884   6.244
 2740TIP3   OH2 8162   3.197   3.074   5.260
 2740TIP3    H1 8163   3.291   3.085   5.274
 2740TIP3    H2 8164   3.159   3.159   5.282
 2741TIP3   OH2 8165   7.175   3.783   0.978
 2741TIP3    H1 8166   7.195   3.708   0.922
 2741TIP3    H2 8167   7.144   3.744   1.060
 2742TIP3   OH2 8168   0.907   4.527   2.895
 2742TIP3    H1 8169   0.888   4.485   2.979
 2742TIP3    H2 8170   0.852   4.480   2.832
 2743TIP3   OH2 8171   5.161   5.016   3.098
 2743TIP3    H1 8172   5.112   4.958   3.040
 2743TIP3    H2 8173   5.200   5.080   3.039
 2744TIP3   OH2 8174   5.113   2.590   5.659
 2744TIP3    H1 8175   5.170   2.613   5.732
 2744TIP3    H2 8176   5.048   2.531   5.697
 2745TIP3   OH2 8177   6.276   7.348   2.011
 2745TIP3    H1 8178   6.320   7.273   2.051
 2745TIP3    H2 8179   6.183   7.328   2.019
 2746TIP3   OH2 8180   8.248   4.023   0.770
 2746TIP3    H1 8181   8.203   3.970   0.836
 2746TIP3    H2 8182   8.195   4.102   0.762
 2747TIP3   OH2 8183   7.618   4.528   1.233
 2747TIP3    H1 8184   7.693   4.486   1.189
 2747TIP3    H2 8185   7.544   4.508   1.176
 2748TIP3   OH2 8186   5.929   4.041   2.400
 2748TIP3    H1 8187   6.006   4.089   2.433
 2748TIP3    H2 8188   5.956   4.010   2.314
 2749TIP3   OH2 8189   4.359   5.194   2.714
 2749TIP3    H1 8190   4.445   5.175   2.752
 2749TIP3    H2 8191   4.299   5.134   2.758
 2750TIP3   OH2 8192   7.487   3.952   3.396
 2750TIP3    H1 8193   7.432   3.875   3.379
 2750TIP3    H2 8194   7.470   4.011   3.323
 2751TIP3   OH2 8195   7.567   0.501   3.267
 2751TIP3    H1 8196   7.517   0.529   3.344
 2751TIP3    H2 8197   7.612   0.421   3.296
 2752TIP3   OH2 8198   3.017   5.242   5.409
 2752TIP3    H1 8199   2.973   5.225   5.326
 2752TIP3    H2 8200   3.010   5.337   5.420
 2753TIP3   OH2 8201   5.231   6.635   5.512
 2753TIP3    H1 8202   5.263   6.545   5.513
 2753TIP3    H2 8203   5.136   6.628   5.509
 2754TIP3   OH2 8204   0.634   5.056   3.430
 2754TIP3    H1 8205   0.632   5.019   3.518
 2754TIP3    H2 8206   0.561   5.014   3.385
 2755TIP3   OH2 8207   3.851   0.065   5.807
 2755TIP3    H1 8208   3.860   0.125   5.732
 2755TIP3    H2 8209   3.906  -0.010   5.784
 2756TIP3   OH2 8210   3.716   4.830   1.602
 2756TIP3    H1 8211   3.662   4.862   1.674
 2756TIP3    H2 8212   3.654   4.811   1.532
 2757TIP3   OH2 8213   1.563   0.758   2.676
 2757TIP3    H1 8214   1.476   0.754   2.716
 2757TIP3    H2 8215   1.601   0.672   2.691
 2758TIP3   OH2 8216   4.966   6.563   6.451
 2758TIP3    H1 8217   4.945   6.475   6.420
 2758TIP3    H2 8218   4.915   6.573   6.531
 2759TIP3   OH2 8219   1.303   1.773   4.450
 2759TIP3    H1 8220   1.228   1.783   4.390
 2759TIP3    H2 8221   1.353   1.853   4.438
 2760TIP3   OH2 8222   7.066   1.612   1.390
 2760TIP3    H1 8223   7.011   1.569   1.456
 2760TIP3    H2 8224   7.144   1.558   1.385
 2761TIP3   OH2 8225   6.024   4.030   4.046
 2761TIP3    H1 8226   6.040   3.954   3.991
 2761TIP3    H2 8227   6.045   4.105   3.990
 2762TIP3   OH2 8228   4.369   2.630   3.556
 2762TIP3    H1 8229   4.313   2.690   3.507
 2762TIP3    H2 8230   4.458   2.657   3.534
 2763TIP3   OH2 8231   6.276   7.545   2.649
 2763TIP3    H1 8232   6.348   7.602   2.623
 2763TIP3    H2 8233   6.246   7.580   2.733
 2764TIP3   OH2 8234   3.344   4.370   1.910
 2764TIP3    H1 8235   3.424   4.382   1.859
 2764TIP3    H2 8236   3.329   4.455   1.951
 2765TIP3   OH2 8237   1.168   1.683   3.699
 2765TIP3    H1 8238   1.210   1.638   3.772
 2765TIP3    H2 8239   1.175   1.623   3.625
 2766TIP3   OH2 8240   6.835   1.136   0.057
 2766TIP3    H1 8241   6.917   1.161   0.013
 2766TIP3    H2 8242   6.861   1.067   0.118
 2767TIP3   OH2 8243   7.525   2.103   0.839
 2767TIP3    H1 8244   7.616   2.127   0.823
 2767TIP3    H2 8245   7.519   2.094   0.934
 2768TIP3   OH2 8246   6.279   6.796   3.570
 2768TIP3    H1 8247   6.218   6.738   3.617
 2768TIP3    H2 8248   6.343   6.737   3.532
 2769TIP3   OH2 8249   5.301   5.847   6.448
 2769TIP3    H1 8250   5.329   5.889   6.530
 2769TIP3    H2 8251   5.206   5.858   6.446
 2770TIP3   OH2 8252   7.314   2.471   1.466
 2770TIP3    H1 8253   7.326   2.486   1.559
 2770TIP3    H2 8254   7.275   2.552   1.432
 2771TIP3   OH2 8255   0.240   3.994   5.204
 2771TIP3    H1 8256   0.255   3.918   5.260
 2771TIP3    H2 8257   0.243   3.959   5.115
 2772TIP3   OH2 8258   1.670   2.960   5.984
 2772TIP3    H1 8259   1.605   2.955   5.915
 2772TIP3    H2 8260   1.621   2.986   6.062
 2773TIP3   OH2 8261   8.144   3.625   2.253
 2773TIP3    H1 8262   8.103   3.678   2.322
 2773TIP3    H2 8263   8.098   3.649   2.173
 2774TIP3   OH2 8264   6.489   3.613   5.115
 2774TIP3    H1 8265   6.519   3.559   5.189
 2774TIP3    H2 8266   6.426   3.557   5.069
 2775TIP3   OH2 8267   4.245   2.951   1.028
 2775TIP3    H1 8268   4.303   2.922   1.099
 2775TIP3    H2 8269   4.271   3.041   1.011
 2776TIP3   OH2 8270   7.104   3.262   0.156
 2776TIP3    H1 8271   7.085   3.352   0.130
 2776TIP3    H2 8272   7.018   3.220   0.158
 2777TIP3   OH2 8273   6.025   7.076   1.939
 2777TIP3    H1 8274   5.949   7.020   1.925
 2777TIP3    H2 8275   6.097   7.030   1.896
 2778TIP3   OH2 8276   4.976   2.748   3.386
 2778TIP3    H1 8277   4.902   2.697   3.354
 2778TIP3    H2 8278   5.050   2.687   3.386
 2779TIP3   OH2 8279   5.140   5.906   4.093
 2779TIP3    H1 8280   5.072   5.869   4.037
 2779TIP3    H2 8281   5.212   5.926   4.033
 2780TIP3   OH2 8282   3.062   0.689   6.310
 2780TIP3    H1 8283   3.038   0.781   6.312
 2780TIP3    H2 8284   3.043   0.661   6.220
 2781TIP3   OH2 8285   1.013   2.832   2.893
 2781TIP3    H1 8286   0.953   2.791   2.956
 2781TIP3    H2 8287   1.049   2.759   2.844
 2782TIP3   OH2 8288   2.998   0.080   4.639
 2782TIP3    H1 8289   2.981   0.049   4.727
 2782TIP3    H2 8290   3.021   0.001   4.589
 2783TIP3   OH2 8291   1.923   4.755   2.119
 2783TIP3    H1 8292   1.951   4.748   2.210
 2783TIP3    H2 8293   1.862   4.683   2.107
 2784TIP3   OH2 8294   4.228   1.068   5.152
 2784TIP3    H1 8295   4.187   1.021   5.224
 2784TIP3    H2 8296   4.305   1.015   5.130
 2785TIP3   OH2 8297   2.034   3.017   0.664
 2785TIP3    H1 8298   2.100   3.085   0.677
 2785TIP3    H2 8299   2.077   2.936   0.691
 2786TIP3   OH2 8300   2.670   7.774   0.356
 2786TIP3    H1 8301   2.605   7.776   0.426
 2786TIP3    H2 8302   2.669   7.683   0.326
 2787TIP3   OH2 8303   2.907   4.160   4.644
 2787TIP3    H1 8304   2.898   4.064   4.642
 2787TIP3    H2 8305   2.999   4.175   4.624
 2788TIP3   OH2 8306   6.947   2.977   4.483
 2788TIP3    H1 8307   6.963   3.066   4.451
 2788TIP3    H2 8308   6.861   2.982   4.525
 2789TIP3   OH2 8309   7.773   2.821   1.432
 2789TIP3    H1 8310   7.714   2.746   1.444
 2789TIP3    H2 8311   7.735   2.891   1.484
 2790TIP3   OH2 8312   0.858   3.612   4.692
 2790TIP3    H1 8313   0.928   3.565   4.648
 2790TIP3    H2 8314   0.895   3.635   4.778
 2791TIP3   OH2 8315   3.851   2.028   6.194
 2791TIP3    H1 8316   3.825   1.991   6.109
 2791TIP3    H2 8317   3.934   1.985   6.213
 2792TIP3   OH2 8318   3.679   1.511   0.035
 2792TIP3    H1 8319   3.729   1.583  -0.003
 2792TIP3    H2 8320   3.745   1.453   0.073
 2793TIP3   OH2 8321   6.847   0.939   4.791
 2793TIP3    H1 8322   6.918   0.891   4.834
 2793TIP3    H2 8323   6.807   0.990   4.861
 2794TIP3   OH2 8324   1.225   3.612   6.320
 2794TIP3    H1 8325   1.192   3.694   6.282
 2794TIP3    H2 8326   1.284   3.639   6.390
 2795TIP3   OH2 8327   8.033   4.440   5.851
 2795TIP3    H1 8328   8.066   4.351   5.844
 2795TIP3    H2 8329   8.019   4.467   5.760
 2796TIP3   OH2 8330   6.483   0.137   4.459
 2796TIP3    H1 8331   6.535   0.184   4.523
 2796TIP3    H2 8332   6.545   0.079   4.415
 2797TIP3   OH2 8333   4.269   4.249   4.933
 2797TIP3    H1 8334   4.280   4.154   4.931
 2797TIP3    H2 8335   4.249   4.272   4.842
 2798TIP3   OH2 8336   1.780   4.801   4.182
 2798TIP3    H1 8337   1.734   4.831   4.104
 2798TIP3    H2 8338   1.719   4.738   4.222
 2799TIP3   OH2 8339   5.977   3.992   0.865
 2799TIP3    H1 8340   5.991   3.904   0.828
 2799TIP3    H2 8341   6.063   4.019   0.896
 2800TIP3   OH2 8342   5.568   1.200   2.311
 2800TIP3    H1 8343   5.612   1.171   2.231
 2800TIP3    H2 8344   5.543   1.120   2.356
 2801TIP3   OH2 8345   6.839   5.589   1.802
 2801TIP3    H1 8346   6.823   5.556   1.891
 2801TIP3    H2 8347   6.799   5.523   1.745
 2802TIP3   OH2 8348   6.484   0.976   1.956
 2802TIP3    H1 8349   6.507   1.033   1.883
 2802TIP3    H2 8350   6.560   0.979   2.014
 2803TIP3   OH2 8351   4.501   1.386   2.171
 2803TIP3    H1 8352   4.562   1.362   2.102
 2803TIP3    H2 8353   4.470   1.302   2.206
 2804TIP3   OH2 8354   5.371   4.010   4.329
 2804TIP3    H1 8355   5.358   4.009   4.234
 2804TIP3    H2 8356   5.451   3.959   4.342
 2805TIP3   OH2 8357   2.559   2.504   4.733
 2805TIP3    H1 8358   2.635   2.562   4.722
 2805TIP3    H2 8359   2.517   2.503   4.647
 2806TIP3   OH2 8360   2.658   1.473   6.441
 2806TIP3    H1 8361   2.598   1.444   6.372
 2806TIP3    H2 8362   2.635   1.420   6.517
 2807TIP3   OH2 8363   2.914   0.991   0.175
 2807TIP3    H1 8364   3.007   0.975   0.190
 2807TIP3    H2 8365   2.892   0.936   0.100
 2808TIP3   OH2 8366   8.103   7.715   3.198
 2808TIP3    H1 8367   8.077   7.627   3.169
 2808TIP3    H2 8368   8.118   7.706   3.292
 2809TIP3   OH2 8369   1.146   6.443   5.931
 2809TIP3    H1 8370   1.181   6.360   5.900
 2809TIP3    H2 8371   1.112   6.486   5.853
 2810TIP3   OH2 8372   2.658   4.746   4.208
 2810TIP3    H1 8373   2.678   4.670   4.153
 2810TIP3    H2 8374   2.574   4.777   4.176
 2811TIP3   OH2 8375   4.998   7.092   0.158
 2811TIP3    H1 8376   4.961   7.162   0.104
 2811TIP3    H2 8377   5.023   7.024   0.095
 2812TIP3   OH2 8378   7.427   2.143   6.161
 2812TIP3    H1 8379   7.513   2.148   6.204
 2812TIP3    H2 8380   7.437   2.196   6.082
 2813TIP3   OH2 8381   7.055   1.611   6.586
 2813TIP3    H1 8382   7.047   1.677   6.517
 2813TIP3    H2 8383   7.091   1.534   6.542
 2814TIP3   OH2 8384   6.141   6.608   2.488
 2814TIP3    H1 8385   6.075   6.564   2.434
 2814TIP3    H2 8386   6.223   6.594   2.442
 2815TIP3   OH2 8387   0.100   7.201   0.708
 2815TIP3    H1 8388   0.047   7.200   0.628
 2815TIP3    H2 8389   0.179   7.152   0.684
 2816TIP3   OH2 8390   3.930   4.016   6.347
 2816TIP3    H1 8391   3.976   3.958   6.286
 2816TIP3    H2 8392   3.999   4.071   6.386
 2817TIP3   OH2 8393   6.142   2.077   5.234
 2817TIP3    H1 8394   6.137   2.172   5.230
 2817TIP3    H2 8395   6.117   2.055   5.324
 2818TIP3   OH2 8396   6.972   0.352   0.723
 2818TIP3    H1 8397   6.976   0.270   0.771
 2818TIP3    H2 8398   6.908   0.405   0.770
 2819TIP3   OH2 8399   6.145   6.557   1.482
 2819TIP3    H1 8400   6.130   6.629   1.543
 2819TIP3    H2 8401   6.226   6.517   1.512
 2820TIP3   OH2 8402   0.197   0.731   3.101
 2820TIP3    H1 8403   0.201   0.827   3.097
 2820TIP3    H2 8404   0.257   0.702   3.033
 2821TIP3   OH2 8405   5.400   5.242   6.706
 2821TIP3    H1 8406   5.427   5.332   6.685
 2821TIP3    H2 8407   5.446   5.222   6.787
 2822TIP3   OH2 8408   2.365   0.620   5.995
 2822TIP3    H1 8409   2.298   0.566   6.037
 2822TIP3    H2 8410   2.425   0.643   6.067
 2823TIP3   OH2 8411   6.208   3.171   3.950
 2823TIP3    H1 8412   6.118   3.150   3.926
 2823TIP3    H2 8413   6.260   3.098   3.917
 2824TIP3   OH2 8414   5.788   5.461   6.038
 2824TIP3    H1 8415   5.703   5.504   6.033
 2824TIP3    H2 8416   5.851   5.530   6.019
 2825TIP3   OH2 8417   3.465   7.387   0.590
 2825TIP3    H1 8418   3.481   7.320   0.657
 2825TIP3    H2 8419   3.515   7.463   0.620
 2826TIP3   OH2 8420   4.007   0.445   4.785
 2826TIP3    H1 8421   4.086   0.489   4.817
 2826TIP3    H2 8422   3.943   0.515   4.773
 2827TIP3   OH2 8423   8.252   5.743   4.349
 2827TIP3    H1 8424   8.178   5.789   4.310
 2827TIP3    H2 8425   8.329   5.786   4.311
 2828TIP3   OH2 8426   8.127   2.116   0.863
 2828TIP3    H1 8427   8.032   2.104   0.867
 2828TIP3    H2 8428   8.140   2.209   0.876
 2829TIP3   OH2 8429   2.808   2.884   0.148
 2829TIP3    H1 8430   2.735   2.834   0.185
 2829TIP3    H2 8431   2.886   2.834   0.171
 2830TIP3   OH2 8432   7.184   3.538   4.987
 2830TIP3    H1 8433   7.221   3.474   5.047
 2830TIP3    H2 8434   7.129   3.593   5.041
 2831TIP3   OH2 8435   3.799   0.233   6.500
 2831TIP3    H1 8436   3.811   0.255   6.408
 2831TIP3    H2 8437   3.715   0.186   6.503
 2832TIP3   OH2 8438   4.176   4.117   4.023
 2832TIP3    H1 8439   4.264   4.099   4.055
 2832TIP3    H2 8440   4.155   4.042   3.967
 2833TIP3   OH2 8441  -0.002   4.064   4.912
 2833TIP3    H1 8442   0.074   4.085   4.966
 2833TIP3    H2 8443   0.036   4.026   4.833
 2834TIP3   OH2 8444   6.293   5.888   3.818
 2834TIP3    H1 8445   6.231   5.936   3.762
 2834TIP3    H2 8446   6.332   5.823   3.761
 2835TIP3   OH2 8447   4.842   0.238   4.325
 2835TIP3    H1 8448   4.821   0.331   4.329
 2835TIP3    H2 8449   4.781   0.203   4.260
 2836TIP3   OH2 8450   3.372   3.746   1.663
 2836TIP3    H1 8451   3.444   3.808   1.668
 2836TIP3    H2 8452   3.382   3.691   1.741
 2837TIP3   OH2 8453   4.819   7.360   5.440
 2837TIP3    H1 8454   4.902   7.379   5.483
 2837TIP3    H2 8455   4.794   7.274   5.475
 2838TIP3   OH2 8456   0.693   5.616   4.539
 2838TIP3    H1 8457   0.643   5.695   4.558
 2838TIP3    H2 8458   0.675   5.558   4.613
 2839TIP3   OH2 8459   1.561   1.699   1.220
 2839TIP3    H1 8460   1.503   1.762   1.177
 2839TIP3    H2 8461   1.642   1.748   1.236
 2840TIP3   OH2 8462   2.890   0.060   4.264
 2840TIP3    H1 8463   2.936   0.002   4.324
 2840TIP3    H2 8464   2.948   0.067   4.188
 2841TIP3   OH2 8465   2.345   3.120   6.268
 2841TIP3    H1 8466   2.250   3.106   6.265
 2841TIP3    H2 8467   2.354   3.214   6.283
 2842TIP3   OH2 8468   7.500   4.434   6.029
 2842TIP3    H1 8469   7.526   4.518   6.067
 2842TIP3    H2 8470   7.548   4.429   5.947
 2843TIP3   OH2 8471   4.989   0.780   3.108
 2843TIP3    H1 8472   4.941   0.709   3.152
 2843TIP3    H2 8473   4.947   0.786   3.021
 2844TIP3   OH2 8474   3.908   3.321   5.178
 2844TIP3    H1 8475   3.997   3.292   5.197
 2844TIP3    H2 8476   3.851   3.252   5.213
 2845TIP3   OH2 8477   5.532   5.433   5.667
 2845TIP3    H1 8478   5.482   5.474   5.737
 2845TIP3    H2 8479   5.467   5.387   5.614
 2846TIP3   OH2 8480   7.558   5.440   4.333
 2846TIP3    H1 8481   7.642   5.423   4.376
 2846TIP3    H2 8482   7.581   5.490   4.255
 2847TIP3   OH2 8483   2.060   3.973   5.595
 2847TIP3    H1 8484   2.142   3.976   5.547
 2847TIP3    H2 8485   2.021   4.059   5.582
 2848TIP3   OH2 8486   5.248   7.081   2.212
 2848TIP3    H1 8487   5.156   7.055   2.208
 2848TIP3    H2 8488   5.295   6.999   2.225
 2849TIP3   OH2 8489   2.221   0.776   5.798
 2849TIP3    H1 8490   2.288   0.834   5.761
 2849TIP3    H2 8491   2.265   0.731   5.870
 2850TIP3   OH2 8492   8.139   1.770   3.648
 2850TIP3    H1 8493   8.206   1.770   3.716
 2850TIP3    H2 8494   8.056   1.774   3.697
 2851TIP3   OH2 8495   2.245   7.194   6.749
 2851TIP3    H1 8496   2.219   7.229   6.663
 2851TIP3    H2 8497   2.323   7.142   6.731
 2852TIP3   OH2 8498   6.394   2.998   0.160
 2852TIP3    H1 8499   6.331   2.926   0.166
 2852TIP3    H2 8500   6.397   3.034   0.249
 2853TIP3   OH2 8501   6.977   3.560   6.166
 2853TIP3    H1 8502   6.966   3.510   6.246
 2853TIP3    H2 8503   7.057   3.610   6.179
 2854TIP3   OH2 8504   4.385   2.730   4.484
 2854TIP3    H1 8505   4.329   2.780   4.544
 2854TIP3    H2 8506   4.325   2.678   4.432
 2855TIP3   OH2 8507   7.913   3.558   0.484
 2855TIP3    H1 8508   7.937   3.594   0.570
 2855TIP3    H2 8509   7.966   3.608   0.422
 2856TIP3   OH2 8510   3.970   6.492   0.418
 2856TIP3    H1 8511   4.056   6.519   0.452
 2856TIP3    H2 8512   3.986   6.477   0.325
 2857TIP3   OH2 8513   2.391   7.553   0.627
 2857TIP3    H1 8514   2.362   7.557   0.535
 2857TIP3    H2 8515   2.485   7.536   0.622
 2858TIP3   OH2 8516   7.228   7.512   0.892
 2858TIP3    H1 8517   7.239   7.417   0.883
 2858TIP3    H2 8518   7.140   7.523   0.928
 2859TIP3   OH2 8519   2.729   3.436   6.085
 2859TIP3    H1 8520   2.692   3.439   6.173
 2859TIP3    H2 8521   2.732   3.343   6.063
 2860TIP3   OH2 8522   6.378   5.666   5.852
 2860TIP3    H1 8523   6.410   5.590   5.803
 2860TIP3    H2 8524   6.394   5.644   5.944
 2861TIP3   OH2 8525   0.605   6.259   4.486
 2861TIP3    H1 8526   0.528   6.218   4.449
 2861TIP3    H2 8527   0.616   6.219   4.572
 2862TIP3   OH2 8528   7.264   5.748   1.366
 2862TIP3    H1 8529   7.286   5.779   1.278
 2862TIP3    H2 8530   7.263   5.828   1.419
 2863TIP3   OH2 8531   7.949   7.119   2.249
 2863TIP3    H1 8532   7.854   7.109   2.247
 2863TIP3    H2 8533   7.964   7.199   2.299
 2864TIP3   OH2 8534   0.169   4.371   4.551
 2864TIP3    H1 8535   0.256   4.333   4.555
 2864TIP3    H2 8536   0.110   4.300   4.577
 2865TIP3   OH2 8537   1.574   1.014   6.284
 2865TIP3    H1 8538   1.572   1.047   6.194
 2865TIP3    H2 8539   1.664   0.986   6.298
 2866TIP3   OH2 8540   7.050   7.408   5.442
 2866TIP3    H1 8541   7.131   7.460   5.449
 2866TIP3    H2 8542   7.080   7.317   5.448
 2867TIP3   OH2 8543   7.750   5.559   6.238
 2867TIP3    H1 8544   7.690   5.625   6.204
 2867TIP3    H2 8545   7.701   5.477   6.233
 2868TIP3   OH2 8546   5.257   6.312   2.960
 2868TIP3    H1 8547   5.280   6.254   3.033
 2868TIP3    H2 8548   5.238   6.252   2.888
 2869TIP3   OH2 8549   5.313   0.972   0.286
 2869TIP3    H1 8550   5.406   0.955   0.271
 2869TIP3    H2 8551   5.276   0.986   0.198
 2870TIP3   OH2 8552   7.506   3.623   3.573
 2870TIP3    H1 8553   7.589   3.648   3.613
 2870TIP3    H2 8554   7.516   3.531   3.551
 2871TIP3   OH2 8555   4.201   0.556   1.068
 2871TIP3    H1 8556   4.170   0.565   1.158
 2871TIP3    H2 8557   4.276   0.615   1.062
 2872TIP3   OH2 8558   6.677   0.000   2.971
 2872TIP3    H1 8559   6.593   0.018   2.928
 2872TIP3    H2 8560   6.656  -0.065   3.039
 2873TIP3   OH2 8561   7.687   4.365   5.261
 2873TIP3    H1 8562   7.731   4.407   5.187
 2873TIP3    H2 8563   7.595   4.363   5.237
 2874TIP3   OH2 8564   7.932   0.537   1.114
 2874TIP3    H1 8565   7.932   0.592   1.035
 2874TIP3    H2 8566   7.889   0.590   1.180
 2875TIP3   OH2 8567   5.838   0.952   4.898
 2875TIP3    H1 8568   5.824   1.043   4.870
 2875TIP3    H2 8569   5.754   0.909   4.885
 2876TIP3   OH2 8570   1.218   5.152   2.955
 2876TIP3    H1 8571   1.243   5.229   3.006
 2876TIP3    H2 8572   1.137   5.121   2.996
 2877TIP3   OH2 8573   1.239   5.325   1.593
 2877TIP3    H1 8574   1.296   5.325   1.517
 2877TIP3    H2 8575   1.198   5.411   1.592
 2878TIP3   OH2 8576   1.500   2.185   1.153
 2878TIP3    H1 8577   1.468   2.148   1.235
 2878TIP3    H2 8578   1.586   2.144   1.140
 2879TIP3   OH2 8579   6.467   3.267   1.476
 2879TIP3    H1 8580   6.536   3.286   1.540
 2879TIP3    H2 8581   6.397   3.227   1.526
 2880TIP3   OH2 8582   3.396   5.396   5.750
 2880TIP3    H1 8583   3.329   5.341   5.709
 2880TIP3    H2 8584   3.465   5.403   5.684
 2881TIP3   OH2 8585   5.646   0.836   4.731
 2881TIP3    H1 8586   5.685   0.771   4.672
 2881TIP3    H2 8587   5.553   0.837   4.707
 2882TIP3   OH2 8588   1.136   5.797   0.431
 2882TIP3    H1 8589   1.042   5.811   0.446
 2882TIP3    H2 8590   1.175   5.803   0.518
 2883TIP3   OH2 8591   4.484   5.293   0.967
 2883TIP3    H1 8592   4.464   5.206   0.932
 2883TIP3    H2 8593   4.408   5.314   1.022
 2884TIP3   OH2 8594   6.968   7.346   4.521
 2884TIP3    H1 8595   6.927   7.303   4.446
 2884TIP3    H2 8596   7.007   7.426   4.485
 2885TIP3   OH2 8597   0.090   1.130   2.281
 2885TIP3    H1 8598   0.145   1.201   2.314
 2885TIP3    H2 8599   0.153   1.062   2.256
 2886TIP3   OH2 8600   3.251   1.394   4.424
 2886TIP3    H1 8601   3.289   1.480   4.409
 2886TIP3    H2 8602   3.158   1.405   4.404
 2887TIP3   OH2 8603   8.024   3.347   0.869
 2887TIP3    H1 8604   7.928   3.353   0.862
 2887TIP3    H2 8605   8.044   3.379   0.957
 2888TIP3   OH2 8606   1.199   2.404   5.049
 2888TIP3    H1 8607   1.285   2.444   5.059
 2888TIP3    H2 8608   1.177   2.416   4.956
 2889TIP3   OH2 8609   5.624   0.808   1.842
 2889TIP3    H1 8610   5.706   0.794   1.793
 2889TIP3    H2 8611   5.653   0.826   1.931
 2890TIP3   OH2 8612   1.882   5.211   0.840
 2890TIP3    H1 8613   1.851   5.271   0.773
 2890TIP3    H2 8614   1.834   5.237   0.919
 2891TIP3   OH2 8615   3.070   5.128   6.523
 2891TIP3    H1 8616   3.055   5.192   6.453
 2891TIP3    H2 8617   3.091   5.180   6.600
 2892TIP3   OH2 8618   1.524   2.073   2.904
 2892TIP3    H1 8619   1.496   2.075   2.995
 2892TIP3    H2 8620   1.605   2.023   2.904
 2893TIP3   OH2 8621   3.635   3.960   6.049
 2893TIP3    H1 8622   3.559   3.908   6.075
 2893TIP3    H2 8623   3.634   3.957   5.954
 2894TIP3   OH2 8624   5.284   5.429   4.028
 2894TIP3    H1 8625   5.305   5.361   3.964
 2894TIP3    H2 8626   5.355   5.492   4.021
 2895TIP3   OH2 8627   0.021   1.396   3.003
 2895TIP3    H1 8628   0.042   1.406   3.096
 2895TIP3    H2 8629   0.104   1.370   2.963
 2896TIP3   OH2 8630   6.952   5.464   5.000
 2896TIP3    H1 8631   6.978   5.428   5.085
 2896TIP3    H2 8632   6.902   5.542   5.021
 2897TIP3   OH2 8633   3.793   5.348   2.075
 2897TIP3    H1 8634   3.715   5.399   2.095
 2897TIP3    H2 8635   3.794   5.278   2.140
 2898TIP3   OH2 8636   7.075   5.249   4.703
 2898TIP3    H1 8637   6.991   5.232   4.747
 2898TIP3    H2 8638   7.082   5.180   4.637
 2899TIP3   OH2 8639   1.090   3.034   3.164
 2899TIP3    H1 8640   1.053   3.094   3.228
 2899TIP3    H2 8641   1.018   3.015   3.104
 2900TIP3   OH2 8642   0.091   7.192   6.016
 2900TIP3    H1 8643   0.045   7.193   5.932
 2900TIP3    H2 8644   0.183   7.205   5.994
 2901TIP3   OH2 8645   5.245   6.492   4.062
 2901TIP3    H1 8646   5.278   6.458   4.145
 2901TIP3    H2 8647   5.291   6.575   4.049
 2902TIP3   OH2 8648   5.232   0.810   2.426
 2902TIP3    H1 8649   5.151   0.848   2.459
 2902TIP3    H2 8650   5.204   0.728   2.384
 2903TIP3   OH2 8651   6.196   6.007   3.553
 2903TIP3    H1 8652   6.153   5.932   3.511
 2903TIP3    H2 8653   6.151   6.083   3.516
 2904TIP3   OH2 8654   2.946   1.013   6.078
 2904TIP3    H1 8655   3.011   0.970   6.133
 2904TIP3    H2 8656   2.955   0.973   5.992
 2905TIP3   OH2 8657   3.196   5.577   1.711
 2905TIP3    H1 8658   3.105   5.546   1.716
 2905TIP3    H2 8659   3.247   5.509   1.754
 2906TIP3   OH2 8660   3.040   5.990   4.297
 2906TIP3    H1 8661   3.039   5.951   4.210
 2906TIP3    H2 8662   3.091   6.070   4.287
 2907TIP3   OH2 8663   8.014   6.681   5.663
 2907TIP3    H1 8664   7.921   6.695   5.679
 2907TIP3    H2 8665   8.051   6.663   5.750
 2908TIP3   OH2 8666   2.457   5.191   3.001
 2908TIP3    H1 8667   2.499   5.143   2.930
 2908TIP3    H2 8668   2.439   5.277   2.964
 2909TIP3   OH2 8669   7.651   5.612   1.426
 2909TIP3    H1 8670   7.747   5.611   1.419
 2909TIP3    H2 8671   7.622   5.543   1.367
 2910TIP3   OH2 8672  -0.002   6.533   1.305
 2910TIP3    H1 8673  -0.011   6.442   1.332
 2910TIP3    H2 8674   0.015   6.528   1.211
 2911TIP3   OH2 8675   2.639   0.677   3.864
 2911TIP3    H1 8676   2.552   0.642   3.883
 2911TIP3    H2 8677   2.677   0.615   3.802
 2912TIP3   OH2 8678   4.324   0.566   4.712
 2912TIP3    H1 8679   4.248   0.613   4.678
 2912TIP3    H2 8680   4.313   0.568   4.807
 2913TIP3   OH2 8681   6.124   6.170   1.741
 2913TIP3    H1 8682   6.044   6.167   1.793
 2913TIP3    H2 8683   6.187   6.218   1.795
 2914TIP3   OH2 8684   6.098   4.516   3.914
 2914TIP3    H1 8685   6.071   4.585   3.853
 2914TIP3    H2 8686   6.109   4.560   3.998
 2915TIP3   OH2 8687   1.475   4.548   0.928
 2915TIP3    H1 8688   1.524   4.527   0.849
 2915TIP3    H2 8689   1.527   4.614   0.973
 2916TIP3   OH2 8690   6.519   0.292   1.450
 2916TIP3    H1 8691   6.431   0.325   1.466
 2916TIP3    H2 8692   6.544   0.331   1.365
 2917TIP3   OH2 8693   3.862   4.461   5.427
 2917TIP3    H1 8694   3.871   4.552   5.456
 2917TIP3    H2 8695   3.830   4.468   5.337
 2918TIP3   OH2 8696   7.879   5.890   2.551
 2918TIP3    H1 8697   7.791   5.870   2.519
 2918TIP3    H2 8698   7.930   5.811   2.532
 2919TIP3   OH2 8699   3.167   7.196   5.866
 2919TIP3    H1 8700   3.145   7.289   5.865
 2919TIP3    H2 8701   3.218   7.182   5.787
 2920TIP3   OH2 8702   3.491   4.060   6.431
 2920TIP3    H1 8703   3.548   4.007   6.374
 2920TIP3    H2 8704   3.550   4.123   6.471
 2921TIP3   OH2 8705   6.346   2.491   5.022
 2921TIP3    H1 8706   6.401   2.542   4.962
 2921TIP3    H2 8707   6.266   2.473   4.972
 2922TIP3   OH2 8708   1.485   0.576   2.300
 2922TIP3    H1 8709   1.568   0.566   2.253
 2922TIP3    H2 8710   1.492   0.663   2.341
 2923TIP3   OH2 8711   2.081   6.542   0.325
 2923TIP3    H1 8712   1.986   6.557   0.327
 2923TIP3    H2 8713   2.116   6.617   0.278
 2924TIP3   OH2 8714   1.060   0.848   0.126
 2924TIP3    H1 8715   0.977   0.812   0.158
 2924TIP3    H2 8716   1.126   0.808   0.183
 2925TIP3   OH2 8717   0.875   1.400   0.919
 2925TIP3    H1 8718   0.949   1.413   0.978
 2925TIP3    H2 8719   0.815   1.344   0.968
 2926TIP3   OH2 8720   4.758   6.983   6.227
 2926TIP3    H1 8721   4.727   7.023   6.308
 2926TIP3    H2 8722   4.826   7.042   6.195
 2927TIP3   OH2 8723   0.728   1.265   0.736
 2927TIP3    H1 8724   0.738   1.170   0.747
 2927TIP3    H2 8725   0.765   1.302   0.817
 2928TIP3   OH2 8726   6.261   7.116   3.254
 2928TIP3    H1 8727   6.299   7.201   3.232
 2928TIP3    H2 8728   6.230   7.081   3.171
 2929TIP3   OH2 8729   3.862   0.865   4.013
 2929TIP3    H1 8730   3.788   0.923   4.026
 2929TIP3    H2 8731   3.929   0.895   4.075
 2930TIP3   OH2 8732   0.960   2.526   3.424
 2930TIP3    H1 8733   0.905   2.522   3.502
 2930TIP3    H2 8734   0.981   2.435   3.405
 2931TIP3   OH2 8735   7.247   1.982   1.301
 2931TIP3    H1 8736   7.154   2.001   1.313
 2931TIP3    H2 8737   7.250   1.914   1.234
 2932TIP3   OH2 8738   3.538   5.737   3.884
 2932TIP3    H1 8739   3.623   5.782   3.877
 2932TIP3    H2 8740   3.495   5.778   3.959
 2933TIP3   OH2 8741   0.485   2.567   5.531
 2933TIP3    H1 8742   0.518   2.649   5.493
 2933TIP3    H2 8743   0.398   2.556   5.493
 2934TIP3   OH2 8744   3.289   3.582   2.765
 2934TIP3    H1 8745   3.315   3.594   2.856
 2934TIP3    H2 8746   3.331   3.654   2.718
 2935TIP3   OH2 8747   2.958   5.688   0.895
 2935TIP3    H1 8748   2.871   5.695   0.856
 2935TIP3    H2 8749   3.003   5.623   0.840
 2936TIP3   OH2 8750   0.940   4.652   0.544
 2936TIP3    H1 8751   0.851   4.628   0.569
 2936TIP3    H2 8752   0.995   4.592   0.594
 2937TIP3   OH2 8753   2.670   5.858   2.285
 2937TIP3    H1 8754   2.733   5.794   2.319
 2937TIP3    H2 8755   2.721   5.938   2.272
 2938TIP3   OH2 8756   6.259   0.841   1.454
 2938TIP3    H1 8757   6.274   0.827   1.361
 2938TIP3    H2 8758   6.241   0.753   1.489
 2939TIP3   OH2 8759   8.340   2.159   1.240
 2939TIP3    H1 8760   8.288   2.098   1.187
 2939TIP3    H2 8761   8.286   2.177   1.317
 2940TIP3   OH2 8762   3.871   3.047   3.397
 2940TIP3    H1 8763   3.962   3.072   3.379
 2940TIP3    H2 8764   3.857   3.072   3.488
 2941TIP3   OH2 8765   7.725   3.847   3.558
 2941TIP3    H1 8766   7.659   3.897   3.510
 2941TIP3    H2 8767   7.767   3.793   3.491
 2942TIP3   OH2 8768   2.623   7.812   1.110
 2942TIP3    H1 8769   2.604   7.751   1.181
 2942TIP3    H2 8770   2.718   7.816   1.106
 2943TIP3   OH2 8771   1.380   3.446   1.195
 2943TIP3    H1 8772   1.365   3.500   1.117
 2943TIP3    H2 8773   1.296   3.448   1.241
 2944TIP3   OH2 8774   1.473   6.153   3.031
 2944TIP3    H1 8775   1.491   6.245   3.047
 2944TIP3    H2 8776   1.403   6.130   3.092
 2945TIP3   OH2 8777   3.662   7.743   1.042
 2945TIP3    H1 8778   3.578   7.725   1.000
 2945TIP3    H2 8779   3.705   7.805   0.984
 2946TIP3   OH2 8780   3.912   7.747   5.338
 2946TIP3    H1 8781   3.817   7.755   5.348
 2946TIP3    H2 8782   3.923   7.687   5.263
 2947TIP3   OH2 8783   5.828   1.968   4.121
 2947TIP3    H1 8784   5.924   1.977   4.117
 2947TIP3    H2 8785   5.803   1.950   4.030
 2948TIP3   OH2 8786   6.319   3.423   5.014
 2948TIP3    H1 8787   6.347   3.341   4.973
 2948TIP3    H2 8788   6.262   3.465   4.950
 2949TIP3   OH2 8789   7.236   2.265   1.112
 2949TIP3    H1 8790   7.177   2.190   1.120
 2949TIP3    H2 8791   7.251   2.274   1.018
 2950TIP3   OH2 8792   5.310   5.963   5.903
 2950TIP3    H1 8793   5.359   6.037   5.868
 2950TIP3    H2 8794   5.323   5.968   5.998
 2951TIP3   OH2 8795   2.337   2.412   0.855
 2951TIP3    H1 8796   2.365   2.484   0.912
 2951TIP3    H2 8797   2.284   2.356   0.912
 2952TIP3   OH2 8798   8.277   1.556   6.310
 2952TIP3    H1 8799   8.198   1.536   6.260
 2952TIP3    H2 8800   8.346   1.504   6.268
 2953TIP3   OH2 8801   1.362   7.450   5.433
 2953TIP3    H1 8802   1.389   7.481   5.347
 2953TIP3    H2 8803   1.392   7.519   5.493
 2954TIP3   OH2 8804   3.348   6.166   3.764
 2954TIP3    H1 8805   3.323   6.209   3.683
 2954TIP3    H2 8806   3.395   6.233   3.813
 2955TIP3   OH2 8807   8.281   3.764   5.442
 2955TIP3    H1 8808   8.195   3.722   5.437
 2955TIP3    H2 8809   8.340   3.704   5.398
 2956TIP3   OH2 8810   4.047   4.811   5.006
 2956TIP3    H1 8811   3.987   4.737   4.994
 2956TIP3    H2 8812   4.115   4.798   4.941
 2957TIP3   OH2 8813   5.263   1.953   5.175
 2957TIP3    H1 8814   5.346   1.958   5.128
 2957TIP3    H2 8815   5.242   1.860   5.179
 2958TIP3   OH2 8816   4.688   6.551   5.546
 2958TIP3    H1 8817   4.605   6.511   5.521
 2958TIP3    H2 8818   4.708   6.514   5.632
 2959TIP3   OH2 8819   3.461   4.562   5.625
 2959TIP3    H1 8820   3.441   4.512   5.704
 2959TIP3    H2 8821   3.542   4.608   5.646
 2960TIP3   OH2 8822   3.835   4.125   1.781
 2960TIP3    H1 8823   3.819   4.197   1.720
 2960TIP3    H2 8824   3.796   4.049   1.737
 2961TIP3   OH2 8825   1.704   3.322   3.526
 2961TIP3    H1 8826   1.740   3.411   3.533
 2961TIP3    H2 8827   1.618   3.327   3.566
 2962TIP3   OH2 8828   2.671   5.656   2.792
 2962TIP3    H1 8829   2.739   5.715   2.762
 2962TIP3    H2 8830   2.700   5.569   2.763
 2963TIP3   OH2 8831   0.477   5.885   1.197
 2963TIP3    H1 8832   0.390   5.892   1.237
 2963TIP3    H2 8833   0.463   5.911   1.106
 2964TIP3   OH2 8834   5.098   1.658   0.732
 2964TIP3    H1 8835   5.098   1.583   0.671
 2964TIP3    H2 8836   5.040   1.722   0.690
 2965TIP3   OH2 8837   2.554   4.473   1.590
 2965TIP3    H1 8838   2.627   4.438   1.539
 2965TIP3    H2 8839   2.476   4.452   1.538
 2966TIP3   OH2 8840   5.302   3.225   4.349
 2966TIP3    H1 8841   5.348   3.232   4.432
 2966TIP3    H2 8842   5.257   3.141   4.353
 2967TIP3   OH2 8843   3.135   6.632   2.648
 2967TIP3    H1 8844   3.138   6.549   2.599
 2967TIP3    H2 8845   3.183   6.614   2.729
 2968TIP3   OH2 8846   6.718   0.465   0.338
 2968TIP3    H1 8847   6.695   0.425   0.422
 2968TIP3    H2 8848   6.753   0.551   0.362
 2969TIP3   OH2 8849   5.143   2.221   6.087
 2969TIP3    H1 8850   5.201   2.295   6.102
 2969TIP3    H2 8851   5.153   2.166   6.165
 2970TIP3   OH2 8852   5.901  -0.045   3.939
 2970TIP3    H1 8853   5.883   0.023   3.875
 2970TIP3    H2 8854   5.860  -0.013   4.020
 2971TIP3   OH2 8855   0.310   7.505   5.136
 2971TIP3    H1 8856   0.234   7.540   5.088
 2971TIP3    H2 8857   0.300   7.541   5.224
 2972TIP3   OH2 8858   1.444   0.887   4.292
 2972TIP3    H1 8859   1.418   0.875   4.200
 2972TIP3    H2 8860   1.426   0.802   4.332
 2973TIP3   OH2 8861   2.032   3.863   1.472
 2973TIP3    H1 8862   2.107   3.806   1.485
 2973TIP3    H2 8863   2.069   3.949   1.456
 2974TIP3   OH2 8864   7.163   3.415   5.387
 2974TIP3    H1 8865   7.094   3.443   5.447
 2974TIP3    H2 8866   7.244   3.447   5.427
 2975TIP3   OH2 8867   2.995   3.957   6.752
 2975TIP3    H1 8868   2.984   3.865   6.727
 2975TIP3    H2 8869   3.087   3.965   6.775
 2976TIP3   OH2 8870   0.778   6.124   2.296
 2976TIP3    H1 8871   0.800   6.036   2.327
 2976TIP3    H2 8872   0.862   6.169   2.291
 2977TIP3   OH2 8873   5.981   0.645   3.072
 2977TIP3    H1 8874   5.887   0.629   3.083
 2977TIP3    H2 8875   6.001   0.606   2.986
 2978TIP3   OH2 8876   2.004   4.479   3.549
 2978TIP3    H1 8877   1.915   4.515   3.556
 2978TIP3    H2 8878   2.025   4.452   3.639
 2979TIP3   OH2 8879   3.348   6.292   1.871
 2979TIP3    H1 8880   3.367   6.232   1.800
 2979TIP3    H2 8881   3.345   6.237   1.950
 2980TIP3   OH2 8882   4.280   0.913   3.667
 2980TIP3    H1 8883   4.251   0.857   3.739
 2980TIP3    H2 8884   4.205   0.917   3.609
 2981TIP3   OH2 8885   3.526   7.082   2.530
 2981TIP3    H1 8886   3.466   7.033   2.587
 2981TIP3    H2 8887   3.613   7.062   2.565
 2982TIP3   OH2 8888   2.982   7.677   3.402
 2982TIP3    H1 8889   2.991   7.583   3.415
 2982TIP3    H2 8890   3.070   7.707   3.382
 2983TIP3   OH2 8891   0.128   6.874   4.103
 2983TIP3    H1 8892   0.059   6.907   4.160
 2983TIP3    H2 8893   0.204   6.861   4.161
 2984TIP3   OH2 8894   3.661   7.260   4.858
 2984TIP3    H1 8895   3.692   7.332   4.913
 2984TIP3    H2 8896   3.581   7.231   4.900
 2985TIP3   OH2 8897   0.187   6.874   0.396
 2985TIP3    H1 8898   0.273   6.871   0.439
 2985TIP3    H2 8899   0.124   6.868   0.467
 2986TIP3   OH2 8900   1.632   3.659   1.038
 2986TIP3    H1 8901   1.583   3.740   1.054
 2986TIP3    H2 8902   1.718   3.688   1.007
 2987TIP3   OH2 8903   4.815   7.355   0.004
 2987TIP3    H1 8904   4.816   7.432  -0.052
 2987TIP3    H2 8905   4.887   7.369   0.065
 2988TIP3   OH2 8906   0.145   3.070   6.290
 2988TIP3    H1 8907   0.172   3.144   6.345
 2988TIP3    H2 8908   0.208   3.000   6.311
 2989TIP3   OH2 8909   5.339   1.205   3.804
 2989TIP3    H1 8910   5.277   1.136   3.783
 2989TIP3    H2 8911   5.422   1.176   3.765
 2990TIP3   OH2 8912   4.721   6.598   0.225
 2990TIP3    H1 8913   4.735   6.522   0.168
 2990TIP3    H2 8914   4.659   6.653   0.178
 2991TIP3   OH2 8915   1.452   5.238   0.692
 2991TIP3    H1 8916   1.431   5.249   0.599
 2991TIP3    H2 8917   1.548   5.243   0.695
 2992TIP3   OH2 8918   2.140   3.563   1.027
 2992TIP3    H1 8919   2.116   3.474   1.051
 2992TIP3    H2 8920   2.056   3.610   1.022
 2993TIP3   OH2 8921   8.064   2.538   6.667
 2993TIP3    H1 8922   8.066   2.616   6.723
 2993TIP3    H2 8923   8.041   2.467   6.727
 2994TIP3   OH2 8924   7.546   7.622   3.217
 2994TIP3    H1 8925   7.482   7.589   3.280
 2994TIP3    H2 8926   7.529   7.571   3.138
 2995TIP3   OH2 8927   2.751   1.424   3.814
 2995TIP3    H1 8928   2.808   1.357   3.851
 2995TIP3    H2 8929   2.810   1.480   3.764
 2996TIP3   OH2 8930   6.682   2.281   3.300
 2996TIP3    H1 8931   6.614   2.307   3.362
 2996TIP3    H2 8932   6.678   2.185   3.299
 2997TIP3   OH2 8933   4.395   5.303   0.479
 2997TIP3    H1 8934   4.422   5.266   0.395
 2997TIP3    H2 8935   4.425   5.239   0.544
 2998TIP3   OH2 8936   3.463   0.961   5.403
 2998TIP3    H1 8937   3.463   1.055   5.384
 2998TIP3    H2 8938   3.512   0.952   5.485
 2999TIP3   OH2 8939   0.127   0.325   1.826
 2999TIP3    H1 8940   0.096   0.372   1.904
 2999TIP3    H2 8941   0.048   0.314   1.772
 3000TIP3   OH2 8942   7.696   0.469   3.601
 3000TIP3    H1 8943   7.704   0.564   3.594
 3000TIP3    H2 8944   7.781   0.436   3.570
 3001TIP3   OH2 8945   0.336   2.499   6.712
 3001TIP3    H1 8946   0.240   2.502   6.719
 3001TIP3    H2 8947   0.362   2.591   6.703
 3002TIP3   OH2 8948   4.037   4.998   2.342
 3002TIP3    H1 8949   3.972   4.939   2.306
 3002TIP3    H2 8950   4.119   4.947   2.341
 3003TIP3   OH2 8951   4.815   3.063   0.748
 3003TIP3    H1 8952   4.900   3.086   0.786
 3003TIP3    H2 8953   4.766   3.146   0.748
 3004TIP3   OH2 8954   4.924   5.502   1.444
 3004TIP3    H1 8955   4.888   5.591   1.447
 3004TIP3    H2 8956   4.849   5.447   1.422
 3005TIP3   OH2 8957   7.338   1.861   6.569
 3005TIP3    H1 8958   7.242   1.854   6.568
 3005TIP3    H2 8959   7.364   1.839   6.480
 3006TIP3   OH2 8960   3.132   4.443   2.231
 3006TIP3    H1 8961   3.077   4.366   2.221
 3006TIP3    H2 8962   3.212   4.410   2.273
 3007TIP3   OH2 8963   3.552   0.409   0.248
 3007TIP3    H1 8964   3.558   0.351   0.324
 3007TIP3    H2 8965   3.568   0.497   0.283
 3008TIP3   OH2 8966   5.879   1.758   0.314
 3008TIP3    H1 8967   5.889   1.664   0.331
 3008TIP3    H2 8968   5.908   1.800   0.395
 3009TIP3   OH2 8969   7.660   5.889   2.775
 3009TIP3    H1 8970   7.648   5.891   2.870
 3009TIP3    H2 8971   7.749   5.919   2.761
 3010TIP3   OH2 8972   4.772   6.685   1.819
 3010TIP3    H1 8973   4.685   6.691   1.779
 3010TIP3    H2 8974   4.754   6.665   1.911
 3011TIP3   OH2 8975   6.456   4.352   1.341
 3011TIP3    H1 8976   6.495   4.430   1.302
 3011TIP3    H2 8977   6.363   4.358   1.319
 3012TIP3   OH2 8978   2.993   1.500   1.345
 3012TIP3    H1 8979   3.005   1.537   1.258
 3012TIP3    H2 8980   2.904   1.464   1.343
 3013TIP3   OH2 8981   2.119   6.561   0.773
 3013TIP3    H1 8982   2.204   6.518   0.779
 3013TIP3    H2 8983   2.057   6.497   0.809
 3014TIP3   OH2 8984   2.932   1.366   2.428
 3014TIP3    H1 8985   3.015   1.358   2.382
 3014TIP3    H2 8986   2.935   1.452   2.470
 3015TIP3   OH2 8987   7.004   0.828   2.466
 3015TIP3    H1 8988   6.987   0.795   2.378
 3015TIP3    H2 8989   7.037   0.751   2.514
 3016TIP3   OH2 8990   2.218   3.542   5.990
 3016TIP3    H1 8991   2.169   3.473   6.034
 3016TIP3    H2 8992   2.298   3.551   6.041
 3017TIP3   OH2 8993   7.136   0.461   4.514
 3017TIP3    H1 8994   7.190   0.473   4.592
 3017TIP3    H2 8995   7.192   0.412   4.453
 3018TIP3   OH2 8996   1.668   2.011   1.497
 3018TIP3    H1 8997   1.600   1.975   1.554
 3018TIP3    H2 8998   1.660   2.106   1.507
 3019TIP3   OH2 8999   5.622   4.716   4.301
 3019TIP3    H1 9000   5.703   4.684   4.262
 3019TIP3    H2 9001   5.637   4.711   4.396
 3020TIP3   OH2 9002   1.152   4.795   5.315
 3020TIP3    H1 9003   1.175   4.886   5.297
 3020TIP3    H2 9004   1.070   4.781   5.268
 3021TIP3   OH2 9005   5.712   7.783   1.217
 3021TIP3    H1 9006   5.692   7.697   1.255
 3021TIP3    H2 9007   5.644   7.841   1.251
 3022TIP3   OH2 9008   7.710   4.098   2.298
 3022TIP3    H1 9009   7.653   4.171   2.319
 3022TIP3    H2 9010   7.792   4.139   2.269
 3023TIP3   OH2 9011   0.601   1.466   2.118
 3023TIP3    H1 9012   0.651   1.411   2.058
 3023TIP3    H2 9013   0.520   1.416   2.134
 3024TIP3   OH2 9014   0.292   4.474   0.363
 3024TIP3    H1 9015   0.294   4.460   0.457
 3024TIP3    H2 9016   0.290   4.570   0.352
 3025TIP3   OH2 9017   6.882   0.845   4.248
 3025TIP3    H1 9018   6.818   0.821   4.180
 3025TIP3    H2 9019   6.954   0.784   4.235
 3026TIP3   OH2 9020   0.639   5.372   1.828
 3026TIP3    H1 9021   0.714   5.425   1.800
 3026TIP3    H2 9022   0.581   5.435   1.871
 3027TIP3   OH2 9023   6.540   2.755   3.842
 3027TIP3    H1 9024   6.615   2.806   3.813
 3027TIP3    H2 9025   6.578   2.678   3.884
 3028TIP3   OH2 9026   1.776   2.855   2.104
 3028TIP3    H1 9027   1.702   2.901   2.065
 3028TIP3    H2 9028   1.769   2.871   2.198
 3029TIP3   OH2 9029   5.502   3.350   3.021
 3029TIP3    H1 9030   5.573   3.326   2.961
 3029TIP3    H2 9031   5.448   3.412   2.971
 3030TIP3   OH2 9032   2.944   0.029   3.604
 3030TIP3    H1 9033   2.912  -0.055   3.636
 3030TIP3    H2 9034   3.039   0.022   3.609
 3031TIP3   OH2 9035   4.317   7.332   3.914
 3031TIP3    H1 9036   4.362   7.290   3.840
 3031TIP3    H2 9037   4.308   7.261   3.978
 3032TIP3   OH2 9038   6.986   1.698   4.915
 3032TIP3    H1 9039   7.022   1.640   4.981
 3032TIP3    H2 9040   7.016   1.662   4.831
 3033TIP3   OH2 9041   8.165   2.266   6.155
 3033TIP3    H1 9042   8.180   2.254   6.249
 3033TIP3    H2 9043   8.082   2.221   6.139
 3034TIP3   OH2 9044   2.351   4.908   2.924
 3034TIP3    H1 9045   2.423   4.862   2.968
 3034TIP3    H2 9046   2.372   4.900   2.831
 3035TIP3   OH2 9047   2.197   0.386   2.244
 3035TIP3    H1 9048   2.285   0.392   2.281
 3035TIP3    H2 9049   2.151   0.326   2.303
 3036TIP3   OH2 9050   4.584   2.770   4.257
 3036TIP3    H1 9051   4.609   2.742   4.345
 3036TIP3    H2 9052   4.623   2.857   4.248
 3037TIP3   OH2 9053   2.344   4.735   1.258
 3037TIP3    H1 9054   2.417   4.726   1.320
 3037TIP3    H2 9055   2.295   4.654   1.269
 3038TIP3   OH2 9056   0.734   3.341   2.899
 3038TIP3    H1 9057   0.738   3.337   2.994
 3038TIP3    H2 9058   0.645   3.313   2.877
 3039TIP3   OH2 9059   0.962   3.269   0.170
 3039TIP3    H1 9060   0.882   3.224   0.142
 3039TIP3    H2 9061   0.949   3.360   0.144
 3040TIP3   OH2 9062   3.117   2.887   3.001
 3040TIP3    H1 9063   3.197   2.836   2.991
 3040TIP3    H2 9064   3.048   2.821   3.009
 3041TIP3   OH2 9065   4.321   1.151   2.915
 3041TIP3    H1 9066   4.285   1.206   2.984
 3041TIP3    H2 9067   4.265   1.169   2.839
 3042TIP3   OH2 9068   0.727   6.493   0.974
 3042TIP3    H1 9069   0.711   6.432   1.046
 3042TIP3    H2 9070   0.640   6.510   0.938
 3043TIP3   OH2 9071   6.807   0.254   0.516
 3043TIP3    H1 9072   6.846   0.258   0.429
 3043TIP3    H2 9073   6.881   0.264   0.576
 3044TIP3   OH2 9074   5.381   0.393   3.321
 3044TIP3    H1 9075   5.369   0.336   3.244
 3044TIP3    H2 9076   5.301   0.444   3.326
 3045TIP3   OH2 9077   1.696   4.533   0.261
 3045TIP3    H1 9078   1.734   4.520   0.174
 3045TIP3    H2 9079   1.603   4.519   0.249
 3046TIP3   OH2 9080   7.171   1.089   5.878
 3046TIP3    H1 9081   7.195   1.095   5.785
 3046TIP3    H2 9082   7.244   1.130   5.924
 3047TIP3   OH2 9083   8.006   2.891   4.646
 3047TIP3    H1 9084   8.050   2.974   4.663
 3047TIP3    H2 9085   7.919   2.917   4.614
 3048TIP3   OH2 9086   0.889   3.368   1.081
 3048TIP3    H1 9087   0.858   3.421   1.008
 3048TIP3    H2 9088   0.816   3.309   1.100
 3049TIP3   OH2 9089   8.139   2.073   1.913
 3049TIP3    H1 9090   8.224   2.063   1.956
 3049TIP3    H2 9091   8.104   1.984   1.908
 3050TIP3   OH2 9092   5.524   7.377   1.512
 3050TIP3    H1 9093   5.439   7.370   1.555
 3050TIP3    H2 9094   5.588   7.367   1.583
 3051TIP3   OH2 9095   3.698   3.884   6.378
 3051TIP3    H1 9096   3.750   3.809   6.408
 3051TIP3    H2 9097   3.762   3.953   6.361
 3052TIP3   OH2 9098   6.700   4.648   3.713
 3052TIP3    H1 9099   6.656   4.627   3.795
 3052TIP3    H2 9100   6.647   4.607   3.645
 3053TIP3   OH2 9101   4.391   3.921   1.563
 3053TIP3    H1 9102   4.320   3.970   1.521
 3053TIP3    H2 9103   4.347   3.860   1.621
 3054TIP3   OH2 9104   6.702   6.301   1.409
 3054TIP3    H1 9105   6.726   6.219   1.365
 3054TIP3    H2 9106   6.780   6.356   1.400
 3055TIP3   OH2 9107   4.995   4.144   6.639
 3055TIP3    H1 9108   5.021   4.097   6.719
 3055TIP3    H2 9109   4.982   4.234   6.668
 3056TIP3   OH2 9110   3.539   0.079   2.921
 3056TIP3    H1 9111   3.463   0.137   2.921
 3056TIP3    H2 9112   3.610   0.133   2.956
 3057TIP3   OH2 9113   3.209   5.539   5.415
 3057TIP3    H1 9114   3.129   5.554   5.364
 3057TIP3    H2 9115   3.276   5.588   5.369
 3058TIP3   OH2 9116   4.190   7.096   4.731
 3058TIP3    H1 9117   4.125   7.156   4.693
 3058TIP3    H2 9118   4.274   7.133   4.706
 3059TIP3   OH2 9119   1.597   3.928   2.548
 3059TIP3    H1 9120   1.524   3.867   2.542
 3059TIP3    H2 9121   1.590   3.967   2.636
 3060TIP3   OH2 9122   3.629   4.923   4.419
 3060TIP3    H1 9123   3.713   4.968   4.420
 3060TIP3    H2 9124   3.641   4.851   4.357
 3061TIP3   OH2 9125   1.632   5.440   2.910
 3061TIP3    H1 9126   1.571   5.396   2.970
 3061TIP3    H2 9127   1.576   5.490   2.851
 3062TIP3   OH2 9128   2.024   0.603   1.080
 3062TIP3    H1 9129   2.012   0.530   1.019
 3062TIP3    H2 9130   1.935   0.636   1.095
 3063TIP3   OH2 9131   7.837   2.443   4.773
 3063TIP3    H1 9132   7.816   2.493   4.852
 3063TIP3    H2 9133   7.909   2.386   4.800
 3064TIP3   OH2 9134   4.936   1.940   3.965
 3064TIP3    H1 9135   4.925   1.924   3.872
 3064TIP3    H2 9136   4.880   1.874   4.007
 3065TIP3   OH2 9137   8.226   1.712   3.384
 3065TIP3    H1 9138   8.169   1.746   3.453
 3065TIP3    H2 9139   8.248   1.789   3.331
 3066TIP3   OH2 9140   1.004   0.269   5.372
 3066TIP3    H1 9141   0.957   0.187   5.384
 3066TIP3    H2 9142   1.083   0.261   5.425
 3067TIP3   OH2 9143   4.553   1.264   4.315
 3067TIP3    H1 9144   4.574   1.247   4.223
 3067TIP3    H2 9145   4.527   1.180   4.350
 3068TIP3   OH2 9146   7.580   4.180   2.672
 3068TIP3    H1 9147   7.512   4.202   2.736
 3068TIP3    H2 9148   7.660   4.171   2.724
 3069TIP3   OH2 9149   7.784   2.029   3.185
 3069TIP3    H1 9150   7.783   2.125   3.191
 3069TIP3    H2 9151   7.828   2.011   3.102
 3070TIP3   OH2 9152   2.931   5.412   4.249
 3070TIP3    H1 9153   2.848   5.414   4.297
 3070TIP3    H2 9154   2.947   5.319   4.233
 3071TIP3   OH2 9155   1.198   0.652   0.910
 3071TIP3    H1 9156   1.255   0.704   0.967
 3071TIP3    H2 9157   1.252   0.632   0.834
 3072TIP3   OH2 9158   4.531   4.378   5.719
 3072TIP3    H1 9159   4.598   4.442   5.739
 3072TIP3    H2 9160   4.478   4.372   5.799
 3073TIP3   OH2 9161   6.080   6.575   4.746
 3073TIP3    H1 9162   6.111   6.541   4.830
 3073TIP3    H2 9163   5.992   6.608   4.765
 3074TIP3   OH2 9164   2.174   7.286   3.587
 3074TIP3    H1 9165   2.241   7.329   3.533
 3074TIP3    H2 9166   2.214   7.203   3.612
 3075TIP3   OH2 9167   1.735   2.277   2.506
 3075TIP3    H1 9168   1.715   2.364   2.540
 3075TIP3    H2 9169   1.819   2.287   2.462
 3076TIP3   OH2 9170   6.848   7.182   5.854
 3076TIP3    H1 9171   6.870   7.273   5.876
 3076TIP3    H2 9172   6.931   7.144   5.827
 3077TIP3   OH2 9173   1.026   4.823   4.421
 3077TIP3    H1 9174   1.060   4.909   4.396
 3077TIP3    H2 9175   0.980   4.839   4.504
 3078TIP3   OH2 9176   6.095   1.869   3.870
 3078TIP3    H1 9177   6.102   1.932   3.942
 3078TIP3    H2 9178   6.159   1.900   3.806
 3079TIP3   OH2 9179   3.009   6.078   3.079
 3079TIP3    H1 9180   3.031   6.007   3.138
 3079TIP3    H2 9181   2.916   6.095   3.094
 3080TIP3   OH2 9182   5.917   4.800   5.694
 3080TIP3    H1 9183   5.997   4.842   5.663
 3080TIP3    H2 9184   5.848   4.839   5.641
 3081TIP3   OH2 9185   0.647   5.461   4.748
 3081TIP3    H1 9186   0.582   5.448   4.816
 3081TIP3    H2 9187   0.727   5.422   4.783
 3082TIP3   OH2 9188   4.821   4.264   3.045
 3082TIP3    H1 9189   4.792   4.315   3.121
 3082TIP3    H2 9190   4.771   4.300   2.971
 3083TIP3   OH2 9191   6.439   3.787   0.832
 3083TIP3    H1 9192   6.426   3.845   0.757
 3083TIP3    H2 9193   6.520   3.819   0.872
 3084TIP3   OH2 9194   2.590   4.206   0.846
 3084TIP3    H1 9195   2.664   4.205   0.785
 3084TIP3    H2 9196   2.522   4.156   0.800
 3085TIP3   OH2 9197   6.115   4.228   3.886
 3085TIP3    H1 9198   6.059   4.221   3.809
 3085TIP3    H2 9199   6.116   4.322   3.906
 3086TIP3   OH2 9200   7.129   5.927   5.010
 3086TIP3    H1 9201   7.195   5.865   5.043
 3086TIP3    H2 9202   7.099   5.974   5.088
 3087TIP3   OH2 9203   6.448   4.348   1.629
 3087TIP3    H1 9204   6.494   4.350   1.546
 3087TIP3    H2 9205   6.469   4.262   1.666
 3088TIP3   OH2 9206   8.010   7.413   6.509
 3088TIP3    H1 9207   7.916   7.407   6.526
 3088TIP3    H2 9208   8.018   7.404   6.414
 3089TIP3   OH2 9209   5.177   3.055   6.241
 3089TIP3    H1 9210   5.246   3.020   6.185
 3089TIP3    H2 9211   5.222   3.114   6.301
 3090TIP3   OH2 9212   4.355   5.758   5.260
 3090TIP3    H1 9213   4.376   5.760   5.167
 3090TIP3    H2 9214   4.419   5.817   5.300
 3091TIP3   OH2 9215   4.114   0.371   0.231
 3091TIP3    H1 9216   4.064   0.446   0.199
 3091TIP3    H2 9217   4.103   0.374   0.326
 3092TIP3   OH2 9218   8.144   2.863   5.157
 3092TIP3    H1 9219   8.130   2.947   5.113
 3092TIP3    H2 9220   8.186   2.885   5.240
 3093TIP3   OH2 9221   7.818   7.443   1.684
 3093TIP3    H1 9222   7.771   7.463   1.765
 3093TIP3    H2 9223   7.883   7.513   1.677
 3094TIP3   OH2 9224   1.286   5.379   6.520
 3094TIP3    H1 9225   1.246   5.326   6.450
 3094TIP3    H2 9226   1.276   5.469   6.490
 3095TIP3   OH2 9227   4.481   3.772   6.366
 3095TIP3    H1 9228   4.387   3.784   6.362
 3095TIP3    H2 9229   4.512   3.795   6.278
 3096TIP3   OH2 9230   4.008   4.678   1.393
 3096TIP3    H1 9231   4.065   4.748   1.362
 3096TIP3    H2 9232   3.975   4.709   1.477
 3097TIP3   OH2 9233   0.047   1.994   6.290
 3097TIP3    H1 9234   0.001   2.059   6.342
 3097TIP3    H2 9235   0.135   1.992   6.327
 3098TIP3   OH2 9236   3.517   2.939   5.744
 3098TIP3    H1 9237   3.584   2.883   5.703
 3098TIP3    H2 9238   3.501   2.899   5.829
 3099TIP3   OH2 9239   3.369   2.318   4.809
 3099TIP3    H1 9240   3.314   2.392   4.836
 3099TIP3    H2 9241   3.435   2.311   4.878
 3100TIP3   OH2 9242   7.101   6.319   2.200
 3100TIP3    H1 9243   7.083   6.407   2.167
 3100TIP3    H2 9244   7.015   6.286   2.227
 3101TIP3   OH2 9245   2.365   7.575   4.277
 3101TIP3    H1 9246   2.441   7.610   4.230
 3101TIP3    H2 9247   2.290   7.600   4.224
 3102TIP3   OH2 9248   1.679   1.226   0.849
 3102TIP3    H1 9249   1.710   1.189   0.931
 3102TIP3    H2 9250   1.701   1.160   0.783
 3103TIP3   OH2 9251   7.491   5.229   1.877
 3103TIP3    H1 9252   7.397   5.249   1.874
 3103TIP3    H2 9253   7.531   5.298   1.824
 3104TIP3   OH2 9254   4.668   4.430   2.502
 3104TIP3    H1 9255   4.691   4.511   2.457
 3104TIP3    H2 9256   4.572   4.432   2.508
 3105TIP3   OH2 9257   4.589   0.641   5.686
 3105TIP3    H1 9258   4.515   0.625   5.627
 3105TIP3    H2 9259   4.665   0.644   5.629
 3106TIP3   OH2 9260   5.345   6.007   4.851
 3106TIP3    H1 9261   5.357   5.948   4.926
 3106TIP3    H2 9262   5.305   6.086   4.889
 3107TIP3   OH2 9263   7.962   5.469   5.902
 3107TIP3    H1 9264   7.888   5.415   5.927
 3107TIP3    H2 9265   7.925   5.557   5.892
 3108TIP3   OH2 9266   1.449   0.953   0.489
 3108TIP3    H1 9267   1.406   1.039   0.487
 3108TIP3    H2 9268   1.513   0.956   0.418
 3109TIP3   OH2 9269   4.344   5.850   6.104
 3109TIP3    H1 9270   4.330   5.825   6.013
 3109TIP3    H2 9271   4.262   5.892   6.131
 3110TIP3   OH2 9272   3.524   3.086   1.689
 3110TIP3    H1 9273   3.478   3.006   1.712
 3110TIP3    H2 9274   3.570   3.112   1.770
 3111TIP3   OH2 9275   3.491   3.683   6.505
 3111TIP3    H1 9276   3.573   3.732   6.506
 3111TIP3    H2 9277   3.501   3.618   6.573
 3112TIP3   OH2 9278   5.746   1.224   5.171
 3112TIP3    H1 9279   5.839   1.235   5.190
 3112TIP3    H2 9280   5.706   1.206   5.257
 3113TIP3   OH2 9281   2.055   5.969   4.271
 3113TIP3    H1 9282   2.027   5.878   4.268
 3113TIP3    H2 9283   2.050   5.999   4.180
 3114TIP3   OH2 9284   0.986   4.133   2.089
 3114TIP3    H1 9285   0.910   4.177   2.052
 3114TIP3    H2 9286   1.006   4.063   2.026
 3115TIP3   OH2 9287   1.319   7.622   3.814
 3115TIP3    H1 9288   1.384   7.622   3.884
 3115TIP3    H2 9289   1.235   7.611   3.859
 3116TIP3   OH2 9290   5.543   7.103   2.356
 3116TIP3    H1 9291   5.562   7.108   2.263
 3116TIP3    H2 9292   5.616   7.148   2.398
 3117TIP3   OH2 9293   3.235   6.344   5.647
 3117TIP3    H1 9294   3.260   6.253   5.633
 3117TIP3    H2 9295   3.153   6.339   5.697
 3118TIP3   OH2 9296   3.610   6.002   2.808
 3118TIP3    H1 9297   3.572   5.953   2.881
 3118TIP3    H2 9298   3.686   6.046   2.846
 3119TIP3   OH2 9299   0.332   4.226   6.126
 3119TIP3    H1 9300   0.356   4.206   6.035
 3119TIP3    H2 9301   0.395   4.177   6.179
 3120TIP3   OH2 9302   6.721   4.454   5.595
 3120TIP3    H1 9303   6.694   4.531   5.644
 3120TIP3    H2 9304   6.783   4.409   5.652
 3121TIP3   OH2 9305   8.218   7.273   4.342
 3121TIP3    H1 9306   8.265   7.272   4.258
 3121TIP3    H2 9307   8.206   7.365   4.362
 3122TIP3   OH2 9308   7.237   4.940   5.096
 3122TIP3    H1 9309   7.226   4.846   5.114
 3122TIP3    H2 9310   7.282   4.943   5.012
 3123TIP3   OH2 9311   0.724   4.939   3.699
 3123TIP3    H1 9312   0.745   4.851   3.667
 3123TIP3    H2 9313   0.809   4.981   3.712
 3124TIP3   OH2 9314   4.990   1.559   1.580
 3124TIP3    H1 9315   5.056   1.531   1.518
 3124TIP3    H2 9316   5.038   1.610   1.646
 3125TIP3   OH2 9317   6.183   2.543   1.319
 3125TIP3    H1 9318   6.266   2.576   1.355
 3125TIP3    H2 9319   6.207   2.463   1.274
 3126TIP3   OH2 9320   1.551   2.738   4.810
 3126TIP3    H1 9321   1.568   2.673   4.741
 3126TIP3    H2 9322   1.618   2.721   4.876
 3127TIP3   OH2 9323   0.258   1.803   4.910
 3127TIP3    H1 9324   0.282   1.876   4.968
 3127TIP3    H2 9325   0.342   1.766   4.883
 3128TIP3   OH2 9326   5.410   5.302   5.401
 3128TIP3    H1 9327   5.465   5.366   5.355
 3128TIP3    H2 9328   5.412   5.224   5.345
 3129TIP3   OH2 9329   5.899   6.257   1.901
 3129TIP3    H1 9330   5.847   6.224   1.974
 3129TIP3    H2 9331   5.834   6.294   1.841
 3130TIP3   OH2 9332   1.844   7.716   6.656
 3130TIP3    H1 9333   1.907   7.785   6.677
 3130TIP3    H2 9334   1.783   7.715   6.730
 3131TIP3   OH2 9335   5.119   2.500   3.254
 3131TIP3    H1 9336   5.052   2.449   3.208
 3131TIP3    H2 9337   5.157   2.440   3.318
 3132TIP3   OH2 9338   4.081   5.227   2.170
 3132TIP3    H1 9339   3.990   5.252   2.155
 3132TIP3    H2 9340   4.075   5.141   2.212
 3133TIP3   OH2 9341   3.484   6.423   2.495
 3133TIP3    H1 9342   3.482   6.354   2.560
 3133TIP3    H2 9343   3.508   6.502   2.544
 3134TIP3   OH2 9344   0.915   0.698   1.511
 3134TIP3    H1 9345   0.886   0.689   1.420
 3134TIP3    H2 9346   0.834   0.717   1.559
 3135TIP3   OH2 9347   7.401   2.249   1.328
 3135TIP3    H1 9348   7.331   2.223   1.267
 3135TIP3    H2 9349   7.358   2.311   1.388
 3136TIP3   OH2 9350   3.475   4.462   4.237
 3136TIP3    H1 9351   3.480   4.557   4.226
 3136TIP3    H2 9352   3.484   4.427   4.149
 3137TIP3   OH2 9353   0.505   1.080   1.130
 3137TIP3    H1 9354   0.539   1.168   1.148
 3137TIP3    H2 9355   0.579   1.033   1.092
 3138TIP3   OH2 9356   6.786   6.328   0.381
 3138TIP3    H1 9357   6.832   6.291   0.456
 3138TIP3    H2 9358   6.785   6.423   0.398
 3139TIP3   OH2 9359   0.121   3.523   5.322
 3139TIP3    H1 9360   0.182   3.588   5.287
 3139TIP3    H2 9361   0.097   3.469   5.247
 3140TIP3   OH2 9362   7.754   3.440   0.892
 3140TIP3    H1 9363   7.805   3.520   0.889
 3140TIP3    H2 9364   7.689   3.450   0.822
 3141TIP3   OH2 9365   3.739   5.811   4.145
 3141TIP3    H1 9366   3.805   5.826   4.214
 3141TIP3    H2 9367   3.772   5.859   4.069
 3142TIP3   OH2 9368   3.701   0.168   0.719
 3142TIP3    H1 9369   3.750   0.091   0.689
 3142TIP3    H2 9370   3.702   0.162   0.815
 3143TIP3   OH2 9371   0.804   4.965   1.681
 3143TIP3    H1 9372   0.803   4.956   1.585
 3143TIP3    H2 9373   0.782   5.057   1.696
 3144TIP3   OH2 9374   6.417   2.575   3.667
 3144TIP3    H1 9375   6.449   2.631   3.738
 3144TIP3    H2 9376   6.366   2.635   3.611
 3145TIP3   OH2 9377   6.141   2.225   2.812
 3145TIP3    H1 9378   6.166   2.314   2.836
 3145TIP3    H2 9379   6.177   2.170   2.881
 3146TIP3   OH2 9380   2.140   7.169   2.696
 3146TIP3    H1 9381   2.153   7.223   2.619
 3146TIP3    H2 9382   2.055   7.196   2.730
 3147TIP3   OH2 9383   7.947   3.186   1.515
 3147TIP3    H1 9384   7.852   3.180   1.520
 3147TIP3    H2 9385   7.978   3.108   1.559
 3148TIP3   OH2 9386   7.672   4.171   1.121
 3148TIP3    H1 9387   7.637   4.082   1.129
 3148TIP3    H2 9388   7.765   4.163   1.141
 3149TIP3   OH2 9389   7.535   2.873   0.798
 3149TIP3    H1 9390   7.623   2.872   0.835
 3149TIP3    H2 9391   7.549   2.867   0.703
 3150TIP3   OH2 9392   3.044   6.604   4.218
 3150TIP3    H1 9393   2.977   6.586   4.152
 3150TIP3    H2 9394   2.996   6.647   4.289
 3151TIP3   OH2 9395   5.517   0.313   6.012
 3151TIP3    H1 9396   5.507   0.393   5.961
 3151TIP3    H2 9397   5.611   0.303   6.024
 3152TIP3   OH2 9398   2.645   2.796   2.273
 3152TIP3    H1 9399   2.732   2.826   2.248
 3152TIP3    H2 9400   2.647   2.702   2.261
 3153TIP3   OH2 9401   4.220   7.718   2.691
 3153TIP3    H1 9402   4.137   7.699   2.648
 3153TIP3    H2 9403   4.227   7.653   2.761
 3154TIP3   OH2 9404   3.402   6.435   1.223
 3154TIP3    H1 9405   3.467   6.505   1.235
 3154TIP3    H2 9406   3.405   6.416   1.129
 3155TIP3   OH2 9407   8.203   0.840   0.094
 3155TIP3    H1 9408   8.298   0.849   0.085
 3155TIP3    H2 9409   8.171   0.835   0.004
 3156TIP3   OH2 9410   6.827   4.600   1.106
 3156TIP3    H1 9411   6.857   4.614   1.196
 3156TIP3    H2 9412   6.866   4.673   1.057
 3157TIP3   OH2 9413   2.026   5.037   6.118
 3157TIP3    H1 9414   2.046   5.061   6.208
 3157TIP3    H2 9415   1.989   4.949   6.124
 3158TIP3   OH2 9416   0.649   3.701   4.394
 3158TIP3    H1 9417   0.627   3.757   4.469
 3158TIP3    H2 9418   0.740   3.723   4.374
 3159TIP3   OH2 9419   6.091   1.372   4.607
 3159TIP3    H1 9420   5.997   1.379   4.625
 3159TIP3    H2 9421   6.117   1.291   4.650
 3160TIP3   OH2 9422   7.434   2.682   6.091
 3160TIP3    H1 9423   7.495   2.727   6.150
 3160TIP3    H2 9424   7.489   2.652   6.018
 3161TIP3   OH2 9425   3.191   6.528   6.231
 3161TIP3    H1 9426   3.193   6.623   6.247
 3161TIP3    H2 9427   3.267   6.495   6.278
 3162TIP3   OH2 9428   0.567   0.504   3.953
 3162TIP3    H1 9429   0.639   0.559   3.985
 3162TIP3    H2 9430   0.608   0.419   3.936
 3163TIP3   OH2 9431   0.749   0.872   5.530
 3163TIP3    H1 9432   0.777   0.848   5.442
 3163TIP3    H2 9433   0.819   0.841   5.587
 3164TIP3   OH2 9434   6.127   1.903   0.780
 3164TIP3    H1 9435   6.110   1.959   0.856
 3164TIP3    H2 9436   6.221   1.912   0.764
 3165TIP3   OH2 9437   3.007   1.004   3.510
 3165TIP3    H1 9438   3.038   1.084   3.552
 3165TIP3    H2 9439   3.058   0.934   3.552
 3166TIP3   OH2 9440   1.824   2.145   6.403
 3166TIP3    H1 9441   1.902   2.133   6.456
 3166TIP3    H2 9442   1.845   2.101   6.320
 3167TIP3   OH2 9443   4.159   4.133   1.656
 3167TIP3    H1 9444   4.131   4.223   1.638
 3167TIP3    H2 9445   4.174   4.131   1.750
 3168TIP3   OH2 9446   5.101   5.949   5.156
 3168TIP3    H1 9447   5.045   5.873   5.141
 3168TIP3    H2 9448   5.056   5.999   5.224
 3169TIP3   OH2 9449   7.314   3.686   4.447
 3169TIP3    H1 9450   7.271   3.702   4.531
 3169TIP3    H2 9451   7.321   3.772   4.406
 3170TIP3   OH2 9452   2.361   5.161   0.773
 3170TIP3    H1 9453   2.317   5.224   0.830
 3170TIP3    H2 9454   2.451   5.160   0.805
 3171TIP3   OH2 9455   7.852   7.277   0.383
 3171TIP3    H1 9456   7.771   7.253   0.429
 3171TIP3    H2 9457   7.843   7.372   0.369
 3172TIP3   OH2 9458   7.011   3.770   1.671
 3172TIP3    H1 9459   7.041   3.859   1.693
 3172TIP3    H2 9460   6.959   3.781   1.592
 3173TIP3   OH2 9461   1.043   5.381   0.087
 3173TIP3    H1 9462   1.041   5.451   0.152
 3173TIP3    H2 9463   1.080   5.422   0.008
 3174TIP3   OH2 9464   8.163   5.667   0.159
 3174TIP3    H1 9465   8.074   5.701   0.156
 3174TIP3    H2 9466   8.206   5.703   0.081
 3175TIP3   OH2 9467   0.055   6.928   1.057
 3175TIP3    H1 9468  -0.006   6.862   1.089
 3175TIP3    H2 9469   0.023   7.011   1.094
 3176TIP3   OH2 9470   3.565   0.743   3.467
 3176TIP3    H1 9471   3.595   0.820   3.515
 3176TIP3    H2 9472   3.478   0.767   3.435
 3177TIP3   OH2 9473   1.498   7.023   5.701
 3177TIP3    H1 9474   1.426   7.086   5.696
 3177TIP3    H2 9475   1.567   7.061   5.647
 3178TIP3   OH2 9476   5.224   7.616   5.585
 3178TIP3    H1 9477   5.266   7.597   5.502
 3178TIP3    H2 9478   5.201   7.709   5.580
 3179TIP3   OH2 9479   3.562   5.522   2.143
 3179TIP3    H1 9480   3.560   5.533   2.048
 3179TIP3    H2 9481   3.570   5.611   2.177
 3180TIP3   OH2 9482   5.714   5.596   4.865
 3180TIP3    H1 9483   5.743   5.571   4.777
 3180TIP3    H2 9484   5.787   5.572   4.922
 3181TIP3   OH2 9485   1.420   4.401   1.356
 3181TIP3    H1 9486   1.465   4.411   1.440
 3181TIP3    H2 9487   1.477   4.443   1.292
 3182TIP3   OH2 9488   7.678   2.369   5.104
 3182TIP3    H1 9489   7.754   2.421   5.130
 3182TIP3    H2 9490   7.669   2.304   5.174
 3183TIP3   OH2 9491   6.631   5.547   1.351
 3183TIP3    H1 9492   6.564   5.558   1.419
 3183TIP3    H2 9493   6.605   5.607   1.281
 3184TIP3   OH2 9494   1.245   4.459   6.122
 3184TIP3    H1 9495   1.165   4.473   6.173
 3184TIP3    H2 9496   1.286   4.546   6.117
 3185TIP3   OH2 9497   2.754   1.387   1.280
 3185TIP3    H1 9498   2.669   1.351   1.304
 3185TIP3    H2 9499   2.747   1.406   1.187
 3186TIP3   OH2 9500   6.915   7.160   6.141
 3186TIP3    H1 9501   6.955   7.243   6.118
 3186TIP3    H2 9502   6.984   7.111   6.185
 3187TIP3   OH2 9503   1.161   5.562   1.783
 3187TIP3    H1 9504   1.119   5.501   1.842
 3187TIP3    H2 9505   1.252   5.566   1.813
 3188TIP3   OH2 9506   6.331   1.999   2.648
 3188TIP3    H1 9507   6.296   1.968   2.731
 3188TIP3    H2 9508   6.395   2.066   2.672
 3189TIP3   OH2 9509   6.599   4.601   3.983
 3189TIP3    H1 9510   6.662   4.533   4.008
 3189TIP3    H2 9511   6.542   4.611   4.059
 3190TIP3   OH2 9512   3.924   4.541   1.924
 3190TIP3    H1 9513   3.956   4.458   1.960
 3190TIP3    H2 9514   3.844   4.559   1.972
 3191TIP3   OH2 9515   1.623   3.664   4.109
 3191TIP3    H1 9516   1.655   3.703   4.190
 3191TIP3    H2 9517   1.574   3.734   4.066
 3192TIP3   OH2 9518   7.598   4.824   2.965
 3192TIP3    H1 9519   7.584   4.843   3.057
 3192TIP3    H2 9520   7.565   4.735   2.954
 3193TIP3   OH2 9521   3.735   4.886   6.324
 3193TIP3    H1 9522   3.807   4.830   6.353
 3193TIP3    H2 9523   3.669   4.826   6.290
 3194TIP3   OH2 9524   1.217   5.653   6.719
 3194TIP3    H1 9525   1.224   5.655   6.624
 3194TIP3    H2 9526   1.307   5.666   6.751
 3195TIP3   OH2 9527   4.109   1.054   4.447
 3195TIP3    H1 9528   4.167   1.024   4.517
 3195TIP3    H2 9529   4.147   1.136   4.418
 3196TIP3   OH2 9530   5.976   1.392   4.191
 3196TIP3    H1 9531   5.976   1.384   4.096
 3196TIP3    H2 9532   6.014   1.309   4.222
 3197TIP3   OH2 9533   0.730   1.984   1.117
 3197TIP3    H1 9534   0.641   1.955   1.098
 3197TIP3    H2 9535   0.730   2.077   1.096
 3198TIP3   OH2 9536   3.177   3.323   0.298
 3198TIP3    H1 9537   3.253   3.310   0.241
 3198TIP3    H2 9538   3.111   3.362   0.242
 3199TIP3   OH2 9539   6.237   2.022   4.389
 3199TIP3    H1 9540   6.303   1.968   4.432
 3199TIP3    H2 9541   6.177   1.960   4.349
 3200TIP3   OH2 9542   1.836   6.507   1.059
 3200TIP3    H1 9543   1.911   6.542   1.108
 3200TIP3    H2 9544   1.810   6.429   1.107
 3201TIP3   OH2 9545   4.941   5.139   0.171
 3201TIP3    H1 9546   4.867   5.078   0.161
 3201TIP3    H2 9547   5.018   5.087   0.149
 3202TIP3   OH2 9548   1.551   4.718   4.392
 3202TIP3    H1 9549   1.549   4.813   4.392
 3202TIP3    H2 9550   1.461   4.692   4.413
 3203TIP3   OH2 9551   3.703   5.716   5.392
 3203TIP3    H1 9552   3.761   5.641   5.382
 3203TIP3    H2 9553   3.715   5.743   5.483
 3204TIP3   OH2 9554   6.243   2.524   1.698
 3204TIP3    H1 9555   6.231   2.576   1.778
 3204TIP3    H2 9556   6.233   2.587   1.627
 3205TIP3   OH2 9557   1.995   2.573   4.931
 3205TIP3    H1 9558   1.980   2.526   5.013
 3205TIP3    H2 9559   2.024   2.505   4.870
 3206TIP3   OH2 9560   5.935   4.221   2.048
 3206TIP3    H1 9561   5.956   4.219   1.955
 3206TIP3    H2 9562   5.969   4.139   2.083
 3207TIP3   OH2 9563   0.114   0.776   4.996
 3207TIP3    H1 9564   0.108   0.704   5.059
 3207TIP3    H2 9565   0.058   0.844   5.032
 3208TIP3   OH2 9566   2.127   4.575   4.310
 3208TIP3    H1 9567   2.173   4.554   4.392
 3208TIP3    H2 9568   2.038   4.544   4.325
 3209TIP3   OH2 9569   0.596   3.193   5.469
 3209TIP3    H1 9570   0.575   3.141   5.392
 3209TIP3    H2 9571   0.513   3.198   5.517
 3210TIP3   OH2 9572   0.357   0.116   1.056
 3210TIP3    H1 9573   0.380   0.061   0.982
 3210TIP3    H2 9574   0.277   0.077   1.091
 3211TIP3   OH2 9575   4.693   4.784   5.539
 3211TIP3    H1 9576   4.695   4.833   5.622
 3211TIP3    H2 9577   4.706   4.850   5.472
 3212TIP3   OH2 9578   4.729   1.724   5.634
 3212TIP3    H1 9579   4.818   1.746   5.609
 3212TIP3    H2 9580   4.684   1.808   5.641
 3213TIP3   OH2 9581   6.809   7.777   3.107
 3213TIP3    H1 9582   6.833   7.721   3.181
 3213TIP3    H2 9583   6.798   7.864   3.147
 3214TIP3   OH2 9584   6.920   5.933   2.946
 3214TIP3    H1 9585   6.927   5.838   2.935
 3214TIP3    H2 9586   7.001   5.968   2.911
 3215TIP3   OH2 9587   2.314   6.509   3.650
 3215TIP3    H1 9588   2.354   6.422   3.654
 3215TIP3    H2 9589   2.252   6.503   3.577
 3216TIP3   OH2 9590   1.454   0.723   5.507
 3216TIP3    H1 9591   1.451   0.727   5.603
 3216TIP3    H2 9592   1.539   0.686   5.487
 3217TIP3   OH2 9593   6.020   5.076   0.015
 3217TIP3    H1 9594   6.011   5.043   0.105
 3217TIP3    H2 9595   6.115   5.085   0.002
 3218TIP3   OH2 9596   6.689   4.392   4.869
 3218TIP3    H1 9597   6.780   4.419   4.857
 3218TIP3    H2 9598   6.645   4.469   4.905
 3219TIP3   OH2 9599   4.737   4.153   6.588
 3219TIP3    H1 9600   4.832   4.154   6.599
 3219TIP3    H2 9601   4.709   4.069   6.623
 3220TIP3   OH2 9602   5.502   2.142   1.999
 3220TIP3    H1 9603   5.543   2.122   1.915
 3220TIP3    H2 9604   5.575   2.168   2.056
 3221TIP3   OH2 9605   6.376   4.764   2.889
 3221TIP3    H1 9606   6.323   4.730   2.960
 3221TIP3    H2 9607   6.425   4.688   2.858
 3222TIP3   OH2 9608   6.464   1.997   3.890
 3222TIP3    H1 9609   6.456   1.930   3.822
 3222TIP3    H2 9610   6.402   1.969   3.958
 3223TIP3   OH2 9611   1.289   0.438   2.603
 3223TIP3    H1 9612   1.219   0.430   2.668
 3223TIP3    H2 9613   1.280   0.527   2.569
 3224TIP3   OH2 9614   1.122   3.364   3.710
 3224TIP3    H1 9615   1.029   3.363   3.729
 3224TIP3    H2 9616   1.159   3.428   3.771
 3225TIP3   OH2 9617   7.595   3.269   5.990
 3225TIP3    H1 9618   7.563   3.179   5.991
 3225TIP3    H2 9619   7.579   3.302   6.079
 3226TIP3   OH2 9620   8.208   5.491   1.646
 3226TIP3    H1 9621   8.176   5.492   1.556
 3226TIP3    H2 9622   8.301   5.511   1.639
 3227TIP3   OH2 9623   4.612   1.097   1.117
 3227TIP3    H1 9624   4.634   1.030   1.052
 3227TIP3    H2 9625   4.518   1.111   1.105
 3228TIP3   OH2 9626   1.550   5.644   0.404
 3228TIP3    H1 9627   1.598   5.562   0.389
 3228TIP3    H2 9628   1.512   5.666   0.319
 3229TIP3   OH2 9629   5.372   3.051   6.044
 3229TIP3    H1 9630   5.377   3.132   6.096
 3229TIP3    H2 9631   5.420   3.072   5.964
 3230TIP3   OH2 9632   4.368   3.803   3.851
 3230TIP3    H1 9633   4.376   3.779   3.759
 3230TIP3    H2 9634   4.377   3.899   3.852
 3231TIP3   OH2 9635   0.656   5.801   5.233
 3231TIP3    H1 9636   0.587   5.768   5.290
 3231TIP3    H2 9637   0.633   5.769   5.146
 3232TIP3   OH2 9638   0.565   3.797   1.008
 3232TIP3    H1 9639   0.596   3.847   1.084
 3232TIP3    H2 9640   0.552   3.863   0.940
 3233TIP3   OH2 9641   4.151   5.130   1.884
 3233TIP3    H1 9642   4.171   5.055   1.940
 3233TIP3    H2 9643   4.112   5.194   1.944
 3234TIP3   OH2 9644   1.781   1.252   2.596
 3234TIP3    H1 9645   1.744   1.338   2.575
 3234TIP3    H2 9646   1.710   1.190   2.577
 3235TIP3   OH2 9647   1.756   3.684   3.545
 3235TIP3    H1 9648   1.709   3.691   3.627
 3235TIP3    H2 9649   1.733   3.764   3.497
 3236TIP3   OH2 9650   7.216   5.480   4.708
 3236TIP3    H1 9651   7.265   5.485   4.626
 3236TIP3    H2 9652   7.193   5.387   4.716
 3237TIP3   OH2 9653   5.379   3.125   3.574
 3237TIP3    H1 9654   5.407   3.063   3.506
 3237TIP3    H2 9655   5.391   3.078   3.656
 3238TIP3   OH2 9656   1.976   4.729   1.495
 3238TIP3    H1 9657   1.905   4.738   1.432
 3238TIP3    H2 9658   2.053   4.709   1.442
 3239TIP3   OH2 9659   1.136   5.208   6.345
 3239TIP3    H1 9660   1.054   5.255   6.354
 3239TIP3    H2 9661   1.140   5.185   6.252
 3240TIP3   OH2 9662   0.518   5.257   4.119
 3240TIP3    H1 9663   0.603   5.213   4.125
 3240TIP3    H2 9664   0.456   5.192   4.153
 3241TIP3   OH2 9665   6.439   6.801   1.855
 3241TIP3    H1 9666   6.422   6.745   1.779
 3241TIP3    H2 9667   6.514   6.855   1.829
 3242TIP3   OH2 9668   1.810   4.887   4.713
 3242TIP3    H1 9669   1.880   4.906   4.775
 3242TIP3    H2 9670   1.783   4.973   4.681
 3243TIP3   OH2 9671   2.289   1.315   3.030
 3243TIP3    H1 9672   2.307   1.248   3.095
 3243TIP3    H2 9673   2.367   1.371   3.031
 3244TIP3   OH2 9674   7.891   6.726   3.614
 3244TIP3    H1 9675   7.826   6.658   3.594
 3244TIP3    H2 9676   7.963   6.678   3.655
 3245TIP3   OH2 9677   7.743   0.254   3.275
 3245TIP3    H1 9678   7.810   0.260   3.343
 3245TIP3    H2 9679   7.721   0.160   3.271
 3246TIP3   OH2 9680   5.722   4.836   3.195
 3246TIP3    H1 9681   5.629   4.814   3.197
 3246TIP3    H2 9682   5.767   4.752   3.191
 3247TIP3   OH2 9683   1.693   1.724   4.083
 3247TIP3    H1 9684   1.772   1.689   4.042
 3247TIP3    H2 9685   1.630   1.652   4.080
 3248TIP3   OH2 9686   7.075   5.534   0.529
 3248TIP3    H1 9687   7.162   5.495   0.535
 3248TIP3    H2 9688   7.028   5.476   0.468
 3249TIP3   OH2 9689   7.647   6.790   3.039
 3249TIP3    H1 9690   7.646   6.751   2.951
 3249TIP3    H2 9691   7.714   6.858   3.034
 3250TIP3   OH2 9692   5.162   1.060   1.931
 3250TIP3    H1 9693   5.184   1.010   2.009
 3250TIP3    H2 9694   5.068   1.047   1.919
 3251TIP3   OH2 9695   2.293   4.715   5.616
 3251TIP3    H1 9696   2.272   4.805   5.594
 3251TIP3    H2 9697   2.236   4.694   5.690
 3252TIP3   OH2 9698   0.232   2.924   5.128
 3252TIP3    H1 9699   0.310   2.944   5.077
 3252TIP3    H2 9700   0.160   2.959   5.076
 3253TIP3   OH2 9701   5.870   1.201   5.508
 3253TIP3    H1 9702   5.865   1.249   5.591
 3253TIP3    H2 9703   5.945   1.240   5.463
 3254TIP3   OH2 9704   1.451   5.180   6.129
 3254TIP3    H1 9705   1.378   5.230   6.165
 3254TIP3    H2 9706   1.442   5.187   6.034
 3255TIP3   OH2 9707   7.750   6.723   2.491
 3255TIP3    H1 9708   7.753   6.629   2.470
 3255TIP3    H2 9709   7.803   6.764   2.423
 3256TIP3   OH2 9710   5.265   3.476   2.948
 3256TIP3    H1 9711   5.246   3.389   2.912
 3256TIP3    H2 9712   5.263   3.534   2.872
 3257TIP3   OH2 9713   5.421   6.150   5.742
 3257TIP3    H1 9714   5.467   6.187   5.817
 3257TIP3    H2 9715   5.465   6.186   5.665
 3258TIP3   OH2 9716   4.557   5.541   2.728
 3258TIP3    H1 9717   4.515   5.495   2.656
 3258TIP3    H2 9718   4.631   5.486   2.752
 3259TIP3   OH2 9719   2.593   5.515   3.865
 3259TIP3    H1 9720   2.644   5.438   3.890
 3259TIP3    H2 9721   2.539   5.485   3.792
 3260TIP3   OH2 9722   4.292   7.276   5.624
 3260TIP3    H1 9723   4.204   7.266   5.588
 3260TIP3    H2 9724   4.306   7.371   5.628
 3261TIP3   OH2 9725   4.438   3.531   5.597
 3261TIP3    H1 9726   4.351   3.514   5.563
 3261TIP3    H2 9727   4.459   3.620   5.566
 3262TIP3   OH2 9728   0.142   1.802   4.198
 3262TIP3    H1 9729   0.191   1.751   4.263
 3262TIP3    H2 9730   0.144   1.749   4.119
 3263TIP3   OH2 9731   5.664   2.095   1.486
 3263TIP3    H1 9732   5.694   2.178   1.448
 3263TIP3    H2 9733   5.712   2.028   1.439
 3264TIP3   OH2 9734   4.171   2.839   6.020
 3264TIP3    H1 9735   4.116   2.894   5.964
 3264TIP3    H2 9736   4.130   2.752   6.016
 3265TIP3   OH2 9737   3.335   4.703   0.484
 3265TIP3    H1 9738   3.318   4.667   0.397
 3265TIP3    H2 9739   3.247   4.717   0.521
 3266TIP3   OH2 9740   4.270   3.323   0.204
 3266TIP3    H1 9741   4.242   3.368   0.283
 3266TIP3    H2 9742   4.365   3.320   0.211
 3267TIP3   OH2 9743   4.373   6.773   3.500
 3267TIP3    H1 9744   4.297   6.823   3.472
 3267TIP3    H2 9745   4.447   6.833   3.488
 3268TIP3   OH2 9746   7.123   7.126   5.054
 3268TIP3    H1 9747   7.204   7.176   5.068
 3268TIP3    H2 9748   7.054   7.192   5.049
 3269TIP3   OH2 9749   1.226   4.373   5.414
 3269TIP3    H1 9750   1.216   4.377   5.319
 3269TIP3    H2 9751   1.167   4.440   5.447
 3270TIP3   OH2 9752   1.720   4.849   5.573
 3270TIP3    H1 9753   1.660   4.921   5.592
 3270TIP3    H2 9754   1.807   4.885   5.590
 3271TIP3   OH2 9755   6.228   2.324   6.128
 3271TIP3    H1 9756   6.261   2.297   6.214
 3271TIP3    H2 9757   6.235   2.245   6.075
 3272TIP3   OH2 9758   1.313   1.751   0.106
 3272TIP3    H1 9759   1.392   1.711   0.143
 3272TIP3    H2 9760   1.260   1.676   0.077
 3273TIP3   OH2 9761   7.187   5.334   1.339
 3273TIP3    H1 9762   7.178   5.372   1.251
 3273TIP3    H2 9763   7.270   5.367   1.371
 3274TIP3   OH2 9764   3.764   3.709   6.071
 3274TIP3    H1 9765   3.759   3.805   6.065
 3274TIP3    H2 9766   3.766   3.679   5.981
 3275TIP3   OH2 9767   1.786   4.725   1.294
 3275TIP3    H1 9768   1.788   4.730   1.199
 3275TIP3    H2 9769   1.694   4.741   1.317
 3276TIP3   OH2 9770   0.915   7.499   2.318
 3276TIP3    H1 9771   0.823   7.474   2.313
 3276TIP3    H2 9772   0.913   7.593   2.334
 3277TIP3   OH2 9773   4.549   4.544   0.223
 3277TIP3    H1 9774   4.506   4.463   0.252
 3277TIP3    H2 9775   4.496   4.614   0.260
 3278TIP3   OH2 9776   0.539   7.588   3.461
 3278TIP3    H1 9777   0.617   7.579   3.405
 3278TIP3    H2 9778   0.563   7.545   3.543
 3279TIP3   OH2 9779   6.274   6.589   5.368
 3279TIP3    H1 9780   6.205   6.535   5.329
 3279TIP3    H2 9781   6.253   6.592   5.461
 3280TIP3   OH2 9782   0.191   1.335   1.520
 3280TIP3    H1 9783   0.123   1.362   1.457
 3280TIP3    H2 9784   0.168   1.381   1.600
 3281TIP3   OH2 9785   0.078   2.894   5.349
 3281TIP3    H1 9786   0.140   2.915   5.279
 3281TIP3    H2 9787   0.023   2.971   5.356
 3282TIP3   OH2 9788   5.302   5.448   5.115
 3282TIP3    H1 9789   5.282   5.373   5.170
 3282TIP3    H2 9790   5.396   5.462   5.125
 3283TIP3   OH2 9791   6.762   0.387   6.590
 3283TIP3    H1 9792   6.703   0.443   6.641
 3283TIP3    H2 9793   6.712   0.307   6.575
 3284TIP3   OH2 9794   5.686   2.708   6.479
 3284TIP3    H1 9795   5.782   2.714   6.479
 3284TIP3    H2 9796   5.660   2.753   6.560
 3285TIP3   OH2 9797   0.332   1.440   3.675
 3285TIP3    H1 9798   0.406   1.450   3.735
 3285TIP3    H2 9799   0.370   1.402   3.596
 3286TIP3   OH2 9800   2.449   3.632   6.477
 3286TIP3    H1 9801   2.526   3.592   6.519
 3286TIP3    H2 9802   2.448   3.722   6.508
 3287TIP3   OH2 9803   1.912   5.875   2.035
 3287TIP3    H1 9804   1.952   5.953   2.074
 3287TIP3    H2 9805   1.916   5.890   1.941
 3288TIP3   OH2 9806   7.859   3.583   5.017
 3288TIP3    H1 9807   7.768   3.567   5.043
 3288TIP3    H2 9808   7.852   3.649   4.948
 3289TIP3   OH2 9809   5.540   0.047   4.346
 3289TIP3    H1 9810   5.466   0.012   4.395
 3289TIP3    H2 9811   5.531   0.142   4.353
 3290TIP3   OH2 9812   2.872   6.624   4.996
 3290TIP3    H1 9813   2.784   6.588   4.989
 3290TIP3    H2 9814   2.924   6.554   5.034
 3291TIP3   OH2 9815   8.049   5.116   6.572
 3291TIP3    H1 9816   7.993   5.070   6.509
 3291TIP3    H2 9817   8.005   5.103   6.656
 3292TIP3   OH2 9818   2.869   5.260   4.899
 3292TIP3    H1 9819   2.873   5.249   4.994
 3292TIP3    H2 9820   2.794   5.318   4.885
 3293TIP3   OH2 9821   4.687   1.309   1.311
 3293TIP3    H1 9822   4.622   1.281   1.247
 3293TIP3    H2 9823   4.771   1.296   1.266
 3294TIP3   OH2 9824   6.253   1.694   6.072
 3294TIP3    H1 9825   6.312   1.742   6.014
 3294TIP3    H2 9826   6.247   1.748   6.151
 3295TIP3   OH2 9827   8.149   2.349   0.436
 3295TIP3    H1 9828   8.231   2.301   0.440
 3295TIP3    H2 9829   8.114   2.330   0.349
 3296TIP3   OH2 9830   6.885   2.793   2.857
 3296TIP3    H1 9831   6.832   2.714   2.845
 3296TIP3    H2 9832   6.926   2.808   2.772
 3297TIP3   OH2 9833   1.802   0.483   1.949
 3297TIP3    H1 9834   1.782   0.469   1.856
 3297TIP3    H2 9835   1.881   0.537   1.949
 3298TIP3   OH2 9836   3.521   1.568   4.969
 3298TIP3    H1 9837   3.509   1.564   5.063
 3298TIP3    H2 9838   3.614   1.584   4.957
 3299TIP3   OH2 9839   6.845   2.406   3.673
 3299TIP3    H1 9840   6.831   2.498   3.694
 3299TIP3    H2 9841   6.828   2.360   3.755
 3300TIP3   OH2 9842   5.170   4.330   5.622
 3300TIP3    H1 9843   5.090   4.277   5.621
 3300TIP3    H2 9844   5.206   4.322   5.534
 3301TIP3   OH2 9845   5.795   3.072   3.201
 3301TIP3    H1 9846   5.871   3.020   3.175
 3301TIP3    H2 9847   5.800   3.076   3.297
 3302TIP3   OH2 9848   0.882   3.844   1.605
 3302TIP3    H1 9849   0.908   3.787   1.532
 3302TIP3    H2 9850   0.878   3.786   1.681
 3303TIP3   OH2 9851   4.846   6.751   3.077
 3303TIP3    H1 9852   4.891   6.827   3.114
 3303TIP3    H2 9853   4.753   6.773   3.083
 3304TIP3   OH2 9854   1.900   2.828   0.988
 3304TIP3    H1 9855   1.817   2.862   0.957
 3304TIP3    H2 9856   1.877   2.747   1.034
 3305TIP3   OH2 9857   5.552   7.015   5.267
 3305TIP3    H1 9858   5.592   7.038   5.351
 3305TIP3    H2 9859   5.504   6.934   5.285
 3306TIP3   OH2 9860   1.427   4.949   4.843
 3306TIP3    H1 9861   1.454   4.896   4.768
 3306TIP3    H2 9862   1.334   4.966   4.827
 3307TIP3   OH2 9863   3.162   5.547   4.319
 3307TIP3    H1 9864   3.085   5.492   4.310
 3307TIP3    H2 9865   3.228   5.489   4.357
 3308TIP3   OH2 9866   2.054   2.039   1.114
 3308TIP3    H1 9867   1.990   2.023   1.044
 3308TIP3    H2 9868   2.068   1.952   1.152
 3309TIP3   OH2 9869   1.891   7.097   3.269
 3309TIP3    H1 9870   1.950   7.099   3.194
 3309TIP3    H2 9871   1.904   7.181   3.313
 3310TIP3   OH2 9872   1.664   6.453   5.402
 3310TIP3    H1 9873   1.660   6.549   5.409
 3310TIP3    H2 9874   1.649   6.436   5.309
 3311TIP3   OH2 9875   7.387   6.455   5.442
 3311TIP3    H1 9876   7.456   6.488   5.385
 3311TIP3    H2 9877   7.420   6.470   5.531
 3312TIP3   OH2 9878   6.711   4.807   1.511
 3312TIP3    H1 9879   6.768   4.736   1.483
 3312TIP3    H2 9880   6.728   4.817   1.605
 3313TIP3   OH2 9881   2.203   4.068   1.359
 3313TIP3    H1 9882   2.254   4.103   1.286
 3313TIP3    H2 9883   2.119   4.044   1.322
 3314TIP3   OH2 9884   0.079   1.963   0.268
 3314TIP3    H1 9885   0.051   2.040   0.219
 3314TIP3    H2 9886   0.011   1.950   0.334
 3315TIP3   OH2 9887   0.797   2.180   2.827
 3315TIP3    H1 9888   0.749   2.122   2.886
 3315TIP3    H2 9889   0.767   2.155   2.739
 3316TIP3   OH2 9890   5.192   1.392   3.924
 3316TIP3    H1 9891   5.227   1.471   3.883
 3316TIP3    H2 9892   5.229   1.320   3.873
 3317TIP3   OH2 9893   2.318   4.108   3.665
 3317TIP3    H1 9894   2.276   4.123   3.749
 3317TIP3    H2 9895   2.251   4.130   3.600
 3318TIP3   OH2 9896   1.118   3.722   3.062
 3318TIP3    H1 9897   1.054   3.665   3.019
 3318TIP3    H2 9898   1.199   3.671   3.062
 3319TIP3   OH2 9899   6.941   7.309   5.015
 3319TIP3    H1 9900   6.947   7.360   4.934
 3319TIP3    H2 9901   6.893   7.366   5.075
 3320TIP3   OH2 9902   5.497   2.221   4.728
 3320TIP3    H1 9903   5.495   2.125   4.722
 3320TIP3    H2 9904   5.426   2.242   4.789
 3321TIP3   OH2 9905   4.815   4.020   4.871
 3321TIP3    H1 9906   4.749   4.089   4.874
 3321TIP3    H2 9907   4.874   4.041   4.943
 3322TIP3   OH2 9908   6.837   3.163   4.271
 3322TIP3    H1 9909   6.833   3.074   4.235
 3322TIP3    H2 9910   6.832   3.220   4.194
 3323TIP3   OH2 9911   0.047   5.491   2.599
 3323TIP3    H1 9912   0.027   5.576   2.561
 3323TIP3    H2 9913  -0.031   5.469   2.651
 3324TIP3   OH2 9914   7.162   5.876   0.694
 3324TIP3    H1 9915   7.191   5.967   0.683
 3324TIP3    H2 9916   7.102   5.860   0.622
 3325TIP3   OH2 9917   2.866   2.194   1.203
 3325TIP3    H1 9918   2.897   2.255   1.270
 3325TIP3    H2 9919   2.941   2.136   1.186
 3326TIP3   OH2 9920   0.755   3.872   0.381
 3326TIP3    H1 9921   0.776   3.800   0.440
 3326TIP3    H2 9922   0.793   3.846   0.297
 3327TIP3   OH2 9923   8.277   5.248   4.782
 3327TIP3    H1 9924   8.296   5.155   4.792
 3327TIP3    H2 9925   8.254   5.257   4.689
 3328TIP3   OH2 9926   4.775   6.024   2.624
 3328TIP3    H1 9927   4.740   5.946   2.668
 3328TIP3    H2 9928   4.759   6.096   2.685
 3329TIP3   OH2 9929   0.224   3.204   2.770
 3329TIP3    H1 9930   0.164   3.204   2.845
 3329TIP3    H2 9931   0.308   3.232   2.808
 3330TIP3   OH2 9932   4.070   0.856   3.002
 3330TIP3    H1 9933   4.014   0.841   2.926
 3330TIP3    H2 9934   4.070   0.952   3.012
 3331TIP3   OH2 9935   8.223   5.511   3.770
 3331TIP3    H1 9936   8.236   5.522   3.864
 3331TIP3    H2 9937   8.311   5.504   3.734
 3332TIP3   OH2 9938   3.774   4.062   3.494
 3332TIP3    H1 9939   3.740   4.019   3.415
 3332TIP3    H2 9940   3.763   4.156   3.476
 3333TIP3   OH2 9941   3.245   1.508   6.473
 3333TIP3    H1 9942   3.298   1.586   6.489
 3333TIP3    H2 9943   3.161   1.540   6.442
 3334TIP3   OH2 9944   5.600   0.561   0.829
 3334TIP3    H1 9945   5.536   0.575   0.899
 3334TIP3    H2 9946   5.608   0.647   0.787
 3335TIP3   OH2 9947   0.988   3.654   2.209
 3335TIP3    H1 9948   0.935   3.579   2.234
 3335TIP3    H2 9949   0.931   3.730   2.224
 3336TIP3   OH2 9950   4.182   2.721   0.330
 3336TIP3    H1 9951   4.102   2.745   0.284
 3336TIP3    H2 9952   4.250   2.778   0.294
 3337TIP3   OH2 9953   5.158   1.733   4.309
 3337TIP3    H1 9954   5.147   1.639   4.298
 3337TIP3    H2 9955   5.179   1.744   4.402
 3338TIP3   OH2 9956   1.844   1.313   0.074
 3338TIP3    H1 9957   1.843   1.389   0.015
 3338TIP3    H2 9958   1.917   1.259   0.042
 3339TIP3   OH2 9959   3.268   3.161   3.378
 3339TIP3    H1 9960   3.227   3.237   3.337
 3339TIP3    H2 9961   3.217   3.086   3.345
 3340TIP3   OH2 9962   3.732   4.098   1.458
 3340TIP3    H1 9963   3.695   4.016   1.492
 3340TIP3    H2 9964   3.664   4.133   1.400
 3341TIP3   OH2 9965   0.645   0.564   2.487
 3341TIP3    H1 9966   0.697   0.484   2.476
 3341TIP3    H2 9967   0.672   0.598   2.573
 3342TIP3   OH2 9968   3.731   0.590   5.283
 3342TIP3    H1 9969   3.681   0.671   5.291
 3342TIP3    H2 9970   3.666   0.523   5.262
 3343TIP3   OH2 9971   1.450   5.050   1.389
 3343TIP3    H1 9972   1.520   5.039   1.453
 3343TIP3    H2 9973   1.413   5.136   1.407
 3344TIP3   OH2 9974   2.595   1.702   1.453
 3344TIP3    H1 9975   2.562   1.628   1.402
 3344TIP3    H2 9976   2.615   1.769   1.388
 3345TIP3   OH2 9977   4.462   1.923   4.192
 3345TIP3    H1 9978   4.388   1.983   4.185
 3345TIP3    H2 9979   4.517   1.943   4.117
 3346TIP3   OH2 9980   0.343   1.477   5.055
 3346TIP3    H1 9981   0.270   1.430   5.096
 3346TIP3    H2 9982   0.419   1.454   5.108
 3347TIP3   OH2 9983   0.136   3.189   2.518
 3347TIP3    H1 9984   0.174   3.112   2.476
 3347TIP3    H2 9985   0.155   3.177   2.611
 3348TIP3   OH2 9986   1.682   2.138   5.083
 3348TIP3    H1 9987   1.640   2.053   5.100
 3348TIP3    H2 9988   1.700   2.173   5.170
 3349TIP3   OH2 9989   5.512   0.844   3.577
 3349TIP3    H1 9990   5.419   0.831   3.596
 3349TIP3    H2 9991   5.555   0.772   3.623
 3350TIP3   OH2 9992   6.824   4.098   2.490
 3350TIP3    H1 9993   6.743   4.132   2.530
 3350TIP3    H2 9994   6.833   4.010   2.525
 3351TIP3   OH2 9995   3.839   1.193   1.646
 3351TIP3    H1 9996   3.808   1.270   1.599
 3351TIP3    H2 9997   3.777   1.124   1.622
 3352TIP3   OH2 9998   8.161   1.758   1.284
 3352TIP3    H1 9999   8.152   1.674   1.330
 3352TIP3    H210000   8.198   1.817   1.349
 3353TIP3   OH210001   2.899   4.034   3.733
 3353TIP3    H110002   2.836   4.071   3.795
 3353TIP3    H210003   2.855   3.957   3.697
 3354TIP3   OH210004   7.597   5.974   1.766
 3354TIP3    H110005   7.617   5.943   1.678
 3354TIP3    H210006   7.502   5.988   1.766
 3355TIP3   OH210007   4.713   5.076   3.167
 3355TIP3    H110008   4.631   5.117   3.141
 3355TIP3    H210009   4.775   5.099   3.097
 3356TIP3   OH210010   3.618   3.169   4.422
 3356TIP3    H110011   3.697   3.223   4.426
 3356TIP3    H210012   3.561   3.216   4.361
 3357TIP3   OH210013   4.099   1.559   0.799
 3357TIP3    H110014   4.177   1.542   0.851
 3357TIP3    H210015   4.057   1.633   0.842
 3358TIP3   OH210016   5.727   5.880   0.579
 3358TIP3    H110017   5.681   5.850   0.657
 3358TIP3    H210018   5.657   5.915   0.522
 3359TIP3   OH210019   2.431   5.177   5.396
 3359TIP3    H110020   2.465   5.164   5.485
 3359TIP3    H210021   2.383   5.097   5.376
 3360TIP3   OH210022   1.442   3.855   1.046
 3360TIP3    H110023   1.360   3.876   1.002
 3360TIP3    H210024   1.427   3.882   1.137
 3361TIP3   OH210025   4.354   6.141   1.306
 3361TIP3    H110026   4.303   6.071   1.264
 3361TIP3    H210027   4.345   6.124   1.400
 3362TIP3   OH210028   6.997   2.403   4.293
 3362TIP3    H110029   6.948   2.342   4.237
 3362TIP3    H210030   7.057   2.347   4.342
 3363TIP3   OH210031   1.794   6.104   5.385
 3363TIP3    H110032   1.865   6.097   5.449
 3363TIP3    H210033   1.722   6.146   5.433
 3364TIP3   OH210034   3.383   1.638   2.799
 3364TIP3    H110035   3.428   1.662   2.880
 3364TIP3    H210036   3.333   1.716   2.776
 3365TIP3   OH210037   6.982   7.062   3.487
 3365TIP3    H110038   6.887   7.058   3.489
 3365TIP3    H210039   7.005   7.069   3.395
 3366TIP3   OH210040   0.281   1.654   0.620
 3366TIP3    H110041   0.320   1.604   0.692
 3366TIP3    H210042   0.353   1.664   0.557
 3367TIP3   OH210043   4.657   6.958   2.412
 3367TIP3    H110044   4.671   7.012   2.490
 3367TIP3    H210045   4.606   6.883   2.443
 3368TIP3   OH210046   2.395   5.004   4.265
 3368TIP3    H110047   2.319   4.959   4.302
 3368TIP3    H210048   2.360   5.059   4.195
 3369TIP3   OH210049   1.580   2.249   3.986
 3369TIP3    H110050   1.578   2.164   4.030
 3369TIP3    H210051   1.541   2.309   4.049
 3370TIP3   OH210052   2.391   5.911   4.055
 3370TIP3    H110053   2.325   5.963   4.100
 3370TIP3    H210054   2.473   5.957   4.070
 3371TIP3   OH210055   2.727   0.798   6.636
 3371TIP3    H110056   2.782   0.864   6.594
 3371TIP3    H210057   2.738   0.720   6.582
 3372TIP3   OH210058   2.554   3.653   4.044
 3372TIP3    H110059   2.609   3.685   3.972
 3372TIP3    H210060   2.616   3.612   4.104
 3373TIP3   OH210061   5.872   3.994   3.198
 3373TIP3    H110062   5.867   3.932   3.126
 3373TIP3    H210063   5.845   3.944   3.275
 3374TIP3   OH210064   2.165   0.706   4.335
 3374TIP3    H110065   2.080   0.686   4.373
 3374TIP3    H210066   2.159   0.677   4.244
 3375TIP3   OH210067   1.369   6.024   1.342
 3375TIP3    H110068   1.278   6.053   1.342
 3375TIP3    H210069   1.413   6.083   1.281
 3376TIP3   OH210070   2.651   3.766   2.028
 3376TIP3    H110071   2.627   3.817   1.950
 3376TIP3    H210072   2.740   3.794   2.049
 3377TIP3   OH210073   7.837   1.847   0.722
 3377TIP3    H110074   7.846   1.843   0.627
 3377TIP3    H210075   7.799   1.933   0.739
 3378TIP3   OH210076   0.203   4.795   4.142
 3378TIP3    H110077   0.271   4.829   4.200
 3378TIP3    H210078   0.200   4.856   4.068
 3379TIP3   OH210079   6.106   4.971   6.257
 3379TIP3    H110080   6.066   5.013   6.180
 3379TIP3    H210081   6.191   5.015   6.267
 3380TIP3   OH210082   6.196   0.118   2.080
 3380TIP3    H110083   6.287   0.095   2.099
 3380TIP3    H210084   6.156   0.130   2.166
 3381TIP3   OH210085   0.119   6.086   0.153
 3381TIP3    H110086   0.046   6.067   0.212
 3381TIP3    H210087   0.144   6.000   0.118
 3382TIP3   OH210088   5.728   4.689   0.761
 3382TIP3    H110089   5.655   4.691   0.699
 3382TIP3    H210090   5.732   4.778   0.796
 3383TIP3   OH210091   6.100   2.524   0.962
 3383TIP3    H110092   6.041   2.490   1.029
 3383TIP3    H210093   6.091   2.619   0.968
 3384TIP3   OH210094   6.668   5.754   6.089
 3384TIP3    H110095   6.758   5.773   6.114
 3384TIP3    H210096   6.668   5.661   6.067
 3385TIP3   OH210097   6.452   1.447   1.279
 3385TIP3    H110098   6.382   1.393   1.243
 3385TIP3    H210099   6.528   1.388   1.283
 3386TIP3   OH210100   4.589   1.587   0.835
 3386TIP3    H110101   4.631   1.618   0.755
 3386TIP3    H210102   4.621   1.497   0.846
 3387TIP3   OH210103   6.143   2.590   3.312
 3387TIP3    H110104   6.054   2.565   3.289
 3387TIP3    H210105   6.174   2.641   3.237
 3388TIP3   OH210106   2.526   6.508   5.711
 3388TIP3    H110107   2.433   6.525   5.730
 3388TIP3    H210108   2.527   6.419   5.676
 3389TIP3   OH210109   0.161   0.475   3.929
 3389TIP3    H110110   0.200   0.502   3.846
 3389TIP3    H210111   0.080   0.525   3.936
 3390TIP3   OH210112   6.375   0.638   3.754
 3390TIP3    H110113   6.454   0.615   3.705
 3390TIP3    H210114   6.306   0.641   3.688
 3391TIP3   OH210115   3.134   0.683   5.473
 3391TIP3    H110116   3.229   0.687   5.466
 3391TIP3    H210117   3.106   0.645   5.390
 3392TIP3   OH210118   4.236   1.573   3.275
 3392TIP3    H110119   4.192   1.496   3.310
 3392TIP3    H210120   4.308   1.589   3.336
 3393TIP3   OH210121   0.870   1.690   1.510
 3393TIP3    H110122   0.924   1.768   1.523
 3393TIP3    H210123   0.844   1.695   1.418
 3394TIP3   OH210124   5.795   7.793   6.331
 3394TIP3    H110125   5.849   7.869   6.351
 3394TIP3    H210126   5.730   7.825   6.269
 3395TIP3   OH210127   2.885   4.365   5.182
 3395TIP3    H110128   2.893   4.351   5.087
 3395TIP3    H210129   2.869   4.277   5.217
 3396TIP3   OH210130   7.796   1.632   6.072
 3396TIP3    H110131   7.842   1.594   6.148
 3396TIP3    H210132   7.714   1.665   6.108
 3397TIP3   OH210133   3.385   0.088   1.539
 3397TIP3    H110134   3.342   0.152   1.483
 3397TIP3    H210135   3.392   0.131   1.624
 3398TIP3   OH210136   1.205   5.097   2.101
 3398TIP3    H110137   1.238   5.086   2.012
 3398TIP3    H210138   1.115   5.066   2.098
 3399TIP3   OH210139   7.226   2.972   3.170
 3399TIP3    H110140   7.174   2.992   3.092
 3399TIP3    H210141   7.273   2.891   3.147
 3400TIP3   OH210142   6.374   7.114   0.082
 3400TIP3    H110143   6.376   7.199   0.127
 3400TIP3    H210144   6.456   7.111   0.033
 3401TIP3   OH210145   7.383   2.180   3.332
 3401TIP3    H110146   7.327   2.122   3.384
 3401TIP3    H210147   7.439   2.223   3.396
 3402TIP3   OH210148   7.768   2.834   3.078
 3402TIP3    H110149   7.816   2.863   3.155
 3402TIP3    H210150   7.835   2.793   3.022
 3403TIP3   OH210151   7.216   3.058   5.871
 3403TIP3    H110152   7.197   3.067   5.777
 3403TIP3    H210153   7.185   3.140   5.909
 3404TIP3   OH210154   5.647   2.219   3.788
 3404TIP3    H110155   5.686   2.134   3.765
 3404TIP3    H210156   5.564   2.196   3.830
 3405TIP3   OH210157   7.783   7.705   0.951
 3405TIP3    H110158   7.841   7.636   0.919
 3405TIP3    H210159   7.826   7.738   1.030
 3406TIP3   OH210160   8.218   3.296   3.687
 3406TIP3    H110161   8.297   3.295   3.740
 3406TIP3    H210162   8.147   3.275   3.748
 3407TIP3   OH210163   6.061   3.906   4.951
 3407TIP3    H110164   5.996   3.839   4.932
 3407TIP3    H210165   6.048   3.927   5.044
 3408TIP3   OH210166   5.372   3.582   4.283
 3408TIP3    H110167   5.448   3.525   4.271
 3408TIP3    H210168   5.395   3.662   4.236
 3409TIP3   OH210169   6.624   1.722   3.819
 3409TIP3    H110170   6.536   1.686   3.805
 3409TIP3    H210171   6.683   1.649   3.799
 3410TIP3   OH210172   1.784   0.833   5.985
 3410TIP3    H110173   1.842   0.805   6.056
 3410TIP3    H210174   1.726   0.758   5.971
 3411TIP3   OH210175   7.662   7.203   0.558
 3411TIP3    H110176   7.588   7.258   0.580
 3411TIP3    H210177   7.625   7.115   0.549
 3412TIP3   OH210178   2.843   6.864   2.356
 3412TIP3    H110179   2.775   6.928   2.333
 3412TIP3    H210180   2.880   6.838   2.272
 3413TIP3   OH210181   0.059   0.457   2.352
 3413TIP3    H110182  -0.002   0.383   2.349
 3413TIP3    H210183   0.053   0.490   2.442
 3414TIP3   OH210184   5.132   3.476   5.694
 3414TIP3    H110185   5.056   3.529   5.717
 3414TIP3    H210186   5.145   3.491   5.601
 3415TIP3   OH210187   2.303   4.417   0.625
 3415TIP3    H110188   2.308   4.459   0.711
 3415TIP3    H210189   2.297   4.323   0.644
 3416TIP3   OH210190   5.558   2.223   0.385
 3416TIP3    H110191   5.640   2.234   0.335
 3416TIP3    H210192   5.551   2.304   0.436
 3417TIP3   OH210193   0.073   1.726   2.745
 3417TIP3    H110194   0.062   1.743   2.652
 3417TIP3    H210195   0.161   1.689   2.752
 3418TIP3   OH210196   4.154   1.007   2.643
 3418TIP3    H110197   4.161   1.099   2.668
 3418TIP3    H210198   4.084   1.006   2.578
 3419TIP3   OH210199   2.833   5.205   1.935
 3419TIP3    H110200   2.798   5.124   1.970
 3419TIP3    H210201   2.757   5.255   1.908
 3420TIP3   OH210202   7.424   4.279   0.969
 3420TIP3    H110203   7.337   4.303   0.937
 3420TIP3    H210204   7.418   4.186   0.988
 3421TIP3   OH210205   6.990   4.999   5.279
 3421TIP3    H110206   6.920   4.965   5.223
 3421TIP3    H210207   7.065   5.008   5.221
 3422TIP3   OH210208   2.110   2.702   0.848
 3422TIP3    H110209   2.196   2.693   0.889
 3422TIP3    H210210   2.057   2.747   0.915
 3423TIP3   OH210211   5.197   1.361   0.049
 3423TIP3    H110212   5.210   1.426  -0.019
 3423TIP3    H210213   5.224   1.405   0.130
 3424TIP3   OH210214   6.815   7.477   2.193
 3424TIP3    H110215   6.789   7.427   2.271
 3424TIP3    H210216   6.811   7.412   2.122
 3425TIP3   OH210217   2.808   7.321   4.759
 3425TIP3    H110218   2.829   7.350   4.848
 3425TIP3    H210219   2.718   7.289   4.765
 3426TIP3   OH210220   5.345   5.578   3.341
 3426TIP3    H110221   5.440   5.585   3.350
 3426TIP3    H210222   5.325   5.488   3.365
 3427TIP3   OH210223   0.914   5.954   5.136
 3427TIP3    H110224   0.848   5.908   5.188
 3427TIP3    H210225   0.936   5.893   5.066
 3428TIP3   OH210226   6.446   1.830   3.046
 3428TIP3    H110227   6.457   1.769   3.118
 3428TIP3    H210228   6.364   1.804   3.004
 3429TIP3   OH210229   1.403   3.466   6.161
 3429TIP3    H110230   1.319   3.513   6.172
 3429TIP3    H210231   1.411   3.413   6.240
 3430TIP3   OH210232   5.179   5.692   1.777
 3430TIP3    H110233   5.208   5.655   1.860
 3430TIP3    H210234   5.234   5.769   1.764
 3431TIP3   OH210235   5.943   3.321   1.229
 3431TIP3    H110236   5.951   3.269   1.149
 3431TIP3    H210237   6.024   3.303   1.278
 3432TIP3   OH210238   8.228   3.354   0.466
 3432TIP3    H110239   8.195   3.422   0.406
 3432TIP3    H210240   8.195   3.380   0.552
 3433TIP3   OH210241   2.730   3.210   2.766
 3433TIP3    H110242   2.763   3.152   2.834
 3433TIP3    H210243   2.804   3.266   2.743
 3434TIP3   OH210244   4.790   4.336   2.115
 3434TIP3    H110245   4.857   4.308   2.178
 3434TIP3    H210246   4.832   4.327   2.030
 3435TIP3   OH210247   6.358   4.288   2.707
 3435TIP3    H110248   6.322   4.373   2.681
 3435TIP3    H210249   6.281   4.235   2.729
 3436TIP3   OH210250   5.623   1.940   5.749
 3436TIP3    H110251   5.580   2.025   5.735
 3436TIP3    H210252   5.572   1.899   5.819
 3437TIP3   OH210253   8.159   5.221   4.536
 3437TIP3    H110254   8.088   5.286   4.526
 3437TIP3    H210255   8.189   5.205   4.447
 3438TIP3   OH210256   0.307   6.391   1.929
 3438TIP3    H110257   0.369   6.457   1.961
 3438TIP3    H210258   0.247   6.440   1.873
 3439TIP3   OH210259   1.872   0.741   5.019
 3439TIP3    H110260   1.867   0.836   5.025
 3439TIP3    H210261   1.790   0.710   5.057
 3440TIP3   OH210262   6.065   0.344   5.343
 3440TIP3    H110263   6.026   0.392   5.270
 3440TIP3    H210264   6.108   0.411   5.396
 3441TIP3   OH210265   1.098   5.368   5.148
 3441TIP3    H110266   1.028   5.418   5.192
 3441TIP3    H210267   1.113   5.293   5.205
 3442TIP3   OH210268   6.732   0.575   4.137
 3442TIP3    H110269   6.670   0.531   4.078
 3442TIP3    H210270   6.703   0.666   4.137
 3443TIP3   OH210271   1.725   6.078   6.069
 3443TIP3    H110272   1.677   6.072   5.987
 3443TIP3    H210273   1.678   6.145   6.119
 3444TIP3   OH210274   2.045   6.828   0.838
 3444TIP3    H110275   2.071   6.741   0.806
 3444TIP3    H210276   2.115   6.852   0.900
 3445TIP3   OH210277   4.966   0.340   0.834
 3445TIP3    H110278   5.004   0.314   0.918
 3445TIP3    H210279   4.906   0.411   0.856
 3446TIP3   OH210280   7.578   2.131   3.781
 3446TIP3    H110281   7.551   2.160   3.694
 3446TIP3    H210282   7.612   2.210   3.823
 3447TIP3   OH210283   6.203   7.238   3.005
 3447TIP3    H110284   6.118   7.222   2.965
 3447TIP3    H210285   6.266   7.229   2.934
 3448TIP3   OH210286   1.006   0.406   1.294
 3448TIP3    H110287   0.972   0.490   1.265
 3448TIP3    H210288   1.066   0.379   1.224
 3449TIP3   OH210289   5.598   0.183   3.332
 3449TIP3    H110290   5.644   0.200   3.250
 3449TIP3    H210291   5.540   0.109   3.312
 3450TIP3   OH210292   5.967   4.867   4.360
 3450TIP3    H110293   5.924   4.877   4.275
 3450TIP3    H210294   5.908   4.910   4.422
 3451TIP3   OH210295   7.001   5.413   3.934
 3451TIP3    H110296   6.908   5.425   3.952
 3451TIP3    H210297   7.046   5.442   4.014
 3452TIP3   OH210298   4.257   7.217   1.272
 3452TIP3    H110299   4.179   7.272   1.266
 3452TIP3    H210300   4.249   7.173   1.356
 3453TIP3   OH210301   0.964   7.500   6.696
 3453TIP3    H110302   0.894   7.462   6.643
 3453TIP3    H210303   1.022   7.543   6.632
 3454TIP3   OH210304   6.905   1.116   2.518
 3454TIP3    H110305   6.934   1.025   2.507
 3454TIP3    H210306   6.887   1.124   2.612
 3455TIP3   OH210307   3.032   1.978   5.415
 3455TIP3    H110308   3.092   1.915   5.375
 3455TIP3    H210309   3.030   1.953   5.508
 3456TIP3   OH210310   7.177   0.600   5.486
 3456TIP3    H110311   7.121   0.667   5.445
 3456TIP3    H210312   7.243   0.650   5.534
 3457TIP3   OH210313   3.205   3.056   2.471
 3457TIP3    H110314   3.282   3.042   2.527
 3457TIP3    H210315   3.130   3.050   2.530
 3458TIP3   OH210316   1.154   1.693   6.096
 3458TIP3    H110317   1.154   1.672   6.003
 3458TIP3    H210318   1.225   1.756   6.107
 3459TIP3   OH210319   3.306   1.186   2.843
 3459TIP3    H110320   3.312   1.095   2.813
 3459TIP3    H210321   3.328   1.238   2.766
 3460TIP3   OH210322   3.381   5.903   3.282
 3460TIP3    H110323   3.289   5.878   3.279
 3460TIP3    H210324   3.386   5.968   3.352
 3461TIP3   OH210325   0.583   3.156   3.409
 3461TIP3    H110326   0.585   3.062   3.392
 3461TIP3    H210327   0.511   3.189   3.355
 3462TIP3   OH210328   8.186   7.804   4.893
 3462TIP3    H110329   8.112   7.864   4.898
 3462TIP3    H210330   8.158   7.727   4.943
 3463TIP3   OH210331   3.455   6.494   5.766
 3463TIP3    H110332   3.532   6.441   5.751
 3463TIP3    H210333   3.381   6.437   5.743
 3464TIP3   OH210334   1.094   7.538   3.352
 3464TIP3    H110335   1.088   7.454   3.307
 3464TIP3    H210336   1.054   7.522   3.438
 3465TIP3   OH210337   1.843   5.716   6.038
 3465TIP3    H110338   1.916   5.697   5.980
 3465TIP3    H210339   1.877   5.780   6.100
 3466TIP3   OH210340   0.159   6.740   3.138
 3466TIP3    H110341   0.168   6.674   3.207
 3466TIP3    H210342   0.116   6.813   3.181
 3467TIP3   OH210343   7.885   5.013   3.101
 3467TIP3    H110344   7.906   4.952   3.030
 3467TIP3    H210345   7.917   4.970   3.180
 3468TIP3   OH210346   7.529   4.012   0.288
 3468TIP3    H110347   7.456   3.985   0.233
 3468TIP3    H210348   7.524   3.955   0.364
 3469TIP3   OH210349   5.926   0.962   0.646
 3469TIP3    H110350   5.932   1.056   0.663
 3469TIP3    H210351   5.991   0.947   0.577
 3470TIP3   OH210352   6.254   2.688   6.376
 3470TIP3    H110353   6.328   2.628   6.364
 3470TIP3    H210354   6.197   2.642   6.438
 3471TIP3   OH210355   0.823   2.573   4.268
 3471TIP3    H110356   0.839   2.516   4.343
 3471TIP3    H210357   0.899   2.560   4.211
 3472TIP3   OH210358   8.106   4.569   0.428
 3472TIP3    H110359   8.089   4.620   0.349
 3472TIP3    H210360   8.174   4.619   0.474
 3473TIP3   OH210361   0.261   5.946   6.756
 3473TIP3    H110362   0.315   5.884   6.803
 3473TIP3    H210363   0.316   5.977   6.684
 3474TIP3   OH210364   1.802   2.703   5.384
 3474TIP3    H110365   1.882   2.720   5.335
 3474TIP3    H210366   1.770   2.620   5.348
 3475TIP3   OH210367   3.271   2.535   2.184
 3475TIP3    H110368   3.223   2.603   2.230
 3475TIP3    H210369   3.245   2.454   2.227
 3476TIP3   OH210370   2.239   4.822   3.572
 3476TIP3    H110371   2.303   4.771   3.622
 3476TIP3    H210372   2.281   4.907   3.559
 3477TIP3   OH210373   0.292   2.018   3.285
 3477TIP3    H110374   0.211   2.047   3.328
 3477TIP3    H210375   0.354   2.089   3.299
 3478TIP3   OH210376   5.046   0.451   2.438
 3478TIP3    H110377   4.999   0.534   2.434
 3478TIP3    H210378   4.980   0.384   2.422
 3479TIP3   OH210379   7.862   6.201   2.568
 3479TIP3    H110380   7.956   6.219   2.561
 3479TIP3    H210381   7.857   6.116   2.610
 3480TIP3   OH210382   1.028   3.920   0.708
 3480TIP3    H110383   0.979   3.856   0.760
 3480TIP3    H210384   1.090   3.867   0.658
 3481TIP3   OH210385   0.995   4.209   2.527
 3481TIP3    H110386   1.043   4.290   2.543
 3481TIP3    H210387   0.986   4.169   2.613
 3482TIP3   OH210388   4.222   4.173   0.374
 3482TIP3    H110389   4.204   4.193   0.282
 3482TIP3    H210390   4.171   4.094   0.391
 3483TIP3   OH210391   5.518   7.172   0.412
 3483TIP3    H110392   5.468   7.217   0.480
 3483TIP3    H210393   5.603   7.217   0.410
 3484TIP3   OH210394   7.069   4.646   4.816
 3484TIP3    H110395   7.027   4.560   4.817
 3484TIP3    H210396   7.009   4.702   4.766
 3485TIP3   OH210397   8.262   1.128   3.464
 3485TIP3    H110398   8.280   1.123   3.370
 3485TIP3    H210399   8.170   1.103   3.473
 3486TIP3   OH210400   3.330   5.968   0.421
 3486TIP3    H110401   3.315   5.924   0.337
 3486TIP3    H210402   3.395   6.036   0.402
 3487TIP3   OH210403   2.612   7.425   5.141
 3487TIP3    H110404   2.690   7.461   5.099
 3487TIP3    H210405   2.540   7.479   5.109
 3488TIP3   OH210406   7.922   6.888   0.879
 3488TIP3    H110407   7.971   6.858   0.803
 3488TIP3    H210408   7.959   6.838   0.952
 3489TIP3   OH210409   6.812   7.298   0.357
 3489TIP3    H110410   6.840   7.229   0.297
 3489TIP3    H210411   6.839   7.379   0.315
 3490TIP3   OH210412   6.756   2.531   5.184
 3490TIP3    H110413   6.815   2.560   5.253
 3490TIP3    H210414   6.807   2.537   5.104
 3491TIP3   OH210415   6.528   7.354   3.874
 3491TIP3    H110416   6.461   7.319   3.815
 3491TIP3    H210417   6.523   7.299   3.952
 3492TIP3   OH210418   5.745   6.070   4.787
 3492TIP3    H110419   5.694   6.045   4.710
 3492TIP3    H210420   5.722   6.004   4.853
 3493TIP3   OH210421   5.741   4.870   0.089
 3493TIP3    H110422   5.799   4.804   0.052
 3493TIP3    H210423   5.795   4.915   0.155
 3494TIP3   OH210424   1.126   1.844   1.164
 3494TIP3    H110425   1.212   1.880   1.181
 3494TIP3    H210426   1.080   1.849   1.248
 3495TIP3   OH210427   3.167   4.372   0.071
 3495TIP3    H110428   3.186   4.311   0.000
 3495TIP3    H210429   3.076   4.399   0.056
 3496TIP3   OH210430   6.288   3.681   2.128
 3496TIP3    H110431   6.319   3.750   2.070
 3496TIP3    H210432   6.193   3.678   2.114
 3497TIP3   OH210433   6.990   5.840   2.621
 3497TIP3    H110434   6.962   5.773   2.682
 3497TIP3    H210435   7.085   5.833   2.618
 3498TIP3   OH210436   1.917   2.550   0.727
 3498TIP3    H110437   1.991   2.598   0.763
 3498TIP3    H210438   1.905   2.476   0.787
 3499TIP3   OH210439   2.948   6.028   0.603
 3499TIP3    H110440   2.944   6.109   0.654
 3499TIP3    H210441   2.860   5.991   0.609
 3500TIP3   OH210442   1.669   2.942   1.235
 3500TIP3    H110443   1.679   2.874   1.168
 3500TIP3    H210444   1.643   3.020   1.186
 3501TIP3   OH210445   5.614   1.714   6.167
 3501TIP3    H110446   5.535   1.716   6.222
 3501TIP3    H210447   5.580   1.707   6.078
 3502TIP3   OH210448   2.535   2.488   0.668
 3502TIP3    H110449   2.462   2.456   0.721
 3502TIP3    H210450   2.613   2.462   0.716
 3503TIP3   OH210451   4.291   2.489   4.350
 3503TIP3    H110452   4.333   2.407   4.324
 3503TIP3    H210453   4.311   2.549   4.278
 3504TIP3   OH210454   1.531   1.924   2.414
 3504TIP3    H110455   1.586   1.855   2.452
 3504TIP3    H210456   1.592   1.983   2.372
 3505TIP3   OH210457   8.099   1.401   6.122
 3505TIP3    H110458   8.182   1.352   6.123
 3505TIP3    H210459   8.116   1.475   6.064
 3506TIP3   OH210460   0.479   7.322   5.050
 3506TIP3    H110461   0.408   7.383   5.071
 3506TIP3    H210462   0.538   7.372   4.994
 3507TIP3   OH210463   6.928   0.814   6.591
 3507TIP3    H110464   7.008   0.784   6.548
 3507TIP3    H210465   6.873   0.736   6.598
 3508TIP3   OH210466   7.533   5.119   5.904
 3508TIP3    H110467   7.500   5.097   5.817
 3508TIP3    H210468   7.607   5.060   5.917
 3509TIP3   OH210469   4.379   1.894   1.773
 3509TIP3    H110470   4.351   1.936   1.692
 3509TIP3    H210471   4.470   1.923   1.785
 3510TIP3   OH210472   1.201   2.350   3.798
 3510TIP3    H110473   1.214   2.339   3.704
 3510TIP3    H210474   1.265   2.417   3.823
 3511TIP3   OH210475   0.368   7.245   2.646
 3511TIP3    H110476   0.449   7.285   2.615
 3511TIP3    H210477   0.322   7.316   2.691
 3512TIP3   OH210478   1.961   3.446   1.518
 3512TIP3    H110479   1.899   3.519   1.526
 3512TIP3    H210480   2.040   3.476   1.561
 3513TIP3   OH210481   6.531   7.728   5.336
 3513TIP3    H110482   6.465   7.797   5.343
 3513TIP3    H210483   6.561   7.713   5.425
 3514TIP3   OH210484   5.831   5.751   2.968
 3514TIP3    H110485   5.751   5.802   2.960
 3514TIP3    H210486   5.825   5.685   2.899
 3515TIP3   OH210487   5.963   3.195   5.057
 3515TIP3    H110488   5.912   3.206   5.137
 3515TIP3    H210489   5.960   3.101   5.039
 3516TIP3   OH210490   1.808   1.125   4.454
 3516TIP3    H110491   1.714   1.118   4.435
 3516TIP3    H210492   1.815   1.200   4.514
 3517TIP3   OH210493   1.586   5.588   3.309
 3517TIP3    H110494   1.546   5.579   3.396
 3517TIP3    H210495   1.674   5.619   3.327
 3518TIP3   OH210496   5.370   4.880   1.547
 3518TIP3    H110497   5.353   4.972   1.569
 3518TIP3    H210498   5.454   4.861   1.587
 3519TIP3   OH210499   6.895   0.520   5.532
 3519TIP3    H110500   6.987   0.499   5.548
 3519TIP3    H210501   6.892   0.547   5.440
 3520TIP3   OH210502   6.400   7.759   0.251
 3520TIP3    H110503   6.321   7.738   0.300
 3520TIP3    H210504   6.471   7.722   0.302
 3521TIP3   OH210505   8.014   4.444   1.674
 3521TIP3    H110506   7.932   4.492   1.685
 3521TIP3    H210507   7.987   4.354   1.657
 3522TIP3   OH210508   4.849   4.448   5.337
 3522TIP3    H110509   4.907   4.512   5.377
 3522TIP3    H210510   4.772   4.446   5.393
 3523TIP3   OH210511   3.613   1.332   3.450
 3523TIP3    H110512   3.553   1.257   3.448
 3523TIP3    H210513   3.600   1.371   3.536
 3524TIP3   OH210514   3.876   2.848   0.566
 3524TIP3    H110515   3.796   2.852   0.617
 3524TIP3    H210516   3.926   2.776   0.605
 3525TIP3   OH210517   1.564   6.953   1.592
 3525TIP3    H110518   1.522   6.962   1.507
 3525TIP3    H210519   1.603   7.039   1.609
 3526TIP3   OH210520   3.511   2.215   1.743
 3526TIP3    H110521   3.483   2.304   1.721
 3526TIP3    H210522   3.430   2.164   1.747
 3527TIP3   OH210523   0.954   0.153   3.316
 3527TIP3    H110524   0.918   0.065   3.325
 3527TIP3    H210525   0.879   0.208   3.296
 3528TIP3   OH210526   7.916   5.995   1.491
 3528TIP3    H110527   7.840   5.937   1.490
 3528TIP3    H210528   7.991   5.936   1.488
 3529TIP3   OH210529   7.199   4.909   1.227
 3529TIP3    H110530   7.232   4.822   1.205
 3529TIP3    H210531   7.249   4.934   1.305
 3530TIP3   OH210532   3.182   2.523   3.521
 3530TIP3    H110533   3.229   2.446   3.488
 3530TIP3    H210534   3.227   2.598   3.483
 3531TIP3   OH210535   6.362   5.634   0.434
 3531TIP3    H110536   6.356   5.583   0.353
 3531TIP3    H210537   6.440   5.689   0.422
 3532TIP3   OH210538   2.149   0.490   6.156
 3532TIP3    H110539   2.165   0.514   6.247
 3532TIP3    H210540   2.058   0.515   6.141
 3533TIP3   OH210541   6.988   4.810   2.911
 3533TIP3    H110542   6.974   4.903   2.929
 3533TIP3    H210543   6.900   4.773   2.901
 3534TIP3   OH210544   2.918   2.753   6.334
 3534TIP3    H110545   2.996   2.721   6.380
 3534TIP3    H210546   2.855   2.682   6.340
 3535TIP3   OH210547   1.284   7.355   6.289
 3535TIP3    H110548   1.253   7.309   6.211
 3535TIP3    H210549   1.319   7.437   6.256
 3536TIP3   OH210550   0.480   4.324   1.403
 3536TIP3    H110551   0.468   4.418   1.414
 3536TIP3    H210552   0.438   4.285   1.480
 3537TIP3   OH210553   5.358   4.191   3.854
 3537TIP3    H110554   5.338   4.213   3.763
 3537TIP3    H210555   5.453   4.187   3.858
 3538TIP3   OH210556   3.961   3.226   3.740
 3538TIP3    H110557   3.998   3.262   3.821
 3538TIP3    H210558   4.010   3.269   3.670
 3539TIP3   OH210559   7.623   2.075   1.563
 3539TIP3    H110560   7.613   2.158   1.610
 3539TIP3    H210561   7.704   2.038   1.598
 3540TIP3   OH210562   6.351   3.351   4.101
 3540TIP3    H110563   6.302   3.434   4.107
 3540TIP3    H210564   6.287   3.288   4.069
 3541TIP3   OH210565   5.377   3.618   1.180
 3541TIP3    H110566   5.388   3.674   1.103
 3541TIP3    H210567   5.303   3.657   1.227
 3542TIP3   OH210568   0.180   7.550   6.756
 3542TIP3    H110569   0.103   7.532   6.702
 3542TIP3    H210570   0.151   7.617   6.817
 3543TIP3   OH210571   1.809   6.547   0.250
 3543TIP3    H110572   1.772   6.615   0.306
 3543TIP3    H210573   1.846   6.594   0.175
 3544TIP3   OH210574   6.941   3.633   5.750
 3544TIP3    H110575   6.882   3.707   5.765
 3544TIP3    H210576   7.024   3.674   5.724
 3545TIP3   OH210577   7.446   3.029   6.035
 3545TIP3    H110578   7.375   3.030   5.971
 3545TIP3    H210579   7.413   3.077   6.110
 3546TIP3   OH210580   2.578   6.968   5.372
 3546TIP3    H110581   2.584   7.062   5.361
 3546TIP3    H210582   2.550   6.955   5.462
 3547TIP3   OH210583   3.694   7.272   5.734
 3547TIP3    H110584   3.744   7.199   5.771
 3547TIP3    H210585   3.746   7.349   5.755
 3548TIP3   OH210586   2.454   1.468   5.654
 3548TIP3    H110587   2.405   1.495   5.732
 3548TIP3    H210588   2.392   1.481   5.582
 3549TIP3   OH210589   5.227   5.823   4.409
 3549TIP3    H110590   5.273   5.777   4.340
 3549TIP3    H210591   5.251   5.915   4.397
 3550TIP3   OH210592   4.493   7.024   6.543
 3550TIP3    H110593   4.445   6.948   6.509
 3550TIP3    H210594   4.469   7.096   6.485
 3551TIP3   OH210595   0.887   7.320   4.339
 3551TIP3    H110596   0.849   7.234   4.319
 3551TIP3    H210597   0.865   7.374   4.263
 3552TIP3   OH210598   3.488   4.107   2.815
 3552TIP3    H110599   3.579   4.090   2.839
 3552TIP3    H210600   3.476   4.201   2.827
 3553TIP3   OH210601   2.348   2.451   1.212
 3553TIP3    H110602   2.430   2.470   1.257
 3553TIP3    H210603   2.332   2.358   1.231
 3554TIP3   OH210604   4.031   2.819   0.907
 3554TIP3    H110605   3.946   2.863   0.912
 3554TIP3    H210606   4.091   2.877   0.953
 3555TIP3   OH210607   2.515   5.743   6.145
 3555TIP3    H110608   2.464   5.678   6.096
 3555TIP3    H210609   2.592   5.695   6.176
 3556TIP3   OH210610   1.858   4.134   0.185
 3556TIP3    H110611   1.924   4.072   0.156
 3556TIP3    H210612   1.863   4.133   0.280
 3557TIP3   OH210613   0.763   2.857   4.736
 3557TIP3    H110614   0.722   2.772   4.718
 3557TIP3    H210615   0.691   2.915   4.757
 3558TIP3   OH210616   6.374   2.746   5.421
 3558TIP3    H110617   6.422   2.663   5.421
 3558TIP3    H210618   6.305   2.734   5.486
 3559TIP3   OH210619   3.592   0.952   6.585
 3559TIP3    H110620   3.659   1.020   6.578
 3559TIP3    H210621   3.551   0.968   6.670
 3560TIP3   OH210622   4.750   3.620   4.190
 3560TIP3    H110623   4.692   3.627   4.266
 3560TIP3    H210624   4.694   3.638   4.115
 3561TIP3   OH210625   2.568   0.118   0.561
 3561TIP3    H110626   2.522   0.193   0.598
 3561TIP3    H210627   2.523   0.042   0.598
 3562TIP3   OH210628   1.235   4.951   3.574
 3562TIP3    H110629   1.172   4.949   3.503
 3562TIP3    H210630   1.209   4.879   3.631
 3563TIP3   OH210631   4.381   0.580   1.387
 3563TIP3    H110632   4.315   0.648   1.401
 3563TIP3    H210633   4.447   0.622   1.331
 3564TIP3   OH210634   7.916   2.595   0.112
 3564TIP3    H110635   7.854   2.660   0.145
 3564TIP3    H210636   7.901   2.595   0.017
 3565TIP3   OH210637   5.575   4.969   6.621
 3565TIP3    H110638   5.598   4.910   6.549
 3565TIP3    H210639   5.482   4.987   6.607
 3566TIP3   OH210640   3.527   0.585   4.751
 3566TIP3    H110641   3.566   0.587   4.839
 3566TIP3    H210642   3.569   0.510   4.708
 3567TIP3   OH210643   2.859   7.187   5.358
 3567TIP3    H110644   2.901   7.198   5.273
 3567TIP3    H210645   2.765   7.198   5.340
 3568TIP3   OH210646   8.251   6.466   3.797
 3568TIP3    H110647   8.156   6.473   3.787
 3568TIP3    H210648   8.278   6.551   3.831
 3569TIP3   OH210649   7.133   1.232   4.472
 3569TIP3    H110650   7.050   1.186   4.459
 3569TIP3    H210651   7.154   1.217   4.564
 3570TIP3   OH210652   6.529   7.036   3.767
 3570TIP3    H110653   6.544   7.114   3.715
 3570TIP3    H210654   6.591   7.043   3.839
 3571TIP3   OH210655   2.084   1.168   3.496
 3571TIP3    H110656   2.013   1.218   3.535
 3571TIP3    H210657   2.049   1.080   3.486
 3572TIP3   OH210658   4.510   6.333   5.456
 3572TIP3    H110659   4.517   6.323   5.361
 3572TIP3    H210660   4.450   6.263   5.482
 3573TIP3   OH210661   1.764   0.829   3.364
 3573TIP3    H110662   1.790   0.904   3.417
 3573TIP3    H210663   1.739   0.762   3.427
 3574TIP3   OH210664   0.408   0.970   6.470
 3574TIP3    H110665   0.452   1.024   6.536
 3574TIP3    H210666   0.380   0.892   6.517
 3575TIP3   OH210667   3.096   1.568   3.200
 3575TIP3    H110668   3.057   1.598   3.118
 3575TIP3    H210669   3.174   1.519   3.173
 3576TIP3   OH210670   5.007   0.214   0.205
 3576TIP3    H110671   4.925   0.240   0.248
 3576TIP3    H210672   5.076   0.241   0.266
 3577TIP3   OH210673   7.498   1.507   2.419
 3577TIP3    H110674   7.561   1.578   2.431
 3577TIP3    H210675   7.476   1.480   2.508
 3578TIP3   OH210676   2.365   4.673   3.809
 3578TIP3    H110677   2.297   4.608   3.830
 3578TIP3    H210678   2.446   4.634   3.841
 3579TIP3   OH210679   4.037   2.722   5.750
 3579TIP3    H110680   4.051   2.651   5.687
 3579TIP3    H210681   4.124   2.739   5.786
 3580TIP3   OH210682   0.751   4.348   2.762
 3580TIP3    H110683   0.683   4.386   2.707
 3580TIP3    H210684   0.742   4.254   2.750
 3581TIP3   OH210685   6.549   4.030   3.042
 3581TIP3    H110686   6.639   4.005   3.021
 3581TIP3    H210687   6.497   3.953   3.018
 3582TIP3   OH210688   0.152   0.477   4.689
 3582TIP3    H110689   0.202   0.435   4.618
 3582TIP3    H210690   0.149   0.569   4.664
 3583TIP3   OH210691   6.445   4.472   3.624
 3583TIP3    H110692   6.433   4.495   3.716
 3583TIP3    H210693   6.358   4.445   3.594
 3584TIP3   OH210694   4.253   1.788   6.391
 3584TIP3    H110695   4.295   1.851   6.332
 3584TIP3    H210696   4.232   1.838   6.469
 3585TIP3   OH210697   0.302   5.542   1.437
 3585TIP3    H110698   0.265   5.584   1.515
 3585TIP3    H210699   0.396   5.539   1.455
 3586TIP3   OH210700   6.058   6.545   5.017
 3586TIP3    H110701   5.973   6.506   5.039
 3586TIP3    H210702   6.044   6.639   5.023
 3587TIP3   OH210703   5.863   6.794   2.128
 3587TIP3    H110704   5.949   6.822   2.158
 3587TIP3    H210705   5.880   6.746   2.046
 3588TIP3   OH210706   4.618   4.252   2.761
 3588TIP3    H110707   4.568   4.259   2.680
 3588TIP3    H210708   4.560   4.208   2.822
 3589TIP3   OH210709   1.619   4.078   2.794
 3589TIP3    H110710   1.620   4.172   2.814
 3589TIP3    H210711   1.633   4.036   2.879
 3590TIP3   OH210712   3.600   1.470   5.587
 3590TIP3    H110713   3.667   1.536   5.604
 3590TIP3    H210714   3.648   1.399   5.544
 3591TIP3   OH210715   7.359   1.347   5.628
 3591TIP3    H110716   7.443   1.392   5.614
 3591TIP3    H210717   7.296   1.418   5.638
 3592TIP3   OH210718   7.439   5.805   6.587
 3592TIP3    H110719   7.480   5.733   6.540
 3592TIP3    H210720   7.444   5.780   6.679
 3593TIP3   OH210721   2.778   5.997   4.063
 3593TIP3    H110722   2.746   5.941   3.992
 3593TIP3    H210723   2.872   6.007   4.045
 3594TIP3   OH210724   2.816   1.302   5.885
 3594TIP3    H110725   2.827   1.381   5.832
 3594TIP3    H210726   2.815   1.334   5.976
 3595TIP3   OH210727   2.419   6.190   2.441
 3595TIP3    H110728   2.400   6.096   2.439
 3595TIP3    H210729   2.394   6.218   2.529
 3596TIP3   OH210730   4.310   7.602   1.830
 3596TIP3    H110731   4.354   7.574   1.910
 3596TIP3    H210732   4.233   7.545   1.824
 3597TIP3   OH210733   6.366   3.994   0.138
 3597TIP3    H110734   6.336   4.071   0.090
 3597TIP3    H210735   6.453   3.976   0.102
 3598TIP3   OH210736   7.316   5.625   1.670
 3598TIP3    H110737   7.253   5.649   1.739
 3598TIP3    H210738   7.325   5.705   1.617
 3599TIP3   OH210739   7.343   6.110   1.775
 3599TIP3    H110740   7.353   6.146   1.863
 3599TIP3    H210741   7.354   6.185   1.717
 3600TIP3   OH210742   1.738   4.690   6.772
 3600TIP3    H110743   1.684   4.727   6.702
 3600TIP3    H210744   1.675   4.657   6.836
 3601TIP3   OH210745   6.224   4.614   2.357
 3601TIP3    H110746   6.301   4.565   2.330
 3601TIP3    H210747   6.152   4.576   2.307
 3602TIP3   OH210748   4.951   1.772   5.882
 3602TIP3    H110749   4.879   1.709   5.887
 3602TIP3    H210750   4.929   1.838   5.948
 3603TIP3   OH210751   4.471   5.468   3.264
 3603TIP3    H110752   4.421   5.546   3.238
 3603TIP3    H210753   4.560   5.500   3.277
 3604TIP3   OH210754   5.977   0.688   1.968
 3604TIP3    H110755   5.992   0.769   1.918
 3604TIP3    H210756   6.031   0.623   1.923
 3605TIP3   OH210757   5.049   2.328   3.749
 3605TIP3    H110758   5.081   2.338   3.839
 3605TIP3    H210759   4.983   2.259   3.754
 3606TIP3   OH210760   1.879   3.634   0.880
 3606TIP3    H110761   1.934   3.686   0.821
 3606TIP3    H210762   1.893   3.543   0.852
 3607TIP3   OH210763   3.112   1.726   2.932
 3607TIP3    H110764   3.030   1.728   2.883
 3607TIP3    H210765   3.166   1.661   2.886
 3608TIP3   OH210766   0.093   1.917   5.842
 3608TIP3    H110767   0.006   1.931   5.881
 3608TIP3    H210768   0.153   1.960   5.903
 3609TIP3   OH210769   3.081   7.131   0.758
 3609TIP3    H110770   3.118   7.141   0.846
 3609TIP3    H210771   3.039   7.046   0.759
 3610TIP3   OH210772   3.430   6.325   6.130
 3610TIP3    H110773   3.415   6.350   6.222
 3610TIP3    H210774   3.499   6.259   6.135
 3611TIP3   OH210775   3.280   6.884   6.354
 3611TIP3    H110776   3.352   6.858   6.298
 3611TIP3    H210777   3.313   6.960   6.402
 3612TIP3   OH210778   2.342   3.431   6.298
 3612TIP3    H110779   2.327   3.470   6.384
 3612TIP3    H210780   2.377   3.504   6.245
 3613TIP3   OH210781   3.047   3.251   0.579
 3613TIP3    H110782   2.981   3.222   0.642
 3613TIP3    H210783   3.017   3.217   0.495
 3614TIP3   OH210784   5.042   7.299   0.862
 3614TIP3    H110785   5.096   7.247   0.920
 3614TIP3    H210786   5.021   7.378   0.913
 3615TIP3   OH210787   1.898   5.030   1.470
 3615TIP3    H110788   1.891   4.955   1.411
 3615TIP3    H210789   1.952   4.999   1.542
 3616TIP3   OH210790   0.969   1.529   6.725
 3616TIP3    H110791   1.017   1.464   6.674
 3616TIP3    H210792   0.893   1.482   6.760
 3617TIP3   OH210793   4.012   1.022   4.167
 3617TIP3    H110794   4.051   1.105   4.138
 3617TIP3    H210795   4.005   1.031   4.262
 3618TIP3   OH210796   0.066   5.784   0.005
 3618TIP3    H110797   0.091   5.801   0.096
 3618TIP3    H210798   0.134   5.724  -0.027
 3619TIP3   OH210799   8.004   7.302   3.853
 3619TIP3    H110800   7.991   7.305   3.759
 3619TIP3    H210801   8.012   7.209   3.874
 3620TIP3   OH210802   8.237   4.221   1.548
 3620TIP3    H110803   8.235   4.143   1.492
 3620TIP3    H210804   8.262   4.292   1.489
 3621TIP3   OH210805   4.599   2.385   3.338
 3621TIP3    H110806   4.595   2.323   3.265
 3621TIP3    H210807   4.518   2.436   3.331
 3622TIP3   OH210808   7.756   0.463   2.434
 3622TIP3    H110809   7.740   0.541   2.381
 3622TIP3    H210810   7.687   0.466   2.501
 3623TIP3   OH210811   6.587   0.248   5.076
 3623TIP3    H110812   6.637   0.235   5.157
 3623TIP3    H210813   6.610   0.173   5.022
 3624TIP3   OH210814   7.968   6.789   2.691
 3624TIP3    H110815   8.007   6.852   2.630
 3624TIP3    H210816   7.879   6.776   2.657
 3625TIP3   OH210817   7.024   7.580   5.162
 3625TIP3    H110818   7.033   7.675   5.155
 3625TIP3    H210819   6.950   7.568   5.222
 3626TIP3   OH210820   5.919   2.441   2.266
 3626TIP3    H110821   6.007   2.444   2.227
 3626TIP3    H210822   5.935   2.424   2.358
 3627TIP3   OH210823   7.458   4.965   2.772
 3627TIP3    H110824   7.386   4.967   2.834
 3627TIP3    H210825   7.529   4.920   2.818
 3628TIP3   OH210826   6.506   6.536   1.941
 3628TIP3    H110827   6.588   6.570   1.907
 3628TIP3    H210828   6.453   6.614   1.959
 3629TIP3   OH210829   7.809   2.789   1.832
 3629TIP3    H110830   7.873   2.729   1.872
 3629TIP3    H210831   7.725   2.743   1.840
 3630TIP3   OH210832   6.543   3.203   3.707
 3630TIP3    H110833   6.552   3.155   3.789
 3630TIP3    H210834   6.491   3.280   3.729
 3631TIP3   OH210835   6.586   5.387   3.264
 3631TIP3    H110836   6.640   5.387   3.343
 3631TIP3    H210837   6.647   5.362   3.194
 3632TIP3   OH210838   3.975   0.959   6.603
 3632TIP3    H110839   3.948   0.939   6.513
 3632TIP3    H210840   3.976   1.055   6.606
 3633TIP3   OH210841   3.807   6.922   3.083
 3633TIP3    H110842   3.848   6.953   3.002
 3633TIP3    H210843   3.748   6.852   3.055
 3634TIP3   OH210844   0.366   5.152   6.233
 3634TIP3    H110845   0.440   5.195   6.275
 3634TIP3    H210846   0.337   5.087   6.296
 3635TIP3   OH210847   0.945   1.088   3.027
 3635TIP3    H110848   0.945   1.161   3.088
 3635TIP3    H210849   0.854   1.059   3.022
 3636TIP3   OH210850   2.296   2.168   2.917
 3636TIP3    H110851   2.234   2.097   2.898
 3636TIP3    H210852   2.341   2.139   2.996
 3637TIP3   OH210853   6.622   0.809   4.101
 3637TIP3    H110854   6.534   0.782   4.076
 3637TIP3    H210855   6.636   0.892   4.055
 3638TIP3   OH210856   6.317   6.008   1.641
 3638TIP3    H110857   6.381   6.069   1.606
 3638TIP3    H210858   6.247   6.064   1.676
 3639TIP3   OH210859   4.554   2.707   0.480
 3639TIP3    H110860   4.622   2.727   0.545
 3639TIP3    H210861   4.474   2.744   0.517
 3640TIP3   OH210862   5.724   0.665   4.516
 3640TIP3    H110863   5.657   0.633   4.456
 3640TIP3    H210864   5.772   0.586   4.543
 3641TIP3   OH210865   1.761   2.949   0.621
 3641TIP3    H110866   1.710   3.024   0.590
 3641TIP3    H210867   1.830   2.988   0.675
 3642TIP3   OH210868   6.504   0.100   3.261
 3642TIP3    H110869   6.411   0.104   3.238
 3642TIP3    H210870   6.536   0.020   3.220
 3643TIP3   OH210871   2.196   0.214   4.928
 3643TIP3    H110872   2.114   0.205   4.976
 3643TIP3    H210873   2.170   0.243   4.841
 3644TIP3   OH210874   6.921   3.857   0.887
 3644TIP3    H110875   6.912   3.774   0.840
 3644TIP3    H210876   7.004   3.849   0.934
 3645TIP3   OH210877   8.105   1.771   4.486
 3645TIP3    H110878   8.017   1.806   4.503
 3645TIP3    H210879   8.116   1.781   4.391
 3646TIP3   OH210880   5.939   5.351   1.927
 3646TIP3    H110881   5.973   5.276   1.975
 3646TIP3    H210882   6.003   5.367   1.857
 3647TIP3   OH210883   1.497   1.356   6.307
 3647TIP3    H110884   1.468   1.397   6.389
 3647TIP3    H210885   1.480   1.421   6.240
 3648TIP3   OH210886   3.122   4.124   5.916
 3648TIP3    H110887   3.167   4.090   5.993
 3648TIP3    H210888   3.160   4.076   5.843
 3649TIP3   OH210889   7.075   5.663   4.836
 3649TIP3    H110890   7.126   5.589   4.803
 3649TIP3    H210891   7.043   5.634   4.922
 3650TIP3   OH210892   7.529   3.356   2.150
 3650TIP3    H110893   7.591   3.308   2.094
 3650TIP3    H210894   7.494   3.425   2.094
 3651TIP3   OH210895   3.626   0.486   6.107
 3651TIP3    H110896   3.621   0.393   6.085
 3651TIP3    H210897   3.700   0.492   6.168
 3652TIP3   OH210898   0.963   2.813   3.527
 3652TIP3    H110899   0.975   2.726   3.490
 3652TIP3    H210900   0.974   2.801   3.621
 3653TIP3   OH210901   7.653   2.239   2.883
 3653TIP3    H110902   7.576   2.294   2.891
 3653TIP3    H210903   7.648   2.179   2.957
 3654TIP3   OH210904   0.183   7.804   4.909
 3654TIP3    H110905   0.090   7.819   4.894
 3654TIP3    H210906   0.194   7.709   4.897
 3655TIP3   OH210907   7.814   6.441   6.306
 3655TIP3    H110908   7.868   6.362   6.302
 3655TIP3    H210909   7.741   6.418   6.364
 3656TIP3   OH210910   7.765   5.849   0.482
 3656TIP3    H110911   7.729   5.761   0.472
 3656TIP3    H210912   7.692   5.908   0.463
 3657TIP3   OH210913   0.908   6.849   1.056
 3657TIP3    H110914   0.964   6.893   1.121
 3657TIP3    H210915   0.825   6.837   1.101
 3658TIP3   OH210916   0.422   7.367   0.589
 3658TIP3    H110917   0.482   7.293   0.587
 3658TIP3    H210918   0.387   7.368   0.678
 3659TIP3   OH210919   1.680   2.837   1.770
 3659TIP3    H110920   1.632   2.860   1.690
 3659TIP3    H210921   1.612   2.819   1.835
 3660TIP3   OH210922   4.145   3.053   3.429
 3660TIP3    H110923   4.174   3.128   3.377
 3660TIP3    H210924   4.192   3.062   3.512
 3661TIP3   OH210925   1.792   0.750   1.141
 3661TIP3    H110926   1.721   0.766   1.080
 3661TIP3    H210927   1.774   0.808   1.215
 3662TIP3   OH210928   1.587   7.414   1.380
 3662TIP3    H110929   1.616   7.352   1.314
 3662TIP3    H210930   1.668   7.438   1.426
 3663TIP3   OH210931   6.096   7.330   1.040
 3663TIP3    H110932   6.113   7.365   0.953
 3663TIP3    H210933   6.129   7.398   1.100
 3664TIP3   OH210934   2.952   7.004   3.566
 3664TIP3    H110935   2.980   7.075   3.624
 3664TIP3    H210936   3.024   6.994   3.504
 3665TIP3   OH210937   5.358   3.622   2.646
 3665TIP3    H110938   5.318   3.598   2.562
 3665TIP3    H210939   5.288   3.668   2.693
 3666TIP3   OH210940   3.805   0.811   2.534
 3666TIP3    H110941   3.825   0.902   2.555
 3666TIP3    H210942   3.829   0.802   2.442
 3667TIP3   OH210943   4.042   6.069   0.626
 3667TIP3    H110944   4.040   5.994   0.567
 3667TIP3    H210945   4.085   6.036   0.705
 3668TIP3   OH210946   2.479   6.146   5.953
 3668TIP3    H110947   2.403   6.162   6.009
 3668TIP3    H210948   2.548   6.202   5.989
 3669TIP3   OH210949   0.247   5.548   2.130
 3669TIP3    H110950   0.188   5.573   2.059
 3669TIP3    H210951   0.236   5.616   2.196
 3670TIP3   OH210952   7.015   4.673   1.638
 3670TIP3    H110953   6.992   4.684   1.730
 3670TIP3    H210954   7.085   4.736   1.623
 3671TIP3   OH210955   0.953   5.653   1.371
 3671TIP3    H110956   1.031   5.708   1.367
 3671TIP3    H210957   0.883   5.712   1.399
 3672TIP3   OH210958   4.035   0.307   2.710
 3672TIP3    H110959   4.113   0.363   2.703
 3672TIP3    H210960   4.050   0.237   2.646
 3673TIP3   OH210961   4.902   2.127   3.440
 3673TIP3    H110962   4.829   2.067   3.457
 3673TIP3    H210963   4.876   2.174   3.361
 3674TIP3   OH210964   2.031   3.191   3.340
 3674TIP3    H110965   2.046   3.253   3.411
 3674TIP3    H210966   2.107   3.134   3.341
 3675TIP3   OH210967   3.376   0.800   0.288
 3675TIP3    H110968   3.463   0.762   0.299
 3675TIP3    H210969   3.317   0.735   0.326
 3676TIP3   OH210970   7.649   6.058   6.083
 3676TIP3    H110971   7.597   6.055   6.002
 3676TIP3    H210972   7.677   5.968   6.097
 3677TIP3   OH210973   6.607   6.600   4.602
 3677TIP3    H110974   6.627   6.631   4.690
 3677TIP3    H210975   6.654   6.517   4.594
 3678TIP3   OH210976   1.147   3.325   1.928
 3678TIP3    H110977   1.203   3.280   1.990
 3678TIP3    H210978   1.138   3.413   1.962
 3679TIP3   OH210979   0.247   0.627   1.878
 3679TIP3    H110980   0.188   0.568   1.831
 3679TIP3    H210981   0.317   0.570   1.910
 3680TIP3   OH210982   1.976   1.247   4.101
 3680TIP3    H110983   2.062   1.287   4.112
 3680TIP3    H210984   1.963   1.244   4.006
 3681TIP3   OH210985   2.735   1.055   0.402
 3681TIP3    H110986   2.763   1.145   0.419
 3681TIP3    H210987   2.800   1.022   0.340
 3682TIP3   OH210988   0.990   0.277   0.866
 3682TIP3    H110989   1.044   0.201   0.847
 3682TIP3    H210990   0.906   0.241   0.896
 3683TIP3   OH210991   5.619   4.125   0.195
 3683TIP3    H110992   5.555   4.148   0.127
 3683TIP3    H210993   5.672   4.056   0.156
 3684TIP3   OH210994   8.170   4.763   4.116
 3684TIP3    H110995   8.155   4.858   4.116
 3684TIP3    H210996   8.256   4.752   4.156
 3685TIP3   OH210997   1.858   2.642   1.640
 3685TIP3    H110998   1.785   2.698   1.668
 3685TIP3    H210999   1.935   2.681   1.681
 3686TIP3   OH211000   2.016   3.047   6.058
 3686TIP3    H111001   1.995   3.040   6.151
 3686TIP3    H211002   1.982   2.967   6.019
 3687TIP3   OH211003   1.876   3.611   4.280
 3687TIP3    H111004   1.869   3.676   4.350
 3687TIP3    H211005   1.817   3.643   4.211
 3688TIP3   OH211006   2.300   5.801   2.138
 3688TIP3    H111007   2.350   5.731   2.179
 3688TIP3    H211008   2.294   5.776   2.046
 3689TIP3   OH211009   7.237   0.479   3.722
 3689TIP3    H111010   7.154   0.441   3.695
 3689TIP3    H211011   7.214   0.539   3.793
 3690TIP3   OH211012   2.917   1.369   6.804
 3690TIP3    H111013   2.867   1.290   6.824
 3690TIP3    H211014   2.967   1.347   6.726
 3691TIP3   OH211015   7.554   6.764   5.153
 3691TIP3    H111016   7.551   6.668   5.155
 3691TIP3    H211017   7.544   6.790   5.244
 3692TIP3   OH211018   5.798   6.433   6.467
 3692TIP3    H111019   5.739   6.497   6.506
 3692TIP3    H211020   5.741   6.370   6.423
 3693TIP3   OH211021   1.366   2.650   2.016
 3693TIP3    H111022   1.329   2.644   1.927
 3693TIP3    H211023   1.433   2.718   2.009
 3694TIP3   OH211024   1.485   7.622   1.217
 3694TIP3    H111025   1.564   7.673   1.238
 3694TIP3    H211026   1.490   7.546   1.275
 3695TIP3   OH211027   7.874   5.262   3.574
 3695TIP3    H111028   7.965   5.284   3.554
 3695TIP3    H211029   7.873   5.249   3.669
 3696TIP3   OH211030   1.519   5.635   2.225
 3696TIP3    H111031   1.534   5.549   2.264
 3696TIP3    H211032   1.600   5.656   2.179
 3697TIP3   OH211033   4.452   2.914   3.162
 3697TIP3    H111034   4.536   2.931   3.120
 3697TIP3    H211035   4.471   2.850   3.231
 3698TIP3   OH211036   5.723   7.094   2.989
 3698TIP3    H111037   5.718   7.189   3.002
 3698TIP3    H211038   5.702   7.056   3.074
 3699TIP3   OH211039   6.216   7.734   6.553
 3699TIP3    H111040   6.243   7.786   6.477
 3699TIP3    H211041   6.298   7.706   6.593
 3700TIP3   OH211042   8.091   4.976   4.309
 3700TIP3    H111043   8.057   5.064   4.292
 3700TIP3    H211044   8.020   4.932   4.356
 3701TIP3   OH211045   6.581   2.153   0.225
 3701TIP3    H111046   6.565   2.074   0.173
 3701TIP3    H211047   6.495   2.192   0.235
 3702TIP3   OH211048   2.770   4.310   5.496
 3702TIP3    H111049   2.776   4.249   5.423
 3702TIP3    H211050   2.827   4.273   5.563
 3703TIP3   OH211051   0.215   1.717   6.261
 3703TIP3    H111052   0.124   1.728   6.234
 3703TIP3    H211053   0.253   1.805   6.253
 3704TIP3   OH211054   7.317   0.624   2.293
 3704TIP3    H111055   7.243   0.630   2.233
 3704TIP3    H211056   7.335   0.530   2.300
 3705TIP3   OH211057   5.439   4.134   2.058
 3705TIP3    H111058   5.510   4.198   2.067
 3705TIP3    H211059   5.444   4.081   2.137
 3706TIP3   OH211060   2.654   3.824   3.377
 3706TIP3    H111061   2.581   3.843   3.318
 3706TIP3    H211062   2.701   3.907   3.386
 3707TIP3   OH211063   4.641   3.201   5.710
 3707TIP3    H111064   4.558   3.216   5.665
 3707TIP3    H211065   4.666   3.288   5.743
 3708TIP3   OH211066   6.676   0.769   4.659
 3708TIP3    H111067   6.604   0.792   4.718
 3708TIP3    H211068   6.744   0.833   4.677
 3709TIP3   OH211069   0.626   0.584   3.525
 3709TIP3    H111070   0.688   0.626   3.584
 3709TIP3    H211071   0.542   0.625   3.545
 3710TIP3   OH211072   6.020   7.661   2.554
 3710TIP3    H111073   6.102   7.612   2.551
 3710TIP3    H211074   5.952   7.595   2.537
 3711TIP3   OH211075   8.044   2.064   0.360
 3711TIP3    H111076   7.980   2.130   0.388
 3711TIP3    H211077   8.115   2.072   0.423
 3712TIP3   OH211078   5.974   1.370   1.231
 3712TIP3    H111079   5.896   1.317   1.246
 3712TIP3    H211080   5.945   1.460   1.240
 3713TIP3   OH211081   5.344   7.528   1.978
 3713TIP3    H111082   5.340   7.567   2.065
 3713TIP3    H211083   5.355   7.434   1.994
 3714TIP3   OH211084   2.226   1.319   5.323
 3714TIP3    H111085   2.181   1.384   5.378
 3714TIP3    H211086   2.300   1.368   5.285
 3715TIP3   OH211087   1.957   5.264   0.448
 3715TIP3    H111088   2.023   5.304   0.393
 3715TIP3    H211089   1.886   5.241   0.388
 3716TIP3   OH211090   2.421   6.073   0.372
 3716TIP3    H111091   2.357   6.083   0.443
 3716TIP3    H211092   2.394   6.138   0.307
 3717TIP3   OH211093   3.302   7.697   5.075
 3717TIP3    H111094   3.239   7.694   5.003
 3717TIP3    H211095   3.318   7.791   5.089
 3718TIP3   OH211096   1.229   4.075   6.399
 3718TIP3    H111097   1.297   4.012   6.424
 3718TIP3    H211098   1.192   4.105   6.482
 3719TIP3   OH211099   5.976   1.712   6.068
 3719TIP3    H111100   6.068   1.691   6.051
 3719TIP3    H211101   5.936   1.630   6.094
 3720TIP3   OH211102   6.434   6.313   5.528
 3720TIP3    H111103   6.488   6.390   5.546
 3720TIP3    H211104   6.446   6.257   5.604
 3721TIP3   OH211105   0.504   4.795   1.141
 3721TIP3    H111106   0.409   4.800   1.144
 3721TIP3    H211107   0.525   4.789   1.048
 3722TIP3   OH211108   8.227   7.540   4.487
 3722TIP3    H111109   8.236   7.587   4.404
 3722TIP3    H211110   8.315   7.506   4.505
 3723TIP3   OH211111   3.207   0.917   1.924
 3723TIP3    H111112   3.158   0.999   1.931
 3723TIP3    H211113   3.294   0.938   1.958
 3724TIP3   OH211114   0.046   0.424   3.653
 3724TIP3    H111115   0.061   0.456   3.564
 3724TIP3    H211116  -0.041   0.458   3.676
 3725TIP3   OH211117   2.583   5.375   3.324
 3725TIP3    H111118   2.662   5.380   3.379
 3725TIP3    H211119   2.576   5.282   3.302
 3726TIP3   OH211120   8.174   2.982   6.302
 3726TIP3    H111121   8.148   2.999   6.393
 3726TIP3    H211122   8.249   3.039   6.287
 3727TIP3   OH211123   2.178   7.055   5.496
 3727TIP3    H111124   2.191   6.999   5.419
 3727TIP3    H211125   2.199   7.143   5.465
 3728TIP3   OH211126   6.540   1.138   0.014
 3728TIP3    H111127   6.628   1.173   0.026
 3728TIP3    H211128   6.500   1.195  -0.052
 3729TIP3   OH211129   2.447   3.710   0.693
 3729TIP3    H111130   2.540   3.705   0.671
 3729TIP3    H211131   2.403   3.722   0.609
 3730TIP3   OH211132   1.708   3.273   4.689
 3730TIP3    H111133   1.717   3.226   4.772
 3730TIP3    H211134   1.733   3.209   4.623
 3731TIP3   OH211135   8.187   0.584   3.923
 3731TIP3    H111136   8.098   0.555   3.900
 3731TIP3    H211137   8.184   0.680   3.915
 3732TIP3   OH211138   7.835   6.983   1.492
 3732TIP3    H111139   7.796   6.961   1.408
 3732TIP3    H211140   7.769   7.037   1.536
 3733TIP3   OH211141   5.237   5.632   4.612
 3733TIP3    H111142   5.329   5.607   4.610
 3733TIP3    H211143   5.226   5.692   4.538
 3734TIP3   OH211144   4.917   0.531   3.232
 3734TIP3    H111145   4.900   0.462   3.296
 3734TIP3    H211146   4.831   0.550   3.194
 3735TIP3   OH211147   0.978   2.373   5.529
 3735TIP3    H111148   0.895   2.369   5.575
 3735TIP3    H211149   0.967   2.315   5.454
 3736TIP3   OH211150   2.266   2.531   6.587
 3736TIP3    H111151   2.233   2.455   6.634
 3736TIP3    H211152   2.193   2.557   6.530
 3737TIP3   OH211153   7.195   2.518   4.888
 3737TIP3    H111154   7.183   2.586   4.822
 3737TIP3    H211155   7.290   2.514   4.902
 3738TIP3   OH211156   3.120   7.084   2.777
 3738TIP3    H111157   3.071   7.039   2.847
 3738TIP3    H211158   3.066   7.073   2.699
 3739TIP3   OH211159   4.599   0.323   2.205
 3739TIP3    H111160   4.666   0.257   2.190
 3739TIP3    H211161   4.613   0.352   2.296
 3740TIP3   OH211162   1.375   0.039   2.349
 3740TIP3    H111163   1.392   0.124   2.309
 3740TIP3    H211164   1.459   0.012   2.385
 3741TIP3   OH211165   2.786   4.802   2.708
 3741TIP3    H111166   2.768   4.769   2.796
 3741TIP3    H211167   2.849   4.873   2.721
 3742TIP3   OH211168   6.384   2.652   1.450
 3742TIP3    H111169   6.431   2.694   1.522
 3742TIP3    H211170   6.440   2.666   1.374
 3743TIP3   OH211171   1.623   3.983   4.954
 3743TIP3    H111172   1.540   4.014   4.918
 3743TIP3    H211173   1.638   4.038   5.031
 3744TIP3   OH211174   3.448   6.711   4.420
 3744TIP3    H111175   3.520   6.706   4.482
 3744TIP3    H211176   3.369   6.713   4.474
 3745TIP3   OH211177   0.314   4.407   2.297
 3745TIP3    H111178   0.249   4.354   2.343
 3745TIP3    H211179   0.323   4.365   2.211
 3746TIP3   OH211180   7.090   6.385   0.687
 3746TIP3    H111181   7.056   6.424   0.607
 3746TIP3    H211182   7.022   6.324   0.716
 3747TIP3   OH211183   7.142   0.143   5.378
 3747TIP3    H111184   7.213   0.207   5.380
 3747TIP3    H211185   7.125   0.123   5.470
 3748TIP3   OH211186   0.484   6.604   2.765
 3748TIP3    H111187   0.396   6.624   2.795
 3748TIP3    H211188   0.484   6.630   2.673
 3749TIP3   OH211189   1.988   7.837   1.588
 3749TIP3    H111190   2.073   7.807   1.557
 3749TIP3    H211191   1.981   7.803   1.677
 3750TIP3   OH211192   2.651   3.500   5.376
 3750TIP3    H111193   2.686   3.416   5.346
 3750TIP3    H211194   2.569   3.477   5.420
 3751TIP3   OH211195   3.133   2.954   0.231
 3751TIP3    H111196   3.137   2.945   0.136
 3751TIP3    H211197   3.220   2.984   0.257
 3752TIP3   OH211198   7.328   5.038   4.857
 3752TIP3    H111199   7.255   5.090   4.890
 3752TIP3    H211200   7.399   5.101   4.842
 3753TIP3   OH211201   4.316   5.459   5.366
 3753TIP3    H111202   4.309   5.552   5.345
 3753TIP3    H211203   4.409   5.439   5.351
 3754TIP3   OH211204   1.840   5.467   2.636
 3754TIP3    H111205   1.749   5.487   2.661
 3754TIP3    H211206   1.886   5.456   2.719
 3755TIP3   OH211207   7.491   4.193   3.608
 3755TIP3    H111208   7.474   4.099   3.607
 3755TIP3    H211209   7.463   4.224   3.522
 3756TIP3   OH211210   0.599   5.867   4.522
 3756TIP3    H111211   0.511   5.885   4.555
 3756TIP3    H211212   0.587   5.857   4.427
 3757TIP3   OH211213   5.206   4.366   2.886
 3757TIP3    H111214   5.296   4.372   2.854
 3757TIP3    H211215   5.177   4.279   2.859
 3758TIP3   OH211216   5.778   6.287   3.238
 3758TIP3    H111217   5.828   6.342   3.178
 3758TIP3    H211218   5.800   6.197   3.213
 3759TIP3   OH211219   7.015   3.543   3.971
 3759TIP3    H111220   6.955   3.472   3.996
 3759TIP3    H211221   7.077   3.548   4.044
 3760TIP3   OH211222   4.253   6.464   6.526
 3760TIP3    H111223   4.245   6.532   6.459
 3760TIP3    H211224   4.347   6.455   6.540
 3761TIP3   OH211225   1.856   1.038   5.835
 3761TIP3    H111226   1.812   0.986   5.903
 3761TIP3    H211227   1.860   0.980   5.759
 3762TIP3   OH211228   8.158   5.257   4.047
 3762TIP3    H111229   8.127   5.203   3.974
 3762TIP3    H211230   8.203   5.330   4.006
 3763TIP3   OH211231   2.788   3.975   0.513
 3763TIP3    H111232   2.847   4.011   0.446
 3763TIP3    H211233   2.792   4.038   0.585
 3764TIP3   OH211234   1.474   5.832   1.702
 3764TIP3    H111235   1.490   5.925   1.721
 3764TIP3    H211236   1.512   5.785   1.776
 3765TIP3   OH211237   7.306   5.472   2.144
 3765TIP3    H111238   7.289   5.404   2.209
 3765TIP3    H211239   7.297   5.427   2.060
 3766TIP3   OH211240   4.160   5.097   5.599
 3766TIP3    H111241   4.222   5.152   5.551
 3766TIP3    H211242   4.107   5.055   5.531
 3767TIP3   OH211243   5.604   0.828   6.026
 3767TIP3    H111244   5.581   0.902   6.083
 3767TIP3    H211245   5.523   0.777   6.021
 3768TIP3   OH211246   0.360   0.194   1.756
 3768TIP3    H111247   0.291   0.249   1.795
 3768TIP3    H211248   0.314   0.118   1.722
 3769TIP3   OH211249   5.082   5.713   0.347
 3769TIP3    H111250   5.032   5.634   0.330
 3769TIP3    H211251   5.053   5.775   0.281
 3770TIP3   OH211252   6.968   0.979   5.093
 3770TIP3    H111253   6.956   0.889   5.063
 3770TIP3    H211254   6.916   0.985   5.173
 3771TIP3   OH211255   3.748   1.931   1.541
 3771TIP3    H111256   3.674   1.975   1.499
 3771TIP3    H211257   3.825   1.968   1.499
 3772TIP3   OH211258   4.178   4.293   4.682
 3772TIP3    H111259   4.113   4.363   4.673
 3772TIP3    H211260   4.189   4.259   4.593
 3773TIP3   OH211261   2.263   0.070   4.190
 3773TIP3    H111262   2.316   0.136   4.234
 3773TIP3    H211263   2.268  -0.007   4.246
 3774TIP3   OH211264   1.803   6.179   1.062
 3774TIP3    H111265   1.716   6.214   1.078
 3774TIP3    H211266   1.826   6.133   1.143
 3775TIP3   OH211267   7.787   4.709   5.038
 3775TIP3    H111268   7.882   4.699   5.025
 3775TIP3    H211269   7.754   4.619   5.038
 3776TIP3   OH211270   1.672   7.209   1.591
 3776TIP3    H111271   1.754   7.250   1.618
 3776TIP3    H211272   1.604   7.267   1.624
 3777TIP3   OH211273   1.172   2.021   2.082
 3777TIP3    H111274   1.204   1.940   2.041
 3777TIP3    H211275   1.248   2.056   2.129
 3778TIP3   OH211276   0.371   4.933   3.544
 3778TIP3    H111277   0.337   4.843   3.546
 3778TIP3    H211278   0.389   4.949   3.451
 3779TIP3   OH211279   6.923   4.704   3.487
 3779TIP3    H111280   7.013   4.724   3.512
 3779TIP3    H211281   6.907   4.617   3.524
 3780TIP3   OH211282   7.274   5.570   3.021
 3780TIP3    H111283   7.335   5.613   3.081
 3780TIP3    H211284   7.285   5.477   3.038
 3781TIP3   OH211285   1.500   3.925   1.313
 3781TIP3    H111286   1.432   3.993   1.310
 3781TIP3    H211287   1.499   3.895   1.404
 3782TIP3   OH211288   1.102   7.349   5.476
 3782TIP3    H111289   1.193   7.367   5.455
 3782TIP3    H211290   1.056   7.431   5.460
 3783TIP3   OH211291   6.381   1.093   0.843
 3783TIP3    H111292   6.410   1.160   0.904
 3783TIP3    H211293   6.286   1.101   0.842
 3784TIP3   OH211294   0.779   0.264   1.215
 3784TIP3    H111295   0.870   0.290   1.229
 3784TIP3    H211296   0.770   0.182   1.263
 3785TIP3   OH211297   4.528   2.521   5.924
 3785TIP3    H111298   4.523   2.461   5.850
 3785TIP3    H211299   4.563   2.467   5.995
 3786TIP3   OH211300   5.399   5.041   0.656
 3786TIP3    H111301   5.326   5.040   0.717
 3786TIP3    H211302   5.379   4.973   0.593
 3787TIP3   OH211303   5.684   5.328   4.353
 3787TIP3    H111304   5.685   5.395   4.421
 3787TIP3    H211305   5.597   5.334   4.315
 3788TIP3   OH211306   0.145   1.012   1.920
 3788TIP3    H111307   0.230   0.999   1.877
 3788TIP3    H211308   0.134   0.933   1.974
 3789TIP3   OH211309   0.220   2.291   4.041
 3789TIP3    H111310   0.137   2.255   4.009
 3789TIP3    H211311   0.213   2.285   4.136
 3790TIP3   OH211312   1.060   4.482   0.014
 3790TIP3    H111313   1.118   4.537   0.068
 3790TIP3    H211314   0.973   4.494   0.052
 3791TIP3   OH211315   7.409   4.261   0.350
 3791TIP3    H111316   7.448   4.176   0.331
 3791TIP3    H211317   7.476   4.324   0.324
 3792TIP3   OH211318   7.996   4.855   4.856
 3792TIP3    H111319   8.040   4.885   4.776
 3792TIP3    H211320   7.919   4.808   4.825
 3793TIP3   OH211321   5.376   0.641   0.076
 3793TIP3    H111322   5.303   0.688   0.035
 3793TIP3    H211323   5.409   0.584   0.006
 3794TIP3   OH211324   4.257   7.541   2.480
 3794TIP3    H111325   4.281   7.558   2.571
 3794TIP3    H211326   4.258   7.628   2.438
 3795TIP3   OH211327   0.136   6.179   5.894
 3795TIP3    H111328   0.125   6.271   5.869
 3795TIP3    H211329   0.217   6.178   5.946
 3796TIP3   OH211330   6.837   5.101   2.332
 3796TIP3    H111331   6.913   5.139   2.287
 3796TIP3    H211332   6.869   5.017   2.365
 3797TIP3   OH211333   0.576   4.548   2.624
 3797TIP3    H111334   0.553   4.595   2.704
 3797TIP3    H211335   0.495   4.506   2.597
 3798TIP3   OH211336   7.117   0.682   6.409
 3798TIP3    H111337   7.209   0.684   6.432
 3798TIP3    H211338   7.079   0.616   6.467
 3799TIP3   OH211339   7.977   3.748   1.526
 3799TIP3    H111340   7.915   3.821   1.529
 3799TIP3    H211341   7.925   3.672   1.552
 3800TIP3   OH211342   5.322   0.532   6.761
 3800TIP3    H111343   5.414   0.556   6.768
 3800TIP3    H211344   5.288   0.587   6.690
 3801TIP3   OH211345   3.800   1.607   5.315
 3801TIP3    H111346   3.750   1.646   5.243
 3801TIP3    H211347   3.808   1.515   5.292
 3802TIP3   OH211348   3.658   3.976   0.779
 3802TIP3    H111349   3.675   4.044   0.844
 3802TIP3    H211350   3.601   4.018   0.715
 3803TIP3   OH211351   7.379   4.845   6.002
 3803TIP3    H111352   7.395   4.900   6.080
 3803TIP3    H211353   7.345   4.763   6.037
 3804TIP3   OH211354   6.354   7.527   5.083
 3804TIP3    H111355   6.314   7.535   5.169
 3804TIP3    H211356   6.422   7.460   5.094
 3805TIP3   OH211357  -0.002   0.352   2.957
 3805TIP3    H111358   0.055   0.279   2.935
 3805TIP3    H211359  -0.026   0.338   3.049
 3806TIP3   OH211360   5.242   6.768   2.393
 3806TIP3    H111361   5.259   6.684   2.352
 3806TIP3    H211362   5.327   6.812   2.395
 3807TIP3   OH211363   6.188   4.411   3.530
 3807TIP3    H111364   6.189   4.330   3.480
 3807TIP3    H211365   6.099   4.445   3.519
 3808TIP3   OH211366   7.677   3.516   0.089
 3808TIP3    H111367   7.695   3.434   0.043
 3808TIP3    H211368   7.644   3.489   0.175
 3809TIP3   OH211369   6.482   7.192   4.103
 3809TIP3    H111370   6.469   7.106   4.143
 3809TIP3    H211371   6.395   7.233   4.105
 3810TIP3   OH211372   0.259   6.770   1.149
 3810TIP3    H111373   0.207   6.851   1.151
 3810TIP3    H211374   0.314   6.779   1.071
 3811TIP3   OH211375   6.528   2.614   3.142
 3811TIP3    H111376   6.548   2.620   3.235
 3811TIP3    H211377   6.534   2.521   3.121
 3812TIP3   OH211378   8.247   2.024   3.879
 3812TIP3    H111379   8.265   2.014   3.972
 3812TIP3    H211380   8.262   1.937   3.842
 3813TIP3   OH211381   1.415   4.289   1.044
 3813TIP3    H111382   1.493   4.255   1.001
 3813TIP3    H211383   1.414   4.382   1.021
 3814TIP3   OH211384   7.719   6.925   5.017
 3814TIP3    H111385   7.694   6.847   5.068
 3814TIP3    H211386   7.645   6.940   4.959
 3815TIP3   OH211387   7.659   7.345   4.659
 3815TIP3    H111388   7.736   7.336   4.602
 3815TIP3    H211389   7.584   7.337   4.599
 3816TIP3   OH211390   5.944   0.762   1.361
 3816TIP3    H111391   5.918   0.854   1.359
 3816TIP3    H211392   5.914   0.727   1.277
 3817TIP3   OH211393   4.915   3.871   1.765
 3817TIP3    H111394   4.904   3.777   1.750
 3817TIP3    H211395   4.981   3.877   1.833
 3818TIP3   OH211396   6.547   3.809   2.797
 3818TIP3    H111397   6.552   3.741   2.730
 3818TIP3    H211398   6.461   3.796   2.838
 3819TIP3   OH211399   1.620   7.713   3.563
 3819TIP3    H111400   1.602   7.723   3.470
 3819TIP3    H211401   1.533   7.706   3.604
 3820TIP3   OH211402   8.219   6.127   5.731
 3820TIP3    H111403   8.268   6.168   5.660
 3820TIP3    H211404   8.275   6.139   5.808
 3821TIP3   OH211405   5.264   2.634   2.512
 3821TIP3    H111406   5.193   2.588   2.467
 3821TIP3    H211407   5.225   2.716   2.542
 3822TIP3   OH211408   5.761   0.946   2.638
 3822TIP3    H111409   5.727   0.859   2.663
 3822TIP3    H211410   5.807   0.930   2.555
 3823TIP3   OH211411   3.979   3.607   2.939
 3823TIP3    H111412   3.962   3.686   2.990
 3823TIP3    H211413   3.999   3.639   2.851
 3824TIP3   OH211414   3.434   4.713   2.188
 3824TIP3    H111415   3.367   4.666   2.138
 3824TIP3    H211416   3.414   4.806   2.173
 3825TIP3   OH211417   8.190   5.003   4.997
 3825TIP3    H111418   8.118   4.943   4.976
 3825TIP3    H211419   8.257   4.984   4.931
 3826TIP3   OH211420   1.617   2.266   0.343
 3826TIP3    H111421   1.529   2.236   0.321
 3826TIP3    H211422   1.672   2.189   0.331
 3827TIP3   OH211423   4.920   2.811   2.314
 3827TIP3    H111424   4.901   2.835   2.223
 3827TIP3    H211425   4.853   2.746   2.336
 3828TIP3   OH211426   3.972   6.600   2.505
 3828TIP3    H111427   3.949   6.667   2.570
 3828TIP3    H211428   3.930   6.521   2.538
 3829TIP3   OH211429   5.508   0.325   4.483
 3829TIP3    H111430   5.560   0.316   4.403
 3829TIP3    H211431   5.572   0.323   4.554
 3830TIP3   OH211432   2.631   2.546   1.691
 3830TIP3    H111433   2.557   2.607   1.685
 3830TIP3    H211434   2.600   2.477   1.750
 3831TIP3   OH211435   7.030   6.910   4.907
 3831TIP3    H111436   6.951   6.890   4.956
 3831TIP3    H211437   7.072   6.981   4.957
 3832TIP3   OH211438   5.107   5.364   5.981
 3832TIP3    H111439   5.117   5.275   5.947
 3832TIP3    H211440   5.122   5.356   6.075
 3833TIP3   OH211441   1.246   5.707   3.452
 3833TIP3    H111442   1.222   5.687   3.543
 3833TIP3    H211443   1.340   5.723   3.455
 3834TIP3   OH211444   4.854   3.754   6.460
 3834TIP3    H111445   4.792   3.682   6.449
 3834TIP3    H211446   4.928   3.716   6.508
 3835TIP3   OH211447   3.838   6.523   1.879
 3835TIP3    H111448   3.803   6.452   1.825
 3835TIP3    H211449   3.933   6.518   1.867
 3836TIP3   OH211450   3.157   1.920   0.068
 3836TIP3    H111451   3.160   1.899  -0.025
 3836TIP3    H211452   3.087   1.985   0.076
 3837TIP3   OH211453   0.851   4.041   5.791
 3837TIP3    H111454   0.916   4.066   5.857
 3837TIP3    H211455   0.888   3.964   5.748
 3838TIP3   OH211456   2.651   3.761   2.564
 3838TIP3    H111457   2.718   3.763   2.632
 3838TIP3    H211458   2.650   3.671   2.533
 3839TIP3   OH211459   2.091   6.144   1.482
 3839TIP3    H111460   2.050   6.184   1.559
 3839TIP3    H211461   2.183   6.134   1.506
 3840TIP3   OH211462   7.974   1.698   6.487
 3840TIP3    H111463   7.899   1.696   6.546
 3840TIP3    H211464   7.969   1.784   6.445
 3841TIP3   OH211465   7.904   4.531   6.257
 3841TIP3    H111466   7.889   4.437   6.267
 3841TIP3    H211467   7.999   4.539   6.254
 3842TIP3   OH211468   5.022   5.470   3.577
 3842TIP3    H111469   4.969   5.452   3.500
 3842TIP3    H211470   5.064   5.554   3.559
 3843TIP3   OH211471   7.574   2.615   2.420
 3843TIP3    H111472   7.535   2.701   2.404
 3843TIP3    H211473   7.632   2.628   2.495
 3844TIP3   OH211474   1.814   7.023   4.960
 3844TIP3    H111475   1.830   7.117   4.968
 3844TIP3    H211476   1.899   6.983   4.979
 3845TIP3   OH211477   6.491   1.193   4.709
 3845TIP3    H111478   6.444   1.202   4.792
 3845TIP3    H211479   6.447   1.122   4.664
 3846TIP3   OH211480   2.593   5.120   3.248
 3846TIP3    H111481   2.683   5.109   3.217
 3846TIP3    H211482   2.539   5.114   3.169
 3847TIP3   OH211483   7.921   7.480   0.895
 3847TIP3    H111484   8.009   7.459   0.927
 3847TIP3    H211485   7.866   7.410   0.931
 3848TIP3   OH211486   5.089   3.306   1.562
 3848TIP3    H111487   5.101   3.309   1.467
 3848TIP3    H211488   5.175   3.327   1.598
 3849TIP3   OH211489   6.623   7.708   5.894
 3849TIP3    H111490   6.682   7.635   5.913
 3849TIP3    H211491   6.538   7.681   5.929
 3850TIP3   OH211492   6.998   0.333   3.652
 3850TIP3    H111493   6.937   0.407   3.660
 3850TIP3    H211494   6.942   0.256   3.644
 3851TIP3   OH211495   2.202   3.611   4.331
 3851TIP3    H111496   2.163   3.524   4.341
 3851TIP3    H211497   2.160   3.665   4.398
 3852TIP3   OH211498   5.658   7.767   6.599
 3852TIP3    H111499   5.695   7.771   6.511
 3852TIP3    H211500   5.644   7.673   6.615
 3853TIP3   OH211501   2.624   2.373   2.947
 3853TIP3    H111502   2.540   2.388   2.992
 3853TIP3    H211503   2.628   2.441   2.880
 3854TIP3   OH211504   0.925   2.820   4.233
 3854TIP3    H111505   0.884   2.743   4.273
 3854TIP3    H211506   0.851   2.871   4.199
 3855TIP3   OH211507   4.342   3.916   4.267
 3855TIP3    H111508   4.247   3.926   4.275
 3855TIP3    H211509   4.364   3.849   4.332
 3856TIP3   OH211510   0.306   6.845   2.282
 3856TIP3    H111511   0.231   6.850   2.223
 3856TIP3    H211512   0.287   6.910   2.350
 3857TIP3   OH211513   4.584   2.542   3.026
 3857TIP3    H111514   4.500   2.538   3.071
 3857TIP3    H211515   4.614   2.452   3.023
 3858TIP3   OH211516   7.355   4.583   1.424
 3858TIP3    H111517   7.314   4.665   1.453
 3858TIP3    H211518   7.435   4.575   1.476
 3859TIP3   OH211519   0.993   2.483   5.881
 3859TIP3    H111520   0.905   2.445   5.886
 3859TIP3    H211521   0.985   2.569   5.923
 3860TIP3   OH211522   5.937   5.327   1.378
 3860TIP3    H111523   6.018   5.294   1.338
 3860TIP3    H211524   5.948   5.422   1.381
 3861TIP3   OH211525   4.046   6.082   6.444
 3861TIP3    H111526   3.958   6.053   6.418
 3861TIP3    H211527   4.064   6.032   6.523
 3862TIP3   OH211528   1.728   3.089   5.193
 3862TIP3    H111529   1.762   3.031   5.262
 3862TIP3    H211530   1.799   3.151   5.176
 3863TIP3   OH211531   4.045   6.001   2.124
 3863TIP3    H111532   3.963   5.956   2.103
 3863TIP3    H211533   4.109   5.931   2.136
 3864TIP3   OH211534   6.345   7.760   2.448
 3864TIP3    H111535   6.369   7.852   2.439
 3864TIP3    H211536   6.428   7.716   2.469
 3865TIP3   OH211537   4.013   5.742   1.088
 3865TIP3    H111538   3.988   5.792   1.011
 3865TIP3    H211539   3.933   5.737   1.140
 3866TIP3   OH211540   6.957   3.911   2.137
 3866TIP3    H111541   6.910   3.874   2.062
 3866TIP3    H211542   6.930   4.002   2.140
 3867TIP3   OH211543   7.022   2.126   1.992
 3867TIP3    H111544   7.031   2.066   1.918
 3867TIP3    H211545   6.999   2.210   1.952
 3868TIP3   OH211546   2.557   7.341   0.063
 3868TIP3    H111547   2.487   7.342  -0.002
 3868TIP3    H211548   2.552   7.254   0.103
 3869TIP3   OH211549   7.964   0.300   3.424
 3869TIP3    H111550   8.035   0.337   3.371
 3869TIP3    H211551   8.007   0.238   3.482
 3870TIP3   OH211552   0.996   1.552   0.748
 3870TIP3    H111553   1.063   1.584   0.808
 3870TIP3    H211554   0.938   1.499   0.803
 3871TIP3   OH211555   2.889   3.894   5.166
 3871TIP3    H111556   2.962   3.876   5.226
 3871TIP3    H211557   2.838   3.813   5.165
 3872TIP3   OH211558   2.770   1.300   0.964
 3872TIP3    H111559   2.711   1.228   0.941
 3872TIP3    H211560   2.846   1.287   0.908
 3873TIP3   OH211561   7.673   0.675   3.866
 3873TIP3    H111562   7.665   0.730   3.788
 3873TIP3    H211563   7.618   0.599   3.847
 3874TIP3   OH211564   4.084   1.353   2.472
 3874TIP3    H111565   4.134   1.433   2.493
 3874TIP3    H211566   3.992   1.379   2.483
 3875TIP3   OH211567   0.638   1.380   5.323
 3875TIP3    H111568   0.706   1.335   5.373
 3875TIP3    H211569   0.685   1.427   5.255
 3876TIP3   OH211570   1.928   6.933   3.598
 3876TIP3    H111571   1.963   6.920   3.510
 3876TIP3    H211572   1.978   6.873   3.653
 3877TIP3   OH211573   8.126   3.456   1.094
 3877TIP3    H111574   8.134   3.471   1.188
 3877TIP3    H211575   8.211   3.481   1.058
 3878TIP3   OH211576   6.603   3.380   6.402
 3878TIP3    H111577   6.563   3.293   6.409
 3878TIP3    H211578   6.620   3.390   6.308
 3879TIP3   OH211579   6.912   1.137   5.504
 3879TIP3    H111580   6.826   1.180   5.511
 3879TIP3    H211581   6.975   1.207   5.521
 3880TIP3   OH211582   7.262   7.318   2.089
 3880TIP3    H111583   7.224   7.232   2.108
 3880TIP3    H211584   7.224   7.376   2.155
 3881TIP3   OH211585   1.498   7.681   3.097
 3881TIP3    H111586   1.461   7.685   3.185
 3881TIP3    H211587   1.422   7.666   3.040
 3882TIP3   OH211588   2.886   2.204   4.720
 3882TIP3    H111589   2.980   2.224   4.715
 3882TIP3    H211590   2.865   2.167   4.634
 3883TIP3   OH211591   3.204   1.048   0.964
 3883TIP3    H111592   3.296   1.027   0.946
 3883TIP3    H211593   3.155   0.994   0.902
 3884TIP3   OH211594   5.868   4.397   4.733
 3884TIP3    H111595   5.889   4.421   4.643
 3884TIP3    H211596   5.890   4.474   4.785
 3885TIP3   OH211597   3.389   3.265   4.294
 3885TIP3    H111598   3.372   3.179   4.256
 3885TIP3    H211599   3.379   3.326   4.222
 3886TIP3   OH211600   5.538   7.440   2.544
 3886TIP3    H111601   5.562   7.368   2.604
 3886TIP3    H211602   5.455   7.412   2.506
 3887TIP3   OH211603   7.114   3.065   3.824
 3887TIP3    H111604   7.170   3.034   3.753
 3887TIP3    H211605   7.072   3.144   3.788
 3888TIP3   OH211606   7.499   2.729   1.820
 3888TIP3    H111607   7.508   2.799   1.755
 3888TIP3    H211608   7.408   2.734   1.848
 3889TIP3   OH211609   1.645   4.844   1.793
 3889TIP3    H111610   1.664   4.874   1.881
 3889TIP3    H211611   1.550   4.854   1.784
 3890TIP3   OH211612   0.866   4.197   6.570
 3890TIP3    H111613   0.847   4.211   6.477
 3890TIP3    H211614   0.906   4.110   6.574
 3891TIP3   OH211615   7.121   0.048   5.646
 3891TIP3    H111616   7.094  -0.020   5.584
 3891TIP3    H211617   7.060   0.039   5.719
 3892TIP3   OH211618   7.868   1.100   5.421
 3892TIP3    H111619   7.947   1.066   5.463
 3892TIP3    H211620   7.847   1.179   5.470
 3893TIP3   OH211621   6.383   2.128   1.543
 3893TIP3    H111622   6.358   2.069   1.615
 3893TIP3    H211623   6.305   2.134   1.489
 3894TIP3   OH211624   6.011   2.717   1.580
 3894TIP3    H111625   5.936   2.659   1.589
 3894TIP3    H211626   6.005   2.751   1.491
 3895TIP3   OH211627   5.019   0.108   2.155
 3895TIP3    H111628   4.989   0.130   2.243
 3895TIP3    H211629   4.982   0.022   2.138
 3896TIP3   OH211630   3.104   3.907   0.514
 3896TIP3    H111631   3.070   3.868   0.433
 3896TIP3    H211632   3.178   3.961   0.485
 3897TIP3   OH211633   0.633   2.383   3.960
 3897TIP3    H111634   0.641   2.304   4.014
 3897TIP3    H211635   0.722   2.402   3.934
 3898TIP3   OH211636   7.256   0.173   3.912
 3898TIP3    H111637   7.257   0.166   3.816
 3898TIP3    H211638   7.328   0.234   3.932
 3899TIP3   OH211639   6.468   0.116   0.188
 3899TIP3    H111640   6.418   0.150   0.115
 3899TIP3    H211641   6.557   0.148   0.173
 3900TIP3   OH211642   5.962   5.631   0.898
 3900TIP3    H111643   5.939   5.563   0.835
 3900TIP3    H211644   5.952   5.713   0.850
 3901TIP3   OH211645   4.193   4.500   6.499
 3901TIP3    H111646   4.127   4.441   6.463
 3901TIP3    H211647   4.171   4.507   6.592
 3902TIP3   OH211648   1.075   1.374   1.119
 3902TIP3    H111649   1.069   1.437   1.192
 3902TIP3    H211650   1.151   1.320   1.140
 3903TIP3   OH211651   1.577   2.041   1.788
 3903TIP3    H111652   1.614   2.128   1.801
 3903TIP3    H211653   1.635   1.982   1.836
 3904TIP3   OH211654   6.818   7.412   1.382
 3904TIP3    H111655   6.779   7.386   1.299
 3904TIP3    H211656   6.890   7.470   1.358
 3905TIP3   OH211657   6.116   6.237   4.744
 3905TIP3    H111658   6.191   6.295   4.746
 3905TIP3    H211659   6.075   6.251   4.659
 3906TIP3   OH211660   3.349   6.884   4.667
 3906TIP3    H111661   3.297   6.808   4.641
 3906TIP3    H211662   3.338   6.890   4.761
 3907TIP3   OH211663   3.020   7.594   1.480
 3907TIP3    H111664   3.058   7.518   1.435
 3907TIP3    H211665   2.952   7.557   1.536
 3908TIP3   OH211666   6.830   3.008   2.130
 3908TIP3    H111667   6.894   2.999   2.060
 3908TIP3    H211668   6.872   2.971   2.207
 3909TIP3   OH211669   4.381   0.829   6.193
 3909TIP3    H111670   4.326   0.868   6.125
 3909TIP3    H211671   4.469   0.827   6.155
 3910TIP3   OH211672   7.260   5.609   2.711
 3910TIP3    H111673   7.268   5.584   2.803
 3910TIP3    H211674   7.342   5.581   2.671
 3911TIP3   OH211675   2.161   7.674   1.460
 3911TIP3    H111676   2.107   7.629   1.395
 3911TIP3    H211677   2.213   7.736   1.409
 3912TIP3   OH211678   4.852   0.724   1.423
 3912TIP3    H111679   4.772   0.680   1.453
 3912TIP3    H211680   4.820   0.806   1.384
 3913TIP3   OH211681   8.113   0.320   0.237
 3913TIP3    H111682   8.207   0.325   0.256
 3913TIP3    H211683   8.088   0.233   0.267
 3914TIP3   OH211684   0.205   1.579   1.842
 3914TIP3    H111685   0.241   1.634   1.911
 3914TIP3    H211686   0.263   1.503   1.839
 3915TIP3   OH211687   5.039   0.041   1.056
 3915TIP3    H111688   4.961  -0.014   1.063
 3915TIP3    H211689   5.093  -0.002   0.989
 3916TIP3   OH211690   0.155   7.743   1.201
 3916TIP3    H111691   0.228   7.774   1.255
 3916TIP3    H211692   0.096   7.700   1.262
 3917TIP3   OH211693   7.106   0.228   4.761
 3917TIP3    H111694   7.135   0.320   4.758
 3917TIP3    H211695   7.041   0.225   4.830
 3918TIP3   OH211696   3.000   4.839   3.024
 3918TIP3    H111697   2.923   4.787   3.045
 3918TIP3    H211698   3.071   4.799   3.075
 3919TIP3   OH211699   7.830   1.548   4.513
 3919TIP3    H111700   7.739   1.580   4.510
 3919TIP3    H211701   7.883   1.627   4.513
 3920TIP3   OH211702   1.751   3.075   4.907
 3920TIP3    H111703   1.717   3.079   4.996
 3920TIP3    H211704   1.799   2.992   4.903
 3921TIP3   OH211705   8.211   7.535   5.576
 3921TIP3    H111706   8.240   7.600   5.641
 3921TIP3    H211707   8.122   7.563   5.553
 3922TIP3   OH211708   2.383   1.589   1.176
 3922TIP3    H111709   2.316   1.618   1.114
 3922TIP3    H211710   2.454   1.557   1.120
 3923TIP3   OH211711   0.924   3.136   2.858
 3923TIP3    H111712   0.851   3.195   2.877
 3923TIP3    H211713   0.903   3.055   2.904
 3924TIP3   OH211714   2.117   6.966   2.473
 3924TIP3    H111715   2.056   6.902   2.511
 3924TIP3    H211716   2.120   7.037   2.536
 3925TIP3   OH211717   6.920   5.026   0.993
 3925TIP3    H111718   6.950   4.938   0.968
 3925TIP3    H211719   6.918   5.075   0.912
 3926TIP3   OH211720   1.227   4.657   0.164
 3926TIP3    H111721   1.210   4.720   0.094
 3926TIP3    H211722   1.256   4.710   0.238
 3927TIP3   OH211723   5.403   3.046   0.504
 3927TIP3    H111724   5.388   3.069   0.413
 3927TIP3    H211725   5.448   3.121   0.542
 3928TIP3   OH211726   4.345   4.025   4.786
 3928TIP3    H111727   4.429   4.045   4.743
 3928TIP3    H211728   4.362   3.944   4.834
 3929TIP3   OH211729   3.742   1.822   1.799
 3929TIP3    H111730   3.753   1.816   1.704
 3929TIP3    H211731   3.759   1.914   1.819
 3930TIP3   OH211732   5.333   6.815   2.687
 3930TIP3    H111733   5.398   6.870   2.731
 3930TIP3    H211734   5.368   6.800   2.600
 3931TIP3   OH211735   6.325   1.654   1.153
 3931TIP3    H111736   6.384   1.589   1.190
 3931TIP3    H211737   6.336   1.731   1.208
 3932TIP3   OH211738   6.333   7.365   6.514
 3932TIP3    H111739   6.362   7.423   6.444
 3932TIP3    H211740   6.405   7.303   6.525
 3933TIP3   OH211741   2.624   2.564   2.755
 3933TIP3    H111742   2.645   2.598   2.668
 3933TIP3    H211743   2.598   2.640   2.806
 3934TIP3   OH211744   0.851   0.526   5.849
 3934TIP3    H111745   0.881   0.555   5.935
 3934TIP3    H211746   0.932   0.517   5.798
 3935TIP3   OH211747   1.272   5.327   4.593
 3935TIP3    H111748   1.355   5.289   4.564
 3935TIP3    H211749   1.261   5.405   4.538
 3936TIP3   OH211750   2.991   1.853   0.499
 3936TIP3    H111751   3.002   1.836   0.592
 3936TIP3    H211752   2.948   1.939   0.495
 3937TIP3   OH211753   5.283   4.428   3.335
 3937TIP3    H111754   5.362   4.409   3.285
 3937TIP3    H211755   5.313   4.475   3.412
 3938TIP3   OH211756   7.366   5.742   0.578
 3938TIP3    H111757   7.297   5.786   0.627
 3938TIP3    H211758   7.440   5.738   0.638
 3939TIP3   OH211759   6.068   4.222   4.258
 3939TIP3    H111760   6.123   4.154   4.297
 3939TIP3    H211761   6.039   4.185   4.174
 3940TIP3   OH211762   6.627   1.525   0.090
 3940TIP3    H111763   6.651   1.607   0.048
 3940TIP3    H211764   6.573   1.480   0.025
 3941TIP3   OH211765   2.657   1.799   1.860
 3941TIP3    H111766   2.720   1.752   1.805
 3941TIP3    H211767   2.677   1.770   1.950
 3942TIP3   OH211768   6.648   2.380   4.909
 3942TIP3    H111769   6.665   2.426   4.991
 3942TIP3    H211770   6.718   2.314   4.903
 3943TIP3   OH211771   8.221   5.229   2.904
 3943TIP3    H111772   8.305   5.256   2.942
 3943TIP3    H211773   8.244   5.156   2.846
 3944TIP3   OH211774   1.865   4.016   2.083
 3944TIP3    H111775   1.859   4.054   2.170
 3944TIP3    H211776   1.779   4.029   2.044
 3945TIP3   OH211777   5.628   4.421   1.806
 3945TIP3    H111778   5.688   4.491   1.829
 3945TIP3    H211779   5.545   4.465   1.787
 3946TIP3   OH211780   4.598   6.977   3.504
 3946TIP3    H111781   4.592   7.052   3.445
 3946TIP3    H211782   4.678   6.931   3.478
 3947TIP3   OH211783   7.843   7.577   4.824
 3947TIP3    H111784   7.879   7.556   4.738
 3947TIP3    H211785   7.754   7.608   4.807
 3948TIP3   OH211786   5.221   0.448   4.840
 3948TIP3    H111787   5.167   0.452   4.761
 3948TIP3    H211788   5.284   0.379   4.823
 3949TIP3   OH211789   2.553   5.434   4.590
 3949TIP3    H111790   2.534   5.365   4.526
 3949TIP3    H211791   2.468   5.453   4.630
 3950TIP3   OH211792   8.144   4.107   5.397
 3950TIP3    H111793   8.094   4.174   5.350
 3950TIP3    H211794   8.155   4.142   5.485
 3951TIP3   OH211795   8.184   4.147   3.281
 3951TIP3    H111796   8.135   4.196   3.347
 3951TIP3    H211797   8.116   4.108   3.225
 3952TIP3   OH211798   0.850   3.217   2.557
 3952TIP3    H111799   0.920   3.191   2.616
 3952TIP3    H211800   0.840   3.144   2.497
 3953TIP3   OH211801   2.169   4.180   3.901
 3953TIP3    H111802   2.074   4.177   3.909
 3953TIP3    H211803   2.201   4.163   3.989
 3954TIP3   OH211804   7.035   5.372   5.563
 3954TIP3    H111805   6.964   5.434   5.580
 3954TIP3    H211806   7.115   5.423   5.579
 3955TIP3   OH211807   7.986   6.066   5.219
 3955TIP3    H111808   8.017   6.155   5.233
 3955TIP3    H211809   7.975   6.031   5.308
 3956TIP3   OH211810   7.176   1.699   2.025
 3956TIP3    H111811   7.249   1.667   2.078
 3956TIP3    H211812   7.132   1.620   1.994
 3957TIP3   OH211813   0.401   3.695   5.058
 3957TIP3    H111814   0.357   3.770   5.019
 3957TIP3    H211815   0.331   3.634   5.079
 3958TIP3   OH211816   2.759   0.516   0.534
 3958TIP3    H111817   2.764   0.421   0.549
 3958TIP3    H211818   2.683   0.544   0.585
 3959TIP3   OH211819   8.099   7.194   6.650
 3959TIP3    H111820   8.044   7.121   6.622
 3959TIP3    H211821   8.074   7.267   6.593
 3960TIP3   OH211822   1.977   0.044   4.779
 3960TIP3    H111823   2.061   0.066   4.738
 3960TIP3    H211824   1.968  -0.051   4.766
 3961TIP3   OH211825   6.032   1.903   2.878
 3961TIP3    H111826   6.018   1.932   2.969
 3961TIP3    H211827   5.978   1.962   2.826
 3962TIP3   OH211828   4.624   5.700   2.103
 3962TIP3    H111829   4.698   5.755   2.076
 3962TIP3    H211830   4.564   5.701   2.029
 3963TIP3   OH211831   1.119   1.096   0.393
 3963TIP3    H111832   1.061   1.079   0.467
 3963TIP3    H211833   1.072   1.062   0.317
 3964TIP3   OH211834   6.017   4.403   2.982
 3964TIP3    H111835   6.074   4.475   3.007
 3964TIP3    H211836   5.957   4.441   2.918
 3965TIP3   OH211837   0.151   4.172   6.682
 3965TIP3    H111838   0.181   4.200   6.768
 3965TIP3    H211839   0.059   4.198   6.678
 3966TIP3   OH211840   3.951   7.850   4.388
 3966TIP3    H111841   3.966   7.775   4.446
 3966TIP3    H211842   4.005   7.833   4.312
 3967TIP3   OH211843   7.422   2.956   3.795
 3967TIP3    H111844   7.410   2.917   3.708
 3967TIP3    H211845   7.492   3.020   3.783
 3968TIP3   OH211846   7.108   4.367   1.568
 3968TIP3    H111847   7.167   4.341   1.639
 3968TIP3    H211848   7.101   4.462   1.576
 3969TIP3   OH211849   6.581   2.424   5.387
 3969TIP3    H111850   6.486   2.424   5.377
 3969TIP3    H211851   6.615   2.444   5.300
 3970TIP3   OH211852   5.622   6.644   1.902
 3970TIP3    H111853   5.550   6.680   1.850
 3970TIP3    H211854   5.636   6.557   1.866
 3971TIP3   OH211855   6.070   2.883   6.402
 3971TIP3    H111856   6.013   2.845   6.335
 3971TIP3    H211857   6.144   2.822   6.409
 3972TIP3   OH211858   1.371   1.296   2.001
 3972TIP3    H111859   1.426   1.303   2.079
 3972TIP3    H211860   1.432   1.309   1.928
 3973TIP3   OH211861   4.736   3.038   5.300
 3973TIP3    H111862   4.742   3.033   5.205
 3973TIP3    H211863   4.706   3.127   5.319
 3974TIP3   OH211864   2.133   0.035   5.322
 3974TIP3    H111865   2.088  -0.002   5.246
 3974TIP3    H211866   2.215   0.069   5.287
 3975TIP3   OH211867   7.741   6.960   1.237
 3975TIP3    H111868   7.761   6.884   1.183
 3975TIP3    H211869   7.725   7.031   1.175
 3976TIP3   OH211870   2.732   0.559   5.847
 3976TIP3    H111871   2.735   0.518   5.761
 3976TIP3    H211872   2.702   0.648   5.831
 3977TIP3   OH211873   1.711   6.215   3.335
 3977TIP3    H111874   1.780   6.261   3.382
 3977TIP3    H211875   1.633   6.229   3.389
 3978TIP3   OH211876   2.259   5.125   4.829
 3978TIP3    H111877   2.286   5.201   4.881
 3978TIP3    H211878   2.332   5.064   4.836
 3979TIP3   OH211879   1.751   2.267   5.302
 3979TIP3    H111880   1.695   2.269   5.380
 3979TIP3    H211881   1.828   2.217   5.329
 3980TIP3   OH211882   7.470   6.985   0.958
 3980TIP3    H111883   7.381   6.949   0.959
 3980TIP3    H211884   7.472   7.047   1.031
 3981TIP3   OH211885   1.701   5.420   2.284
 3981TIP3    H111886   1.742   5.480   2.347
 3981TIP3    H211887   1.772   5.393   2.226
 3982TIP3   OH211888   0.289   3.929   2.520
 3982TIP3    H111889   0.257   3.979   2.595
 3982TIP3    H211890   0.210   3.900   2.475
 3983TIP3   OH211891   2.564   0.210   0.029
 3983TIP3    H111892   2.545   0.165   0.111
 3983TIP3    H211893   2.582   0.300   0.056
 3984TIP3   OH211894   1.003   0.064   6.389
 3984TIP3    H111895   1.089   0.028   6.369
 3984TIP3    H211896   1.003   0.075   6.484
 3985TIP3   OH211897   1.605   1.604   1.471
 3985TIP3    H111898   1.610   1.615   1.376
 3985TIP3    H211899   1.676   1.657   1.506
 3986TIP3   OH211900   3.918   4.704   1.705
 3986TIP3    H111901   3.841   4.747   1.669
 3986TIP3    H211902   3.890   4.671   1.791
 3987TIP3   OH211903   7.826   7.554   0.392
 3987TIP3    H111904   7.917   7.580   0.403
 3987TIP3    H211905   7.797   7.531   0.481
 3988TIP3   OH211906   4.759   6.827   6.492
 3988TIP3    H111907   4.681   6.851   6.542
 3988TIP3    H211908   4.804   6.764   6.548
 3989TIP3   OH211909   2.220   5.180   0.014
 3989TIP3    H111910   2.134   5.139   0.025
 3989TIP3    H211911   2.252   5.192   0.104
 3990TIP3   OH211912   3.755   7.023   2.625
 3990TIP3    H111913   3.765   6.951   2.562
 3990TIP3    H211914   3.783   6.985   2.709
 3991TIP3   OH211915   1.792   1.735   6.297
 3991TIP3    H111916   1.799   1.766   6.387
 3991TIP3    H211917   1.880   1.702   6.276
 3992TIP3   OH211918   6.129   4.912   5.335
 3992TIP3    H111919   6.080   4.978   5.286
 3992TIP3    H211920   6.208   4.898   5.282
 3993TIP3   OH211921   7.110   5.701   5.366
 3993TIP3    H111922   7.116   5.607   5.349
 3993TIP3    H211923   7.201   5.728   5.381
 3994TIP3   OH211924   4.799   2.790   6.237
 3994TIP3    H111925   4.792   2.749   6.150
 3994TIP3    H211926   4.871   2.852   6.228
 3995TIP3   OH211927   1.662   4.837   3.924
 3995TIP3    H111928   1.622   4.750   3.919
 3995TIP3    H211929   1.709   4.846   3.841
 3996TIP3   OH211930   1.094   1.784   2.346
 3996TIP3    H111931   1.140   1.841   2.284
 3996TIP3    H211932   1.003   1.786   2.317
 3997TIP3   OH211933   2.090   3.917   0.066
 3997TIP3    H111934   2.094   3.898  -0.027
 3997TIP3    H211935   2.131   3.841   0.108
 3998TIP3   OH211936   4.844   5.826   1.038
 3998TIP3    H111937   4.922   5.831   1.093
 3998TIP3    H211938   4.876   5.844   0.949
 3999TIP3   OH211939   5.933   1.286   6.384
 3999TIP3    H111940   5.911   1.232   6.308
 3999TIP3    H211941   5.850   1.326   6.410
 4000TIP3   OH211942   5.335   4.052   0.662
 4000TIP3    H111943   5.395   4.054   0.588
 4000TIP3    H211944   5.355   4.132   0.711
 4001TIP3   OH211945   0.971   5.462   2.153
 4001TIP3    H111946   1.065   5.445   2.145
 4001TIP3    H211947   0.938   5.453   2.064
 4002TIP3   OH211948   3.620   7.067   1.041
 4002TIP3    H111949   3.624   7.154   1.001
 4002TIP3    H211950   3.671   7.012   0.981
 4003TIP3   OH211951   1.654   1.814   3.345
 4003TIP3    H111952   1.731   1.802   3.401
 4003TIP3    H211953   1.674   1.765   3.265
 4004TIP3   OH211954   2.023   1.134   5.423
 4004TIP3    H111955   1.943   1.170   5.384
 4004TIP3    H211956   2.092   1.157   5.361
 4005TIP3   OH211957   4.823   4.763   5.194
 4005TIP3    H111958   4.831   4.675   5.158
 4005TIP3    H211959   4.869   4.819   5.132
 4006TIP3   OH211960   1.982   6.127   5.587
 4006TIP3    H111961   1.959   6.220   5.581
 4006TIP3    H211962   2.066   6.120   5.541
 4007TIP3   OH211963   3.300   2.551   5.827
 4007TIP3    H111964   3.360   2.517   5.761
 4007TIP3    H211965   3.223   2.494   5.821
 4008TIP3   OH211966   6.136   4.933   5.612
 4008TIP3    H111967   6.153   4.904   5.523
 4008TIP3    H211968   6.140   5.029   5.607
 4009TIP3   OH211969   7.080   6.656   5.124
 4009TIP3    H111970   7.107   6.579   5.074
 4009TIP3    H211971   7.000   6.686   5.081
 4010TIP3   OH211972   7.726   6.200   1.473
 4010TIP3    H111973   7.802   6.142   1.472
 4010TIP3    H211974   7.713   6.222   1.565
 4011TIP3   OH211975   3.130   0.695   0.174
 4011TIP3    H111976   3.174   0.779   0.163
 4011TIP3    H211977   3.071   0.709   0.248
 4012TIP3   OH211978   0.652   2.346   1.210
 4012TIP3    H111979   0.615   2.290   1.142
 4012TIP3    H211980   0.657   2.433   1.170
 4013TIP3   OH211981   2.593   1.433   1.777
 4013TIP3    H111982   2.598   1.338   1.787
 4013TIP3    H211983   2.521   1.459   1.834
 4014TIP3   OH211984   5.054   0.713   0.759
 4014TIP3    H111985   5.119   0.645   0.743
 4014TIP3    H211986   4.970   0.670   0.744
 4015TIP3   OH211987   0.765   4.853   6.686
 4015TIP3    H111988   0.674   4.877   6.667
 4015TIP3    H211989   0.795   4.922   6.745
 4016TIP3   OH211990   1.263   4.402   3.867
 4016TIP3    H111991   1.249   4.436   3.779
 4016TIP3    H211992   1.357   4.385   3.872
 4017TIP3   OH211993   7.025   1.580   4.673
 4017TIP3    H111994   6.948   1.615   4.629
 4017TIP3    H211995   7.089   1.567   4.603
 4018TIP3   OH211996   7.594   5.925   5.635
 4018TIP3    H111997   7.517   5.968   5.598
 4018TIP3    H211998   7.605   5.966   5.721
 4019TIP3   OH211999   6.225   1.148   6.099
 4019TIP3    H112000   6.315   1.157   6.067
 4019TIP3    H212001   6.227   1.071   6.155
 4020TIP3   OH212002   6.497   1.168   2.785
 4020TIP3    H112003   6.429   1.176   2.852
 4020TIP3    H212004   6.512   1.074   2.777
 4021TIP3   OH212005   4.147   6.690   5.701
 4021TIP3    H112006   4.203   6.619   5.731
 4021TIP3    H212007   4.205   6.765   5.694
 4022TIP3   OH212008   8.002   6.394   3.557
 4022TIP3    H112009   7.973   6.342   3.633
 4022TIP3    H212010   7.930   6.386   3.494
 4023TIP3   OH212011   4.655   1.326   1.588
 4023TIP3    H112012   4.687   1.414   1.607
 4023TIP3    H212013   4.630   1.329   1.495
 4024TIP3   OH212014   7.043   4.472   2.742
 4024TIP3    H112015   7.049   4.425   2.659
 4024TIP3    H212016   7.060   4.405   2.809
 4025TIP3   OH212017   2.706   2.549   5.755
 4025TIP3    H112018   2.778   2.516   5.808
 4025TIP3    H212019   2.630   2.545   5.813
 4026TIP3   OH212020   4.512   3.184   0.650
 4026TIP3    H112021   4.559   3.135   0.582
 4026TIP3    H212022   4.420   3.165   0.633
 4027TIP3   OH212023   3.849   5.945   5.682
 4027TIP3    H112024   3.890   6.028   5.707
 4027TIP3    H212025   3.856   5.890   5.760
 4028TIP3   OH212026   7.203   1.945   3.386
 4028TIP3    H112027   7.263   1.943   3.312
 4028TIP3    H212028   7.188   1.853   3.408
 4029TIP3   OH212029   7.031   2.389   3.990
 4029TIP3    H112030   6.991   2.463   3.945
 4029TIP3    H212031   7.124   2.411   3.995
 4030TIP3   OH212032   1.626   4.625   2.144
 4030TIP3    H112033   1.598   4.625   2.053
 4030TIP3    H212034   1.544   4.628   2.194
 4031TIP3   OH212035   0.114   2.449   4.800
 4031TIP3    H112036   0.087   2.526   4.851
 4031TIP3    H212037   0.140   2.385   4.867
 4032TIP3   OH212038   0.790   0.978   2.713
 4032TIP3    H112039   0.877   0.941   2.731
 4032TIP3    H212040   0.806   1.071   2.698
 4033TIP3   OH212041   2.713   0.571   6.492
 4033TIP3    H112042   2.794   0.521   6.496
 4033TIP3    H212043   2.710   0.604   6.402
 4034TIP3   OH212044   7.844   0.140   1.818
 4034TIP3    H112045   7.815   0.090   1.895
 4034TIP3    H212046   7.931   0.107   1.799
 4035TIP3   OH212047   1.802   2.046   0.362
 4035TIP3    H112048   1.888   2.080   0.336
 4035TIP3    H212049   1.820   1.957   0.393
 4036TIP3   OH212050   5.901   2.714   6.222
 4036TIP3    H112051   5.903   2.752   6.134
 4036TIP3    H212052   5.940   2.627   6.212
 4037TIP3   OH212053   5.406   6.163   2.645
 4037TIP3    H112054   5.322   6.173   2.691
 4037TIP3    H212055   5.396   6.082   2.594
 4038TIP3   OH212056   4.007   7.564   4.517
 4038TIP3    H112057   4.098   7.592   4.526
 4038TIP3    H212058   3.994   7.557   4.423
 4039TIP3   OH212059   5.218   2.221   5.341
 4039TIP3    H112060   5.281   2.283   5.305
 4039TIP3    H212061   5.229   2.142   5.289
 4040TIP3   OH212062   1.638   5.569   1.754
 4040TIP3    H112063   1.691   5.610   1.822
 4040TIP3    H212064   1.684   5.488   1.732
 4041TIP3   OH212065   1.127   6.656   3.800
 4041TIP3    H112066   1.168   6.680   3.716
 4041TIP3    H212067   1.173   6.709   3.865
 4042TIP3   OH212068   1.927   4.632   1.737
 4042TIP3    H112069   1.933   4.653   1.644
 4042TIP3    H212070   1.906   4.539   1.739
 4043TIP3   OH212071   3.230   6.503   0.585
 4043TIP3    H112072   3.263   6.424   0.628
 4043TIP3    H212073   3.159   6.471   0.528
 4044TIP3   OH212074   4.555   2.966   1.409
 4044TIP3    H112075   4.515   2.944   1.493
 4044TIP3    H212076   4.628   3.024   1.432
 4045TIP3   OH212077   7.216   6.915   0.989
 4045TIP3    H112078   7.191   6.888   0.901
 4045TIP3    H212079   7.145   6.882   1.045
 4046TIP3   OH212080   4.229   1.456   3.012
 4046TIP3    H112081   4.274   1.477   3.093
 4046TIP3    H212082   4.245   1.531   2.955
 4047TIP3   OH212083   1.856   1.477   0.570
 4047TIP3    H112084   1.803   1.416   0.520
 4047TIP3    H212085   1.830   1.462   0.661
 4048TIP3   OH212086   5.011   0.849   4.056
 4048TIP3    H112087   4.976   0.937   4.045
 4048TIP3    H212088   4.936   0.791   4.046
 4049TIP3   OH212089   8.203   3.566   2.669
 4049TIP3    H112090   8.194   3.502   2.740
 4049TIP3    H212091   8.273   3.531   2.614
 4050TIP3   OH212092   7.442   4.784   0.458
 4050TIP3    H112093   7.384   4.747   0.524
 4050TIP3    H212094   7.383   4.825   0.394
 4051TIP3   OH212095   4.601   2.714   5.221
 4051TIP3    H112096   4.633   2.763   5.145
 4051TIP3    H212097   4.599   2.623   5.193
 4052TIP3   OH212098   0.935   4.192   0.196
 4052TIP3    H112099   0.893   4.253   0.256
 4052TIP3    H212100   0.870   4.123   0.182
 4053TIP3   OH212101   2.716   5.588   0.753
 4053TIP3    H112102   2.638   5.550   0.793
 4053TIP3    H212103   2.780   5.516   0.753
 4054TIP3   OH212104   3.194   2.100   5.152
 4054TIP3    H112105   3.133   2.048   5.204
 4054TIP3    H212106   3.262   2.128   5.214
 4055TIP3   OH212107   6.285   6.280   1.961
 4055TIP3    H112108   6.368   6.284   2.008
 4055TIP3    H212109   6.224   6.333   2.013
 4056TIP3   OH212110   4.914   7.134   0.436
 4056TIP3    H112111   4.975   7.147   0.509
 4056TIP3    H212112   4.971   7.120   0.360
 4057TIP3   OH212113   2.209   7.293   6.479
 4057TIP3    H112114   2.223   7.387   6.477
 4057TIP3    H212115   2.176   7.272   6.391
 4058TIP3   OH212116   6.327   2.245   0.238
 4058TIP3    H112117   6.257   2.189   0.205
 4058TIP3    H212118   6.281   2.311   0.290
 4059TIP3   OH212119   1.913   4.072   4.636
 4059TIP3    H112120   1.932   4.055   4.728
 4059TIP3    H212121   1.925   3.987   4.593
 4060TIP3   OH212122   5.757   1.532   2.282
 4060TIP3    H112123   5.834   1.568   2.327
 4060TIP3    H212124   5.789   1.450   2.244
 4061TIP3   OH212125   7.045   7.410   1.124
 4061TIP3    H112126   7.134   7.385   1.149
 4061TIP3    H212127   7.012   7.336   1.073
 4062TIP3   OH212128   1.329   5.026   3.902
 4062TIP3    H112129   1.329   5.106   3.955
 4062TIP3    H212130   1.320   5.056   3.812
 4063TIP3   OH212131   5.987   3.630   5.212
 4063TIP3    H112132   5.965   3.723   5.213
 4063TIP3    H212133   6.047   3.619   5.286
 4064TIP3   OH212134   5.990   0.950   1.000
 4064TIP3    H112135   5.909   0.927   1.045
 4064TIP3    H212136   6.049   0.980   1.070
 4065TIP3   OH212137   7.762   2.660   5.610
 4065TIP3    H112138   7.851   2.627   5.622
 4065TIP3    H212139   7.773   2.752   5.584
 4066TIP3   OH212140   6.789   3.461   5.376
 4066TIP3    H112141   6.697   3.487   5.373
 4066TIP3    H212142   6.796   3.405   5.453
 4067TIP3   OH212143   1.586   5.743   5.891
 4067TIP3    H112144   1.574   5.835   5.915
 4067TIP3    H212145   1.674   5.721   5.922
 4068TIP3   OH212146   3.832   7.534   5.780
 4068TIP3    H112147   3.912   7.556   5.732
 4068TIP3    H212148   3.848   7.566   5.869
 4069TIP3   OH212149   4.371   1.568   4.444
 4069TIP3    H112150   4.351   1.655   4.479
 4069TIP3    H212151   4.411   1.586   4.359
 4070TIP3   OH212152   1.047   4.962   3.981
 4070TIP3    H112153   1.140   4.951   3.997
 4070TIP3    H212154   1.016   4.875   3.956
 4071TIP3   OH212155   7.843   2.135   1.809
 4071TIP3    H112156   7.883   2.058   1.768
 4071TIP3    H212157   7.847   2.116   1.903
 4072TIP3   OH212158   0.407   1.035   3.693
 4072TIP3    H112159   0.333   1.004   3.746
 4072TIP3    H212160   0.366   1.088   3.625
 4073TIP3   OH212161   6.200   5.381   4.941
 4073TIP3    H112162   6.202   5.365   5.035
 4073TIP3    H212163   6.283   5.424   4.921
 4074TIP3   OH212164   3.055   6.736   5.696
 4074TIP3    H112165   2.971   6.781   5.701
 4074TIP3    H212166   3.102   6.763   5.775
 4075TIP3   OH212167   7.821   7.587   6.253
 4075TIP3    H112168   7.783   7.535   6.324
 4075TIP3    H212169   7.752   7.649   6.229
 4076TIP3   OH212170   2.387   7.224   4.484
 4076TIP3    H112171   2.450   7.293   4.504
 4076TIP3    H212172   2.439   7.154   4.445
 4077TIP3   OH212173   1.413   5.438   0.204
 4077TIP3    H112174   1.366   5.406   0.127
 4077TIP3    H212175   1.497   5.470   0.168
 4078TIP3   OH212176   2.821   0.336   1.150
 4078TIP3    H112177   2.729   0.317   1.136
 4078TIP3    H212178   2.836   0.320   1.243
 4079TIP3   OH212179   4.079   6.755   5.110
 4079TIP3    H112180   4.037   6.816   5.048
 4079TIP3    H212181   4.151   6.717   5.060
 4080TIP3   OH212182   3.531   2.955   4.580
 4080TIP3    H112183   3.555   2.984   4.668
 4080TIP3    H212184   3.543   3.032   4.525
 4081TIP3   OH212185   7.701   1.952   0.379
 4081TIP3    H112186   7.714   1.858   0.367
 4081TIP3    H212187   7.642   1.959   0.454
 4082TIP3   OH212188   2.226   2.566   5.661
 4082TIP3    H112189   2.230   2.631   5.591
 4082TIP3    H212190   2.142   2.521   5.648
 4083TIP3   OH212191   3.669   1.807   5.171
 4083TIP3    H112192   3.574   1.810   5.179
 4083TIP3    H212193   3.689   1.869   5.100
 4084TIP3   OH212194   4.202   5.417   5.066
 4084TIP3    H112195   4.116   5.418   5.025
 4084TIP3    H212196   4.243   5.499   5.036
 4085TIP3   OH212197   5.164   6.642   2.133
 4085TIP3    H112198   5.122   6.707   2.077
 4085TIP3    H212199   5.094   6.582   2.157
 4086TIP3   OH212200   3.016   3.361   3.368
 4086TIP3    H112201   3.053   3.444   3.398
 4086TIP3    H212202   2.978   3.321   3.447
 4087TIP3   OH212203   1.360   5.934   5.173
 4087TIP3    H112204   1.427   5.997   5.148
 4087TIP3    H212205   1.297   5.935   5.101
 4088TIP3   OH212206   8.214   0.632   3.115
 4088TIP3    H112207   8.184   0.708   3.064
 4088TIP3    H212208   8.309   0.636   3.110
 4089TIP3   OH212209   2.014   0.331   0.997
 4089TIP3    H112210   2.022   0.343   0.902
 4089TIP3    H212211   1.991   0.239   1.008
 4090TIP3   OH212212   0.731   5.607   0.834
 4090TIP3    H112213   0.818   5.635   0.804
 4090TIP3    H212214   0.736   5.614   0.929
 4091TIP3   OH212215   0.058   6.566   5.497
 4091TIP3    H112216   0.116   6.501   5.457
 4091TIP3    H212217   0.037   6.529   5.583
 4092TIP3   OH212218   2.235   7.435   4.020
 4092TIP3    H112219   2.279   7.350   4.021
 4092TIP3    H212220   2.175   7.430   3.945
 4093TIP3   OH212221   8.258   2.555   0.628
 4093TIP3    H112222   8.181   2.571   0.683
 4093TIP3    H212223   8.223   2.510   0.551
 4094TIP3   OH212224   2.469   1.859   1.667
 4094TIP3    H112225   2.524   1.844   1.744
 4094TIP3    H212226   2.518   1.822   1.594
 4095TIP3   OH212227   7.732   6.712   3.873
 4095TIP3    H112228   7.766   6.772   3.806
 4095TIP3    H212229   7.672   6.766   3.924
 4096TIP3   OH212230   5.415   0.073   1.787
 4096TIP3    H112231   5.321   0.089   1.802
 4096TIP3    H212232   5.458   0.147   1.829
 4097TIP3   OH212233   3.899   0.598   6.524
 4097TIP3    H112234   3.947   0.521   6.555
 4097TIP3    H212235   3.966   0.653   6.482
 4098TIP3   OH212236   5.396   6.448   0.028
 4098TIP3    H112237   5.320   6.506   0.022
 4098TIP3    H212238   5.426   6.457   0.119
 4099TIP3   OH212239   6.670   4.476   5.939
 4099TIP3    H112240   6.630   4.397   5.902
 4099TIP3    H212241   6.596   4.532   5.962
 4100TIP3   OH212242   6.496   6.489   1.435
 4100TIP3    H112243   6.428   6.434   1.398
 4100TIP3    H212244   6.578   6.443   1.414
 4101TIP3   OH212245   1.088   0.117   2.812
 4101TIP3    H112246   1.133   0.035   2.834
 4101TIP3    H212247   1.138   0.152   2.738
 4102TIP3   OH212248   6.134   1.188   4.980
 4102TIP3    H112249   6.152   1.200   4.887
 4102TIP3    H212250   6.168   1.267   5.021
 4103TIP3   OH212251   6.620   4.868   1.259
 4103TIP3    H112252   6.623   4.856   1.353
 4103TIP3    H212253   6.708   4.898   1.235
 4104TIP3   OH212254   7.780   6.706   4.197
 4104TIP3    H112255   7.694   6.700   4.156
 4104TIP3    H212256   7.836   6.648   4.145
 4105TIP3   OH212257   0.318   6.236   5.548
 4105TIP3    H112258   0.374   6.204   5.619
 4105TIP3    H212259   0.368   6.309   5.510
 4106TIP3   OH212260   6.120   5.859   5.320
 4106TIP3    H112261   6.115   5.783   5.378
 4106TIP3    H212262   6.182   5.918   5.364
 4107TIP3   OH212263   6.478   5.677   2.581
 4107TIP3    H112264   6.422   5.752   2.561
 4107TIP3    H212265   6.497   5.685   2.675
 4108TIP3   OH212266   4.995   3.073   0.485
 4108TIP3    H112267   4.909   3.070   0.528
 4108TIP3    H212268   5.041   3.145   0.528
 4109TIP3   OH212269   6.593   5.667   1.100
 4109TIP3    H112270   6.511   5.625   1.125
 4109TIP3    H212271   6.579   5.760   1.117
 4110TIP3   OH212272   0.079   6.813   2.115
 4110TIP3    H112273   0.077   6.822   2.020
 4110TIP3    H212274   0.013   6.875   2.146
 4111TIP3   OH212275   7.812   2.862   0.993
 4111TIP3    H112276   7.786   2.912   1.071
 4111TIP3    H212277   7.850   2.927   0.934
 4112TIP3   OH212278   4.726   5.000   0.034
 4112TIP3    H112279   4.727   5.074  -0.027
 4112TIP3    H212280   4.787   4.937  -0.002
 4113TIP3   OH212281   6.408   6.367   0.616
 4113TIP3    H112282   6.430   6.312   0.541
 4113TIP3    H212283   6.366   6.444   0.577
 4114TIP3   OH212284   1.563   0.869   1.262
 4114TIP3    H112285   1.555   0.939   1.197
 4114TIP3    H212286   1.563   0.914   1.346
 4115TIP3   OH212287   6.851   6.543   1.441
 4115TIP3    H112288   6.942   6.514   1.434
 4115TIP3    H212289   6.852   6.609   1.510
 4116TIP3   OH212290   6.590   4.064   5.420
 4116TIP3    H112291   6.618   4.151   5.392
 4116TIP3    H212292   6.498   4.060   5.396
 4117TIP3   OH212293   7.258   0.075   3.034
 4117TIP3    H112294   7.244   0.167   3.008
 4117TIP3    H212295   7.310   0.038   2.963
 4118TIP3   OH212296   7.167   3.769   5.660
 4118TIP3    H112297   7.222   3.826   5.607
 4118TIP3    H212298   7.170   3.807   5.748
 4119TIP3   OH212299   8.108   6.678   6.644
 4119TIP3    H112300   8.143   6.597   6.606
 4119TIP3    H212301   8.097   6.658   6.737
 4120TIP3   OH212302   3.725   0.695   1.854
 4120TIP3    H112303   3.675   0.716   1.775
 4120TIP3    H212304   3.762   0.609   1.836
 4121TIP3   OH212305   4.265   3.419   3.044
 4121TIP3    H112306   4.193   3.477   3.016
 4121TIP3    H212307   4.281   3.444   3.135
 4122TIP3   OH212308   5.925   4.896   2.450
 4122TIP3    H112309   5.913   4.940   2.366
 4122TIP3    H212310   5.853   4.928   2.504
 4123TIP3   OH212311   0.648   6.518   5.844
 4123TIP3    H112312   0.660   6.607   5.813
 4123TIP3    H212313   0.683   6.519   5.934
 4124TIP3   OH212314   2.847   7.236   0.974
 4124TIP3    H112315   2.896   7.230   1.056
 4124TIP3    H212316   2.807   7.150   0.963
 4125TIP3   OH212317   3.445   5.880   4.097
 4125TIP3    H112318   3.417   5.880   4.188
 4125TIP3    H212319   3.503   5.956   4.089
 4126TIP3   OH212320   0.112   2.770   5.992
 4126TIP3    H112321   0.145   2.735   5.909
 4126TIP3    H212322   0.087   2.860   5.971
 4127TIP3   OH212323   3.898   0.148   1.831
 4127TIP3    H112324   3.938   0.175   1.913
 4127TIP3    H212325   3.970   0.149   1.768
 4128TIP3   OH212326   6.379   0.535   1.441
 4128TIP3    H112327   6.418   0.521   1.527
 4128TIP3    H212328   6.285   0.519   1.454
 4129TIP3   OH212329   5.145   0.950   3.274
 4129TIP3    H112330   5.091   1.022   3.242
 4129TIP3    H212331   5.119   0.875   3.219
 4130TIP3   OH212332   7.716   6.055   4.718
 4130TIP3    H112333   7.664   6.134   4.704
 4130TIP3    H212334   7.682   5.992   4.655
 4131TIP3   OH212335   6.242   2.333   1.142
 4131TIP3    H112336   6.335   2.356   1.148
 4131TIP3    H212337   6.210   2.379   1.065
 4132TIP3   OH212338   5.172   6.590   0.004
 4132TIP3    H112339   5.112   6.577   0.077
 4132TIP3    H212340   5.120   6.569  -0.074
 4133TIP3   OH212341   1.564   1.055   2.577
 4133TIP3    H112342   1.511   1.134   2.586
 4133TIP3    H212343   1.563   1.015   2.665
 4134TIP3   OH212344   5.021   7.557   0.967
 4134TIP3    H112345   5.079   7.569   0.892
 4134TIP3    H212346   5.077   7.571   1.043
 4135TIP3   OH212347   7.637   4.742   6.683
 4135TIP3    H112348   7.598   4.709   6.602
 4135TIP3    H212349   7.726   4.708   6.683
 4136TIP3   OH212350   6.642   6.911   5.439
 4136TIP3    H112351   6.584   6.864   5.380
 4136TIP3    H212352   6.663   6.848   5.508
 4137TIP3   OH212353   4.828   6.031   6.635
 4137TIP3    H112354   4.856   5.949   6.677
 4137TIP3    H212355   4.748   6.007   6.587
 4138TIP3   OH212356   8.239   7.612   4.186
 4138TIP3    H112357   8.183   7.539   4.162
 4138TIP3    H212358   8.287   7.633   4.106
 4139TIP3   OH212359   0.018   4.363   3.063
 4139TIP3    H112360  -0.020   4.285   3.103
 4139TIP3    H212361  -0.004   4.434   3.123
 4140TIP3   OH212362   6.396   2.781   2.588
 4140TIP3    H112363   6.321   2.723   2.596
 4140TIP3    H212364   6.449   2.763   2.665
 4141TIP3   OH212365   3.442   6.220   0.537
 4141TIP3    H112366   3.375   6.243   0.601
 4141TIP3    H212367   3.404   6.245   0.453
 4142TIP3   OH212368   6.611   7.115   0.953
 4142TIP3    H112369   6.549   7.050   0.919
 4142TIP3    H212370   6.694   7.068   0.960
 4143TIP3   OH212371   3.829   1.182   0.249
 4143TIP3    H112372   3.774   1.105   0.237
 4143TIP3    H212373   3.901   1.151   0.304
 4144TIP3   OH212374   2.719   4.054   6.718
 4144TIP3    H112375   2.797   4.033   6.666
 4144TIP3    H212376   2.742   4.030   6.807
 4145TIP3   OH212377   5.066   0.811   5.093
 4145TIP3    H112378   4.990   0.813   5.034
 4145TIP3    H212379   5.138   0.779   5.038
 4146TIP3   OH212380   7.169   6.821   0.749
 4146TIP3    H112381   7.257   6.796   0.720
 4146TIP3    H212382   7.114   6.745   0.727
 4147TIP3   OH212383   0.403   6.569   0.212
 4147TIP3    H112384   0.363   6.495   0.167
 4147TIP3    H212385   0.493   6.541   0.229
 4148TIP3   OH212386   0.505   6.256   5.768
 4148TIP3    H112387   0.456   6.236   5.847
 4148TIP3    H212388   0.549   6.339   5.787
 4149TIP3   OH212389   6.188   7.563   1.864
 4149TIP3    H112390   6.224   7.500   1.926
 4149TIP3    H212391   6.265   7.593   1.814
 4150TIP3   OH212392   4.150   0.168   0.743
 4150TIP3    H112393   4.183   0.166   0.653
 4150TIP3    H212394   4.160   0.078   0.773
 4151TIP3   OH212395   2.624   6.446   0.275
 4151TIP3    H112396   2.623   6.401   0.359
 4151TIP3    H212397   2.712   6.431   0.241
 4152TIP3   OH212398   0.479   5.420   4.972
 4152TIP3    H112399   0.507   5.350   5.031
 4152TIP3    H212400   0.390   5.396   4.946
 4153TIP3   OH212401   7.741   0.547   0.699
 4153TIP3    H112402   7.665   0.497   0.727
 4153TIP3    H212403   7.816   0.489   0.716
 4154TIP3   OH212404   0.649   4.273   4.215
 4154TIP3    H112405   0.564   4.238   4.187
 4154TIP3    H212406   0.674   4.217   4.289
 4155TIP3   OH212407   3.958   1.840   5.258
 4155TIP3    H112408   3.871   1.800   5.266
 4155TIP3    H212409   4.010   1.772   5.214
 4156TIP3   OH212410   1.498   5.679   6.748
 4156TIP3    H112411   1.520   5.589   6.724
 4156TIP3    H212412   1.552   5.734   6.691
 4157TIP3   OH212413   6.829   6.844   4.519
 4157TIP3    H112414   6.787   6.759   4.506
 4157TIP3    H212415   6.903   6.825   4.577
 4158TIP3   OH212416   3.873   1.489   3.146
 4158TIP3    H112417   3.929   1.456   3.216
 4158TIP3    H212418   3.823   1.413   3.117
 4159TIP3   OH212419   3.101   4.826   0.600
 4159TIP3    H112420   3.136   4.876   0.674
 4159TIP3    H212421   3.007   4.824   0.614
 4160TIP3   OH212422   7.731   1.231   1.417
 4160TIP3    H112423   7.651   1.180   1.427
 4160TIP3    H212424   7.767   1.202   1.333
 4161TIP3   OH212425   5.511   5.462   4.565
 4161TIP3    H112426   5.482   5.374   4.538
 4161TIP3    H212427   5.560   5.447   4.646
 4162TIP3   OH212428   3.869   0.046   4.718
 4162TIP3    H112429   3.808   0.106   4.675
 4162TIP3    H212430   3.895  -0.014   4.649
 4163TIP3   OH212431   0.486   1.856   2.597
 4163TIP3    H112432   0.460   1.815   2.515
 4163TIP3    H212433   0.580   1.836   2.605
 4164TIP3   OH212434   2.041   3.148   4.804
 4164TIP3    H112435   1.957   3.157   4.850
 4164TIP3    H212436   2.086   3.231   4.822
 4165TIP3   OH212437   7.057   4.113   3.426
 4165TIP3    H112438   7.102   4.154   3.500
 4165TIP3    H212439   6.976   4.078   3.463
 4166TIP3   OH212440   0.081   2.313   5.990
 4166TIP3    H112441   0.157   2.320   6.046
 4166TIP3    H212442   0.008   2.294   6.049
 4167TIP3   OH212443   0.951   4.065   3.640
 4167TIP3    H112444   0.886   4.055   3.570
 4167TIP3    H212445   0.907   4.034   3.719
 4168TIP3   OH212446   0.657   2.366   6.629
 4168TIP3    H112447   0.639   2.407   6.545
 4168TIP3    H212448   0.678   2.275   6.608
 4169TIP3   OH212449   3.562   6.304   6.513
 4169TIP3    H112450   3.646   6.300   6.558
 4169TIP3    H212451   3.498   6.322   6.582
 4170TIP3   OH212452   6.673   3.893   0.476
 4170TIP3    H112453   6.735   3.964   0.463
 4170TIP3    H212454   6.587   3.934   0.467
 4171TIP3   OH212455   0.444   6.516   0.931
 4171TIP3    H112456   0.353   6.537   0.908
 4171TIP3    H212457   0.438   6.435   0.981
 4172TIP3   OH212458   1.328   4.908   3.139
 4172TIP3    H112459   1.411   4.921   3.093
 4172TIP3    H212460   1.346   4.933   3.229
 4173TIP3   OH212461   6.201   7.738   5.520
 4173TIP3    H112462   6.131   7.776   5.573
 4173TIP3    H212463   6.268   7.807   5.516
 4174TIP3   OH212464   4.066   3.069   4.233
 4174TIP3    H112465   3.984   3.037   4.195
 4174TIP3    H212466   4.041   3.100   4.320
 4175TIP3   OH212467   2.686   0.534   1.847
 4175TIP3    H112468   2.654   0.603   1.788
 4175TIP3    H212469   2.781   0.536   1.835
 4176TIP3   OH212470   1.341   6.451   1.017
 4176TIP3    H112471   1.308   6.381   0.962
 4176TIP3    H212472   1.358   6.524   0.957
 4177TIP3   OH212473   1.272   4.454   4.328
 4177TIP3    H112474   1.246   4.445   4.419
 4177TIP3    H212475   1.205   4.509   4.288
 4178TIP3   OH212476   2.390   3.488   2.691
 4178TIP3    H112477   2.329   3.523   2.756
 4178TIP3    H212478   2.383   3.393   2.699
 4179TIP3   OH212479   3.321   4.010   1.447
 4179TIP3    H112480   3.394   3.997   1.386
 4179TIP3    H212481   3.319   3.929   1.499
 4180TIP3   OH212482   7.598   6.454   0.204
 4180TIP3    H112483   7.607   6.366   0.166
 4180TIP3    H212484   7.662   6.456   0.274
 4181TIP3   OH212485   3.155   0.553   3.339
 4181TIP3    H112486   3.084   0.590   3.394
 4181TIP3    H212487   3.177   0.470   3.382
 4182TIP3   OH212488   6.037   2.007   2.523
 4182TIP3    H112489   6.050   1.973   2.612
 4182TIP3    H212490   6.037   1.930   2.467
 4183TIP3   OH212491   6.804   5.278   4.867
 4183TIP3    H112492   6.725   5.277   4.921
 4183TIP3    H212493   6.862   5.340   4.911
 4184TIP3   OH212494   1.764   4.441   0.935
 4184TIP3    H112495   1.698   4.398   0.988
 4184TIP3    H212496   1.774   4.528   0.975
 4185TIP3   OH212497   3.009   3.462   6.064
 4185TIP3    H112498   3.055   3.425   5.989
 4185TIP3    H212499   2.916   3.448   6.045
 4186TIP3   OH212500   1.358   6.379   4.668
 4186TIP3    H112501   1.363   6.363   4.574
 4186TIP3    H212502   1.290   6.445   4.677
 4187TIP3   OH212503   4.857   3.966   2.524
 4187TIP3    H112504   4.925   4.013   2.475
 4187TIP3    H212505   4.776   3.989   2.479
 4188TIP3   OH212506   6.734   5.053   5.557
 4188TIP3    H112507   6.693   5.036   5.642
 4188TIP3    H212508   6.828   5.046   5.574
 4189TIP3   OH212509   2.943   4.241   3.346
 4189TIP3    H112510   3.001   4.259   3.420
 4189TIP3    H212511   3.001   4.241   3.270
 4190TIP3   OH212512   4.204   6.626   3.108
 4190TIP3    H112513   4.147   6.579   3.047
 4190TIP3    H212514   4.281   6.570   3.117
 4191TIP3   OH212515   5.637   3.639   2.734
 4191TIP3    H112516   5.637   3.709   2.798
 4191TIP3    H212517   5.550   3.642   2.694
 4192TIP3   OH212518   3.860   1.209   2.200
 4192TIP3    H112519   3.827   1.295   2.178
 4192TIP3    H212520   3.791   1.148   2.174
 4193TIP3   OH212521   5.327   7.131   6.436
 4193TIP3    H112522   5.315   7.210   6.489
 4193TIP3    H212523   5.286   7.152   6.352
 4194TIP3   OH212524   3.469   3.960   4.326
 4194TIP3    H112525   3.442   3.985   4.414
 4194TIP3    H212526   3.428   4.026   4.269
 4195TIP3   OH212527   3.290   1.795   3.559
 4195TIP3    H112528   3.376   1.832   3.539
 4195TIP3    H212529   3.229   1.852   3.512
 4196TIP3   OH212530   2.284   5.701   3.197
 4196TIP3    H112531   2.318   5.681   3.284
 4196TIP3    H212532   2.333   5.645   3.138
 4197TIP3   OH212533   5.108   6.701   1.734
 4197TIP3    H112534   5.123   6.629   1.796
 4197TIP3    H212535   5.183   6.696   1.674
 4198TIP3   OH212536   1.148   1.254   3.636
 4198TIP3    H112537   1.223   1.219   3.683
 4198TIP3    H212538   1.073   1.234   3.691
 4199TIP3   OH212539   1.490   4.043   5.399
 4199TIP3    H112540   1.422   3.981   5.426
 4199TIP3    H212541   1.571   3.992   5.400
 4200TIP3   OH212542   2.760   2.103   6.179
 4200TIP3    H112543   2.709   2.064   6.250
 4200TIP3    H212544   2.698   2.116   6.108
 4201TIP3   OH212545   6.656   1.847   3.481
 4201TIP3    H112546   6.638   1.915   3.546
 4201TIP3    H212547   6.607   1.771   3.512
 4202TIP3   OH212548   1.190   6.994   5.946
 4202TIP3    H112549   1.153   6.906   5.952
 4202TIP3    H212550   1.284   6.982   5.964
 4203TIP3   OH212551   2.695   5.536   2.487
 4203TIP3    H112552   2.695   5.461   2.426
 4203TIP3    H212553   2.607   5.535   2.525
 4204TIP3   OH212554   6.065   0.077   4.804
 4204TIP3    H112555   6.061   0.011   4.735
 4204TIP3    H212556   6.153   0.115   4.795
 4205TIP3   OH212557   2.073   1.901   6.723
 4205TIP3    H112558   2.103   1.939   6.641
 4205TIP3    H212559   1.978   1.912   6.722
 4206TIP3   OH212560   6.263   3.855   4.608
 4206TIP3    H112561   6.288   3.777   4.558
 4206TIP3    H212562   6.310   3.848   4.691
 4207TIP3   OH212563   7.915   5.183   1.417
 4207TIP3    H112564   7.857   5.115   1.451
 4207TIP3    H212565   8.002   5.159   1.448
 4208TIP3   OH212566   7.269   6.667   2.889
 4208TIP3    H112567   7.291   6.603   2.822
 4208TIP3    H212568   7.324   6.644   2.963
 4209TIP3   OH212569   5.382   4.967   2.244
 4209TIP3    H112570   5.309   4.955   2.183
 4209TIP3    H212571   5.460   4.954   2.190
 4210TIP3   OH212572   0.026   5.799   2.567
 4210TIP3    H112573  -0.002   5.813   2.477
 4210TIP3    H212574   0.121   5.806   2.565
 4211TIP3   OH212575   0.360   2.677   5.221
 4211TIP3    H112576   0.449   2.707   5.239
 4211TIP3    H212577   0.315   2.756   5.189
 4212TIP3   OH212578   4.716   0.597   1.821
 4212TIP3    H112579   4.776   0.670   1.801
 4212TIP3    H212580   4.684   0.569   1.735
 4213TIP3   OH212581   5.801   4.036   1.064
 4213TIP3    H112582   5.877   4.009   1.012
 4213TIP3    H212583   5.731   4.049   1.000
 4214TIP3   OH212584   4.243   3.652   5.009
 4214TIP3    H112585   4.156   3.681   5.034
 4214TIP3    H212586   4.294   3.732   5.000
 4215TIP3   OH212587   4.301   6.342   3.888
 4215TIP3    H112588   4.343   6.403   3.949
 4215TIP3    H212589   4.249   6.285   3.944
 4216TIP3   OH212590   2.565   3.933   1.782
 4216TIP3    H112591   2.652   3.971   1.793
 4216TIP3    H212592   2.513   4.002   1.740
 4217TIP3   OH212593   1.366   4.970   0.819
 4217TIP3    H112594   1.343   5.051   0.774
 4217TIP3    H212595   1.383   4.997   0.910
 4218TIP3   OH212596   5.099   6.280   1.874
 4218TIP3    H112597   5.176   6.333   1.852
 4218TIP3    H212598   5.030   6.313   1.816
 4219TIP3   OH212599   3.265   4.625   5.849
 4219TIP3    H112600   3.301   4.588   5.930
 4219TIP3    H212601   3.210   4.556   5.813
 4220TIP3   OH212602   7.111   2.597   1.350
 4220TIP3    H112603   7.020   2.625   1.341
 4220TIP3    H212604   7.137   2.573   1.261
 4221TIP3   OH212605   5.747   6.527   2.124
 4221TIP3    H112606   5.730   6.441   2.086
 4221TIP3    H212607   5.716   6.590   2.059
 4222TIP3   OH212608   3.942   4.274   1.129
 4222TIP3    H112609   3.961   4.290   1.221
 4222TIP3    H212610   3.910   4.358   1.096
 4223TIP3   OH212611   7.254   0.973   2.926
 4223TIP3    H112612   7.273   0.912   2.997
 4223TIP3    H212613   7.340   0.992   2.887
 4224TIP3   OH212614   6.457   0.931   0.184
 4224TIP3    H112615   6.475   1.002   0.122
 4224TIP3    H212616   6.487   0.964   0.268
 4225TIP3   OH212617   2.470   3.322   1.768
 4225TIP3    H112618   2.546   3.279   1.730
 4225TIP3    H212619   2.489   3.416   1.761
 4226TIP3   OH212620   0.951   7.130   5.522
 4226TIP3    H112621   0.995   7.206   5.484
 4226TIP3    H212622   0.980   7.128   5.613
 4227TIP3   OH212623   5.477   2.611   4.205
 4227TIP3    H112624   5.532   2.532   4.205
 4227TIP3    H212625   5.475   2.639   4.114
 4228TIP3   OH212626   4.420   7.135   1.065
 4228TIP3    H112627   4.473   7.208   1.036
 4228TIP3    H212628   4.376   7.166   1.144
 4229TIP3   OH212629   1.853   4.467   2.113
 4229TIP3    H112630   1.807   4.519   2.179
 4229TIP3    H212631   1.800   4.388   2.103
 4230TIP3   OH212632   6.309   0.205   4.791
 4230TIP3    H112633   6.336   0.293   4.817
 4230TIP3    H212634   6.343   0.194   4.702
 4231TIP3   OH212635   6.999   2.851   2.623
 4231TIP3    H112636   7.044   2.768   2.605
 4231TIP3    H212637   7.036   2.912   2.560
 4232TIP3   OH212638   2.507   1.095   2.856
 4232TIP3    H112639   2.554   1.069   2.935
 4232TIP3    H212640   2.566   1.072   2.784
 4233TIP3   OH212641   5.786   1.840   3.175
 4233TIP3    H112642   5.837   1.909   3.134
 4233TIP3    H212643   5.695   1.864   3.157
 4234TIP3   OH212644   0.785   2.115   6.588
 4234TIP3    H112645   0.741   2.030   6.592
 4234TIP3    H212646   0.871   2.099   6.626
 4235TIP3   OH212647   2.105   2.768   5.490
 4235TIP3    H112648   2.134   2.781   5.400
 4235TIP3    H212649   2.078   2.855   5.519
 4236TIP3   OH212650   4.989   2.768   4.266
 4236TIP3    H112651   4.986   2.809   4.352
 4236TIP3    H212652   5.008   2.839   4.205
 4237TIP3   OH212653   5.893   3.150   5.878
 4237TIP3    H112654   5.862   3.083   5.939
 4237TIP3    H212655   5.987   3.156   5.895
 4238TIP3   OH212656   3.451   5.711   5.495
 4238TIP3    H112657   3.392   5.784   5.475
 4238TIP3    H212658   3.520   5.716   5.428
 4239TIP3   OH212659   2.740   1.727   6.344
 4239TIP3    H112660   2.698   1.657   6.394
 4239TIP3    H212661   2.670   1.791   6.327
 4240TIP3   OH212662   4.488   4.310   0.359
 4240TIP3    H112663   4.429   4.268   0.421
 4240TIP3    H212664   4.446   4.297   0.274
 4241TIP3   OH212665   7.328   6.328   4.232
 4241TIP3    H112666   7.280   6.267   4.176
 4241TIP3    H212667   7.259   6.372   4.283
 4242TIP3   OH212668   6.528   4.619   1.248
 4242TIP3    H112669   6.453   4.679   1.251
 4242TIP3    H212670   6.604   4.677   1.241
 4243TIP3   OH212671   0.515   6.541   1.505
 4243TIP3    H112672   0.605   6.531   1.476
 4243TIP3    H212673   0.498   6.462   1.558
 4244TIP3   OH212674   5.457   5.071   0.337
 4244TIP3    H112675   5.407   5.071   0.418
 4244TIP3    H212676   5.477   5.163   0.320
 4245TIP3   OH212677   2.310   7.231   1.917
 4245TIP3    H112678   2.272   7.308   1.959
 4245TIP3    H212679   2.349   7.266   1.836
 4246TIP3   OH212680   1.713   0.901   1.922
 4246TIP3    H112681   1.779   0.836   1.896
 4246TIP3    H212682   1.643   0.891   1.858
 4247TIP3   OH212683   4.179   6.035   1.905
 4247TIP3    H112684   4.161   6.116   1.857
 4247TIP3    H212685   4.118   6.035   1.978
 4248TIP3   OH212686   6.002   4.013   6.136
 4248TIP3    H112687   5.955   4.035   6.217
 4248TIP3    H212688   6.094   4.023   6.158
 4249TIP3   OH212689   5.106   7.745   0.236
 4249TIP3    H112690   5.100   7.840   0.224
 4249TIP3    H212691   5.176   7.718   0.176
 4250TIP3   OH212692   0.961   3.645   3.693
 4250TIP3    H112693   0.929   3.676   3.608
 4250TIP3    H212694   1.048   3.685   3.702
 4251TIP3   OH212695   4.786   6.604   1.180
 4251TIP3    H112696   4.741   6.529   1.141
 4251TIP3    H212697   4.786   6.670   1.111
 4252TIP3   OH212698   3.527   0.034   5.087
 4252TIP3    H112699   3.469  -0.034   5.120
 4252TIP3    H212700   3.597  -0.013   5.042
 4253TIP3   OH212701   5.094   3.602   2.159
 4253TIP3    H112702   5.186   3.625   2.147
 4253TIP3    H212703   5.066   3.568   2.074
 4254TIP3   OH212704   4.005   5.866   4.717
 4254TIP3    H112705   3.955   5.858   4.636
 4254TIP3    H212706   3.944   5.838   4.785
 4255TIP3   OH212707   2.449   7.352   1.715
 4255TIP3    H112708   2.538   7.320   1.730
 4255TIP3    H212709   2.456   7.408   1.637
 4256TIP3   OH212710   0.899   2.841   0.760
 4256TIP3    H112711   0.836   2.769   0.751
 4256TIP3    H212712   0.846   2.914   0.793
 4257TIP3   OH212713   2.664   1.337   2.803
 4257TIP3    H112714   2.593   1.274   2.820
 4257TIP3    H212715   2.645   1.409   2.863
 4258TIP3   OH212716   7.846   6.995   3.292
 4258TIP3    H112717   7.802   7.079   3.276
 4258TIP3    H212718   7.888   7.006   3.377
 4259TIP3   OH212719   2.689   4.840   4.796
 4259TIP3    H112720   2.715   4.929   4.775
 4259TIP3    H212721   2.695   4.793   4.713
 4260TIP3   OH212722   8.105   0.062   1.741
 4260TIP3    H112723   8.169   0.019   1.798
 4260TIP3    H212724   8.154   0.130   1.695
 4261TIP3   OH212725   0.799   2.872   2.629
 4261TIP3    H112726   0.824   2.859   2.720
 4261TIP3    H212727   0.712   2.911   2.633
 4262TIP3   OH212728   1.041   2.544   2.773
 4262TIP3    H112729   1.006   2.488   2.842
 4262TIP3    H212730   1.105   2.489   2.727
 4263TIP3   OH212731   5.490   3.493   6.216
 4263TIP3    H112732   5.516   3.501   6.124
 4263TIP3    H212733   5.407   3.540   6.221
 4264TIP3   OH212734   8.219   6.414   3.236
 4264TIP3    H112735   8.305   6.373   3.228
 4264TIP3    H212736   8.181   6.408   3.149
 4265TIP3   OH212737   7.353   4.021   2.522
 4265TIP3    H112738   7.439   3.983   2.502
 4265TIP3    H212739   7.299   4.000   2.446
 4266TIP3   OH212740   7.615   6.486   6.713
 4266TIP3    H112741   7.618   6.421   6.782
 4266TIP3    H212742   7.641   6.438   6.634
 4267TIP3   OH212743   4.946   7.192   4.145
 4267TIP3    H112744   4.915   7.278   4.176
 4267TIP3    H212745   4.865   7.144   4.125
 4268TIP3   OH212746   3.431   0.761   0.965
 4268TIP3    H112747   3.459   0.795   1.049
 4268TIP3    H212748   3.446   0.832   0.903
 4269TIP3   OH212749   0.481   0.101   4.008
 4269TIP3    H112750   0.537   0.158   3.955
 4269TIP3    H212751   0.408   0.078   3.949
 4270TIP3   OH212752   5.488   4.012   0.416
 4270TIP3    H112753   5.410   3.985   0.367
 4270TIP3    H212754   5.538   4.064   0.353
 4271TIP3   OH212755   0.208   6.577   5.010
 4271TIP3    H112756   0.278   6.643   5.005
 4271TIP3    H212757   0.235   6.509   4.948
 4272TIP3   OH212758   1.416   0.562   5.773
 4272TIP3    H112759   1.472   0.590   5.845
 4272TIP3    H212760   1.475   0.518   5.712
 4273TIP3   OH212761   0.125   6.266   2.317
 4273TIP3    H112762   0.172   6.189   2.286
 4273TIP3    H212763   0.134   6.330   2.246
 4274TIP3   OH212764   6.597   3.783   6.037
 4274TIP3    H112765   6.506   3.797   6.063
 4274TIP3    H212766   6.641   3.865   6.059
 4275TIP3   OH212767   1.035   4.732   2.156
 4275TIP3    H112768   0.975   4.671   2.198
 4275TIP3    H212769   1.043   4.700   2.066
 4276TIP3   OH212770   4.301   4.935   0.409
 4276TIP3    H112771   4.274   5.019   0.374
 4276TIP3    H212772   4.220   4.890   0.431
 4277TIP3   OH212773   3.985   3.125   6.600
 4277TIP3    H112774   4.077   3.153   6.593
 4277TIP3    H212775   3.990   3.029   6.607
 4278TIP3   OH212776   0.272   7.795   1.994
 4278TIP3    H112777   0.264   7.795   2.089
 4278TIP3    H212778   0.190   7.757   1.963
 4279TIP3   OH212779   3.573   7.488   6.317
 4279TIP3    H112780   3.560   7.507   6.223
 4279TIP3    H212781   3.487   7.459   6.347
 4280TIP3   OH212782   2.035   5.221   3.859
 4280TIP3    H112783   2.035   5.287   3.928
 4280TIP3    H212784   2.027   5.137   3.905
 4281TIP3   OH212785   5.230   3.213   3.316
 4281TIP3    H112786   5.199   3.130   3.352
 4281TIP3    H212787   5.150   3.264   3.304
 4282TIP3   OH212788   5.495   7.733   1.010
 4282TIP3    H112789   5.571   7.687   1.047
 4282TIP3    H212790   5.500   7.821   1.047
 4283TIP3   OH212791   6.003   5.669   2.694
 4283TIP3    H112792   6.096   5.685   2.709
 4283TIP3    H212793   5.991   5.576   2.713
 4284TIP3   OH212794   3.405   0.026   2.655
 4284TIP3    H112795   3.322  -0.023   2.651
 4284TIP3    H212796   3.428   0.025   2.748
 4285TIP3   OH212797   1.230   2.755   5.923
 4285TIP3    H112798   1.276   2.684   5.969
 4285TIP3    H212799   1.226   2.826   5.987
 4286TIP3   OH212800   7.302   6.666   4.535
 4286TIP3    H112801   7.382   6.717   4.524
 4286TIP3    H212802   7.314   6.619   4.617
 4287TIP3   OH212803   5.425   3.359   0.139
 4287TIP3    H112804   5.484   3.434   0.144
 4287TIP3    H212805   5.416   3.343   0.045
 4288TIP3   OH212806   0.421   2.657   3.360
 4288TIP3    H112807   0.373   2.725   3.406
 4288TIP3    H212808   0.422   2.582   3.420
 4289TIP3   OH212809   2.253   3.484   0.521
 4289TIP3    H112810   2.199   3.504   0.444
 4289TIP3    H212811   2.223   3.547   0.587
 4290TIP3   OH212812   1.643   4.827   0.288
 4290TIP3    H112813   1.663   4.734   0.295
 4290TIP3    H212814   1.548   4.830   0.275
 4291TIP3   OH212815   5.864   4.626   0.003
 4291TIP3    H112816   5.926   4.598  -0.064
 4291TIP3    H212817   5.874   4.563   0.074
 4292TIP3   OH212818   4.460   5.500   2.452
 4292TIP3    H112819   4.532   5.445   2.421
 4292TIP3    H212820   4.386   5.477   2.397
 4293TIP3   OH212821   1.364   2.385   4.757
 4293TIP3    H112822   1.365   2.477   4.783
 4293TIP3    H212823   1.449   2.351   4.785
 4294TIP3   OH212824   6.064   4.169   0.256
 4294TIP3    H112825   6.056   4.199   0.165
 4294TIP3    H212826   5.989   4.209   0.300
 4295TIP3   OH212827   4.261   5.976   2.425
 4295TIP3    H112828   4.172   5.948   2.447
 4295TIP3    H212829   4.318   5.911   2.466
 4296TIP3   OH212830   3.454   3.740   0.483
 4296TIP3    H112831   3.378   3.724   0.539
 4296TIP3    H212832   3.422   3.799   0.415
 4297TIP3   OH212833   4.484   5.964   5.430
 4297TIP3    H112834   4.422   6.036   5.445
 4297TIP3    H212835   4.494   5.922   5.515
 4298TIP3   OH212836   3.114   4.511   6.219
 4298TIP3    H112837   3.052   4.578   6.246
 4298TIP3    H212838   3.104   4.441   6.284
 4299TIP3   OH212839   5.446   7.194   2.972
 4299TIP3    H112840   5.379   7.127   2.963
 4299TIP3    H212841   5.406   7.273   2.936
 4300TIP3   OH212842   0.094   7.249   6.534
 4300TIP3    H112843   0.013   7.282   6.571
 4300TIP3    H212844   0.071   7.221   6.445
 4301TIP3   OH212845   1.402   3.734   2.557
 4301TIP3    H112846   1.391   3.646   2.522
 4301TIP3    H212847   1.314   3.770   2.561
 4302TIP3   OH212848   3.481   5.365   0.084
 4302TIP3    H112849   3.408   5.314   0.118
 4302TIP3    H212850   3.547   5.361   0.153
 4303TIP3   OH212851   1.787   0.774   2.466
 4303TIP3    H112852   1.863   0.785   2.523
 4303TIP3    H212853   1.712   0.792   2.522
 4304TIP3   OH212854   3.815   3.694   6.562
 4304TIP3    H112855   3.763   3.703   6.642
 4304TIP3    H212856   3.906   3.697   6.592
 4305TIP3   OH212857   7.446   0.919   0.531
 4305TIP3    H112858   7.425   0.837   0.576
 4305TIP3    H212859   7.520   0.897   0.474
 4306TIP3   OH212860   5.141   5.777   3.332
 4306TIP3    H112861   5.211   5.713   3.318
 4306TIP3    H212862   5.180   5.861   3.309
 4307TIP3   OH212863   2.854   5.697   2.358
 4307TIP3    H112864   2.801   5.643   2.417
 4307TIP3    H212865   2.903   5.634   2.306
 4308TIP3   OH212866   3.091   1.279   0.550
 4308TIP3    H112867   3.162   1.284   0.613
 4308TIP3    H212868   3.110   1.202   0.497
 4309TIP3   OH212869   3.285   2.790   5.074
 4309TIP3    H112870   3.276   2.792   5.169
 4309TIP3    H212871   3.348   2.719   5.058
 4310TIP3   OH212872   3.453   3.021   1.432
 4310TIP3    H112873   3.487   3.051   1.516
 4310TIP3    H212874   3.415   3.100   1.392
 4311TIP3   OH212875   0.046   0.344   1.373
 4311TIP3    H112876  -0.015   0.378   1.308
 4311TIP3    H212877   0.036   0.249   1.368
 4312TIP3   OH212878   1.164   1.637   2.736
 4312TIP3    H112879   1.136   1.728   2.730
 4312TIP3    H212880   1.213   1.632   2.817
 4313TIP3   OH212881   6.914   1.724   1.785
 4313TIP3    H112882   6.988   1.783   1.794
 4313TIP3    H212883   6.948   1.638   1.810
 4314TIP3   OH212884   7.316   4.106   4.554
 4314TIP3    H112885   7.393   4.119   4.498
 4314TIP3    H212886   7.250   4.070   4.496
 4315TIP3   OH212887   4.354   7.093   2.923
 4315TIP3    H112888   4.409   7.065   2.850
 4315TIP3    H212889   4.288   7.024   2.932
 4316TIP3   OH212890   0.755   0.593   4.415
 4316TIP3    H112891   0.684   0.531   4.403
 4316TIP3    H212892   0.712   0.677   4.428
 4317TIP3   OH212893   6.700   6.347   5.268
 4317TIP3    H112894   6.678   6.362   5.176
 4317TIP3    H212895   6.690   6.433   5.309
 4318TIP3   OH212896   7.184   0.039   1.708
 4318TIP3    H112897   7.166   0.072   1.619
 4318TIP3    H212898   7.181  -0.056   1.700
 4319TIP3   OH212899   3.870   4.758   2.249
 4319TIP3    H112900   3.797   4.699   2.229
 4319TIP3    H212901   3.945   4.700   2.258
 4320TIP3   OH212902   3.763   7.818   6.678
 4320TIP3    H112903   3.824   7.745   6.689
 4320TIP3    H212904   3.738   7.815   6.586
 4321TIP3   OH212905   7.633   2.689   4.427
 4321TIP3    H112906   7.568   2.660   4.491
 4321TIP3    H212907   7.715   2.652   4.457
 4322TIP3   OH212908   0.751   1.170   6.721
 4322TIP3    H112909   0.791   1.166   6.634
 4322TIP3    H212910   0.817   1.212   6.776
 4323TIP3   OH212911   5.811   1.528   3.544
 4323TIP3    H112912   5.787   1.523   3.637
 4323TIP3    H212913   5.826   1.621   3.528
 4324TIP3   OH212914   2.772   1.083   1.921
 4324TIP3    H112915   2.692   1.096   1.869
 4324TIP3    H212916   2.827   1.159   1.899
 4325TIP3   OH212917   0.628   3.747   3.607
 4325TIP3    H112918   0.569   3.680   3.573
 4325TIP3    H212919   0.596   3.766   3.695
 4326TIP3   OH212920   6.934   1.706   0.253
 4326TIP3    H112921   6.884   1.629   0.227
 4326TIP3    H212922   6.966   1.743   0.171
 4327TIP3   OH212923   0.334   3.231   3.341
 4327TIP3    H112924   0.307   3.218   3.250
 4327TIP3    H212925   0.324   3.144   3.381
 4328TIP3   OH212926   3.718   7.440   0.155
 4328TIP3    H112927   3.696   7.390   0.233
 4328TIP3    H212928   3.688   7.384   0.082
 4329TIP3   OH212929   5.413   4.660   0.878
 4329TIP3    H112930   5.467   4.619   0.811
 4329TIP3    H212931   5.462   4.739   0.903
 4330TIP3   OH212932   4.295   5.942   3.820
 4330TIP3    H112933   4.327   5.854   3.806
 4330TIP3    H212934   4.305   5.957   3.914
 4331TIP3   OH212935   4.395   4.109   6.582
 4331TIP3    H112936   4.404   4.032   6.637
 4331TIP3    H212937   4.473   4.161   6.601
 4332TIP3   OH212938   5.859   0.958   5.395
 4332TIP3    H112939   5.846   1.036   5.449
 4332TIP3    H212940   5.904   0.990   5.317
 4333TIP3   OH212941   1.001   3.291   1.475
 4333TIP3    H112942   1.076   3.232   1.468
 4333TIP3    H212943   1.006   3.325   1.565
 4334TIP3   OH212944   1.146   5.269   4.902
 4334TIP3    H112945   1.171   5.353   4.864
 4334TIP3    H212946   1.133   5.287   4.995
 4335TIP3   OH212947   3.556   1.352   6.099
 4335TIP3    H112948   3.633   1.345   6.155
 4335TIP3    H212949   3.482   1.350   6.159
 4336TIP3   OH212950   1.662   3.255   0.270
 4336TIP3    H112951   1.603   3.184   0.247
 4336TIP3    H212952   1.641   3.325   0.207
 4337TIP3   OH212953   0.224   2.939   5.709
 4337TIP3    H112954   0.261   2.880   5.774
 4337TIP3    H212955   0.131   2.917   5.707
 4338TIP3   OH212956   3.366   7.625   3.529
 4338TIP3    H112957   3.461   7.623   3.535
 4338TIP3    H212958   3.337   7.623   3.621
 4339TIP3   OH212959   7.416   1.338   1.944
 4339TIP3    H112960   7.433   1.430   1.922
 4339TIP3    H212961   7.457   1.326   2.030
 4340TIP3   OH212962   0.861   1.420   2.461
 4340TIP3    H112963   0.900   1.373   2.387
 4340TIP3    H212964   0.927   1.417   2.529
 4341TIP3   OH212965   0.890   6.584   1.639
 4341TIP3    H112966   0.845   6.554   1.718
 4341TIP3    H212967   0.945   6.656   1.669
 4342TIP3   OH212968   1.197   4.964   1.490
 4342TIP3    H112969   1.189   4.998   1.401
 4342TIP3    H212970   1.287   4.985   1.515
 4343TIP3   OH212971   3.204   4.864   4.094
 4343TIP3    H112972   3.237   4.915   4.020
 4343TIP3    H212973   3.144   4.801   4.055
 4344TIP3   OH212974   3.948   0.516   0.963
 4344TIP3    H112975   4.022   0.551   1.011
 4344TIP3    H212976   3.940   0.425   0.992
 4345TIP3   OH212977   6.361   4.989   0.998
 4345TIP3    H112978   6.430   5.041   1.039
 4345TIP3    H212979   6.315   5.051   0.941
 4346TIP3   OH212980   4.364   3.505   6.183
 4346TIP3    H112981   4.287   3.451   6.166
 4346TIP3    H212982   4.427   3.480   6.116
 4347TIP3   OH212983   1.240   0.346   3.975
 4347TIP3    H112984   1.299   0.270   3.971
 4347TIP3    H212985   1.157   0.314   3.941
 4348TIP3   OH212986   2.751   7.096   0.565
 4348TIP3    H112987   2.718   7.010   0.540
 4348TIP3    H212988   2.844   7.094   0.540
 4349TIP3   OH212989   4.057   6.113   6.791
 4349TIP3    H112990   3.974   6.160   6.794
 4349TIP3    H212991   4.035   6.026   6.757
 4350TIP3   OH212992   4.281   0.269   2.386
 4350TIP3    H112993   4.296   0.216   2.308
 4350TIP3    H212994   4.198   0.238   2.421
 4351TIP3   OH212995   6.311   1.880   1.660
 4351TIP3    H112996   6.294   1.863   1.753
 4351TIP3    H212997   6.362   1.804   1.631
 4352TIP3   OH212998   3.303   7.226   3.099
 4352TIP3    H112999   3.338   7.282   3.168
 4352TIP3    H213000   3.376   7.215   3.038
 4353TIP3   OH213001   5.635   5.185   0.638
 4353TIP3    H113002   5.646   5.259   0.698
 4353TIP3    H213003   5.540   5.171   0.635
 4354TIP3   OH213004   5.911   6.823   5.536
 4354TIP3    H113005   5.911   6.789   5.446
 4354TIP3    H213006   5.836   6.883   5.539
 4355TIP3   OH213007   3.386   2.667   1.182
 4355TIP3    H113008   3.403   2.588   1.131
 4355TIP3    H213009   3.319   2.714   1.131
 4356TIP3   OH213010   7.506   3.439   2.942
 4356TIP3    H113011   7.525   3.520   2.895
 4356TIP3    H213012   7.556   3.446   3.023
 4357TIP3   OH213013   1.770   7.708   1.302
 4357TIP3    H113014   1.798   7.800   1.306
 4357TIP3    H213015   1.730   7.692   1.387
 4358TIP3   OH213016   3.429   1.727   1.395
 4358TIP3    H113017   3.337   1.753   1.404
 4358TIP3    H213018   3.454   1.698   1.483
 4359TIP3   OH213019   0.688   6.097   1.436
 4359TIP3    H113020   0.723   6.106   1.525
 4359TIP3    H213021   0.756   6.050   1.388
 4360TIP3   OH213022   5.926   3.851   4.477
 4360TIP3    H113023   5.966   3.930   4.513
 4360TIP3    H213024   5.839   3.879   4.447
 4361TIP3   OH213025   7.601   2.790   2.661
 4361TIP3    H113026   7.560   2.810   2.745
 4361TIP3    H213027   7.665   2.860   2.648
 4362TIP3   OH213028   5.936   6.297   6.269
 4362TIP3    H113029   5.887   6.375   6.294
 4362TIP3    H213030   6.028   6.320   6.282
 4363TIP3   OH213031   0.793   6.893   3.979
 4363TIP3    H113032   0.794   6.798   3.966
 4363TIP3    H213033   0.701   6.914   3.994
 4364TIP3   OH213034   0.546   4.641   0.380
 4364TIP3    H113035   0.592   4.723   0.398
 4364TIP3    H213036   0.453   4.666   0.379
 4365TIP3   OH213037   6.806   1.713   6.761
 4365TIP3    H113038   6.814   1.777   6.690
 4365TIP3    H213039   6.728   1.662   6.739
 4366TIP3   OH213040   2.016   3.615   0.606
 4366TIP3    H113041   1.922   3.607   0.590
 4366TIP3    H213042   2.045   3.683   0.544
 4367TIP3   OH213043   6.696   1.804   5.988
 4367TIP3    H113044   6.773   1.770   6.034
 4367TIP3    H213045   6.719   1.895   5.969
 4368TIP3   OH213046   4.519   5.721   1.598
 4368TIP3    H113047   4.581   5.789   1.624
 4368TIP3    H213048   4.435   5.751   1.633
 4369TIP3   OH213049   7.233   6.631   5.778
 4369TIP3    H113050   7.324   6.618   5.748
 4369TIP3    H213051   7.180   6.590   5.709
 4370TIP3   OH213052   5.609   1.427   4.549
 4370TIP3    H113053   5.702   1.411   4.559
 4370TIP3    H213054   5.592   1.504   4.604
 4371TIP3   OH213055   5.150   3.471   3.858
 4371TIP3    H113056   5.101   3.413   3.916
 4371TIP3    H213057   5.176   3.416   3.785
 4372TIP3   OH213058   3.815   1.430   4.094
 4372TIP3    H113059   3.835   1.520   4.070
 4372TIP3    H213060   3.818   1.428   4.190
 4373TIP3   OH213061   0.281   2.899   1.927
 4373TIP3    H113062   0.348   2.832   1.945
 4373TIP3    H213063   0.264   2.890   1.833
 4374TIP3   OH213064   0.916   0.614   0.294
 4374TIP3    H113065   0.919   0.645   0.385
 4374TIP3    H213066   0.828   0.577   0.285
 4375TIP3   OH213067   5.770   4.436   0.964
 4375TIP3    H113068   5.725   4.355   0.940
 4375TIP3    H213069   5.702   4.503   0.958
 4376TIP3   OH213070   5.178   6.925   4.913
 4376TIP3    H113071   5.130   6.975   4.979
 4376TIP3    H213072   5.142   6.956   4.830
 4377TIP3   OH213073   4.540   1.742   4.968
 4377TIP3    H113074   4.579   1.756   5.054
 4377TIP3    H213075   4.592   1.671   4.930
 4378TIP3   OH213076   6.291   3.141   5.153
 4378TIP3    H113077   6.207   3.179   5.128
 4378TIP3    H213078   6.271   3.049   5.169
 4379TIP3   OH213079   3.906   7.525   4.231
 4379TIP3    H113080   3.973   7.591   4.248
 4379TIP3    H213081   3.825   7.575   4.222
 4380TIP3   OH213082   7.968   6.449   2.154
 4380TIP3    H113083   8.027   6.386   2.195
 4380TIP3    H213084   8.025   6.520   2.123
 4381TIP3   OH213085   4.377   1.023   1.749
 4381TIP3    H113086   4.436   1.071   1.807
 4381TIP3    H213087   4.434   0.962   1.702
 4382TIP3   OH213088   6.624   1.437   4.822
 4382TIP3    H113089   6.550   1.454   4.880
 4382TIP3    H213090   6.589   1.376   4.757
 4383TIP3   OH213091   6.741   1.872   2.636
 4383TIP3    H113092   6.722   1.781   2.662
 4383TIP3    H213093   6.737   1.871   2.541
 4384TIP3   OH213094   3.602   3.049   0.637
 4384TIP3    H113095   3.609   3.070   0.544
 4384TIP3    H213096   3.621   3.132   0.682
 4385TIP3   OH213097   6.098   5.357   4.685
 4385TIP3    H113098   6.192   5.365   4.666
 4385TIP3    H213099   6.093   5.353   4.780
 4386TIP3   OH213100   5.126   5.134   2.052
 4386TIP3    H113101   5.102   5.124   1.960
 4386TIP3    H213102   5.107   5.049   2.092
 4387TIP3   OH213103   3.664   6.188   6.187
 4387TIP3    H113104   3.715   6.127   6.134
 4387TIP3    H213105   3.701   6.180   6.275
 4388TIP3   OH213106   4.582   6.430   3.682
 4388TIP3    H113107   4.674   6.403   3.683
 4388TIP3    H213108   4.574   6.490   3.757
 4389TIP3   OH213109   1.164   2.388   2.586
 4389TIP3    H113110   1.179   2.388   2.492
 4389TIP3    H213111   1.144   2.297   2.607
 4390TIP3   OH213112   0.100   4.800   2.505
 4390TIP3    H113113   0.149   4.746   2.567
 4390TIP3    H213114   0.132   4.889   2.520
 4391TIP3   OH213115   5.054   7.380   0.152
 4391TIP3    H113116   5.061   7.426   0.236
 4391TIP3    H213117   5.132   7.326   0.148
 4392TIP3   OH213118   3.312   7.153   0.959
 4392TIP3    H113119   3.337   7.235   0.917
 4392TIP3    H213120   3.339   7.164   1.051
 4393TIP3   OH213121   7.108   7.561   2.207
 4393TIP3    H113122   7.124   7.617   2.283
 4393TIP3    H213123   7.015   7.538   2.214
 4394TIP3   OH213124   1.822   6.210   4.514
 4394TIP3    H113125   1.883   6.219   4.440
 4394TIP3    H213126   1.736   6.226   4.475
 4395TIP3   OH213127   7.101   5.747   3.368
 4395TIP3    H113128   7.173   5.805   3.393
 4395TIP3    H213129   7.104   5.675   3.431
 4396TIP3   OH213130   5.172   2.192   3.178
 4396TIP3    H113131   5.176   2.249   3.102
 4396TIP3    H213132   5.143   2.107   3.144
 4397TIP3   OH213133   2.657   5.173   0.142
 4397TIP3    H113134   2.700   5.191   0.225
 4397TIP3    H213135   2.659   5.256   0.095
 4398TIP3   OH213136   7.287   4.509   0.562
 4398TIP3    H113137   7.285   4.429   0.614
 4398TIP3    H213138   7.267   4.481   0.473
 4399TIP3   OH213139   2.629   5.444   5.601
 4399TIP3    H113140   2.571   5.500   5.653
 4399TIP3    H213141   2.592   5.449   5.512
 4400TIP3   OH213142   3.049   1.724   4.324
 4400TIP3    H113143   3.105   1.686   4.257
 4400TIP3    H213144   2.973   1.758   4.275
 4401TIP3   OH213145   6.094   0.991   3.971
 4401TIP3    H113146   6.083   0.929   3.899
 4401TIP3    H213147   6.099   0.937   4.050
 4402TIP3   OH213148   3.568   5.226   3.949
 4402TIP3    H113149   3.558   5.315   3.916
 4402TIP3    H213150   3.593   5.237   4.040
 4403TIP3   OH213151   6.637   1.397   3.997
 4403TIP3    H113152   6.587   1.463   3.950
 4403TIP3    H213153   6.583   1.318   3.993
 4404TIP3   OH213154   7.619   4.529   1.529
 4404TIP3    H113155   7.674   4.607   1.538
 4404TIP3    H213156   7.616   4.512   1.435
 4405TIP3   OH213157   1.022   1.206   4.002
 4405TIP3    H113158   1.109   1.175   4.026
 4405TIP3    H213159   1.038   1.281   3.944
 4406TIP3   OH213160   4.292   4.367   0.565
 4406TIP3    H113161   4.255   4.295   0.515
 4406TIP3    H213162   4.219   4.428   0.578
 4407TIP3   OH213163   7.179   5.411   4.170
 4407TIP3    H113164   7.195   5.459   4.251
 4407TIP3    H213165   7.191   5.319   4.194
 4408TIP3   OH213166   3.800   3.392   2.106
 4408TIP3    H113167   3.865   3.408   2.174
 4408TIP3    H213168   3.737   3.332   2.146
 4409TIP3   OH213169   4.628   2.933   2.228
 4409TIP3    H113170   4.599   3.014   2.188
 4409TIP3    H213171   4.715   2.917   2.190
 4410TIP3   OH213172   1.662   3.763   5.345
 4410TIP3    H113173   1.675   3.672   5.371
 4410TIP3    H213174   1.743   3.788   5.301
 4411TIP3   OH213175   5.984   0.629   5.272
 4411TIP3    H113176   6.020   0.655   5.357
 4411TIP3    H213177   5.962   0.711   5.228
 4412TIP3   OH213178   7.584   7.642   3.862
 4412TIP3    H113179   7.604   7.610   3.774
 4412TIP3    H213180   7.507   7.696   3.851
 4413TIP3   OH213181   3.779   7.304   3.347
 4413TIP3    H113182   3.759   7.220   3.387
 4413TIP3    H213183   3.721   7.367   3.390
 4414TIP3   OH213184   0.391   2.932   6.332
 4414TIP3    H113185   0.451   2.866   6.295
 4414TIP3    H213186   0.368   2.898   6.418
 4415TIP3   OH213187   2.660   4.419   4.689
 4415TIP3    H113188   2.688   4.457   4.772
 4415TIP3    H213189   2.589   4.476   4.659
 4416TIP3   OH213190   5.290   2.153   2.199
 4416TIP3    H113191   5.352   2.081   2.194
 4416TIP3    H213192   5.216   2.127   2.144
 4417TIP3   OH213193   2.347   5.227   1.746
 4417TIP3    H113194   2.274   5.180   1.706
 4417TIP3    H213195   2.328   5.320   1.730
 4418TIP3   OH213196   0.767   6.687   2.632
 4418TIP3    H113197   0.758   6.745   2.707
 4418TIP3    H213198   0.691   6.704   2.578
 4419TIP3   OH213199   7.337   7.541   3.393
 4419TIP3    H113200   7.325   7.531   3.488
 4419TIP3    H213201   7.290   7.467   3.355
 4420TIP3   OH213202   8.171   5.886   5.798
 4420TIP3    H113203   8.187   5.969   5.754
 4420TIP3    H213204   8.242   5.879   5.862
 4421TIP3   OH213205   1.141   0.708   4.277
 4421TIP3    H113206   1.229   0.693   4.311
 4421TIP3    H213207   1.142   0.669   4.189
 4422TIP3   OH213208   1.834   3.078   1.788
 4422TIP3    H113209   1.785   3.126   1.855
 4422TIP3    H213210   1.790   2.993   1.782
 4423TIP3   OH213211   0.541   3.604   1.523
 4423TIP3    H113212   0.497   3.579   1.442
 4423TIP3    H213213   0.603   3.533   1.539
 4424TIP3   OH213214   2.103   4.183   5.140
 4424TIP3    H113215   2.102   4.234   5.221
 4424TIP3    H213216   2.163   4.111   5.158
 4425TIP3   OH213217   4.090   3.178   2.073
 4425TIP3    H113218   4.157   3.131   2.122
 4425TIP3    H213219   4.139   3.239   2.017
 4426TIP3   OH213220   2.506   1.176   5.977
 4426TIP3    H113221   2.580   1.117   5.990
 4426TIP3    H213222   2.502   1.229   6.057
 4427TIP3   OH213223   2.955   7.029   5.795
 4427TIP3    H113224   2.916   7.110   5.763
 4427TIP3    H213225   3.045   7.053   5.817
 4428TIP3   OH213226   7.371   6.245   4.704
 4428TIP3    H113227   7.306   6.229   4.773
 4428TIP3    H213228   7.335   6.202   4.627
 4429TIP3   OH213229   2.377   6.097   1.563
 4429TIP3    H113230   2.464   6.061   1.581
 4429TIP3    H213231   2.369   6.170   1.624
 4430TIP3   OH213232   1.016   7.192   1.927
 4430TIP3    H113233   1.034   7.098   1.926
 4430TIP3    H213234   0.942   7.202   1.987
 4431TIP3   OH213235   1.085   1.900   4.302
 4431TIP3    H113236   1.154   1.946   4.255
 4431TIP3    H213237   1.016   1.887   4.237
 4432TIP3   OH213238   4.703   7.746   6.115
 4432TIP3    H113239   4.677   7.835   6.137
 4432TIP3    H213240   4.798   7.745   6.128
 4433TIP3   OH213241   7.600   0.148   1.710
 4433TIP3    H113242   7.689   0.142   1.744
 4433TIP3    H213243   7.599   0.228   1.659
 4434TIP3   OH213244   4.475   3.135   3.954
 4434TIP3    H113245   4.424   3.056   3.974
 4434TIP3    H213246   4.566   3.107   3.961
 4435TIP3   OH213247   2.604   2.128   1.268
 4435TIP3    H113248   2.681   2.185   1.267
 4435TIP3    H213249   2.554   2.155   1.191
 4436TIP3   OH213250   3.895   3.531   0.539
 4436TIP3    H113251   3.816   3.501   0.494
 4436TIP3    H213252   3.864   3.598   0.600
 4437TIP3   OH213253   3.866   5.012   1.398
 4437TIP3    H113254   3.793   4.998   1.339
 4437TIP3    H213255   3.834   4.982   1.483
 4438TIP3   OH213256   2.860   2.895   1.711
 4438TIP3    H113257   2.843   2.955   1.784
 4438TIP3    H213258   2.888   2.951   1.639
 4439TIP3   OH213259   5.008   1.959   5.319
 4439TIP3    H113260   4.956   2.034   5.290
 4439TIP3    H213261   5.087   1.962   5.265
 4440TIP3   OH213262   2.427   5.991   6.564
 4440TIP3    H113263   2.411   6.080   6.533
 4440TIP3    H213264   2.401   5.992   6.656
 4441TIP3   OH213265   3.676   5.418   0.288
 4441TIP3    H113266   3.741   5.468   0.239
 4441TIP3    H213267   3.626   5.484   0.336
 4442TIP3   OH213268   4.257   5.840   2.141
 4442TIP3    H113269   4.344   5.857   2.177
 4442TIP3    H213270   4.267   5.761   2.089
 4443TIP3   OH213271   1.825   5.504   5.076
 4443TIP3    H113272   1.748   5.556   5.054
 4443TIP3    H213273   1.841   5.522   5.169
 4444TIP3   OH213274   0.910   0.874   5.011
 4444TIP3    H113275   0.929   0.884   4.917
 4444TIP3    H213276   0.994   0.890   5.054
 4445TIP3   OH213277   1.408   4.542   2.672
 4445TIP3    H113278   1.348   4.512   2.740
 4445TIP3    H213279   1.388   4.635   2.660
 4446TIP3   OH213280   3.955   2.274   3.754
 4446TIP3    H113281   4.042   2.312   3.742
 4446TIP3    H213282   3.905   2.303   3.677
 4447TIP3   OH213283   4.456   4.787   0.251
 4447TIP3    H113284   4.399   4.844   0.302
 4447TIP3    H213285   4.411   4.776   0.167
 4448TIP3   OH213286   6.558   7.479   0.294
 4448TIP3    H113287   6.615   7.436   0.358
 4448TIP3    H213288   6.593   7.567   0.285
 4449TIP3   OH213289   2.211   4.525   0.326
 4449TIP3    H113290   2.131   4.568   0.297
 4449TIP3    H213291   2.211   4.441   0.279
 4450TIP3   OH213292   6.981   1.896   5.787
 4450TIP3    H113293   6.988   1.810   5.829
 4450TIP3    H213294   6.991   1.879   5.694
 4451TIP3   OH213295   2.275   6.809   1.606
 4451TIP3    H113296   2.365   6.837   1.591
 4451TIP3    H213297   2.267   6.725   1.561
 4452TIP3   OH213298   4.107   6.626   4.750
 4452TIP3    H113299   4.038   6.588   4.804
 4452TIP3    H213300   4.155   6.684   4.809
 4453TIP3   OH213301   1.282   2.121   4.145
 4453TIP3    H113302   1.231   2.103   4.066
 4453TIP3    H213303   1.356   2.173   4.113
 4454TIP3   OH213304   1.535   7.028   0.633
 4454TIP3    H113305   1.601   7.037   0.701
 4454TIP3    H213306   1.482   6.953   0.661
 4455TIP3   OH213307   1.729   1.667   0.218
 4455TIP3    H113308   1.677   1.733   0.171
 4455TIP3    H213309   1.775   1.620   0.149
 4456TIP3   OH213310   7.535   1.391   5.156
 4456TIP3    H113311   7.522   1.457   5.088
 4456TIP3    H213312   7.630   1.385   5.166
 4457TIP3   OH213313   3.333   6.218   5.911
 4457TIP3    H113314   3.357   6.261   5.992
 4457TIP3    H213315   3.239   6.236   5.901
 4458TIP3   OH213316   7.876   5.557   4.110
 4458TIP3    H113317   7.852   5.465   4.121
 4458TIP3    H213318   7.859   5.576   4.018
 4459TIP3   OH213319   8.243   1.847   4.807
 4459TIP3    H113320   8.182   1.783   4.844
 4459TIP3    H213321   8.204   1.932   4.825
 4460TIP3   OH213322   0.322   7.522   1.045
 4460TIP3    H113323   0.271   7.599   1.070
 4460TIP3    H213324   0.397   7.558   0.996
 4461TIP3   OH213325   5.580   2.818   3.586
 4461TIP3    H113326   5.661   2.791   3.542
 4461TIP3    H213327   5.553   2.897   3.539
 4462TIP3   OH213328   6.598   2.710   0.527
 4462TIP3    H113329   6.560   2.655   0.596
 4462TIP3    H213330   6.690   2.685   0.523
 4463TIP3   OH213331   5.780   2.915   5.685
 4463TIP3    H113332   5.707   2.888   5.630
 4463TIP3    H213333   5.749   2.994   5.729
 4464TIP3   OH213334   1.063   2.281   0.757
 4464TIP3    H113335   1.002   2.340   0.803
 4464TIP3    H213336   1.124   2.252   0.825
 4465TIP3   OH213337   3.525   5.477   1.021
 4465TIP3    H113338   3.616   5.476   1.049
 4465TIP3    H213339   3.528   5.453   0.929
 4466TIP3   OH213340   7.524   0.137   3.536
 4466TIP3    H113341   7.512   0.108   3.446
 4466TIP3    H213342   7.518   0.233   3.532
 4467TIP3   OH213343   1.856   1.464   6.166
 4467TIP3    H113344   1.782   1.524   6.171
 4467TIP3    H213345   1.933   1.520   6.172
 4468TIP3   OH213346   6.632   0.550   5.792
 4468TIP3    H113347   6.669   0.461   5.793
 4468TIP3    H213348   6.617   0.568   5.699
 4469TIP3   OH213349   3.173   3.050   3.648
 4469TIP3    H113350   3.196   3.046   3.740
 4469TIP3    H213351   3.235   3.113   3.610
 4470TIP3   OH213352   8.191   1.242   1.534
 4470TIP3    H113353   8.208   1.174   1.470
 4470TIP3    H213354   8.202   1.199   1.619
 4471TIP3   OH213355   2.205   5.327   0.337
 4471TIP3    H113356   2.237   5.410   0.302
 4471TIP3    H213357   2.278   5.267   0.325
 4472TIP3   OH213358   6.523   6.668   6.484
 4472TIP3    H113359   6.574   6.619   6.549
 4472TIP3    H213360   6.456   6.606   6.454
 4473TIP3   OH213361   2.040   6.908   1.265
 4473TIP3    H113362   2.023   6.826   1.312
 4473TIP3    H213363   1.953   6.938   1.239
 4474TIP3   OH213364   6.549   4.745   0.912
 4474TIP3    H113365   6.510   4.819   0.959
 4474TIP3    H213366   6.486   4.723   0.844
 4475TIP3   OH213367   2.491   2.751   4.932
 4475TIP3    H113368   2.580   2.717   4.937
 4475TIP3    H213369   2.502   2.842   4.905
 4476TIP3   OH213370   8.222   5.721   4.930
 4476TIP3    H113371   8.289   5.691   4.869
 4476TIP3    H213372   8.245   5.812   4.950
 4477TIP3   OH213373   1.211   6.372   4.162
 4477TIP3    H113374   1.133   6.425   4.144
 4477TIP3    H213375   1.272   6.396   4.092
 4478TIP3   OH213376   7.742   7.070   0.975
 4478TIP3    H113377   7.660   7.027   1.000
 4478TIP3    H213378   7.781   7.011   0.911
 4479TIP3   OH213379   4.366   6.027   0.404
 4479TIP3    H113380   4.271   6.038   0.405
 4479TIP3    H213381   4.386   5.986   0.489
 4480TIP3   OH213382   3.039   1.752   2.226
 4480TIP3    H113383   2.961   1.749   2.282
 4480TIP3    H213384   3.109   1.714   2.280
 4481TIP3   OH213385   8.153   2.316   2.518
 4481TIP3    H113386   8.110   2.396   2.549
 4481TIP3    H213387   8.084   2.267   2.474
 4482TIP3   OH213388   0.776   5.325   2.442
 4482TIP3    H113389   0.824   5.255   2.399
 4482TIP3    H213390   0.764   5.295   2.532
 4483TIP3   OH213391   6.054   3.263   2.125
 4483TIP3    H113392   6.055   3.201   2.052
 4483TIP3    H213393   6.108   3.221   2.192
 4484TIP3   OH213394   3.387   3.184   2.282
 4484TIP3    H113395   3.303   3.230   2.283
 4484TIP3    H213396   3.426   3.202   2.368
 4485TIP3   OH213397   1.423   1.999   0.786
 4485TIP3    H113398   1.488   2.063   0.814
 4485TIP3    H213399   1.341   2.049   0.778
 4486TIP3   OH213400   2.490   7.668   4.867
 4486TIP3    H113401   2.431   7.671   4.942
 4486TIP3    H213402   2.576   7.652   4.906
 4487TIP3   OH213403   4.406   3.130   3.309
 4487TIP3    H113404   4.426   3.050   3.261
 4487TIP3    H213405   4.480   3.188   3.293
 4488TIP3   OH213406   3.807   4.452   2.425
 4488TIP3    H113407   3.815   4.361   2.398
 4488TIP3    H213408   3.895   4.488   2.413
 4489TIP3   OH213409   2.576   6.738   5.245
 4489TIP3    H113410   2.576   6.820   5.294
 4489TIP3    H213411   2.652   6.690   5.279
 4490TIP3   OH213412   7.727   4.127   3.410
 4490TIP3    H113413   7.644   4.082   3.397
 4490TIP3    H213414   7.794   4.063   3.385
 4491TIP3   OH213415   4.079   2.084   6.470
 4491TIP3    H113416   4.164   2.120   6.496
 4491TIP3    H213417   4.097   2.035   6.390
 4492TIP3   OH213418   6.964   6.402   5.327
 4492TIP3    H113419   6.902   6.352   5.273
 4492TIP3    H213420   6.952   6.493   5.299
 4493TIP3   OH213421   2.759   4.345   6.743
 4493TIP3    H113422   2.801   4.345   6.829
 4493TIP3    H213423   2.665   4.334   6.761
 4494TIP3   OH213424   1.751   7.284   2.862
 4494TIP3    H113425   1.691   7.320   2.927
 4494TIP3    H213426   1.836   7.284   2.905
 4495TIP3   OH213427   1.952   7.499   2.518
 4495TIP3    H113428   1.870   7.543   2.493
 4495TIP3    H213429   1.924   7.416   2.556
 4496TIP3   OH213430   2.166   1.549   4.614
 4496TIP3    H113431   2.193   1.471   4.566
 4496TIP3    H213432   2.240   1.568   4.671
 4497TIP3   OH213433   5.182   7.588   0.713
 4497TIP3    H113434   5.195   7.682   0.717
 4497TIP3    H213435   5.257   7.551   0.758
 4498TIP3   OH213436   1.742   7.541   1.740
 4498TIP3    H113437   1.810   7.487   1.700
 4498TIP3    H213438   1.766   7.546   1.832
 4499TIP3   OH213439   5.528   6.707   3.075
 4499TIP3    H113440   5.561   6.677   2.990
 4499TIP3    H213441   5.451   6.760   3.053
 4500TIP3   OH213442   6.011   6.344   5.916
 4500TIP3    H113443   6.085   6.297   5.877
 4500TIP3    H213444   5.946   6.276   5.933
 4501TIP3   OH213445   5.277   2.418   2.275
 4501TIP3    H113446   5.309   2.336   2.238
 4501TIP3    H213447   5.235   2.463   2.201
 4502TIP3   OH213448   6.102   2.535   6.563
 4502TIP3    H113449   6.035   2.483   6.518
 4502TIP3    H213450   6.106   2.498   6.651
 4503TIP3   OH213451   0.200   7.038   2.756
 4503TIP3    H113452   0.136   7.092   2.803
 4503TIP3    H213453   0.281   7.089   2.759
 4504TIP3   OH213454   2.012   5.469   5.931
 4504TIP3    H113455   2.007   5.467   6.027
 4504TIP3    H213456   2.067   5.544   5.911
 4505TIP3   OH213457   2.299   1.966   4.673
 4505TIP3    H113458   2.278   1.972   4.766
 4505TIP3    H213459   2.216   1.944   4.631
 4506TIP3   OH213460   1.665   0.814   4.486
 4506TIP3    H113461   1.660   0.844   4.395
 4506TIP3    H213462   1.756   0.788   4.498
 4507TIP3   OH213463   3.517   6.612   4.041
 4507TIP3    H113464   3.559   6.617   4.127
 4507TIP3    H213465   3.515   6.703   4.010
 4508TIP3   OH213466   5.333   7.163   1.751
 4508TIP3    H113467   5.251   7.118   1.728
 4508TIP3    H213468   5.334   7.240   1.694
 4509TIP3   OH213469   5.302   6.887   3.059
 4509TIP3    H113470   5.247   6.808   3.068
 4509TIP3    H213471   5.248   6.948   3.009
 4510TIP3   OH213472   7.702   1.395   1.844
 4510TIP3    H113473   7.676   1.321   1.900
 4510TIP3    H213474   7.777   1.362   1.795
 4511TIP3   OH213475   7.394   5.043   0.840
 4511TIP3    H113476   7.318   5.082   0.881
 4511TIP3    H213477   7.467   5.066   0.898
 4512TIP3   OH213478   0.370   6.968   1.680
 4512TIP3    H113479   0.378   6.901   1.612
 4512TIP3    H213480   0.308   7.031   1.644
 4513TIP3   OH213481   4.296   7.566   0.469
 4513TIP3    H113482   4.312   7.584   0.377
 4513TIP3    H213483   4.308   7.650   0.513
 4514TIP3   OH213484   8.159   0.810   0.623
 4514TIP3    H113485   8.255   0.813   0.622
 4514TIP3    H213486   8.136   0.779   0.536
 4515TIP3   OH213487   2.060   1.528   1.155
 4515TIP3    H113488   2.139   1.477   1.178
 4515TIP3    H213489   1.991   1.462   1.148
 4516TIP3   OH213490   5.665   6.543   0.863
 4516TIP3    H113491   5.602   6.608   0.896
 4516TIP3    H213492   5.717   6.521   0.940
 4517TIP3   OH213493   2.024   1.948   3.559
 4517TIP3    H113494   2.067   2.024   3.519
 4517TIP3    H213495   2.087   1.877   3.550
 4518TIP3   OH213496   1.257   2.121   5.001
 4518TIP3    H113497   1.264   2.111   5.096
 4518TIP3    H213498   1.271   2.214   4.985
 4519TIP3   OH213499   5.375   7.754   5.834
 4519TIP3    H113500   5.396   7.707   5.915
 4519TIP3    H213501   5.319   7.694   5.785
 4520TIP3   OH213502   5.080   3.379   6.261
 4520TIP3    H113503   5.033   3.357   6.341
 4520TIP3    H213504   5.161   3.328   6.265
 4521TIP3   OH213505   6.839   0.016   0.019
 4521TIP3    H113506   6.834  -0.059  -0.041
 4521TIP3    H213507   6.819   0.092  -0.036
 4522TIP3   OH213508   4.146   2.077   5.448
 4522TIP3    H113509   4.088   2.087   5.372
 4522TIP3    H213510   4.108   2.005   5.498
 4523TIP3   OH213511   5.809   0.753   1.109
 4523TIP3    H113512   5.861   0.723   1.035
 4523TIP3    H213513   5.721   0.764   1.074
 4524TIP3   OH213514   3.284   1.553   3.432
 4524TIP3    H113515   3.299   1.638   3.475
 4524TIP3    H213516   3.339   1.556   3.354
 4525TIP3   OH213517   6.787   6.542   6.167
 4525TIP3    H113518   6.844   6.505   6.099
 4525TIP3    H213519   6.767   6.468   6.225
 4526TIP3   OH213520   1.251   5.505   0.591
 4526TIP3    H113521   1.288   5.437   0.536
 4526TIP3    H213522   1.314   5.577   0.587
 4527TIP3   OH213523   5.177   5.022   0.874
 4527TIP3    H113524   5.212   5.082   0.940
 4527TIP3    H213525   5.187   4.935   0.914
 4528TIP3   OH213526   4.040   7.322   2.565
 4528TIP3    H113527   4.128   7.356   2.551
 4528TIP3    H213528   3.989   7.397   2.593
 4529TIP3   OH213529   3.694   3.566   5.564
 4529TIP3    H113530   3.722   3.567   5.656
 4529TIP3    H213531   3.615   3.620   5.563
 4530TIP3   OH213532   3.937   2.801   5.455
 4530TIP3    H113533   3.942   2.737   5.384
 4530TIP3    H213534   3.865   2.770   5.510
 4531TIP3   OH213535   1.967   3.893   2.872
 4531TIP3    H113536   1.949   3.801   2.857
 4531TIP3    H213537   1.958   3.904   2.967
 4532TIP3   OH213538   1.637   1.710   5.728
 4532TIP3    H113539   1.697   1.660   5.783
 4532TIP3    H213540   1.551   1.697   5.768
 4533TIP3   OH213541   6.049   6.027   6.343
 4533TIP3    H113542   6.015   6.116   6.329
 4533TIP3    H213543   6.142   6.039   6.359
 4534TIP3   OH213544   1.627   0.049   2.127
 4534TIP3    H113545   1.552   0.046   2.068
 4534TIP3    H213546   1.679  -0.027   2.103
 4535TIP3   OH213547   0.507   0.770   5.461
 4535TIP3    H113548   0.520   0.799   5.371
 4535TIP3    H213549   0.586   0.798   5.507
 4536TIP3   OH213550   2.563   1.904   0.278
 4536TIP3    H113551   2.469   1.915   0.259
 4536TIP3    H213552   2.569   1.819   0.321
 4537TIP3   OH213553   7.712   0.761   0.522
 4537TIP3    H113554   7.653   0.711   0.465
 4537TIP3    H213555   7.745   0.696   0.585
 4538TIP3   OH213556   5.923   2.767   0.622
 4538TIP3    H113557   6.012   2.771   0.657
 4538TIP3    H213558   5.930   2.802   0.533
 4539TIP3   OH213559   2.729   2.029   4.902
 4539TIP3    H113560   2.820   2.058   4.896
 4539TIP3    H213561   2.682   2.084   4.840
 4540TIP3   OH213562   7.200   1.017   0.205
 4540TIP3    H113563   7.261   0.982   0.140
 4540TIP3    H213564   7.137   0.946   0.220
 4541TIP3   OH213565   4.724   3.924   1.079
 4541TIP3    H113566   4.791   3.991   1.092
 4541TIP3    H213567   4.651   3.952   1.134
 4542TIP3   OH213568   6.328   7.736   0.707
 4542TIP3    H113569   6.323   7.797   0.781
 4542TIP3    H213570   6.410   7.758   0.663
 4543TIP3   OH213571   3.166   5.314   4.061
 4543TIP3    H113572   3.243   5.269   4.025
 4543TIP3    H213573   3.150   5.270   4.144
 4544TIP3   OH213574   7.514   1.579   3.541
 4544TIP3    H113575   7.504   1.568   3.447
 4544TIP3    H213576   7.500   1.673   3.556
 4545TIP3   OH213577   0.170   3.697   5.815
 4545TIP3    H113578   0.195   3.754   5.742
 4545TIP3    H213579   0.127   3.755   5.877
 4546TIP3   OH213580   3.406   0.684   5.472
 4546TIP3    H113581   3.457   0.757   5.439
 4546TIP3    H213582   3.432   0.610   5.418
 4547TIP3   OH213583   1.252   6.401   3.096
 4547TIP3    H113584   1.334   6.448   3.102
 4547TIP3    H213585   1.194   6.459   3.045
 4548TIP3   OH213586   3.638   7.675   5.202
 4548TIP3    H113587   3.635   7.730   5.124
 4548TIP3    H213588   3.662   7.588   5.169
 4549TIP3   OH213589   1.730   1.478   1.096
 4549TIP3    H113590   1.685   1.551   1.140
 4549TIP3    H213591   1.757   1.420   1.167
 4550TIP3   OH213592   7.381   3.117   5.409
 4550TIP3    H113593   7.325   3.120   5.486
 4550TIP3    H213594   7.324   3.148   5.338
 4551TIP3   OH213595   2.706   6.186   1.233
 4551TIP3    H113596   2.625   6.187   1.181
 4551TIP3    H213597   2.685   6.239   1.310
 4552TIP3   OH213598   4.225   3.457   4.750
 4552TIP3    H113599   4.159   3.483   4.815
 4552TIP3    H213600   4.264   3.378   4.785
 4553TIP3   OH213601   4.274   1.337   5.070
 4553TIP3    H113602   4.334   1.398   5.113
 4553TIP3    H213603   4.294   1.252   5.109
 4554TIP3   OH213604   0.126   7.072   4.582
 4554TIP3    H113605   0.177   7.021   4.645
 4554TIP3    H213606   0.191   7.118   4.530
 4555TIP3   OH213607   5.944   4.701   1.271
 4555TIP3    H113608   5.938   4.719   1.177
 4555TIP3    H213609   5.931   4.606   1.278
 4556TIP3   OH213610   8.276   6.990   1.492
 4556TIP3    H113611   8.198   6.987   1.436
 4556TIP3    H213612   8.304   6.898   1.499
 4557TIP3   OH213613   0.963   6.991   3.084
 4557TIP3    H113614   1.020   7.054   3.041
 4557TIP3    H213615   0.880   7.037   3.096
 4558TIP3   OH213616   7.286   1.747   4.392
 4558TIP3    H113617   7.245   1.788   4.468
 4558TIP3    H213618   7.264   1.654   4.401
 4559TIP3   OH213619   2.989   7.283   1.677
 4559TIP3    H113620   3.078   7.296   1.644
 4559TIP3    H213621   2.938   7.356   1.642
 4560TIP3   OH213622   1.618   1.961   6.554
 4560TIP3    H113623   1.670   2.015   6.495
 4560TIP3    H213624   1.682   1.923   6.615
 4561TIP3   OH213625   1.024   1.172   5.728
 4561TIP3    H113626   1.055   1.197   5.815
 4561TIP3    H213627   0.947   1.227   5.713
 4562TIP3   OH213628   3.275   6.933   1.800
 4562TIP3    H113629   3.214   6.880   1.747
 4562TIP3    H213630   3.223   7.009   1.827
 4563TIP3   OH213631   6.372   7.266   1.005
 4563TIP3    H113632   6.437   7.207   0.967
 4563TIP3    H213633   6.299   7.263   0.943
 4564TIP3   OH213634   3.675   0.464   0.731
 4564TIP3    H113635   3.691   0.371   0.719
 4564TIP3    H213636   3.646   0.472   0.822
 4565TIP3   OH213637   6.042   5.145   3.298
 4565TIP3    H113638   6.106   5.078   3.274
 4565TIP3    H213639   5.961   5.119   3.254
 4566TIP3   OH213640   5.207   5.113   0.152
 4566TIP3    H113641   5.241   5.046   0.093
 4566TIP3    H213642   5.271   5.117   0.223
 4567TIP3   OH213643   3.825   6.880   3.880
 4567TIP3    H113644   3.864   6.833   3.806
 4567TIP3    H213645   3.834   6.820   3.954
 4568TIP3   OH213646   3.824   0.452   1.784
 4568TIP3    H113647   3.736   0.419   1.763
 4568TIP3    H213648   3.881   0.408   1.721
 4569TIP3   OH213649   4.912   2.865   1.287
 4569TIP3    H113650   4.864   2.782   1.281
 4569TIP3    H213651   4.892   2.910   1.205
 4570TIP3   OH213652   4.663   3.782   2.660
 4570TIP3    H113653   4.594   3.800   2.724
 4570TIP3    H213654   4.648   3.845   2.590
 4571TIP3   OH213655   5.595   0.870   3.268
 4571TIP3    H113656   5.687   0.896   3.272
 4571TIP3    H213657   5.573   0.846   3.358
 4572TIP3   OH213658   5.197   3.894   6.334
 4572TIP3    H113659   5.104   3.899   6.311
 4572TIP3    H213660   5.198   3.886   6.429
 4573TIP3   OH213661   0.954   6.748   3.236
 4573TIP3    H113662   0.937   6.752   3.331
 4573TIP3    H213663   0.989   6.834   3.215
 4574TIP3   OH213664   4.341   1.186   6.570
 4574TIP3    H113665   4.419   1.137   6.547
 4574TIP3    H213666   4.288   1.125   6.621
 4575TIP3   OH213667   3.100   7.191   1.936
 4575TIP3    H113668   3.015   7.219   1.970
 4575TIP3    H213669   3.094   7.207   1.842
 4576TIP3   OH213670   6.435   3.533   0.731
 4576TIP3    H113671   6.429   3.606   0.792
 4576TIP3    H213672   6.526   3.537   0.699
 4577TIP3   OH213673   5.640   2.764   4.006
 4577TIP3    H113674   5.688   2.684   3.983
 4577TIP3    H213675   5.689   2.834   3.964
 4578TIP3   OH213676   4.299   2.780   0.588
 4578TIP3    H113677   4.232   2.738   0.534
 4578TIP3    H213678   4.282   2.874   0.578
 4579TIP3   OH213679   7.019   1.966   3.638
 4579TIP3    H113680   6.969   2.031   3.589
 4579TIP3    H213681   6.963   1.943   3.712
 4580TIP3   OH213682   3.474   6.489   3.299
 4580TIP3    H113683   3.558   6.521   3.330
 4580TIP3    H213684   3.413   6.562   3.314
 4581TIP3   OH213685   4.295   0.334   0.034
 4581TIP3    H113686   4.272   0.355  -0.057
 4581TIP3    H213687   4.220   0.362   0.085
 4582TIP3   OH213688   5.522   3.524   6.512
 4582TIP3    H113689   5.450   3.464   6.491
 4582TIP3    H213690   5.515   3.593   6.446
 4583TIP3   OH213691   3.153   1.935   6.321
 4583TIP3    H113692   3.115   1.958   6.236
 4583TIP3    H213693   3.245   1.920   6.303
 4584TIP3   OH213694   2.893   2.533   1.468
 4584TIP3    H113695   2.909   2.536   1.562
 4584TIP3    H213696   2.957   2.469   1.436
 4585TIP3   OH213697   7.320   0.455   0.262
 4585TIP3    H113698   7.362   0.540   0.251
 4585TIP3    H213699   7.350   0.424   0.347
 4586TIP3   OH213700   2.366   2.593   2.343
 4586TIP3    H113701   2.383   2.504   2.374
 4586TIP3    H213702   2.358   2.584   2.248
 4587TIP3   OH213703   3.878   6.096   2.914
 4587TIP3    H113704   3.820   6.169   2.933
 4587TIP3    H213705   3.957   6.136   2.878
 4588TIP3   OH213706   6.646   1.758   1.744
 4588TIP3    H113707   6.635   1.668   1.711
 4588TIP3    H213708   6.740   1.774   1.739
 4589TIP3   OH213709   2.847   2.103   4.464
 4589TIP3    H113710   2.794   2.098   4.385
 4589TIP3    H213711   2.850   2.013   4.497
 4590TIP3   OH213712   7.482   6.540   5.693
 4590TIP3    H113713   7.531   6.458   5.698
 4590TIP3    H213714   7.550   6.608   5.687
 4591TIP3   OH213715   3.200   3.735   1.424
 4591TIP3    H113716   3.213   3.701   1.513
 4591TIP3    H213717   3.264   3.689   1.371
 4592TIP3   OH213718   2.283   1.032   5.261
 4592TIP3    H113719   2.293   1.117   5.303
 4592TIP3    H213720   2.352   0.978   5.300
 4593TIP3   OH213721   3.180   2.589   1.739
 4593TIP3    H113722   3.085   2.596   1.740
 4593TIP3    H213723   3.210   2.679   1.727
 4594TIP3   OH213724   2.184   5.865   3.509
 4594TIP3    H113725   2.109   5.907   3.552
 4594TIP3    H213726   2.173   5.887   3.416
 4595TIP3   OH213727   8.113   4.492   4.955
 4595TIP3    H113728   8.034   4.519   4.909
 4595TIP3    H213729   8.090   4.497   5.048
 4596TIP3   OH213730   4.687   4.296   6.219
 4596TIP3    H113731   4.718   4.332   6.302
 4596TIP3    H213732   4.595   4.273   6.236
 4597TIP3   OH213733   1.055   4.872   1.731
 4597TIP3    H113734   1.092   4.913   1.654
 4597TIP3    H213735   0.973   4.920   1.746
 4598TIP3   OH213736   0.999   3.266   4.802
 4598TIP3    H113737   0.957   3.274   4.888
 4598TIP3    H213738   0.946   3.202   4.755
 4599TIP3   OH213739   1.039   1.915   2.823
 4599TIP3    H113740   0.990   1.923   2.742
 4599TIP3    H213741   1.113   1.975   2.813
 4600TIP3   OH213742   5.647   6.386   0.274
 4600TIP3    H113743   5.679   6.326   0.342
 4600TIP3    H213744   5.616   6.328   0.204
 4601TIP3   OH213745   7.865   2.929   2.416
 4601TIP3    H113746   7.880   3.012   2.371
 4601TIP3    H213747   7.867   2.951   2.509
 4602TIP3   OH213748   3.411   7.404   4.717
 4602TIP3    H113749   3.465   7.363   4.784
 4602TIP3    H213750   3.399   7.335   4.651
 4603TIP3   OH213751   6.035   1.647   4.053
 4603TIP3    H113752   6.066   1.696   3.977
 4603TIP3    H213753   6.032   1.556   4.023
 4604TIP3   OH213754   8.096   2.978   3.457
 4604TIP3    H113755   8.066   2.887   3.464
 4604TIP3    H213756   8.186   2.976   3.488
 4605TIP3   OH213757   2.932   6.195   5.051
 4605TIP3    H113758   2.925   6.239   4.966
 4605TIP3    H213759   2.983   6.254   5.105
 4606TIP3   OH213760   5.559   6.543   3.943
 4606TIP3    H113761   5.511   6.558   3.861
 4606TIP3    H213762   5.647   6.517   3.915
 4607TIP3   OH213763   6.707   4.849   4.170
 4607TIP3    H113764   6.636   4.830   4.109
 4607TIP3    H213765   6.706   4.944   4.180
 4608TIP3   OH213766   0.812   0.155   4.014
 4608TIP3    H113767   0.756   0.173   3.938
 4608TIP3    H213768   0.897   0.133   3.976
 4609TIP3   OH213769   3.745   0.127   0.107
 4609TIP3    H113770   3.832   0.129   0.067
 4609TIP3    H213771   3.754   0.182   0.186
 4610TIP3   OH213772   4.872   1.892   6.114
 4610TIP3    H113773   4.827   1.831   6.173
 4610TIP3    H213774   4.810   1.965   6.103
 4611TIP3   OH213775   1.125   4.046   3.055
 4611TIP3    H113776   1.158   4.132   3.080
 4611TIP3    H213777   1.052   4.030   3.114
 4612TIP3   OH213778   4.363   5.628   4.380
 4612TIP3    H113779   4.268   5.615   4.377
 4612TIP3    H213780   4.384   5.665   4.295
 4613TIP3   OH213781   8.212   6.608   5.056
 4613TIP3    H113782   8.295   6.654   5.063
 4613TIP3    H213783   8.224   6.546   4.984
 4614TIP3   OH213784   6.350   7.012   0.838
 4614TIP3    H113785   6.294   6.974   0.906
 4614TIP3    H213786   6.366   6.940   0.777
 4615TIP3   OH213787   1.187   3.803   3.630
 4615TIP3    H113788   1.165   3.896   3.633
 4615TIP3    H213789   1.191   3.782   3.536
 4616TIP3   OH213790   7.176   2.651   3.938
 4616TIP3    H113791   7.202   2.644   4.029
 4616TIP3    H213792   7.258   2.646   3.889
 4617TIP3   OH213793   2.308   2.737   3.317
 4617TIP3    H113794   2.339   2.647   3.328
 4617TIP3    H213795   2.324   2.756   3.225
 4618TIP3   OH213796   5.009   3.091   4.990
 4618TIP3    H113797   5.075   3.048   5.045
 4618TIP3    H213798   5.002   3.179   5.026
 4619TIP3   OH213799   6.370   4.642   5.107
 4619TIP3    H113800   6.275   4.628   5.099
 4619TIP3    H213801   6.378   4.726   5.151
 4620TIP3   OH213802   4.710   5.933   5.265
 4620TIP3    H113803   4.645   5.953   5.333
 4620TIP3    H213804   4.763   5.863   5.302
 4621TIP3   OH213805   8.197   2.184   5.459
 4621TIP3    H113806   8.232   2.107   5.504
 4621TIP3    H213807   8.273   2.242   5.448
 4622TIP3   OH213808   8.308   3.853   2.079
 4622TIP3    H113809   8.219   3.820   2.090
 4622TIP3    H213810   8.316   3.869   1.985
 4623TIP3   OH213811   1.382   4.431   2.292
 4623TIP3    H113812   1.355   4.491   2.222
 4623TIP3    H213813   1.421   4.487   2.358
 4624TIP3   OH213814   1.531   6.923   4.457
 4624TIP3    H113815   1.604   6.968   4.501
 4624TIP3    H213816   1.573   6.868   4.391
 4625TIP3   OH213817   6.446   3.500   0.371
 4625TIP3    H113818   6.419   3.572   0.314
 4625TIP3    H213819   6.484   3.543   0.447
 4626TIP3   OH213820   2.965   7.514   0.521
 4626TIP3    H113821   3.044   7.466   0.547
 4626TIP3    H213822   2.953   7.579   0.590
 4627TIP3   OH213823   3.654   0.171   1.984
 4627TIP3    H113824   3.728   0.142   1.930
 4627TIP3    H213825   3.683   0.254   2.023
 4628TIP3   OH213826   6.950   7.136   1.484
 4628TIP3    H113827   6.982   7.050   1.458
 4628TIP3    H213828   6.953   7.188   1.403
 4629TIP3   OH213829   1.536   3.727   6.205
 4629TIP3    H113830   1.523   3.796   6.270
 4629TIP3    H213831   1.476   3.658   6.232
 4630TIP3   OH213832   7.877   5.470   0.294
 4630TIP3    H113833   7.888   5.382   0.331
 4630TIP3    H213834   7.944   5.523   0.339
 4631TIP3   OH213835   0.838   3.713   6.099
 4631TIP3    H113836   0.866   3.804   6.108
 4631TIP3    H213837   0.887   3.666   6.166
 4632TIP3   OH213838   2.628   7.029   2.260
 4632TIP3    H113839   2.558   7.092   2.281
 4632TIP3    H213840   2.589   6.974   2.192
 4633TIP3   OH213841   4.058   1.672   4.327
 4633TIP3    H113842   4.095   1.662   4.240
 4633TIP3    H213843   4.046   1.767   4.337
 4634TIP3   OH213844   2.539   1.087   6.298
 4634TIP3    H113845   2.453   1.060   6.264
 4634TIP3    H213846   2.521   1.114   6.388
 4635TIP3   OH213847   4.489   4.748   3.237
 4635TIP3    H113848   4.469   4.813   3.170
 4635TIP3    H213849   4.443   4.669   3.208
 4636TIP3   OH213850   6.959   4.428   3.552
 4636TIP3    H113851   6.877   4.379   3.542
 4636TIP3    H213852   7.015   4.371   3.605
 4637TIP3   OH213853   7.301   1.927   0.892
 4637TIP3    H113854   7.373   1.984   0.864
 4637TIP3    H213855   7.261   1.897   0.811
 4638TIP3   OH213856   1.589   6.692   2.027
 4638TIP3    H113857   1.598   6.751   1.953
 4638TIP3    H213858   1.664   6.632   2.019
 4639TIP3   OH213859   3.870   6.117   4.492
 4639TIP3    H113860   3.792   6.076   4.529
 4639TIP3    H213861   3.899   6.179   4.559
 4640TIP3   OH213862   6.994   2.888   5.153
 4640TIP3    H113863   7.060   2.823   5.180
 4640TIP3    H213864   7.045   2.958   5.112
 4641TIP3   OH213865   0.333   2.953   4.551
 4641TIP3    H113866   0.410   2.939   4.496
 4641TIP3    H213867   0.319   2.869   4.595
 4642TIP3   OH213868   1.932   0.475   0.421
 4642TIP3    H113869   1.846   0.434   0.431
 4642TIP3    H213870   1.937   0.497   0.328
 4643TIP3   OH213871   0.160   2.272   5.025
 4643TIP3    H113872   0.251   2.278   5.055
 4643TIP3    H213873   0.146   2.179   5.007
 4644TIP3   OH213874   5.839   0.419   3.946
 4644TIP3    H113875   5.837   0.485   4.015
 4644TIP3    H213876   5.757   0.430   3.899
 4645TIP3   OH213877   7.306   1.163   0.968
 4645TIP3    H113878   7.277   1.212   1.045
 4645TIP3    H213879   7.226   1.141   0.921
 4646TIP3   OH213880   4.123   7.465   0.085
 4646TIP3    H113881   4.079   7.411   0.150
 4646TIP3    H213882   4.207   7.487   0.126
 4647TIP3   OH213883   4.631   1.926   1.287
 4647TIP3    H113884   4.645   1.835   1.259
 4647TIP3    H213885   4.700   1.942   1.352
 4648TIP3   OH213886   0.893   3.707   4.313
 4648TIP3    H113887   0.952   3.765   4.265
 4648TIP3    H213888   0.937   3.691   4.396
 4649TIP3   OH213889   6.851   4.128   2.828
 4649TIP3    H113890   6.843   4.047   2.877
 4649TIP3    H213891   6.789   4.119   2.755
 4650TIP3   OH213892   0.036   3.375   4.746
 4650TIP3    H113893   0.008   3.422   4.668
 4650TIP3    H213894   0.111   3.425   4.779
 4651TIP3   OH213895   4.305   0.085   0.141
 4651TIP3    H113896   4.290   0.179   0.127
 4651TIP3    H213897   4.228   0.056   0.191
 4652TIP3   OH213898   4.184   1.346   0.168
 4652TIP3    H113899   4.266   1.337   0.217
 4652TIP3    H213900   4.210   1.339   0.076
 4653TIP3   OH213901   8.190   7.330   1.599
 4653TIP3    H113902   8.217   7.337   1.690
 4653TIP3    H213903   8.101   7.294   1.603
 4654TIP3   OH213904   7.971   6.548   3.849
 4654TIP3    H113905   7.893   6.603   3.855
 4654TIP3    H213906   7.937   6.458   3.848
 4655TIP3   OH213907   6.026   3.800   6.428
 4655TIP3    H113908   6.108   3.789   6.476
 4655TIP3    H213909   6.039   3.881   6.378
 4656TIP3   OH213910   5.985   3.333   6.703
 4656TIP3    H113911   5.916   3.386   6.663
 4656TIP3    H213912   6.035   3.395   6.756
 4657TIP3   OH213913   7.185   3.656   4.178
 4657TIP3    H113914   7.213   3.728   4.122
 4657TIP3    H213915   7.144   3.698   4.254
 4658TIP3   OH213916   4.156   5.436   0.149
 4658TIP3    H113917   4.242   5.445   0.107
 4658TIP3    H213918   4.172   5.459   0.240
 4659TIP3   OH213919   1.897   2.500   6.178
 4659TIP3    H113920   1.934   2.465   6.260
 4659TIP3    H213921   1.935   2.588   6.171
 4660TIP3   OH213922   3.463   2.771   0.351
 4660TIP3    H113923   3.554   2.801   0.353
 4660TIP3    H213924   3.412   2.852   0.360
 4661TIP3   OH213925   7.880   2.764   5.163
 4661TIP3    H113926   7.824   2.834   5.199
 4661TIP3    H213927   7.968   2.801   5.166
 4662TIP3   OH213928   3.034   5.617   0.186
 4662TIP3    H113929   3.073   5.558   0.251
 4662TIP3    H213930   3.082   5.599   0.105
 4663TIP3   OH213931   6.730   5.283   2.497
 4663TIP3    H113932   6.763   5.212   2.442
 4663TIP3    H213933   6.730   5.360   2.439
 4664TIP3   OH213934   3.636   3.011   2.744
 4664TIP3    H113935   3.555   2.973   2.778
 4664TIP3    H213936   3.639   2.983   2.653
 4665TIP3   OH213937   3.623   5.551   0.523
 4665TIP3    H113938   3.544   5.596   0.553
 4665TIP3    H213939   3.695   5.599   0.563
 4666TIP3   OH213940   1.331   7.296   6.561
 4666TIP3    H113941   1.427   7.296   6.564
 4666TIP3    H213942   1.310   7.309   6.468
 4667TIP3   OH213943   6.550   7.672   2.603
 4667TIP3    H113944   6.612   7.604   2.630
 4667TIP3    H213945   6.598   7.754   2.617
 4668TIP3   OH213946   4.803   4.552   5.011
 4668TIP3    H113947   4.788   4.489   5.082
 4668TIP3    H213948   4.804   4.499   4.931
 4669TIP3   OH213949   1.437   7.142   2.640
 4669TIP3    H113950   1.427   7.198   2.564
 4669TIP3    H213951   1.430   7.201   2.715
 4670TIP3   OH213952   2.062   5.012   0.402
 4670TIP3    H113953   1.986   5.020   0.344
 4670TIP3    H213954   2.047   5.077   0.470
 4671TIP3   OH213955   3.026   3.666   6.763
 4671TIP3    H113956   2.975   3.593   6.799
 4671TIP3    H213957   3.114   3.631   6.755
 4672TIP3   OH213958   1.315   0.322   6.534
 4672TIP3    H113959   1.222   0.333   6.516
 4672TIP3    H213960   1.340   0.402   6.581
 4673TIP3   OH213961  -0.014   2.230   4.585
 4673TIP3    H113962   0.062   2.283   4.608
 4673TIP3    H213963   0.019   2.139   4.585
 4674TIP3   OH213964   6.249   1.753   2.856
 4674TIP3    H113965   6.174   1.807   2.831
 4674TIP3    H213966   6.230   1.667   2.822
 4675TIP3   OH213967   5.662   0.722   4.030
 4675TIP3    H113968   5.625   0.809   4.047
 4675TIP3    H213969   5.640   0.705   3.938
 4676TIP3   OH213970   5.680   6.994   2.080
 4676TIP3    H113971   5.743   6.923   2.086
 4676TIP3    H213972   5.595   6.950   2.075
 4677TIP3   OH213973   2.583   2.392   4.981
 4677TIP3    H113974   2.561   2.455   4.912
 4677TIP3    H213975   2.678   2.385   4.978
 4678TIP3   OH213976   7.596   2.213   0.306
 4678TIP3    H113977   7.676   2.266   0.307
 4678TIP3    H213978   7.626   2.125   0.331
 4679TIP3   OH213979   5.559   2.457   0.520
 4679TIP3    H113980   5.596   2.409   0.594
 4679TIP3    H213981   5.532   2.541   0.557
 4680TIP3   OH213982   6.388   3.786   4.856
 4680TIP3    H113983   6.351   3.835   4.929
 4680TIP3    H213984   6.360   3.696   4.872
 4681TIP3   OH213985   5.149   1.419   5.437
 4681TIP3    H113986   5.138   1.423   5.532
 4681TIP3    H213987   5.243   1.407   5.425
 4682TIP3   OH213988   8.286   0.864   6.036
 4682TIP3    H113989   8.278   0.906   6.121
 4682TIP3    H213990   8.350   0.794   6.049
 4683TIP3   OH213991   4.335   5.115   1.364
 4683TIP3    H113992   4.335   5.063   1.284
 4683TIP3    H213993   4.394   5.188   1.346
 4684TIP3   OH213994   6.532   6.456   2.386
 4684TIP3    H113995   6.569   6.530   2.433
 4684TIP3    H213996   6.441   6.481   2.371
 4685TIP3   OH213997   3.082   1.002   3.863
 4685TIP3    H113998   3.083   0.995   3.958
 4685TIP3    H213999   3.142   1.075   3.844
 4686TIP3   OH214000   3.705   6.785   1.898
 4686TIP3    H114001   3.625   6.775   1.949
 4686TIP3    H214002   3.752   6.702   1.909
 4687TIP3   OH214003   5.262   3.203   5.200
 4687TIP3    H114004   5.304   3.283   5.231
 4687TIP3    H214005   5.181   3.232   5.159
 4688TIP3   OH214006   2.388   4.100   0.676
 4688TIP3    H114007   2.312   4.060   0.719
 4688TIP3    H214008   2.355   4.132   0.592
 4689TIP3   OH214009   1.972   1.077   1.741
 4689TIP3    H114010   1.931   0.991   1.747
 4689TIP3    H214011   1.899   1.137   1.726
 4690TIP3   OH214012   6.392   1.343   0.345
 4690TIP3    H114013   6.389   1.281   0.418
 4690TIP3    H214014   6.486   1.352   0.326
 4691TIP3   OH214015   4.054   1.869   2.101
 4691TIP3    H114016   4.033   1.818   2.022
 4691TIP3    H214017   4.099   1.807   2.158
 4692TIP3   OH214018   5.327   0.271   0.967
 4692TIP3    H114019   5.335   0.353   0.918
 4692TIP3    H214020   5.356   0.204   0.906
 4693TIP3   OH214021   4.295   0.539   6.038
 4693TIP3    H114022   4.356   0.610   6.020
 4693TIP3    H214023   4.298   0.484   5.959
 4694TIP3   OH214024   1.150   7.621   6.017
 4694TIP3    H114025   1.188   7.685   6.076
 4694TIP3    H214026   1.218   7.605   5.952
 4695TIP3   OH214027   3.579   7.355   5.183
 4695TIP3    H114028   3.542   7.423   5.127
 4695TIP3    H214029   3.506   7.298   5.206
 4696TIP3   OH214030   6.414   5.555   1.764
 4696TIP3    H114031   6.458   5.597   1.838
 4696TIP3    H214032   6.411   5.623   1.697
 4697TIP3   OH214033   5.001   0.411   6.491
 4697TIP3    H114034   5.066   0.410   6.421
 4697TIP3    H214035   5.044   0.365   6.564
 4698TIP3   OH214036   5.376   5.731   4.204
 4698TIP3    H114037   5.460   5.685   4.201
 4698TIP3    H214038   5.365   5.766   4.116
 4699TIP3   OH214039   3.357   7.109   0.013
 4699TIP3    H114040   3.353   7.016   0.036
 4699TIP3    H214041   3.320   7.154   0.089
 4700TIP3   OH214042   0.495   4.905   2.310
 4700TIP3    H114043   0.585   4.883   2.286
 4700TIP3    H214044   0.441   4.854   2.249
 4701TIP3   OH214045   5.587   0.701   5.492
 4701TIP3    H114046   5.519   0.766   5.477
 4701TIP3    H214047   5.540   0.621   5.514
 4702TIP3   OH214048   6.514   7.000   3.151
 4702TIP3    H114049   6.573   7.069   3.181
 4702TIP3    H214050   6.427   7.028   3.180
 4703TIP3   OH214051   5.754   5.513   2.813
 4703TIP3    H114052   5.668   5.475   2.834
 4703TIP3    H214053   5.815   5.440   2.823
 4704TIP3   OH214054   4.897   5.498   2.239
 4704TIP3    H114055   4.901   5.559   2.166
 4704TIP3    H214056   4.968   5.436   2.223
 4705TIP3   OH214057   5.867   3.743   3.374
 4705TIP3    H114058   5.783   3.706   3.400
 4705TIP3    H214059   5.923   3.666   3.358
 4706TIP3   OH214060   3.530   7.475   4.369
 4706TIP3    H114061   3.580   7.398   4.396
 4706TIP3    H214062   3.559   7.493   4.280
 4707TIP3   OH214063   4.712   2.477   5.451
 4707TIP3    H114064   4.732   2.479   5.358
 4707TIP3    H214065   4.645   2.545   5.463
 4708TIP3   OH214066   0.650   6.007   5.735
 4708TIP3    H114067   0.655   5.979   5.827
 4708TIP3    H214068   0.588   6.080   5.736
 4709TIP3   OH214069   6.579   5.490   5.999
 4709TIP3    H114070   6.525   5.427   6.048
 4709TIP3    H214071   6.553   5.477   5.907
 4710TIP3   OH214072   4.372   6.553   4.060
 4710TIP3    H114073   4.441   6.618   4.069
 4710TIP3    H214074   4.292   6.600   4.084
 4711TIP3   OH214075   5.938   0.945   2.434
 4711TIP3    H114076   5.955   1.033   2.401
 4711TIP3    H214077   5.963   0.887   2.362
 4712TIP3   OH214078   4.859   7.173   3.516
 4712TIP3    H114079   4.842   7.079   3.529
 4712TIP3    H214080   4.953   7.182   3.524
 4713TIP3   OH214081   3.439   7.622   2.031
 4713TIP3    H114082   3.354   7.615   1.989
 4713TIP3    H214083   3.451   7.715   2.047
 4714TIP3   OH214084   4.530   7.512   3.232
 4714TIP3    H114085   4.556   7.423   3.208
 4714TIP3    H214086   4.607   7.549   3.276
 4715TIP3   OH214087   5.051   0.393   5.602
 4715TIP3    H114088   5.053   0.469   5.660
 4715TIP3    H214089   5.031   0.428   5.516
 4716TIP3   OH214090   4.476   1.481   5.159
 4716TIP3    H114091   4.475   1.573   5.187
 4716TIP3    H214092   4.530   1.437   5.224
 4717TIP3   OH214093   5.968   6.461   2.312
 4717TIP3    H114094   5.918   6.508   2.245
 4717TIP3    H214095   5.901   6.416   2.363
 4718TIP3   OH214096   8.204   1.888   2.909
 4718TIP3    H114097   8.248   1.973   2.905
 4718TIP3    H214098   8.192   1.863   2.818
 4719TIP3   OH214099   3.588   5.898   0.854
 4719TIP3    H114100   3.547   5.951   0.922
 4719TIP3    H214101   3.617   5.962   0.789
 4720TIP3   OH214102   0.703   0.712   2.726
 4720TIP3    H114103   0.757   0.714   2.805
 4720TIP3    H214104   0.708   0.801   2.692
 4721TIP3   OH214105   6.940   2.707   5.602
 4721TIP3    H114106   6.899   2.779   5.649
 4721TIP3    H214107   6.877   2.636   5.607
 4722TIP3   OH214108   4.807   5.750   5.437
 4722TIP3    H114109   4.843   5.744   5.526
 4722TIP3    H214110   4.852   5.682   5.388
 4723TIP3   OH214111   5.386   6.244   5.031
 4723TIP3    H114112   5.428   6.318   4.987
 4723TIP3    H214113   5.292   6.260   5.021
 4724TIP3   OH214114   5.253   6.356   5.420
 4724TIP3    H114115   5.196   6.387   5.349
 4724TIP3    H214116   5.296   6.279   5.384
 4725TIP3   OH214117   1.544   4.972   3.328
 4725TIP3    H114118   1.561   4.891   3.280
 4725TIP3    H214119   1.600   5.037   3.285
 4726TIP3   OH214120   1.761   2.790   6.543
 4726TIP3    H114121   1.787   2.881   6.528
 4726TIP3    H214122   1.666   2.789   6.530
 4727TIP3   OH214123   1.933   2.414   3.354
 4727TIP3    H114124   1.956   2.501   3.321
 4727TIP3    H214125   1.851   2.427   3.401
 4728TIP3   OH214126   2.789   5.493   1.246
 4728TIP3    H114127   2.776   5.583   1.276
 4728TIP3    H214128   2.879   5.492   1.214
 4729TIP3   OH214129   0.674   1.738   6.017
 4729TIP3    H114130   0.717   1.732   5.931
 4729TIP3    H214131   0.589   1.697   6.004
 4730TIP3   OH214132   3.240   5.952   1.606
 4730TIP3    H114133   3.208   5.875   1.560
 4730TIP3    H214134   3.161   5.997   1.636
 4731TIP3   OH214135   6.493   1.184   2.503
 4731TIP3    H114136   6.572   1.144   2.466
 4731TIP3    H214137   6.514   1.198   2.595
 4732TIP3   OH214138   7.837   7.551   5.724
 4732TIP3    H114139   7.866   7.539   5.815
 4732TIP3    H214140   7.816   7.644   5.718
 4733TIP3   OH214141   6.902   1.435   0.197
 4733TIP3    H114142   6.922   1.412   0.106
 4733TIP3    H214143   6.986   1.462   0.234
 4734TIP3   OH214144   3.753   2.079   0.119
 4734TIP3    H114145   3.820   2.098   0.185
 4734TIP3    H214146   3.686   2.030   0.166
 4735TIP3   OH214147   0.657   5.527  -0.010
 4735TIP3    H114148   0.674   5.528   0.084
 4735TIP3    H214149   0.718   5.591  -0.045
 4736TIP3   OH214150   7.971   7.488   4.063
 4736TIP3    H114151   7.907   7.552   4.034
 4736TIP3    H214152   7.976   7.424   3.992
 4737TIP3   OH214153   7.490   0.992   0.182
 4737TIP3    H114154   7.479   1.084   0.162
 4737TIP3    H214155   7.583   0.974   0.165
 4738TIP3   OH214156   0.431   2.191   1.317
 4738TIP3    H114157   0.490   2.133   1.365
 4738TIP3    H214158   0.368   2.222   1.382
 4739TIP3   OH214159   2.742   4.124   3.968
 4739TIP3    H114160   2.763   4.144   4.059
 4739TIP3    H214161   2.651   4.149   3.958
 4740TIP3   OH214162   7.087   5.384   6.288
 4740TIP3    H114163   7.064   5.291   6.288
 4740TIP3    H214164   7.182   5.385   6.278
 4741TIP3   OH214165   6.257   6.936   3.846
 4741TIP3    H114166   6.224   6.873   3.781
 4741TIP3    H214167   6.351   6.941   3.828
 4742TIP3   OH214168   4.895   5.766   5.761
 4742TIP3    H114169   4.884   5.671   5.771
 4742TIP3    H214170   4.979   5.784   5.802
 4743TIP3   OH214171   6.914   5.394   0.335
 4743TIP3    H114172   6.839   5.432   0.288
 4743TIP3    H214173   6.884   5.389   0.426
 4744TIP3   OH214174   3.194   5.332   0.057
 4744TIP3    H114175   3.212   5.396  -0.012
 4744TIP3    H214176   3.099   5.321   0.056
 4745TIP3   OH214177   4.602   7.105   5.173
 4745TIP3    H114178   4.549   7.169   5.221
 4745TIP3    H214179   4.623   7.149   5.091
 4746TIP3   OH214180   2.287   0.108   0.102
 4746TIP3    H114181   2.377   0.126   0.130
 4746TIP3    H214182   2.283   0.013   0.092
 4747TIP3   OH214183   3.426   3.057   0.901
 4747TIP3    H114184   3.521   3.064   0.911
 4747TIP3    H214185   3.410   2.963   0.894
 4748TIP3   OH214186   4.315   3.120   2.200
 4748TIP3    H114187   4.398   3.152   2.166
 4748TIP3    H214188   4.314   3.145   2.292
 4749TIP3   OH214189   0.105   6.757   6.738
 4749TIP3    H114190   0.127   6.678   6.689
 4749TIP3    H214191   0.012   6.746   6.760
 4750TIP3   OH214192   7.839   6.307   3.349
 4750TIP3    H114193   7.805   6.220   3.331
 4750TIP3    H214194   7.899   6.325   3.277
 4751TIP3   OH214195   6.191   7.492   1.224
 4751TIP3    H114196   6.152   7.414   1.264
 4751TIP3    H214197   6.183   7.560   1.292
 4752TIP3   OH214198   1.665   5.979   3.048
 4752TIP3    H114199   1.634   5.890   3.032
 4752TIP3    H214200   1.597   6.035   3.012
 4753TIP3   OH214201   2.937   2.323   2.291
 4753TIP3    H114202   2.971   2.380   2.360
 4753TIP3    H214203   2.955   2.370   2.210
 4754TIP3   OH214204   5.373   2.354   3.726
 4754TIP3    H114205   5.446   2.416   3.723
 4754TIP3    H214206   5.324   2.378   3.805
 4755TIP3   OH214207   7.365   0.621   1.857
 4755TIP3    H114208   7.328   0.708   1.866
 4755TIP3    H214209   7.420   0.610   1.935
 4756TIP3   OH214210   0.254   5.182   1.610
 4756TIP3    H114211   0.184   5.220   1.558
 4756TIP3    H214212   0.209   5.129   1.676
 4757TIP3   OH214213   4.102   2.801   3.719
 4757TIP3    H114214   4.183   2.757   3.743
 4757TIP3    H214215   4.079   2.852   3.797
 4758TIP3   OH214216   2.772   2.407   6.606
 4758TIP3    H114217   2.741   2.448   6.687
 4758TIP3    H214218   2.862   2.381   6.626
 4759TIP3   OH214219   1.241   2.361   2.949
 4759TIP3    H114220   1.247   2.452   2.920
 4759TIP3    H214221   1.169   2.360   3.011
 4760TIP3   OH214222   0.142   6.599   2.632
 4760TIP3    H114223   0.135   6.694   2.632
 4760TIP3    H214224   0.207   6.579   2.565
 4761TIP3   OH214225   6.242   6.346   4.227
 4761TIP3    H114226   6.174   6.369   4.289
 4761TIP3    H214227   6.233   6.251   4.215
 4762TIP3   OH214228   0.882   4.435   5.966
 4762TIP3    H114229   0.909   4.444   5.875
 4762TIP3    H214230   0.912   4.516   6.007
 4763TIP3   OH214231   5.436   6.517   1.364
 4763TIP3    H114232   5.459   6.446   1.303
 4763TIP3    H214233   5.519   6.538   1.408
 4764TIP3   OH214234   2.559   6.841   2.059
 4764TIP3    H114235   2.468   6.863   2.039
 4764TIP3    H214236   2.606   6.860   1.977
 4765TIP3   OH214237   6.612   4.033   4.677
 4765TIP3    H114238   6.565   4.116   4.673
 4765TIP3    H214239   6.571   3.979   4.610
 4766TIP3   OH214240   3.411   2.372   3.921
 4766TIP3    H114241   3.465   2.371   3.842
 4766TIP3    H214242   3.359   2.452   3.915
 4767TIP3   OH214243   4.152   3.130   5.422
 4767TIP3    H114244   4.133   3.046   5.380
 4767TIP3    H214245   4.155   3.193   5.350
 4768TIP3   OH214246   5.429   5.857   2.514
 4768TIP3    H114247   5.495   5.799   2.552
 4768TIP3    H214248   5.462   5.878   2.427
 4769TIP3   OH214249   0.529   5.916   1.767
 4769TIP3    H114250   0.486   6.001   1.776
 4769TIP3    H214251   0.569   5.900   1.852
 4770TIP3   OH214252   3.266   1.813   5.738
 4770TIP3    H114253   3.334   1.873   5.705
 4770TIP3    H214254   3.279   1.733   5.688
 4771TIP3   OH214255   5.653   3.792   5.029
 4771TIP3    H114256   5.728   3.783   4.970
 4771TIP3    H214257   5.692   3.816   5.113
 4772TIP3   OH214258   0.897   1.183   6.506
 4772TIP3    H114259   0.877   1.214   6.417
 4772TIP3    H214260   0.979   1.226   6.528
 4773TIP3   OH214261   1.954   4.927   1.763
 4773TIP3    H114262   1.899   4.918   1.842
 4773TIP3    H214263   1.982   4.838   1.744
 4774TIP3   OH214264   2.689   2.723   3.577
 4774TIP3    H114265   2.723   2.700   3.491
 4774TIP3    H214266   2.702   2.645   3.630
 4775TIP3   OH214267   1.593   2.991   2.512
 4775TIP3    H114268   1.677   2.961   2.475
 4775TIP3    H214269   1.612   3.077   2.549
 4776TIP3   OH214270   1.782   1.392   4.214
 4776TIP3    H114271   1.851   1.329   4.193
 4776TIP3    H214272   1.805   1.425   4.301
 4777TIP3   OH214273   3.765   2.609   6.563
 4777TIP3    H114274   3.711   2.584   6.488
 4777TIP3    H214275   3.846   2.642   6.524
 4778TIP3   OH214276   2.815   7.678   1.799
 4778TIP3    H114277   2.810   7.634   1.883
 4778TIP3    H214278   2.748   7.746   1.803
 4779TIP3   OH214279   5.618   1.651   4.705
 4779TIP3    H114280   5.548   1.682   4.762
 4779TIP3    H214281   5.682   1.612   4.765
 4780TIP3   OH214282   6.910   2.611   3.886
 4780TIP3    H114283   6.874   2.695   3.915
 4780TIP3    H214284   7.004   2.627   3.879
 4781TIP3   OH214285   4.082   7.123   5.334
 4781TIP3    H114286   4.010   7.135   5.272
 4781TIP3    H214287   4.137   7.201   5.321
 4782TIP3   OH214288   7.900   0.577   3.182
 4782TIP3    H114289   7.838   0.516   3.222
 4782TIP3    H214290   7.954   0.523   3.125
 4783TIP3   OH214291   4.626   7.702   1.875
 4783TIP3    H114292   4.545   7.752   1.882
 4783TIP3    H214293   4.635   7.685   1.781
 4784TIP3   OH214294   4.017   6.919   4.896
 4784TIP3    H114295   3.996   6.854   4.829
 4784TIP3    H214296   4.075   6.981   4.852
 4785TIP3   OH214297   8.120   2.669   0.829
 4785TIP3    H114298   8.181   2.737   0.802
 4785TIP3    H214299   8.038   2.715   0.848
 4786TIP3   OH214300   7.342   5.788   1.116
 4786TIP3    H114301   7.432   5.761   1.100
 4786TIP3    H214302   7.288   5.728   1.065
 4787TIP3   OH214303   0.360   1.988   5.590
 4787TIP3    H114304   0.321   2.043   5.657
 4787TIP3    H214305   0.411   2.048   5.536
 4788TIP3   OH214306   3.083   0.431   0.075
 4788TIP3    H114307   3.073   0.526   0.077
 4788TIP3    H214308   3.103   0.408   0.166
 4789TIP3   OH214309   4.345   6.354   2.750
 4789TIP3    H114310   4.403   6.283   2.777
 4789TIP3    H214311   4.344   6.350   2.654
 4790TIP3   OH214312   0.270   5.319   6.506
 4790TIP3    H114313   0.308   5.348   6.423
 4790TIP3    H214314   0.181   5.292   6.484
 4791TIP3   OH214315   3.239   5.705   3.721
 4791TIP3    H114316   3.153   5.691   3.761
 4791TIP3    H214317   3.261   5.796   3.742
 4792TIP3   OH214318   2.249   4.708   0.521
 4792TIP3    H114319   2.268   4.691   0.613
 4792TIP3    H214320   2.261   4.623   0.478
 4793TIP3   OH214321   0.347   2.640   4.329
 4793TIP3    H114322   0.399   2.671   4.254
 4793TIP3    H214323   0.389   2.558   4.355
 4794TIP3   OH214324   5.652   2.998   4.601
 4794TIP3    H114325   5.668   3.065   4.667
 4794TIP3    H214326   5.579   2.947   4.636
 4795TIP3   OH214327   4.201   1.707   0.503
 4795TIP3    H114328   4.211   1.788   0.555
 4795TIP3    H214329   4.212   1.637   0.567
 4796TIP3   OH214330   0.696   4.148   4.898
 4796TIP3    H114331   0.710   4.090   4.973
 4796TIP3    H214332   0.775   4.138   4.845
 4797TIP3   OH214333   7.895   3.262   4.643
 4797TIP3    H114334   7.918   3.313   4.720
 4797TIP3    H214335   7.968   3.200   4.633
 4798TIP3   OH214336   4.983   6.904   0.613
 4798TIP3    H114337   4.889   6.887   0.625
 4798TIP3    H214338   4.999   6.883   0.521
 4799TIP3   OH214339   2.749   4.618   0.002
 4799TIP3    H114340   2.780   4.709  -0.002
 4799TIP3    H214341   2.654   4.625  -0.009
 4800TIP3   OH214342   1.452   3.139   6.140
 4800TIP3    H114343   1.450   3.154   6.045
 4800TIP3    H214344   1.399   3.210   6.176
 4801TIP3   OH214345   2.742   5.389   2.795
 4801TIP3    H114346   2.772   5.303   2.765
 4801TIP3    H214347   2.775   5.396   2.885
 4802TIP3   OH214348   7.411   6.760   0.567
 4802TIP3    H114349   7.468   6.761   0.490
 4802TIP3    H214350   7.467   6.732   0.639
 4803TIP3   OH214351   1.270   3.223   1.394
 4803TIP3    H114352   1.357   3.260   1.410
 4803TIP3    H214353   1.255   3.238   1.300
 4804TIP3   OH214354   6.621   7.279   4.853
 4804TIP3    H114355   6.537   7.278   4.898
 4804TIP3    H214356   6.661   7.194   4.873
 4805TIP3   OH214357   5.166   0.115   6.375
 4805TIP3    H114358   5.155   0.098   6.468
 4805TIP3    H214359   5.158   0.210   6.368
 4806TIP3   OH214360   2.205   3.444   5.708
 4806TIP3    H114361   2.187   3.467   5.799
 4806TIP3    H214362   2.148   3.369   5.690
 4807TIP3   OH214363   3.750   5.621   5.123
 4807TIP3    H114364   3.679   5.679   5.150
 4807TIP3    H214365   3.815   5.628   5.193
 4808TIP3   OH214366   7.296   1.954   3.660
 4808TIP3    H114367   7.274   1.904   3.739
 4808TIP3    H214368   7.216   1.953   3.607
 4809TIP3   OH214369   0.324   1.281   0.994
 4809TIP3    H114370   0.326   1.188   1.015
 4809TIP3    H214371   0.231   1.301   0.983
 4810TIP3   OH214372   0.363   5.093   4.706
 4810TIP3    H114373   0.354   5.183   4.736
 4810TIP3    H214374   0.293   5.082   4.642
 4811TIP3   OH214375   2.436   5.389   4.157
 4811TIP3    H114376   2.451   5.348   4.242
 4811TIP3    H214377   2.510   5.361   4.103
 4812TIP3   OH214378   7.271   7.695   2.835
 4812TIP3    H114379   7.232   7.775   2.798
 4812TIP3    H214380   7.359   7.692   2.798
 4813TIP3   OH214381   3.237   5.949   3.880
 4813TIP3    H114382   3.261   6.031   3.836
 4813TIP3    H214383   3.303   5.940   3.949
 4814TIP3   OH214384   3.317   1.303   2.600
 4814TIP3    H114385   3.275   1.336   2.520
 4814TIP3    H214386   3.358   1.221   2.573
 4815TIP3   OH214387   1.667   2.102   0.826
 4815TIP3    H114388   1.743   2.111   0.770
 4815TIP3    H214389   1.702   2.074   0.911
 4816TIP3   OH214390   1.646   7.021   3.566
 4816TIP3    H114391   1.632   6.974   3.484
 4816TIP3    H214392   1.740   7.011   3.584
 4817TIP3   OH214393   5.964   5.440   3.368
 4817TIP3    H114394   6.028   5.474   3.429
 4817TIP3    H214395   5.995   5.352   3.346
 4818TIP3   OH214396   6.150   5.462   4.402
 4818TIP3    H114397   6.179   5.525   4.336
 4818TIP3    H214398   6.148   5.512   4.483
 4819TIP3   OH214399   6.856   4.683   5.719
 4819TIP3    H114400   6.849   4.777   5.701
 4819TIP3    H214401   6.907   4.648   5.646
 4820TIP3   OH214402   1.631   4.554   3.959
 4820TIP3    H114403   1.685   4.499   4.017
 4820TIP3    H214404   1.543   4.547   3.994
 4821TIP3   OH214405   2.225   5.669   5.581
 4821TIP3    H114406   2.255   5.693   5.493
 4821TIP3    H214407   2.160   5.600   5.566
 4822TIP3   OH214408   0.420   0.765   1.291
 4822TIP3    H114409   0.491   0.828   1.274
 4822TIP3    H214410   0.465   0.680   1.298
 4823TIP3   OH214411   7.055   7.199   2.420
 4823TIP3    H114412   7.059   7.179   2.326
 4823TIP3    H214413   7.147   7.211   2.445
 4824TIP3   OH214414   3.731   0.187   6.041
 4824TIP3    H114415   3.699   0.097   6.041
 4824TIP3    H214416   3.791   0.191   5.967
 4825TIP3   OH214417   7.240   5.113   0.365
 4825TIP3    H114418   7.258   5.095   0.458
 4825TIP3    H214419   7.305   5.179   0.341
 4826TIP3   OH214420   8.140   0.144   6.664
 4826TIP3    H114421   8.106   0.068   6.617
 4826TIP3    H214422   8.093   0.144   6.748
 4827TIP3   OH214423   2.705   7.603   5.367
 4827TIP3    H114424   2.726   7.680   5.313
 4827TIP3    H214425   2.669   7.540   5.306
 4828TIP3   OH214426   2.446   0.248   4.331
 4828TIP3    H114427   2.505   0.174   4.346
 4828TIP3    H214428   2.420   0.276   4.419
 4829TIP3   OH214429   3.668   6.829   2.417
 4829TIP3    H114430   3.743   6.823   2.358
 4829TIP3    H214431   3.592   6.816   2.362
 4830TIP3   OH214432   0.182   0.146   2.873
 4830TIP3    H114433   0.155   0.079   2.810
 4830TIP3    H214434   0.278   0.145   2.869
 4831TIP3   OH214435   1.380   0.114   6.161
 4831TIP3    H114436   1.382   0.116   6.065
 4831TIP3    H214437   1.304   0.060   6.182
 4832TIP3   OH214438   7.053   3.713   3.743
 4832TIP3    H114439   7.056   3.646   3.811
 4832TIP3    H214440   7.144   3.739   3.730
 4833TIP3   OH214441   6.911   1.446   1.586
 4833TIP3    H114442   6.828   1.472   1.626
 4833TIP3    H214443   6.908   1.350   1.584
 4834TIP3   OH214444   2.383   0.886   4.890
 4834TIP3    H114445   2.354   0.977   4.900
 4834TIP3    H214446   2.330   0.837   4.953
 4835TIP3   OH214447   1.319   7.141   4.402
 4835TIP3    H114448   1.337   7.064   4.455
 4835TIP3    H214449   1.357   7.214   4.452
 4836TIP3   OH214450   6.307   4.199   6.073
 4836TIP3    H114451   6.367   4.253   6.124
 4836TIP3    H214452   6.285   4.126   6.130
 4837TIP3   OH214453   2.105   4.928   4.362
 4837TIP3    H114454   2.083   5.007   4.410
 4837TIP3    H214455   2.027   4.908   4.311
 4838TIP3   OH214456   2.411   5.934   0.801
 4838TIP3    H114457   2.378   5.848   0.829
 4838TIP3    H214458   2.371   5.948   0.716
 4839TIP3   OH214459   5.565   6.937   0.861
 4839TIP3    H114460   5.525   6.852   0.881
 4839TIP3    H214461   5.541   6.953   0.770
 4840TIP3   OH214462   4.477   7.471   3.641
 4840TIP3    H114463   4.526   7.407   3.590
 4840TIP3    H214464   4.395   7.483   3.592
 4841TIP3   OH214465   0.653   3.729   5.127
 4841TIP3    H114466   0.572   3.687   5.100
 4841TIP3    H214467   0.640   3.822   5.107
 4842TIP3   OH214468   5.577   7.712   5.194
 4842TIP3    H114469   5.555   7.698   5.102
 4842TIP3    H214470   5.599   7.625   5.227
 4843TIP3   OH214471   4.022   7.321   0.304
 4843TIP3    H114472   4.000   7.354   0.391
 4843TIP3    H214473   4.115   7.298   0.309
 4844TIP3   OH214474   5.923   1.607   3.010
 4844TIP3    H114475   5.958   1.664   2.942
 4844TIP3    H214476   5.834   1.640   3.025
 4845TIP3   OH214477   2.111   6.075   3.017
 4845TIP3    H114478   2.027   6.066   3.062
 4845TIP3    H214479   2.092   6.050   2.926
 4846TIP3   OH214480   1.868   3.445   3.085
 4846TIP3    H114481   1.864   3.517   3.149
 4846TIP3    H214482   1.778   3.415   3.077
 4847TIP3   OH214483   6.052   0.873   1.760
 4847TIP3    H114484   6.128   0.825   1.728
 4847TIP3    H214485   6.058   0.959   1.718
 4848TIP3   OH214486   2.392   6.793   2.762
 4848TIP3    H114487   2.408   6.883   2.791
 4848TIP3    H214488   2.378   6.800   2.668
 4849TIP3   OH214489   0.494   3.228   2.319
 4849TIP3    H114490   0.512   3.254   2.409
 4849TIP3    H214491   0.429   3.292   2.289
 4850TIP3   OH214492   7.921   6.722   4.834
 4850TIP3    H114493   7.831   6.688   4.836
 4850TIP3    H214494   7.920   6.787   4.763
 4851TIP3   OH214495   4.909   4.572   0.217
 4851TIP3    H114496   4.934   4.523   0.139
 4851TIP3    H214497   4.840   4.631   0.188
 4852TIP3   OH214498   4.716   2.954   3.132
 4852TIP3    H114499   4.797   2.955   3.081
 4852TIP3    H214500   4.744   2.936   3.221
 4853TIP3   OH214501   8.138   0.425   4.158
 4853TIP3    H114502   8.142   0.394   4.067
 4853TIP3    H214503   8.062   0.483   4.160
 4854TIP3   OH214504   8.207   4.688   5.563
 4854TIP3    H114505   8.236   4.717   5.476
 4854TIP3    H214506   8.246   4.601   5.573
 4855TIP3   OH214507   6.184   7.221   0.752
 4855TIP3    H114508   6.212   7.224   0.661
 4855TIP3    H214509   6.243   7.158   0.793
 4856TIP3   OH214510   1.977   2.416   5.158
 4856TIP3    H114511   2.032   2.424   5.236
 4856TIP3    H214512   1.976   2.322   5.139
 4857TIP3   OH214513   5.837   4.357   4.279
 4857TIP3    H114514   5.782   4.282   4.299
 4857TIP3    H214515   5.926   4.321   4.278
 4858TIP3   OH214516   7.607   2.578   1.451
 4858TIP3    H114517   7.540   2.541   1.508
 4858TIP3    H214518   7.671   2.507   1.440
 4859TIP3   OH214519   3.320   4.534   0.243
 4859TIP3    H114520   3.255   4.499   0.181
 4859TIP3    H214521   3.307   4.482   0.322
 4860TIP3   OH214522   2.015   5.486   4.874
 4860TIP3    H114523   1.963   5.491   4.954
 4860TIP3    H214524   1.980   5.554   4.817
 4861TIP3   OH214525   7.106   4.982   2.092
 4861TIP3    H114526   7.094   4.957   2.183
 4861TIP3    H214527   7.110   5.077   2.093
 4862TIP3   OH214528   1.852   5.080   4.364
 4862TIP3    H114529   1.811   5.003   4.326
 4862TIP3    H214530   1.841   5.148   4.298
 4863TIP3   OH214531   6.285   6.261   6.517
 4863TIP3    H114532   6.373   6.242   6.550
 4863TIP3    H214533   6.297   6.268   6.422
 4864TIP3   OH214534   6.843   1.282   3.334
 4864TIP3    H114535   6.900   1.343   3.380
 4864TIP3    H214536   6.805   1.334   3.262
 4865TIP3   OH214537   3.334   4.460   1.159
 4865TIP3    H114538   3.383   4.541   1.167
 4865TIP3    H214539   3.265   4.466   1.226
 4866TIP3   OH214540   1.660   0.943   4.904
 4866TIP3    H114541   1.595   0.958   4.836
 4866TIP3    H214542   1.629   0.867   4.953
 4867TIP3   OH214543   2.781   5.150   6.188
 4867TIP3    H114544   2.843   5.187   6.250
 4867TIP3    H214545   2.835   5.116   6.117
 4868TIP3   OH214546   6.041   0.759   2.223
 4868TIP3    H114547   6.002   0.721   2.144
 4868TIP3    H214548   6.118   0.806   2.192
 4869TIP3   OH214549   0.728   1.280   2.964
 4869TIP3    H114550   0.705   1.288   2.872
 4869TIP3    H214551   0.646   1.258   3.008
 4870TIP3   OH214552   1.742   2.621   4.083
 4870TIP3    H114553   1.810   2.626   4.015
 4870TIP3    H214554   1.770   2.684   4.149
 4871TIP3   OH214555   4.732   4.592   4.643
 4871TIP3    H114556   4.680   4.606   4.564
 4871TIP3    H214557   4.695   4.513   4.682
 4872TIP3   OH214558   3.913   0.555   0.174
 4872TIP3    H114559   3.822   0.565   0.203
 4872TIP3    H214560   3.948   0.644   0.172
 4873TIP3   OH214561   4.638   5.785   5.883
 4873TIP3    H114562   4.711   5.797   5.822
 4873TIP3    H214563   4.647   5.695   5.915
 4874TIP3   OH214564   0.055   1.954   5.579
 4874TIP3    H114565  -0.022   1.918   5.623
 4874TIP3    H214566   0.125   1.948   5.644
 4875TIP3   OH214567   7.172   3.726   6.252
 4875TIP3    H114568   7.208   3.727   6.341
 4875TIP3    H214569   7.248   3.707   6.196
 4876TIP3   OH214570   3.791   4.882   0.355
 4876TIP3    H114571   3.708   4.843   0.380
 4876TIP3    H214572   3.779   4.976   0.368
 4877TIP3   OH214573   0.273   0.370   5.618
 4877TIP3    H114574   0.311   0.400   5.701
 4877TIP3    H214575   0.261   0.450   5.567
 4878TIP3   OH214576   6.587   5.450   3.721
 4878TIP3    H114577   6.644   5.486   3.789
 4878TIP3    H214578   6.537   5.381   3.765
 4879TIP3   OH214579   6.625   5.077   3.569
 4879TIP3    H114580   6.641   5.053   3.478
 4879TIP3    H214581   6.692   5.030   3.618
 4880TIP3   OH214582   6.233   1.431   5.068
 4880TIP3    H114583   6.163   1.457   5.007
 4880TIP3    H214584   6.262   1.513   5.108
 4881TIP3   OH214585   4.091   2.702   4.296
 4881TIP3    H114586   4.092   2.771   4.363
 4881TIP3    H214587   4.173   2.714   4.248
 4882TIP3   OH214588   7.476   2.494   1.686
 4882TIP3    H114589   7.547   2.435   1.711
 4882TIP3    H214590   7.495   2.575   1.734
 4883TIP3   OH214591   5.397   2.078   6.012
 4883TIP3    H114592   5.340   2.039   6.078
 4883TIP3    H214593   5.485   2.070   6.048
 4884TIP3   OH214594   6.146   4.212   0.661
 4884TIP3    H114595   6.104   4.247   0.739
 4884TIP3    H214596   6.195   4.136   0.693
 4885TIP3   OH214597   3.405   2.399   4.548
 4885TIP3    H114598   3.495   2.432   4.553
 4885TIP3    H214599   3.389   2.362   4.635
 4886TIP3   OH214600   8.289   3.390   1.800
 4886TIP3    H114601   8.212   3.405   1.745
 4886TIP3    H214602   8.276   3.301   1.834
 4887TIP3   OH214603   3.659   6.454   3.742
 4887TIP3    H114604   3.614   6.414   3.817
 4887TIP3    H214605   3.630   6.546   3.744
 4888TIP3   OH214606   2.731   0.158   2.572
 4888TIP3    H114607   2.725   0.230   2.509
 4888TIP3    H214608   2.732   0.200   2.658
 4889TIP3   OH214609   2.787   2.818   5.051
 4889TIP3    H114610   2.845   2.894   5.049
 4889TIP3    H214611   2.735   2.831   5.130
 4890TIP3   OH214612   5.751   4.461   5.565
 4890TIP3    H114613   5.797   4.425   5.490
 4890TIP3    H214614   5.804   4.536   5.592
 4891TIP3   OH214615   7.297   4.066   1.584
 4891TIP3    H114616   7.262   3.979   1.564
 4891TIP3    H214617   7.293   4.113   1.501
 4892TIP3   OH214618   5.540   4.012   3.104
 4892TIP3    H114619   5.621   4.052   3.134
 4892TIP3    H214620   5.485   4.087   3.078
 4893TIP3   OH214621   7.192   0.079   4.160
 4893TIP3    H114622   7.226   0.118   4.079
 4893TIP3    H214623   7.118   0.025   4.131
 4894TIP3   OH214624   0.796   0.084   0.980
 4894TIP3    H114625   0.718   0.073   1.034
 4894TIP3    H214626   0.868   0.088   1.043
 4895TIP3   OH214627   0.862   5.897   4.006
 4895TIP3    H114628   0.785   5.897   4.062
 4895TIP3    H214629   0.934   5.873   4.064
 4896TIP3   OH214630   3.661   7.113   2.290
 4896TIP3    H114631   3.599   7.112   2.216
 4896TIP3    H214632   3.607   7.093   2.366
 4897TIP3   OH214633   2.748   3.654   5.142
 4897TIP3    H114634   2.657   3.679   5.126
 4897TIP3    H214635   2.753   3.641   5.237
 4898TIP3   OH214636   5.811   1.245   3.562
 4898TIP3    H114637   5.885   1.185   3.554
 4898TIP3    H214638   5.849   1.332   3.552
 4899TIP3   OH214639   4.696   1.688   6.723
 4899TIP3    H114640   4.645   1.724   6.650
 4899TIP3    H214641   4.744   1.614   6.685
 4900TIP3   OH214642   0.868   6.700   0.817
 4900TIP3    H114643   0.903   6.752   0.889
 4900TIP3    H214644   0.825   6.625   0.859
 4901TIP3   OH214645   7.412   5.088   6.157
 4901TIP3    H114646   7.448   5.113   6.071
 4901TIP3    H214647   7.475   5.024   6.191
 4902TIP3   OH214648   5.887   3.952   2.792
 4902TIP3    H114649   5.841   3.924   2.714
 4902TIP3    H214650   5.861   3.889   2.859
 4903TIP3   OH214651   7.645   6.038   0.933
 4903TIP3    H114652   7.660   6.079   0.847
 4903TIP3    H214653   7.626   5.947   0.913
 4904TIP3   OH214654   7.370   7.052   5.851
 4904TIP3    H114655   7.321   7.095   5.921
 4904TIP3    H214656   7.392   7.123   5.790
 4905TIP3   OH214657   5.109   6.913   3.845
 4905TIP3    H114658   5.111   6.900   3.751
 4905TIP3    H214659   5.143   6.831   3.882
 4906TIP3   OH214660   4.193   7.478   5.077
 4906TIP3    H114661   4.244   7.417   5.023
 4906TIP3    H214662   4.216   7.565   5.043
 4907TIP3   OH214663   4.857   5.375   6.771
 4907TIP3    H114664   4.941   5.394   6.731
 4907TIP3    H214665   4.795   5.374   6.699
 4908TIP3   OH214666   0.085   4.451   5.564
 4908TIP3    H114667   0.177   4.426   5.570
 4908TIP3    H214668   0.061   4.434   5.472
 4909TIP3   OH214669   1.904   0.796   6.241
 4909TIP3    H114670   1.854   0.812   6.321
 4909TIP3    H214671   1.949   0.713   6.257
 4910TIP3   OH214672   5.444   2.951   3.360
 4910TIP3    H114673   5.421   2.861   3.334
 4910TIP3    H214674   5.427   3.004   3.283
 4911TIP3   OH214675   2.003   6.811   2.718
 4911TIP3    H114676   1.944   6.875   2.678
 4911TIP3    H214677   1.971   6.801   2.807
 4912TIP3   OH214678   2.126   5.262   1.981
 4912TIP3    H114679   2.069   5.280   2.056
 4912TIP3    H214680   2.179   5.187   2.009
 4913TIP3   OH214681   4.260   4.730   0.049
 4913TIP3    H114682   4.240   4.678   0.127
 4913TIP3    H214683   4.277   4.665  -0.019
 4914TIP3   OH214684   1.131   4.227   6.205
 4914TIP3    H114685   1.174   4.171   6.270
 4914TIP3    H214686   1.198   4.291   6.182
 4915TIP3   OH214687   6.119   0.475   1.840
 4915TIP3    H114688   6.201   0.496   1.885
 4915TIP3    H214689   6.132   0.386   1.808
 4916TIP3   OH214690   7.993   4.833   2.925
 4916TIP3    H114691   8.010   4.863   2.836
 4916TIP3    H214692   7.988   4.738   2.917
 4917TIP3   OH214693   4.974   4.158   0.656
 4917TIP3    H114694   4.947   4.119   0.573
 4917TIP3    H214695   4.892   4.173   0.704
 4918TIP3   OH214696   0.982   4.377   3.942
 4918TIP3    H114697   1.077   4.392   3.939
 4918TIP3    H214698   0.967   4.337   4.028
 4919TIP3   OH214699   3.678   1.742   4.142
 4919TIP3    H114700   3.632   1.825   4.155
 4919TIP3    H214701   3.769   1.767   4.123
 4920TIP3   OH214702   3.350   1.404   4.865
 4920TIP3    H114703   3.414   1.468   4.895
 4920TIP3    H214704   3.390   1.319   4.885
 4921TIP3   OH214705   5.010   4.373   4.858
 4921TIP3    H114706   5.062   4.448   4.889
 4921TIP3    H214707   4.989   4.395   4.767
 4922TIP3   OH214708   7.314   3.716   6.487
 4922TIP3    H114709   7.337   3.747   6.575
 4922TIP3    H214710   7.399   3.699   6.446
 4923TIP3   OH214711   1.642   5.474   1.197
 4923TIP3    H114712   1.706   5.522   1.144
 4923TIP3    H214713   1.613   5.538   1.262
 4924TIP3   OH214714   2.504   2.751   3.804
 4924TIP3    H114715   2.570   2.744   3.734
 4924TIP3    H214716   2.542   2.813   3.866
 4925TIP3   OH214717   7.207   1.494   4.463
 4925TIP3    H114718   7.157   1.415   4.442
 4925TIP3    H214719   7.288   1.461   4.502
 4926TIP3   OH214720   5.599   7.162   4.258
 4926TIP3    H114721   5.558   7.213   4.328
 4926TIP3    H214722   5.539   7.170   4.184
 4927TIP3   OH214723   2.613   1.311   6.661
 4927TIP3    H114724   2.537   1.335   6.713
 4927TIP3    H214725   2.649   1.235   6.706
 4928TIP3   OH214726   5.665   4.158   1.257
 4928TIP3    H114727   5.728   4.121   1.196
 4928TIP3    H214728   5.589   4.179   1.202
 4929TIP3   OH214729   2.782   2.346   3.310
 4929TIP3    H114730   2.805   2.300   3.391
 4929TIP3    H214731   2.852   2.410   3.299
 4930TIP3   OH214732   6.977   0.383   5.307
 4930TIP3    H114733   6.919   0.327   5.256
 4930TIP3    H214734   7.035   0.323   5.354
 4931TIP3   OH214735   4.887   6.233   3.324
 4931TIP3    H114736   4.876   6.318   3.280
 4931TIP3    H214737   4.826   6.175   3.278
 4932TIP3   OH214738   7.431   6.212   2.450
 4932TIP3    H114739   7.340   6.222   2.479
 4932TIP3    H214740   7.459   6.129   2.489
 4933TIP3   OH214741   0.699   2.253   5.244
 4933TIP3    H114742   0.755   2.245   5.167
 4933TIP3    H214743   0.723   2.337   5.283
 4934TIP3   OH214744   1.143   1.618   1.680
 4934TIP3    H114745   1.226   1.646   1.642
 4934TIP3    H214746   1.167   1.545   1.738
 4935TIP3   OH214747   2.876   5.102   1.066
 4935TIP3    H114748   2.854   5.045   0.992
 4935TIP3    H214749   2.959   5.067   1.099
 4936TIP3   OH214750   6.529   1.582   3.515
 4936TIP3    H114751   6.454   1.535   3.552
 4936TIP3    H214752   6.603   1.550   3.566
 4937TIP3   OH214753   5.224   4.290   5.347
 4937TIP3    H114754   5.212   4.325   5.259
 4937TIP3    H214755   5.318   4.299   5.364
 4938TIP3   OH214756   6.034   1.693   1.119
 4938TIP3    H114757   6.124   1.687   1.151
 4938TIP3    H214758   6.005   1.781   1.146
 4939TIP3   OH214759   7.578   5.191   4.249
 4939TIP3    H114760   7.582   5.278   4.287
 4939TIP3    H214761   7.624   5.135   4.312
 4940TIP3   OH214762   7.890   1.822   2.120
 4940TIP3    H114763   7.902   1.738   2.076
 4940TIP3    H214764   7.960   1.824   2.186
 4941TIP3   OH214765   8.000   4.510   0.869
 4941TIP3    H114766   8.080   4.531   0.821
 4941TIP3    H214767   8.030   4.455   0.941
 4942TIP3   OH214768   2.596   5.460   0.382
 4942TIP3    H114769   2.536   5.415   0.441
 4942TIP3    H214770   2.671   5.400   0.375
 4943TIP3   OH214771   5.513   5.595   1.626
 4943TIP3    H114772   5.489   5.667   1.683
 4943TIP3    H214773   5.603   5.573   1.651
 4944TIP3   OH214774   1.619   3.119   1.962
 4944TIP3    H114775   1.551   3.053   1.947
 4944TIP3    H214776   1.586   3.197   1.919
 4945TIP3   OH214777   5.111   2.095   5.805
 4945TIP3    H114778   5.135   2.123   5.893
 4945TIP3    H214779   5.182   2.036   5.778
 4946TIP3   OH214780   1.224   1.124   5.507
 4946TIP3    H114781   1.171   1.054   5.546
 4946TIP3    H214782   1.288   1.077   5.454
 4947TIP3   OH214783   0.010   5.434   3.313
 4947TIP3    H114784   0.087   5.481   3.345
 4947TIP3    H214785  -0.058   5.500   3.304
 4948TIP3   OH214786   6.500   6.172   6.645
 4948TIP3    H114787   6.585   6.129   6.643
 4948TIP3    H214788   6.459   6.141   6.726
 4949TIP3   OH214789   2.287   4.771   1.615
 4949TIP3    H114790   2.230   4.698   1.591
 4949TIP3    H214791   2.356   4.770   1.548
 4950TIP3   OH214792   2.613   7.161   4.191
 4950TIP3    H114793   2.554   7.116   4.250
 4950TIP3    H214794   2.680   7.096   4.169
 4951TIP3   OH214795   3.981   1.448   6.329
 4951TIP3    H114796   4.019   1.480   6.411
 4951TIP3    H214797   4.002   1.515   6.264
 4952TIP3   OH214798   5.136   2.233   2.640
 4952TIP3    H114799   5.196   2.167   2.605
 4952TIP3    H214800   5.048   2.198   2.623
 4953TIP3   OH214801   8.178   2.700   2.425
 4953TIP3    H114802   8.129   2.682   2.505
 4953TIP3    H214803   8.111   2.708   2.357
 4954TIP3   OH214804   6.460   5.288   5.414
 4954TIP3    H114805   6.449   5.366   5.359
 4954TIP3    H214806   6.496   5.321   5.496
 4955TIP3   OH214807   7.928   0.532   3.929
 4955TIP3    H114808   7.882   0.500   4.006
 4955TIP3    H214809   7.878   0.610   3.903
 4956TIP3   OH214810   7.854   7.722   3.658
 4956TIP3    H114811   7.806   7.643   3.631
 4956TIP3    H214812   7.788   7.774   3.704
 4957TIP3   OH214813   4.340   4.996   1.106
 4957TIP3    H114814   4.398   5.020   1.034
 4957TIP3    H214815   4.354   4.902   1.118
 4958TIP3   OH214816   7.995   6.821   5.216
 4958TIP3    H114817   7.929   6.885   5.243
 4958TIP3    H214818   8.057   6.819   5.289
 4959TIP3   OH214819   3.458   2.647   3.202
 4959TIP3    H114820   3.490   2.722   3.253
 4959TIP3    H214821   3.535   2.593   3.188
 4960TIP3   OH214822   1.459   0.354   6.299
 4960TIP3    H114823   1.424   0.346   6.388
 4960TIP3    H214824   1.435   0.271   6.257
 4961TIP3   OH214825   3.121   6.944   1.187
 4961TIP3    H114826   3.194   6.976   1.134
 4961TIP3    H214827   3.079   7.023   1.220
 4962TIP3   OH214828   2.985   6.551   1.043
 4962TIP3    H114829   3.056   6.585   1.096
 4962TIP3    H214830   2.963   6.466   1.082
 4963TIP3   OH214831   5.616   4.016   2.665
 4963TIP3    H114832   5.680   3.954   2.628
 4963TIP3    H214833   5.565   3.963   2.727
 4964TIP3   OH214834   7.297   1.250   4.236
 4964TIP3    H114835   7.277   1.221   4.325
 4964TIP3    H214836   7.211   1.273   4.199
 4965TIP3   OH214837   6.262   1.968   3.676
 4965TIP3    H114838   6.302   2.049   3.707
 4965TIP3    H214839   6.287   1.962   3.584
 4966TIP3   OH214840   4.885   1.736   0.185
 4966TIP3    H114841   4.893   1.671   0.255
 4966TIP3    H214842   4.913   1.689   0.106
 4967TIP3   OH214843   0.067   7.458   1.210
 4967TIP3    H114844   0.156   7.486   1.229
 4967TIP3    H214845   0.015   7.490   1.284
 4968TIP3   OH214846   0.553   2.420   6.336
 4968TIP3    H114847   0.474   2.457   6.377
 4968TIP3    H214848   0.531   2.413   6.243
 4969TIP3   OH214849   1.271   3.546   1.499
 4969TIP3    H114850   1.338   3.478   1.493
 4969TIP3    H214851   1.254   3.555   1.592
 4970TIP3   OH214852   0.684   4.574   0.624
 4970TIP3    H114853   0.659   4.654   0.671
 4970TIP3    H214854   0.628   4.573   0.547
 4971TIP3   OH214855   6.503   4.285   4.691
 4971TIP3    H114856   6.576   4.340   4.719
 4971TIP3    H214857   6.426   4.326   4.731
 4972TIP3   OH214858   4.235   0.072   1.003
 4972TIP3    H114859   4.143   0.067   0.977
 4972TIP3    H214860   4.239   0.149   1.061
 4973TIP3   OH214861   3.110   3.396   5.260
 4973TIP3    H114862   3.043   3.368   5.197
 4973TIP3    H214863   3.075   3.368   5.345
 4974TIP3   OH214864   7.796   2.129   0.770
 4974TIP3    H114865   7.792   2.192   0.698
 4974TIP3    H214866   7.831   2.179   0.844
 4975TIP3   OH214867   4.668   2.647   6.662
 4975TIP3    H114868   4.729   2.625   6.592
 4975TIP3    H214869   4.617   2.721   6.628
 4976TIP3   OH214870   0.514   1.495   1.375
 4976TIP3    H114871   0.594   1.459   1.413
 4976TIP3    H214872   0.501   1.577   1.422
 4977TIP3   OH214873   5.590   4.599   2.413
 4977TIP3    H114874   5.655   4.647   2.362
 4977TIP3    H214875   5.513   4.595   2.356
 4978TIP3   OH214876   2.253   1.313   2.726
 4978TIP3    H114877   2.240   1.218   2.721
 4978TIP3    H214878   2.261   1.331   2.820
 4979TIP3   OH214879   7.055   2.530   6.609
 4979TIP3    H114880   6.988   2.553   6.674
 4979TIP3    H214881   7.079   2.440   6.629
 4980TIP3   OH214882   0.542   6.312   4.767
 4980TIP3    H114883   0.596   6.389   4.783
 4980TIP3    H214884   0.518   6.281   4.855
 4981TIP3   OH214885   4.503   0.228   4.678
 4981TIP3    H114886   4.584   0.269   4.708
 4981TIP3    H214887   4.489   0.262   4.590
 4982TIP3   OH214888   5.443   5.679   5.312
 4982TIP3    H114889   5.494   5.750   5.352
 4982TIP3    H214890   5.497   5.602   5.325
 4983TIP3   OH214891   1.903   3.059   4.260
 4983TIP3    H114892   1.858   3.025   4.183
 4983TIP3    H214893   1.887   3.153   4.257
 4984TIP3   OH214894   7.198   3.542   0.043
 4984TIP3    H114895   7.215   3.590   0.124
 4984TIP3    H214896   7.147   3.603  -0.011
 4985TIP3   OH214897   5.686   3.089   5.182
 4985TIP3    H114898   5.627   3.022   5.216
 4985TIP3    H214899   5.636   3.132   5.113
 4986TIP3   OH214900   2.224   5.580   0.265
 4986TIP3    H114901   2.147   5.625   0.300
 4986TIP3    H214902   2.295   5.643   0.275
 4987TIP3   OH214903   4.632   3.017   0.437
 4987TIP3    H114904   4.625   2.971   0.353
 4987TIP3    H214905   4.676   2.955   0.494
 4988TIP3   OH214906   0.493   5.889   0.126
 4988TIP3    H114907   0.488   5.939   0.044
 4988TIP3    H214908   0.587   5.882   0.144
 4989TIP3   OH214909   4.926   5.327   4.151
 4989TIP3    H114910   4.962   5.277   4.078
 4989TIP3    H214911   4.947   5.418   4.130
 4990TIP3   OH214912   1.974   3.057   3.065
 4990TIP3    H114913   1.964   3.109   3.145
 4990TIP3    H214914   1.917   2.982   3.078
 4991TIP3   OH214915   3.121   5.115   2.025
 4991TIP3    H114916   3.180   5.097   1.952
 4991TIP3    H214917   3.037   5.077   1.998
 4992TIP3   OH214918   6.344   6.410   4.676
 4992TIP3    H114919   6.397   6.458   4.739
 4992TIP3    H214920   6.390   6.420   4.593
 4993TIP3   OH214921   1.975   2.502   0.479
 4993TIP3    H114922   2.060   2.465   0.500
 4993TIP3    H214923   1.930   2.507   0.563
 4994TIP3   OH214924   1.462   7.549   4.046
 4994TIP3    H114925   1.429   7.486   4.111
 4994TIP3    H214926   1.557   7.548   4.057
 4995TIP3   OH214927   3.902   4.149   6.067
 4995TIP3    H114928   3.823   4.202   6.057
 4995TIP3    H214929   3.871   4.067   6.105
 4996TIP3   OH214930   3.192   2.136   5.766
 4996TIP3    H114931   3.183   2.202   5.698
 4996TIP3    H214932   3.255   2.073   5.729
 4997TIP3   OH214933   1.829   1.957   5.722
 4997TIP3    H114934   1.799   1.868   5.743
 4997TIP3    H214935   1.919   1.945   5.693
 4998TIP3   OH214936   7.150   3.621   3.237
 4998TIP3    H114937   7.139   3.540   3.187
 4998TIP3    H214938   7.138   3.595   3.328
 4999TIP3   OH214939   5.484   5.200   1.953
 4999TIP3    H114940   5.463   5.221   1.863
 4999TIP3    H214941   5.407   5.153   1.986
 5000TIP3   OH214942   4.205   4.611   3.656
 5000TIP3    H114943   4.223   4.705   3.665
 5000TIP3    H214944   4.219   4.593   3.563
 5001TIP3   OH214945   3.762   3.824   1.021
 5001TIP3    H114946   3.717   3.884   0.963
 5001TIP3    H214947   3.854   3.828   0.994
 5002TIP3   OH214948   1.084   6.734   1.763
 5002TIP3    H114949   1.147   6.662   1.767
 5002TIP3    H214950   1.107   6.791   1.836
 5003TIP3   OH214951   5.995   7.502   5.821
 5003TIP3    H114952   6.088   7.487   5.837
 5003TIP3    H214953   5.968   7.557   5.895
 5004TIP3   OH214954   7.956   1.064   4.075
 5004TIP3    H114955   7.883   1.028   4.025
 5004TIP3    H214956   7.986   1.139   4.023
 5005TIP3   OH214957   1.889   6.879   0.467
 5005TIP3    H114958   1.975   6.839   0.482
 5005TIP3    H214959   1.861   6.908   0.553
 5006TIP3   OH214960   5.325   6.546   6.228
 5006TIP3    H114961   5.250   6.605   6.219
 5006TIP3    H214962   5.290   6.459   6.209
 5007TIP3   OH214963   0.084   5.832   1.134
 5007TIP3    H114964   0.092   5.881   1.052
 5007TIP3    H214965   0.072   5.900   1.201
 5008TIP3   OH214966   0.225   0.374   6.225
 5008TIP3    H114967   0.214   0.303   6.289
 5008TIP3    H214968   0.233   0.329   6.141
 5009TIP3   OH214969   6.305   6.235   3.195
 5009TIP3    H114970   6.380   6.177   3.183
 5009TIP3    H214971   6.230   6.176   3.205
 5010TIP3   OH214972   5.443   7.345   3.377
 5010TIP3    H114973   5.492   7.348   3.460
 5010TIP3    H214974   5.451   7.254   3.349
 5011TIP3   OH214975   3.666   5.367   2.820
 5011TIP3    H114976   3.729   5.395   2.887
 5011TIP3    H214977   3.688   5.419   2.743
 5012TIP3   OH214978   3.000   5.607   5.026
 5012TIP3    H114979   2.969   5.684   4.978
 5012TIP3    H214980   2.948   5.535   4.990
 5013TIP3   OH214981   2.263   6.687   4.399
 5013TIP3    H114982   2.272   6.615   4.461
 5013TIP3    H214983   2.352   6.704   4.369
 5014TIP3   OH214984   0.076   1.045   6.525
 5014TIP3    H114985   0.169   1.064   6.541
 5014TIP3    H214986   0.031   1.084   6.600
 5015TIP3   OH214987   4.882   3.252   3.281
 5015TIP3    H114988   4.795   3.254   3.241
 5015TIP3    H214989   4.934   3.312   3.228
 5016TIP3   OH214990   3.673   1.375   0.384
 5016TIP3    H114991   3.585   1.353   0.414
 5016TIP3    H214992   3.702   1.297   0.337
 5017TIP3   OH214993   0.938   7.041   3.556
 5017TIP3    H114994   0.863   7.033   3.616
 5017TIP3    H214995   0.948   7.135   3.543
 5018TIP3   OH214996   4.591   3.451   0.348
 5018TIP3    H114997   4.548   3.370   0.322
 5018TIP3    H214998   4.684   3.430   0.349
 5019TIP3   OH214999   7.443   4.143   5.712
 5019TIP3    H115000   7.427   4.117   5.621
 5019TIP3    H215001   7.483   4.229   5.705
 5020TIP3   OH215002   2.494   6.912   3.999
 5020TIP3    H115003   2.556   6.844   4.027
 5020TIP3    H215004   2.409   6.880   4.029
 5021TIP3   OH215005   4.596   0.637   4.678
 5021TIP3    H115006   4.514   0.591   4.662
 5021TIP3    H215007   4.655   0.605   4.609
 5022TIP3   OH215008   1.053   7.296   0.309
 5022TIP3    H115009   1.067   7.246   0.228
 5022TIP3    H215010   0.978   7.253   0.350
 5023TIP3   OH215011   6.992   1.369   3.559
 5023TIP3    H115012   7.064   1.343   3.502
 5023TIP3    H215013   7.019   1.454   3.595
 5024TIP3   OH215014   6.703   0.242   0.177
 5024TIP3    H115015   6.729   0.324   0.219
 5024TIP3    H215016   6.785   0.195   0.162
 5025TIP3   OH215017   6.181   3.296   4.598
 5025TIP3    H115018   6.236   3.241   4.542
 5025TIP3    H215019   6.210   3.386   4.579
 5026TIP3   OH215020   1.176   6.986   3.732
 5026TIP3    H115021   1.152   7.038   3.655
 5026TIP3    H215022   1.272   6.988   3.733
 5027TIP3   OH215023   0.210   3.599   6.415
 5027TIP3    H115024   0.222   3.607   6.321
 5027TIP3    H215025   0.298   3.608   6.452
 5028TIP3   OH215026   7.617   7.203   4.867
 5028TIP3    H115027   7.625   7.270   4.799
 5028TIP3    H215028   7.612   7.121   4.819
 5029TIP3   OH215029   6.716   2.393   2.537
 5029TIP3    H115030   6.667   2.435   2.467
 5029TIP3    H215031   6.797   2.364   2.497
 5030TIP3   OH215032   0.058   5.503   4.256
 5030TIP3    H115033   0.033   5.576   4.313
 5030TIP3    H215034   0.003   5.514   4.178
 5031TIP3   OH215035   3.323   2.398   3.230
 5031TIP3    H115036   3.377   2.476   3.220
 5031TIP3    H215037   3.252   2.410   3.167
 5032TIP3   OH215038   5.139   0.533   2.776
 5032TIP3    H115039   5.112   0.597   2.709
 5032TIP3    H215040   5.063   0.526   2.834
 5033TIP3   OH215041   6.046   2.359   5.224
 5033TIP3    H115042   6.034   2.360   5.129
 5033TIP3    H215043   6.013   2.445   5.253
 5034TIP3   OH215044   1.343   6.826   3.962
 5034TIP3    H115045   1.322   6.861   4.049
 5034TIP3    H215046   1.362   6.904   3.910
 5035TIP3   OH215047   0.560   7.069   4.252
 5035TIP3    H115048   0.654   7.069   4.264
 5035TIP3    H215049   0.546   7.037   4.163
 5036TIP3   OH215050   0.859   4.732   3.591
 5036TIP3    H115051   0.862   4.642   3.624
 5036TIP3    H215052   0.856   4.722   3.495
 5037TIP3   OH215053   5.729   3.626   3.848
 5037TIP3    H115054   5.706   3.707   3.803
 5037TIP3    H215055   5.733   3.560   3.778
 5038TIP3   OH215056   2.353   3.307   3.242
 5038TIP3    H115057   2.419   3.283   3.177
 5038TIP3    H215058   2.308   3.382   3.204
 5039TIP3   OH215059   8.089   3.067   5.703
 5039TIP3    H115060   8.007   3.117   5.705
 5039TIP3    H215061   8.153   3.128   5.667
 5040TIP3   OH215062   4.001   5.882   2.520
 5040TIP3    H115063   3.933   5.925   2.468
 5040TIP3    H215064   3.986   5.788   2.507
 5041TIP3   OH215065   2.197   2.768   2.968
 5041TIP3    H115066   2.230   2.815   2.892
 5041TIP3    H215067   2.167   2.684   2.933
 5042TIP3   OH215068   2.326   6.912   4.694
 5042TIP3    H115069   2.413   6.888   4.727
 5042TIP3    H215070   2.298   6.985   4.749
 5043TIP3   OH215071   7.633   1.455   4.851
 5043TIP3    H115072   7.708   1.399   4.830
 5043TIP3    H215073   7.588   1.466   4.767
 5044TIP3   OH215074   3.496   3.380   5.023
 5044TIP3    H115075   3.516   3.366   4.931
 5044TIP3    H215076   3.445   3.461   5.024
 5045TIP3   OH215077   6.469   4.548   5.480
 5045TIP3    H115078   6.545   4.578   5.429
 5045TIP3    H215079   6.489   4.575   5.570
 5046TIP3   OH215080   2.090   4.683   5.811
 5046TIP3    H115081   2.002   4.714   5.832
 5046TIP3    H215082   2.088   4.590   5.834
 5047TIP3   OH215083   4.034   5.746   5.589
 5047TIP3    H115084   3.971   5.818   5.595
 5047TIP3    H215085   3.983   5.667   5.606
 5048TIP3   OH215086   4.447   6.515   2.491
 5048TIP3    H115087   4.392   6.459   2.437
 5048TIP3    H215088   4.536   6.492   2.467
 5049TIP3   OH215089   4.787   6.378   0.033
 5049TIP3    H115090   4.860   6.316   0.026
 5049TIP3    H215091   4.777   6.413  -0.055
 5050TIP3   OH215092   3.990   5.485   1.452
 5050TIP3    H115093   4.083   5.510   1.459
 5050TIP3    H215094   3.990   5.409   1.394
 5051TIP3   OH215095   5.426   3.397   3.268
 5051TIP3    H115096   5.459   3.381   3.180
 5051TIP3    H215097   5.357   3.331   3.280
 5052TIP3   OH215098   1.004   4.493   1.522
 5052TIP3    H115099   1.051   4.470   1.441
 5052TIP3    H215100   1.065   4.470   1.592
 5053TIP3   OH215101   6.971   2.777   0.086
 5053TIP3    H115102   6.896   2.830   0.112
 5053TIP3    H215103   6.977   2.788  -0.009
 5054TIP3   OH215104   6.796   6.099   1.139
 5054TIP3    H115105   6.879   6.051   1.134
 5054TIP3    H215106   6.736   6.050   1.083
 5055TIP3   OH215107   2.651   6.021   2.648
 5055TIP3    H115108   2.605   6.105   2.643
 5055TIP3    H215109   2.582   5.956   2.656
 5056TIP3   OH215110   3.721   1.262   5.475
 5056TIP3    H115111   3.752   1.173   5.492
 5056TIP3    H215112   3.766   1.289   5.395
 5057TIP3   OH215113   4.700   4.234   5.033
 5057TIP3    H115114   4.777   4.236   5.090
 5057TIP3    H215115   4.629   4.203   5.089
 5058TIP3   OH215116   0.801   7.599   1.590
 5058TIP3    H115117   0.733   7.578   1.527
 5058TIP3    H215118   0.824   7.690   1.571
 5059TIP3   OH215119   1.487   6.572   0.489
 5059TIP3    H115120   1.535   6.645   0.450
 5059TIP3    H215121   1.513   6.496   0.437
 5060TIP3   OH215122   2.391   2.892   1.408
 5060TIP3    H115123   2.442   2.884   1.488
 5060TIP3    H215124   2.432   2.965   1.361
 5061TIP3   OH215125   3.422   2.605   6.080
 5061TIP3    H115126   3.372   2.590   6.000
 5061TIP3    H215127   3.359   2.646   6.140
 5062TIP3   OH215128   6.897   7.114   4.700
 5062TIP3    H115129   6.944   7.053   4.757
 5062TIP3    H215130   6.964   7.146   4.639
 5063TIP3   OH215131   6.141   2.138   4.627
 5063TIP3    H115132   6.202   2.135   4.700
 5063TIP3    H215133   6.191   2.107   4.552
 5064TIP3   OH215134   2.540   7.490   4.017
 5064TIP3    H115135   2.446   7.471   4.018
 5064TIP3    H215136   2.581   7.404   4.029
 5065TIP3   OH215137   5.165   7.196   3.668
 5065TIP3    H115138   5.260   7.184   3.674
 5065TIP3    H215139   5.136   7.200   3.759
 5066TIP3   OH215140   8.104   0.063   2.506
 5066TIP3    H115141   8.040  -0.003   2.479
 5066TIP3    H215142   8.060   0.111   2.576
 5067TIP3   OH215143   1.209   3.185   2.968
 5067TIP3    H115144   1.127   3.154   2.930
 5067TIP3    H215145   1.221   3.132   3.047
 5068TIP3   OH215146   2.102   1.558   5.029
 5068TIP3    H115147   2.182   1.595   5.066
 5068TIP3    H215148   2.049   1.634   5.004
 5069TIP3   OH215149   1.316   0.348   1.441
 5069TIP3    H115150   1.255   0.400   1.493
 5069TIP3    H215151   1.272   0.263   1.430
 5070TIP3   OH215152   5.475   6.279   3.800
 5070TIP3    H115153   5.556   6.291   3.751
 5070TIP3    H215154   5.503   6.257   3.889
 5071TIP3   OH215155   3.843   3.357   3.361
 5071TIP3    H115156   3.766   3.379   3.414
 5071TIP3    H215157   3.912   3.341   3.424
 5072TIP3   OH215158   2.974   6.951   1.723
 5072TIP3    H115159   2.985   6.863   1.687
 5072TIP3    H215160   2.951   6.936   1.815
 5073TIP3   OH215161   7.318   5.052   5.480
 5073TIP3    H115162   7.268   5.134   5.470
 5073TIP3    H215163   7.393   5.063   5.421
 5074TIP3   OH215164   5.728   4.965   0.815
 5074TIP3    H115165   5.688   4.942   0.900
 5074TIP3    H215166   5.673   5.036   0.782
 5075TIP3   OH215167   0.070   1.183   5.641
 5075TIP3    H115168   0.066   1.123   5.716
 5075TIP3    H215169   0.124   1.137   5.577
 5076TIP3   OH215170   2.821   2.539   3.987
 5076TIP3    H115171   2.914   2.520   3.991
 5076TIP3    H215172   2.815   2.620   3.935
 5077TIP3   OH215173   2.824   3.075   1.962
 5077TIP3    H115174   2.904   3.036   1.998
 5077TIP3    H215175   2.772   3.099   2.039
 5078TIP3   OH215176   4.042   7.716   1.867
 5078TIP3    H115177   4.113   7.693   1.806
 5078TIP3    H215178   4.083   7.713   1.953
 5079TIP3   OH215179   1.952   7.360   3.416
 5079TIP3    H115180   2.022   7.315   3.463
 5079TIP3    H215181   1.892   7.390   3.485
 5080TIP3   OH215182   0.256   0.500   3.358
 5080TIP3    H115183   0.280   0.552   3.281
 5080TIP3    H215184   0.309   0.421   3.351
 5081TIP3   OH215185   4.180   4.685   0.535
 5081TIP3    H115186   4.117   4.757   0.546
 5081TIP3    H215187   4.220   4.675   0.621
 5082TIP3   OH215188   3.787   2.641   1.554
 5082TIP3    H115189   3.702   2.628   1.513
 5082TIP3    H215190   3.827   2.714   1.507
 5083TIP3   OH215191   0.718   3.675   0.613
 5083TIP3    H115192   0.623   3.671   0.607
 5083TIP3    H215193   0.735   3.704   0.703
 5084TIP3   OH215194   8.249   5.200   6.337
 5084TIP3    H115195   8.161   5.232   6.319
 5084TIP3    H215196   8.258   5.124   6.279
 5085TIP3   OH215197   8.300   4.330   0.807
 5085TIP3    H115198   8.294   4.425   0.795
 5085TIP3    H215199   8.269   4.293   0.724
 5086TIP3   OH215200   8.293   7.456   6.117
 5086TIP3    H115201   8.246   7.510   6.053
 5086TIP3    H215202   8.304   7.372   6.073
 5087TIP3   OH215203   2.297   6.772   3.752
 5087TIP3    H115204   2.301   6.686   3.711
 5087TIP3    H215205   2.376   6.776   3.807
 5088TIP3   OH215206   5.782   2.070   0.901
 5088TIP3    H115207   5.775   1.975   0.888
 5088TIP3    H215208   5.707   2.106   0.853
 5089TIP3   OH215209   7.285   2.489   2.139
 5089TIP3    H115210   7.300   2.400   2.106
 5089TIP3    H215211   7.368   2.513   2.179
 5090TIP3   OH215212   2.106   5.117   4.596
 5090TIP3    H115213   2.164   5.127   4.671
 5090TIP3    H215214   2.122   5.195   4.543
 5091TIP3   OH215215   7.520   7.541   6.198
 5091TIP3    H115216   7.569   7.461   6.181
 5091TIP3    H215217   7.483   7.530   6.285
 5092TIP3   OH215218   4.530   6.234   0.723
 5092TIP3    H115219   4.490   6.162   0.772
 5092TIP3    H215220   4.485   6.312   0.755
 5093TIP3   OH215221   5.331   5.526   6.103
 5093TIP3    H115222   5.420   5.496   6.115
 5093TIP3    H215223   5.317   5.523   6.008
 5094TIP3   OH215224   0.819   1.247   4.208
 5094TIP3    H115225   0.880   1.245   4.135
 5094TIP3    H215226   0.843   1.170   4.261
 5095TIP3   OH215227   6.179   2.629   5.563
 5095TIP3    H115228   6.140   2.620   5.476
 5095TIP3    H215229   6.112   2.596   5.623
 5096TIP3   OH215230   1.736   5.150   3.220
 5096TIP3    H115231   1.734   5.215   3.289
 5096TIP3    H215232   1.819   5.164   3.175
 5097TIP3   OH215233   1.942   5.661   0.374
 5097TIP3    H115234   1.861   5.609   0.375
 5097TIP3    H215235   1.970   5.663   0.466
 5098TIP3   OH215236   5.632   0.077   0.707
 5098TIP3    H115237   5.674   0.009   0.760
 5098TIP3    H215238   5.662   0.062   0.618
 5099TIP3   OH215239   0.900   6.253   4.405
 5099TIP3    H115240   0.948   6.278   4.484
 5099TIP3    H215241   0.854   6.173   4.429
 5100TIP3   OH215242   5.998   1.105   1.592
 5100TIP3    H115243   6.071   1.148   1.548
 5100TIP3    H215244   5.955   1.054   1.523
 5101TIP3   OH215245   4.169   7.723   1.285
 5101TIP3    H115246   4.115   7.725   1.364
 5101TIP3    H215247   4.110   7.750   1.215
 5102TIP3   OH215248   3.766   1.302   6.265
 5102TIP3    H115249   3.812   1.241   6.207
 5102TIP3    H215250   3.835   1.358   6.300
 5103TIP3   OH215251   0.782   4.701   1.791
 5103TIP3    H115252   0.794   4.622   1.738
 5103TIP3    H215253   0.836   4.767   1.748
 5104TIP3   OH215254   0.318   5.902   4.668
 5104TIP3    H115255   0.290   5.921   4.578
 5104TIP3    H215256   0.268   5.824   4.693
 5105TIP3   OH215257   3.678   7.529   0.696
 5105TIP3    H115258   3.736   7.492   0.629
 5105TIP3    H215259   3.647   7.611   0.658
 5106TIP3   OH215260   1.413   4.519   1.995
 5106TIP3    H115261   1.467   4.499   1.919
 5106TIP3    H215262   1.340   4.570   1.959
 5107TIP3   OH215263   1.262   2.787   1.741
 5107TIP3    H115264   1.236   2.753   1.656
 5107TIP3    H215265   1.241   2.881   1.737
 5108TIP3   OH215266   6.006   7.800   5.688
 5108TIP3    H115267   5.928   7.847   5.716
 5108TIP3    H215268   5.979   7.709   5.682
 5109TIP3   OH215269   2.759   0.643   0.285
 5109TIP3    H115270   2.761   0.625   0.379
 5109TIP3    H215271   2.743   0.737   0.279
 5110TIP3   OH215272   5.380   4.442   3.628
 5110TIP3    H115273   5.330   4.495   3.691
 5110TIP3    H215274   5.313   4.402   3.572
 5111TIP3   OH215275   7.196   5.309   2.771
 5111TIP3    H115276   7.154   5.373   2.713
 5111TIP3    H215277   7.256   5.261   2.714
 5112TIP3   OH215278   2.925   3.077   2.935
 5112TIP3    H115279   2.982   3.004   2.959
 5112TIP3    H215280   2.933   3.139   3.008
 5113TIP3   OH215281   8.028   4.989   1.032
 5113TIP3    H115282   8.032   4.936   1.111
 5113TIP3    H215283   8.120   5.010   1.012
 5114TIP3   OH215284   6.094   4.394   2.210
 5114TIP3    H115285   6.044   4.341   2.149
 5114TIP3    H215286   6.185   4.384   2.181
 5115TIP3   OH215287   3.632   6.759   0.207
 5115TIP3    H115288   3.699   6.750   0.140
 5115TIP3    H215289   3.641   6.850   0.238
 5116TIP3   OH215290   7.114   0.583   1.670
 5116TIP3    H115291   7.161   0.507   1.635
 5116TIP3    H215292   7.181   0.634   1.714
 5117TIP3   OH215293   5.866   2.690   2.161
 5117TIP3    H115294   5.865   2.606   2.207
 5117TIP3    H215295   5.899   2.670   2.074
 5118TIP3   OH215296   5.570   6.211   5.513
 5118TIP3    H115297   5.656   6.253   5.513
 5118TIP3    H215298   5.527   6.244   5.434
 5119TIP3   OH215299   7.307  -0.016   2.153
 5119TIP3    H115300   7.391  -0.033   2.196
 5119TIP3    H215301   7.288   0.076   2.173
 5120TIP3   OH215302   1.073   0.562   2.304
 5120TIP3    H115303   0.985   0.530   2.284
 5120TIP3    H215304   1.120   0.553   2.221
 5121TIP3   OH215305   7.567   2.907   5.441
 5121TIP3    H115306   7.483   2.953   5.452
 5121TIP3    H215307   7.544   2.827   5.393
 5122TIP3   OH215308   2.811   2.503   6.344
 5122TIP3    H115309   2.896   2.488   6.301
 5122TIP3    H215310   2.820   2.463   6.430
 5123TIP3   OH215311   6.792   2.367   1.356
 5123TIP3    H115312   6.814   2.350   1.264
 5123TIP3    H215313   6.733   2.297   1.380
 5124TIP3   OH215314   3.404   4.142   3.703
 5124TIP3    H115315   3.324   4.096   3.727
 5124TIP3    H215316   3.467   4.073   3.682
 5125TIP3   OH215317   8.075   0.775   0.310
 5125TIP3    H115318   8.067   0.681   0.324
 5125TIP3    H215319   8.113   0.784   0.223
 5126TIP3   OH215320   7.973   5.808   2.094
 5126TIP3    H115321   7.879   5.828   2.096
 5126TIP3    H215322   7.992   5.793   2.002
 5127TIP3   OH215323   1.683   3.513   1.483
 5127TIP3    H115324   1.691   3.479   1.394
 5127TIP3    H215325   1.716   3.602   1.477
 5128TIP3   OH215326   8.019   0.802   1.529
 5128TIP3    H115327   7.941   0.791   1.583
 5128TIP3    H215328   7.985   0.822   1.441
 5129TIP3   OH215329   1.630   2.520   2.565
 5129TIP3    H115330   1.706   2.578   2.554
 5129TIP3    H215331   1.584   2.526   2.482
 5130TIP3   OH215332   8.150   0.880   2.692
 5130TIP3    H115333   8.228   0.929   2.717
 5130TIP3    H215334   8.165   0.792   2.725
 5131TIP3   OH215335   6.641   4.417   2.501
 5131TIP3    H115336   6.658   4.375   2.586
 5131TIP3    H215337   6.569   4.477   2.518
 5132TIP3   OH215338   6.389   5.542   5.215
 5132TIP3    H115339   6.440   5.588   5.282
 5132TIP3    H215340   6.343   5.612   5.169
 5133TIP3   OH215341   2.203   0.726   1.692
 5133TIP3    H115342   2.224   0.720   1.599
 5133TIP3    H215343   2.257   0.659   1.733
 5134TIP3   OH215344   3.105   1.011   1.210
 5134TIP3    H115345   3.121   1.034   1.118
 5134TIP3    H215346   3.158   1.073   1.260
 5135TIP3   OH215347   2.103   0.104   3.725
 5135TIP3    H115348   2.021   0.134   3.765
 5135TIP3    H215349   2.085   0.102   3.631
 5136TIP3   OH215350   3.270   1.895   0.975
 5136TIP3    H115351   3.335   1.934   1.033
 5136TIP3    H215352   3.318   1.826   0.928
 5137TIP3   OH215353   7.456   5.311   5.347
 5137TIP3    H115354   7.548   5.330   5.364
 5137TIP3    H215355   7.457   5.234   5.290
 5138TIP3   OH215356   4.577   7.484   5.526
 5138TIP3    H115357   4.630   7.550   5.481
 5138TIP3    H215358   4.631   7.405   5.524
 5139TIP3   OH215359   2.877   2.271   2.613
 5139TIP3    H115360   2.942   2.341   2.609
 5139TIP3    H215361   2.793   2.314   2.596
 5140TIP3   OH215362   0.704   6.348   3.340
 5140TIP3    H115363   0.688   6.408   3.267
 5140TIP3    H215364   0.625   6.355   3.394
 5141TIP3   OH215365   5.520   0.278   0.346
 5141TIP3    H115366   5.470   0.203   0.378
 5141TIP3    H215367   5.548   0.324   0.425
 5142TIP3   OH215368   3.186   3.670   5.158
 5142TIP3    H115369   3.157   3.593   5.208
 5142TIP3    H215370   3.182   3.741   5.222
 5143TIP3   OH215371   1.298   4.090   5.779
 5143TIP3    H115372   1.359   4.067   5.850
 5143TIP3    H215373   1.354   4.101   5.702
 5144TIP3   OH215374   3.405   2.744   4.441
 5144TIP3    H115375   3.449   2.817   4.486
 5144TIP3    H215376   3.476   2.698   4.395
 5145TIP3   OH215377   6.067   3.715   5.848
 5145TIP3    H115378   6.139   3.715   5.785
 5145TIP3    H215379   6.002   3.657   5.810
 5146TIP3   OH215380   5.963   3.020   5.340
 5146TIP3    H115381   5.954   2.949   5.402
 5146TIP3    H215382   5.968   2.977   5.254
 5147TIP3   OH215383   2.982   2.098   4.972
 5147TIP3    H115384   3.066   2.098   5.016
 5147TIP3    H215385   2.997   2.144   4.889
 5148TIP3   OH215386   1.524   0.368   5.545
 5148TIP3    H115387   1.436   0.333   5.531
 5148TIP3    H215388   1.569   0.299   5.594
 5149TIP3   OH215389   7.969   2.096   6.755
 5149TIP3    H115390   8.007   2.099   6.668
 5149TIP3    H215391   7.963   2.188   6.782
 5150TIP3   OH215392   1.870   4.770   5.938
 5150TIP3    H115393   1.869   4.769   6.034
 5150TIP3    H215394   1.810   4.699   5.914
 5151TIP3   OH215395   0.654   1.513   6.597
 5151TIP3    H115396   0.624   1.603   6.587
 5151TIP3    H215397   0.661   1.500   6.692
 5152TIP3   OH215398   2.726   7.390   6.418
 5152TIP3    H115399   2.751   7.297   6.420
 5152TIP3    H215400   2.644   7.393   6.466
 5153TIP3   OH215401   4.440   7.217   4.681
 5153TIP3    H115402   4.463   7.187   4.769
 5153TIP3    H215403   4.489   7.298   4.669
 5154TIP3   OH215404   0.635   6.154   5.493
 5154TIP3    H115405   0.683   6.073   5.512
 5154TIP3    H215406   0.652   6.210   5.568
 5155TIP3   OH215407   3.153   3.851   2.059
 5155TIP3    H115408   3.220   3.881   2.119
 5155TIP3    H215409   3.158   3.913   1.985
 5156TIP3   OH215410   3.879   2.876   1.479
 5156TIP3    H115411   3.824   2.897   1.555
 5156TIP3    H215412   3.942   2.949   1.474
 5157TIP3   OH215413   7.961   6.696   1.544
 5157TIP3    H115414   7.910   6.725   1.469
 5157TIP3    H215415   7.925   6.610   1.566
 5158TIP3   OH215416   6.886   6.928   5.350
 5158TIP3    H115417   6.921   6.908   5.436
 5158TIP3    H215418   6.795   6.953   5.367
 5159TIP3   OH215419   6.150   0.307   4.390
 5159TIP3    H115420   6.092   0.325   4.464
 5159TIP3    H215421   6.091   0.300   4.315
 5160TIP3   OH215422   2.569   4.784   0.340
 5160TIP3    H115423   2.535   4.703   0.303
 5160TIP3    H215424   2.492   4.839   0.354
 5161TIP3   OH215425   6.610   7.248   0.559
 5161TIP3    H115426   6.673   7.248   0.487
 5161TIP3    H215427   6.615   7.337   0.595
 5162TIP3   OH215428   3.372   0.275   5.689
 5162TIP3    H115429   3.423   0.205   5.728
 5162TIP3    H215430   3.437   0.334   5.649
 5163TIP3   OH215431   3.894   0.581   5.072
 5163TIP3    H115432   3.861   0.565   5.160
 5163TIP3    H215433   3.820   0.619   5.024
 5164TIP3   OH215434   0.731   3.285   4.375
 5164TIP3    H115435   0.664   3.305   4.310
 5164TIP3    H215436   0.808   3.336   4.348
 5165TIP3   OH215437   5.361   7.624   3.500
 5165TIP3    H115438   5.277   7.579   3.497
 5165TIP3    H215439   5.424   7.556   3.522
 5166TIP3   OH215440   0.431   4.969   5.427
 5166TIP3    H115441   0.448   5.032   5.497
 5166TIP3    H215442   0.393   5.022   5.357
 5167TIP3   OH215443   3.199   2.416   0.460
 5167TIP3    H115444   3.263   2.487   0.457
 5167TIP3    H215445   3.245   2.341   0.422
 5168TIP3   OH215446   0.997   1.326   2.223
 5168TIP3    H115447   1.066   1.260   2.234
 5168TIP3    H215448   1.041   1.399   2.180
 5169TIP3   OH215449   2.401   3.243   0.953
 5169TIP3    H115450   2.370   3.333   0.937
 5169TIP3    H215451   2.448   3.248   1.037
 5170TIP3   OH215452   6.216   3.931   2.789
 5170TIP3    H115453   6.150   4.000   2.777
 5170TIP3    H215454   6.178   3.855   2.745
 5171TIP3   OH215455   1.618   1.533   2.841
 5171TIP3    H115456   1.523   1.534   2.827
 5171TIP3    H215457   1.629   1.570   2.929
 5172TIP3   OH215458   2.145   1.098   6.573
 5172TIP3    H115459   2.132   1.077   6.481
 5172TIP3    H215460   2.240   1.095   6.585
 5173TIP3   OH215461   5.786   5.197   2.858
 5173TIP3    H115462   5.725   5.206   2.785
 5173TIP3    H215463   5.873   5.192   2.816
 5174TIP3   OH215464   1.186   3.759   4.184
 5174TIP3    H115465   1.254   3.792   4.244
 5174TIP3    H215466   1.197   3.812   4.105
 5175TIP3   OH215467   8.048   3.818   0.515
 5175TIP3    H115468   8.122   3.872   0.541
 5175TIP3    H215469   7.975   3.879   0.506
 5176TIP3   OH215470   7.227   5.142   5.717
 5176TIP3    H115471   7.280   5.088   5.659
 5176TIP3    H215472   7.256   5.231   5.700
 5177TIP3   OH215473   6.257   7.251   3.823
 5177TIP3    H115474   6.241   7.235   3.916
 5177TIP3    H215475   6.236   7.167   3.781
 5178TIP3   OH215476   8.154   4.761   1.515
 5178TIP3    H115477   8.111   4.837   1.555
 5178TIP3    H215478   8.141   4.691   1.579
 5179TIP3   OH215479   5.788   4.484   2.851
 5179TIP3    H115480   5.792   4.408   2.793
 5179TIP3    H215481   5.734   4.547   2.803
 5180TIP3   OH215482   2.861   1.299   4.258
 5180TIP3    H115483   2.807   1.372   4.289
 5180TIP3    H215484   2.928   1.340   4.204
 5181TIP3   OH215485   6.239   3.988   6.254
 5181TIP3    H115486   6.312   3.934   6.284
 5181TIP3    H215487   6.236   4.061   6.315
 5182TIP3   OH215488   1.042   6.135   4.169
 5182TIP3    H115489   0.990   6.144   4.249
 5182TIP3    H215490   1.106   6.207   4.173
 5183TIP3   OH215491   5.519   3.699   5.519
 5183TIP3    H115492   5.572   3.736   5.589
 5183TIP3    H215493   5.555   3.611   5.506
 5184TIP3   OH215494   0.408   6.450   5.431
 5184TIP3    H115495   0.462   6.529   5.431
 5184TIP3    H215496   0.342   6.466   5.363
 5185TIP3   OH215497   5.915   4.382   6.361
 5185TIP3    H115498   5.996   4.383   6.413
 5185TIP3    H215499   5.870   4.462   6.387
 5186TIP3   OH215500   3.056   3.946   2.742
 5186TIP3    H115501   3.120   3.979   2.806
 5186TIP3    H215502   2.991   4.016   2.736
 5187TIP3   OH215503   3.576   2.021   0.925
 5187TIP3    H115504   3.545   1.976   1.003
 5187TIP3    H215505   3.641   2.084   0.957
 5188TIP3   OH215506   0.165   1.268   2.652
 5188TIP3    H115507   0.234   1.236   2.595
 5188TIP3    H215508   0.210   1.318   2.720
 5189TIP3   OH215509   0.329   5.011   0.183
 5189TIP3    H115510   0.288   5.088   0.223
 5189TIP3    H215511   0.299   5.013   0.092
 5190TIP3   OH215512   7.504   6.319   2.836
 5190TIP3    H115513   7.441   6.248   2.838
 5190TIP3    H215514   7.492   6.360   2.750
 5191TIP3   OH215515   4.881   3.960  -0.036
 5191TIP3    H115516   4.828   3.939   0.041
 5191TIP3    H215517   4.873   4.055  -0.046
 5192TIP3   OH215518   3.227   3.671   3.661
 5192TIP3    H115519   3.189   3.583   3.661
 5192TIP3    H215520   3.164   3.723   3.712
 5193TIP3   OH215521   4.593   4.079   2.081
 5193TIP3    H115522   4.568   4.137   2.153
 5193TIP3    H215523   4.652   4.132   2.027
 5194TIP3   OH215524   0.098   0.535   1.551
 5194TIP3    H115525   0.090   0.467   1.485
 5194TIP3    H215526   0.184   0.519   1.592
 5195TIP3   OH215527   7.594   0.483   2.642
 5195TIP3    H115528   7.562   0.571   2.621
 5195TIP3    H215529   7.635   0.492   2.728
 5196TIP3   OH215530   6.224   2.774   0.157
 5196TIP3    H115531   6.269   2.690   0.144
 5196TIP3    H215532   6.149   2.752   0.211
 5197TIP3   OH215533   5.915   3.875   6.664
 5197TIP3    H115534   5.926   3.832   6.579
 5197TIP3    H215535   5.820   3.879   6.676
 5198TIP3   OH215536   3.777   5.806   0.600
 5198TIP3    H115537   3.859   5.814   0.551
 5198TIP3    H215538   3.731   5.888   0.585
 5199TIP3   OH215539   3.993   2.048   1.440
 5199TIP3    H115540   4.071   2.007   1.477
 5199TIP3    H215541   4.017   2.068   1.349
 5200TIP3   OH215542   2.092   6.347   3.906
 5200TIP3    H115543   2.054   6.401   3.837
 5200TIP3    H215544   2.120   6.409   3.973
 5201TIP3   OH215545   7.302   3.410   0.364
 5201TIP3    H115546   7.388   3.416   0.322
 5201TIP3    H215547   7.245   3.372   0.297
 5202TIP3   OH215548   4.843   6.246   2.861
 5202TIP3    H115549   4.907   6.292   2.915
 5202TIP3    H215550   4.814   6.173   2.916
 5203TIP3   OH215551   3.238   2.253   4.113
 5203TIP3    H115552   3.283   2.268   4.030
 5203TIP3    H215553   3.277   2.316   4.174
 5204TIP3   OH215554   6.547   7.145   1.311
 5204TIP3    H115555   6.569   7.060   1.274
 5204TIP3    H215556   6.602   7.207   1.263
 5205TIP3   OH215557   2.502   6.360   4.246
 5205TIP3    H115558   2.455   6.435   4.209
 5205TIP3    H215559   2.588   6.394   4.267
 5206TIP3   OH215560   5.204   2.577   4.960
 5206TIP3    H115561   5.150   2.656   4.958
 5206TIP3    H215562   5.222   2.558   4.868
 5207TIP3   OH215563   7.597   6.150   0.671
 5207TIP3    H115564   7.505   6.143   0.696
 5207TIP3    H215565   7.626   6.235   0.704
 5208TIP3   OH215566   1.963   4.925   5.353
 5208TIP3    H115567   1.946   4.898   5.263
 5208TIP3    H215568   2.058   4.933   5.358
 5209TIP3   OH215569   6.761   2.919   1.687
 5209TIP3    H115570   6.823   2.981   1.648
 5209TIP3    H215571   6.816   2.852   1.728
 5210TIP3   OH215572   1.987   6.034   0.454
 5210TIP3    H115573   1.943   6.063   0.533
 5210TIP3    H215574   2.057   5.976   0.486
 5211TIP3   OH215575   1.570   3.243   5.346
 5211TIP3    H115576   1.496   3.225   5.289
 5211TIP3    H215577   1.628   3.167   5.334
 5212TIP3   OH215578   7.382   6.292   5.875
 5212TIP3    H115579   7.422   6.372   5.910
 5212TIP3    H215580   7.404   6.293   5.782
 5213TIP3   OH215581   1.741   2.153   3.426
 5213TIP3    H115582   1.816   2.151   3.485
 5213TIP3    H215583   1.666   2.131   3.482
 5214TIP3   OH215584   1.178   3.223   3.479
 5214TIP3    H115585   1.091   3.185   3.461
 5214TIP3    H215586   1.168   3.263   3.566
 5215TIP3   OH215587   6.781   2.526   4.430
 5215TIP3    H115588   6.745   2.586   4.365
 5215TIP3    H215589   6.865   2.498   4.393
 5216TIP3   OH215590   5.837   1.854   6.253
 5216TIP3    H115591   5.878   1.808   6.179
 5216TIP3    H215592   5.743   1.843   6.238
 5217TIP3   OH215593   1.536   2.615   5.507
 5217TIP3    H115594   1.524   2.634   5.599
 5217TIP3    H215595   1.494   2.530   5.494
 5218TIP3   OH215596   3.178   5.571   0.742
 5218TIP3    H115597   3.243   5.618   0.794
 5218TIP3    H215598   3.176   5.617   0.658
 5219TIP3   OH215599   0.336   6.359   4.595
 5219TIP3    H115600   0.417   6.350   4.646
 5219TIP3    H215601   0.361   6.336   4.506
 5220TIP3   OH215602   5.245   0.163   3.162
 5220TIP3    H115603   5.317   0.192   3.107
 5220TIP3    H215604   5.235   0.070   3.142
 5221TIP3   OH215605   0.705   6.081   0.325
 5221TIP3    H115606   0.749   6.010   0.279
 5221TIP3    H215607   0.769   6.153   0.326
 5222TIP3   OH215608   0.168   4.190   3.368
 5222TIP3    H115609   0.076   4.206   3.344
 5222TIP3    H215610   0.217   4.257   3.320
 5223TIP3   OH215611   6.475   5.843   1.786
 5223TIP3    H115612   6.407   5.889   1.736
 5223TIP3    H215613   6.457   5.865   1.877
 5224TIP3   OH215614   4.253   1.858   1.102
 5224TIP3    H115615   4.343   1.836   1.077
 5224TIP3    H215616   4.263   1.915   1.178
 5225TIP3   OH215617   3.323   7.719   6.443
 5225TIP3    H115618   3.298   7.755   6.358
 5225TIP3    H215619   3.312   7.625   6.434
 5226TIP3   OH215620   8.094   1.478   2.288
 5226TIP3    H115621   8.125   1.424   2.360
 5226TIP3    H215622   8.077   1.416   2.217
 5227TIP3   OH215623   0.337   7.523   2.759
 5227TIP3    H115624   0.418   7.543   2.805
 5227TIP3    H215625   0.270   7.523   2.827
 5228TIP3   OH215626   4.774   1.380   0.629
 5228TIP3    H115627   4.868   1.374   0.649
 5228TIP3    H215628   4.730   1.366   0.712
 5229TIP3   OH215629   0.499   5.075   3.820
 5229TIP3    H115630   0.573   5.033   3.778
 5229TIP3    H215631   0.501   5.045   3.910
 5230TIP3   OH215632   5.489   4.316   5.435
 5230TIP3    H115633   5.520   4.391   5.384
 5230TIP3    H215634   5.560   4.299   5.497
 5231TIP3   OH215635   7.749   3.044   6.245
 5231TIP3    H115636   7.812   3.052   6.174
 5231TIP3    H215637   7.795   3.078   6.322
 5232TIP3   OH215638   4.136   4.380   4.091
 5232TIP3    H115639   4.227   4.409   4.100
 5232TIP3    H215640   4.141   4.299   4.040
 5233TIP3   OH215641   0.440   1.232   4.597
 5233TIP3    H115642   0.377   1.174   4.555
 5233TIP3    H215643   0.479   1.179   4.667
 5234TIP3   OH215644   6.668   3.902   0.957
 5234TIP3    H115645   6.706   3.936   1.038
 5234TIP3    H215646   6.740   3.857   0.914
 5235TIP3   OH215647   1.033   0.499   5.636
 5235TIP3    H115648   1.121   0.461   5.635
 5235TIP3    H215649   1.017   0.523   5.545
 5236TIP3   OH215650   4.295   5.275   4.469
 5236TIP3    H115651   4.347   5.234   4.538
 5236TIP3    H215652   4.216   5.304   4.513
 5237TIP3   OH215653   1.290   5.791   3.934
 5237TIP3    H115654   1.372   5.827   3.969
 5237TIP3    H215655   1.227   5.801   4.006
 5238TIP3   OH215656   2.498   0.055   3.952
 5238TIP3    H115657   2.442  -0.022   3.959
 5238TIP3    H215658   2.441   0.123   3.915
 5239TIP3   OH215659   4.011   5.173   2.546
 5239TIP3    H115660   4.008   5.130   2.631
 5239TIP3    H215661   4.034   5.104   2.484
 5240TIP3   OH215662   8.270   5.235   5.125
 5240TIP3    H115663   8.248   5.304   5.063
 5240TIP3    H215664   8.243   5.154   5.082
 5241TIP3   OH215665   3.084   1.087   6.364
 5241TIP3    H115666   3.077   1.136   6.445
 5241TIP3    H215667   3.026   1.132   6.303
 5242TIP3   OH215668   7.898   0.077   5.912
 5242TIP3    H115669   7.948   0.128   5.975
 5242TIP3    H215670   7.919  -0.014   5.933
 5243TIP3   OH215671   0.290   7.797   2.265
 5243TIP3    H115672   0.263   7.886   2.243
 5243TIP3    H215673   0.230   7.770   2.335
 5244TIP3   OH215674   1.181   1.393   4.557
 5244TIP3    H115675   1.128   1.466   4.524
 5244TIP3    H215676   1.268   1.407   4.520
 5245TIP3   OH215677   3.219   3.170   1.051
 5245TIP3    H115678   3.148   3.194   0.992
 5245TIP3    H215679   3.297   3.168   0.995
 5246TIP3   OH215680   2.087   5.038   6.404
 5246TIP3    H115681   2.085   4.946   6.428
 5246TIP3    H215682   2.152   5.078   6.461
 5247TIP3   OH215683   1.905   3.995   6.024
 5247TIP3    H115684   1.908   3.926   6.091
 5247TIP3    H215685   1.942   3.954   5.946
 5248TIP3   OH215686   4.875   4.679   3.472
 5248TIP3    H115687   4.945   4.696   3.409
 5248TIP3    H215688   4.808   4.745   3.452
 5249TIP3   OH215689   0.122   1.633   2.166
 5249TIP3    H115690   0.212   1.666   2.162
 5249TIP3    H215691   0.129   1.542   2.138
 5250TIP3   OH215692   6.120   2.290   1.693
 5250TIP3    H115693   6.157   2.378   1.698
 5250TIP3    H215694   6.162   2.242   1.764
 5251TIP3   OH215695   7.418   6.134   5.552
 5251TIP3    H115696   7.379   6.175   5.474
 5251TIP3    H215697   7.490   6.192   5.575
 5252TIP3   OH215698   2.949   2.977   5.640
 5252TIP3    H115699   2.981   2.941   5.722
 5252TIP3    H215700   2.870   2.926   5.620
 5253TIP3   OH215701   3.078   4.834   3.510
 5253TIP3    H115702   3.102   4.922   3.481
 5253TIP3    H215703   3.161   4.787   3.518
 5254TIP3   OH215704   4.801   3.900   2.154
 5254TIP3    H115705   4.726   3.950   2.122
 5254TIP3    H215706   4.874   3.928   2.099
 5255TIP3   OH215707   0.314   6.329   2.857
 5255TIP3    H115708   0.398   6.370   2.834
 5255TIP3    H215709   0.335   6.236   2.867
 5256TIP3   OH215710   0.335   7.127   5.502
 5256TIP3    H115711   0.311   7.047   5.455
 5256TIP3    H215712   0.384   7.179   5.438
 5257TIP3   OH215713   7.010   4.170   6.516
 5257TIP3    H115714   6.948   4.122   6.461
 5257TIP3    H215715   7.070   4.103   6.548
 5258TIP3   OH215716   4.717   1.688   2.516
 5258TIP3    H115717   4.718   1.593   2.499
 5258TIP3    H215718   4.711   1.728   2.429
 5259TIP3   OH215719   1.315   2.966   5.120
 5259TIP3    H115720   1.349   2.888   5.164
 5259TIP3    H215721   1.364   2.972   5.039
 5260TIP3   OH215722   7.309   3.285   0.618
 5260TIP3    H115723   7.355   3.206   0.591
 5260TIP3    H215724   7.293   3.333   0.537
 5261TIP3   OH215725   0.043   3.461   6.707
 5261TIP3    H115726  -0.036   3.467   6.760
 5261TIP3    H215727   0.034   3.532   6.643
 5262TIP3   OH215728   6.610   2.693   2.437
 5262TIP3    H115729   6.534   2.669   2.384
 5262TIP3    H215730   6.575   2.754   2.502
 5263TIP3   OH215731   5.139   2.515   4.272
 5263TIP3    H115732   5.081   2.589   4.293
 5263TIP3    H215733   5.225   2.555   4.258
 5264TIP3   OH215734   8.043   2.638   2.672
 5264TIP3    H115735   8.110   2.589   2.719
 5264TIP3    H215736   7.960   2.598   2.701
 5265TIP3   OH215737   6.310   6.432   5.898
 5265TIP3    H115738   6.341   6.469   5.980
 5265TIP3    H215739   6.390   6.407   5.851
 5266TIP3   OH215740   2.173   0.659   4.067
 5266TIP3    H115741   2.195   0.582   4.013
 5266TIP3    H215742   2.118   0.713   4.010
 5267TIP3   OH215743   2.666   1.208   1.567
 5267TIP3    H115744   2.633   1.261   1.494
 5267TIP3    H215745   2.594   1.207   1.631
 5268TIP3   OH215746   2.032   0.635   6.650
 5268TIP3    H115747   1.939   0.640   6.626
 5268TIP3    H215748   2.039   0.689   6.729
 5269TIP3   OH215749   0.342   2.351   5.426
 5269TIP3    H115750   0.355   2.372   5.519
 5269TIP3    H215751   0.251   2.373   5.408
 5270TIP3   OH215752   6.548   1.632   0.413
 5270TIP3    H115753   6.505   1.553   0.445
 5270TIP3    H215754   6.641   1.618   0.432
 5271TIP3   OH215755   3.867   2.365   3.508
 5271TIP3    H115756   3.823   2.350   3.424
 5271TIP3    H215757   3.944   2.417   3.485
 5272TIP3   OH215758   0.218   7.516   2.453
 5272TIP3    H115759   0.145   7.578   2.446
 5272TIP3    H215760   0.276   7.553   2.519
 5273TIP3   OH215761   4.330   1.272   5.450
 5273TIP3    H115762   4.405   1.326   5.426
 5273TIP3    H215763   4.366   1.184   5.461
 5274TIP3   OH215764   0.507   3.415   1.248
 5274TIP3    H115765   0.562   3.364   1.308
 5274TIP3    H215766   0.417   3.393   1.274
 5275TIP3   OH215767   7.871   0.215   2.980
 5275TIP3    H115768   7.793   0.206   3.034
 5275TIP3    H215769   7.875   0.134   2.929
 5276TIP3   OH215770   7.186   5.169   1.041
 5276TIP3    H115771   7.159   5.090   1.088
 5276TIP3    H215772   7.165   5.241   1.100
 5277TIP3   OH215773   2.585   2.286   3.734
 5277TIP3    H115774   2.601   2.381   3.729
 5277TIP3    H215775   2.527   2.268   3.660
 5278TIP3   OH215776   5.228   4.061   3.229
 5278TIP3    H115777   5.253   4.007   3.304
 5278TIP3    H215778   5.160   4.011   3.185
 5279TIP3   OH215779   5.811   3.120   0.501
 5279TIP3    H115780   5.861   3.161   0.571
 5279TIP3    H215781   5.775   3.041   0.540
 5280TIP3   OH215782   6.384   5.328   4.211
 5280TIP3    H115783   6.330   5.259   4.250
 5280TIP3    H215784   6.450   5.347   4.278
 5281TIP3   OH215785   3.575   7.649   4.602
 5281TIP3    H115786   3.563   7.590   4.527
 5281TIP3    H215787   3.487   7.677   4.625
 5282TIP3   OH215788   5.355   7.303   1.125
 5282TIP3    H115789   5.353   7.233   1.059
 5282TIP3    H215790   5.411   7.268   1.195
 5283TIP3   OH215791   4.289   0.905   0.714
 5283TIP3    H115792   4.248   0.825   0.744
 5283TIP3    H215793   4.233   0.975   0.748
 5284TIP3   OH215794   5.651   5.611   0.399
 5284TIP3    H115795   5.685   5.525   0.424
 5284TIP3    H215796   5.577   5.626   0.458
 5285TIP3   OH215797   1.299   3.916   2.876
 5285TIP3    H115798   1.231   3.953   2.932
 5285TIP3    H215799   1.381   3.949   2.913
 5286TIP3   OH215800   1.402   6.375   4.964
 5286TIP3    H115801   1.396   6.335   4.877
 5286TIP3    H215802   1.390   6.469   4.948
 5287TIP3   OH215803   4.356   2.320   2.558
 5287TIP3    H115804   4.332   2.229   2.575
 5287TIP3    H215805   4.273   2.364   2.539
 5288TIP3   OH215806   2.763   0.029   3.062
 5288TIP3    H115807   2.826   0.058   3.128
 5288TIP3    H215808   2.694  -0.015   3.113
 5289TIP3   OH215809   0.587   2.934   5.966
 5289TIP3    H115810   0.573   2.867   6.032
 5289TIP3    H215811   0.574   3.017   6.012
 5290TIP3   OH215812   6.596   3.078   3.458
 5290TIP3    H115813   6.628   3.154   3.410
 5290TIP3    H215814   6.578   3.112   3.546
 5291TIP3   OH215815   2.474   3.273   3.688
 5291TIP3    H115816   2.545   3.292   3.626
 5291TIP3    H215817   2.471   3.350   3.745
 5292TIP3   OH215818   5.567   1.112   5.868
 5292TIP3    H115819   5.640   1.060   5.834
 5292TIP3    H215820   5.503   1.048   5.899
 5293TIP3   OH215821   2.398   5.992   5.338
 5293TIP3    H115822   2.430   6.014   5.250
 5293TIP3    H215823   2.444   6.052   5.396
 5294TIP3   OH215824   4.826   1.331   4.540
 5294TIP3    H115825   4.738   1.295   4.549
 5294TIP3    H215826   4.864   1.286   4.464
 5295TIP3   OH215827   6.220   6.972   6.515
 5295TIP3    H115828   6.297   6.971   6.458
 5295TIP3    H215829   6.164   6.902   6.482
 5296TIP3   OH215830   7.516   1.541   5.845
 5296TIP3    H115831   7.421   1.546   5.835
 5296TIP3    H215832   7.546   1.500   5.764
 5297TIP3   OH215833   1.399   1.640   0.464
 5297TIP3    H115834   1.312   1.600   0.467
 5297TIP3    H215835   1.441   1.599   0.389
 5298TIP3   OH215836   8.074   6.340   5.677
 5298TIP3    H115837   8.100   6.254   5.710
 5298TIP3    H215838   7.991   6.359   5.720
 5299TIP3   OH215839   0.983   5.576   3.986
 5299TIP3    H115840   1.036   5.650   4.015
 5299TIP3    H215841   1.003   5.567   3.893
 5300TIP3   OH215842   2.018   6.577   6.072
 5300TIP3    H115843   2.023   6.494   6.023
 5300TIP3    H215844   1.957   6.630   6.021
 5301TIP3   OH215845   0.422   1.353  -0.038
 5301TIP3    H115846   0.482   1.284  -0.010
 5301TIP3    H215847   0.383   1.385   0.043
 5302TIP3   OH215848   6.502   3.688   1.680
 5302TIP3    H115849   6.436   3.618   1.680
 5302TIP3    H215850   6.472   3.749   1.748
 5303TIP3   OH215851   3.385   7.119   2.821
 5303TIP3    H115852   3.298   7.135   2.786
 5303TIP3    H215853   3.408   7.031   2.789
 5304TIP3   OH215854   3.328   4.895   3.831
 5304TIP3    H115855   3.318   4.882   3.737
 5304TIP3    H215856   3.387   4.826   3.859
 5305TIP3   OH215857   2.682   6.942   4.548
 5305TIP3    H115858   2.725   6.872   4.500
 5305TIP3    H215859   2.737   7.019   4.533
 5306TIP3   OH215860   5.084   6.952   5.277
 5306TIP3    H115861   5.077   6.862   5.246
 5306TIP3    H215862   5.036   7.004   5.213
 5307TIP3   OH215863   3.447   6.049   4.408
 5307TIP3    H115864   3.471   5.959   4.426
 5307TIP3    H215865   3.422   6.084   4.494
 5308TIP3   OH215866   7.230   0.372   0.733
 5308TIP3    H115867   7.141   0.344   0.751
 5308TIP3    H215868   7.266   0.397   0.818
 5309TIP3   OH215869   4.847   0.720   6.697
 5309TIP3    H115870   4.853   0.780   6.771
 5309TIP3    H215871   4.852   0.633   6.736
 5310TIP3   OH215872   4.983   2.204   4.148
 5310TIP3    H115873   4.968   2.140   4.079
 5310TIP3    H215874   5.055   2.258   4.116
 5311TIP3   OH215875   3.769   5.991   2.380
 5311TIP3    H115876   3.749   5.904   2.346
 5311TIP3    H215877   3.687   6.022   2.418
 5312TIP3   OH215878   4.246   4.232   3.160
 5312TIP3    H115879   4.287   4.156   3.200
 5312TIP3    H215880   4.229   4.206   3.069
 5313TIP3   OH215881   4.429   6.862   3.215
 5313TIP3    H115882   4.425   6.918   3.138
 5313TIP3    H215883   4.456   6.777   3.181
 5314TIP3   OH215884   0.967   2.374   6.678
 5314TIP3    H115885   1.026   2.303   6.655
 5314TIP3    H215886   0.881   2.345   6.647
 5315TIP3   OH215887   4.217   3.653   3.336
 5315TIP3    H115888   4.305   3.619   3.352
 5315TIP3    H215889   4.172   3.644   3.420
 5316TIP3   OH215890   5.749   7.141   3.265
 5316TIP3    H115891   5.825   7.190   3.232
 5316TIP3    H215892   5.725   7.186   3.346
 5317TIP3   OH215893   3.542   5.082   2.380
 5317TIP3    H115894   3.469   5.041   2.427
 5317TIP3    H215895   3.507   5.165   2.348
 5318TIP3   OH215896   3.214   1.278   0.802
 5318TIP3    H115897   3.153   1.334   0.850
 5318TIP3    H215898   3.207   1.193   0.846
 5319TIP3   OH215899   3.788   3.895   5.527
 5319TIP3    H115900   3.776   3.851   5.442
 5319TIP3    H215901   3.699   3.916   5.555
 5320TIP3   OH215902   7.672   2.409   1.198
 5320TIP3    H115903   7.608   2.359   1.248
 5320TIP3    H215904   7.646   2.500   1.210
 5321TIP3   OH215905   2.741   4.591   0.724
 5321TIP3    H115906   2.778   4.548   0.801
 5321TIP3    H215907   2.811   4.588   0.659
 5322TIP3   OH215908   1.913   2.331   3.758
 5322TIP3    H115909   1.941   2.407   3.809
 5322TIP3    H215910   1.819   2.342   3.749
 5323TIP3   OH215911   1.180   0.854   0.636
 5323TIP3    H115912   1.257   0.846   0.580
 5323TIP3    H215913   1.140   0.768   0.634
 5324TIP3   OH215914   1.244   6.569   6.538
 5324TIP3    H115915   1.224   6.538   6.626
 5324TIP3    H215916   1.327   6.527   6.516
 5325TIP3   OH215917   3.089   0.423   4.218
 5325TIP3    H115918   3.063   0.515   4.214
 5325TIP3    H215919   3.023   0.381   4.275
 5326TIP3   OH215920   3.308   7.146   4.153
 5326TIP3    H115921   3.220   7.109   4.152
 5326TIP3    H215922   3.302   7.226   4.102
 5327TIP3   OH215923   4.804   0.834   2.867
 5327TIP3    H115924   4.809   0.905   2.803
 5327TIP3    H215925   4.722   0.790   2.849
 5328TIP3   OH215926   0.220   3.245   0.637
 5328TIP3    H115927   0.158   3.173   0.647
 5328TIP3    H215928   0.181   3.318   0.684
 5329TIP3   OH215929   1.530   5.548   4.515
 5329TIP3    H115930   1.527   5.518   4.606
 5329TIP3    H215931   1.620   5.535   4.488
 5330TIP3   OH215932   6.689   4.076   2.012
 5330TIP3    H115933   6.743   4.012   1.965
 5330TIP3    H215934   6.746   4.106   2.083
 5331TIP3   OH215935   4.716   3.097   4.978
 5331TIP3    H115936   4.715   3.182   4.935
 5331TIP3    H215937   4.797   3.055   4.947
 5332TIP3   OH215938   1.471   6.332   5.528
 5332TIP3    H115939   1.524   6.368   5.457
 5332TIP3    H215940   1.380   6.344   5.498
 5333TIP3   OH215941   2.744   4.552   4.926
 5333TIP3    H115942   2.656   4.549   4.966
 5333TIP3    H215943   2.795   4.605   4.987
 5334TIP3   OH215944   3.462   3.448   3.754
 5334TIP3    H115945   3.480   3.533   3.795
 5334TIP3    H215946   3.367   3.438   3.760
 5335TIP3   OH215947   7.964   5.361   6.475
 5335TIP3    H115948   7.967   5.270   6.505
 5335TIP3    H215949   8.003   5.358   6.387
 5336TIP3   OH215950   6.292   4.447   4.740
 5336TIP3    H115951   6.224   4.510   4.764
 5336TIP3    H215952   6.252   4.395   4.671
 5337TIP3   OH215953   1.895   5.934   1.785
 5337TIP3    H115954   1.947   5.899   1.713
 5337TIP3    H215955   1.876   6.024   1.759
 5338TIP3   OH215956   2.070   7.418   3.172
 5338TIP3    H115957   2.147   7.472   3.191
 5338TIP3    H215958   2.023   7.413   3.256
 5339TIP3   OH215959   7.369   1.951   1.833
 5339TIP3    H115960   7.414   1.894   1.895
 5339TIP3    H215961   7.406   2.038   1.850
 5340TIP3   OH215962   6.907   4.175   1.532
 5340TIP3    H115963   6.966   4.241   1.569
 5340TIP3    H215964   6.956   4.136   1.460
 5341TIP3   OH215965   0.275   0.260   3.645
 5341TIP3    H115966   0.190   0.303   3.658
 5341TIP3    H215967   0.339   0.329   3.659
 5342TIP3   OH215968   5.780   4.762   6.056
 5342TIP3    H115969   5.866   4.793   6.027
 5342TIP3    H215970   5.748   4.830   6.115
 5343TIP3   OH215971   0.756   5.124   4.193
 5343TIP3    H115972   0.826   5.131   4.128
 5343TIP3    H215973   0.731   5.032   4.191
 5344TIP3   OH215974   4.796   5.366   6.180
 5344TIP3    H115975   4.869   5.396   6.235
 5344TIP3    H215976   4.717   5.393   6.228
 5345TIP3   OH215977   3.832   7.210   6.005
 5345TIP3    H115978   3.751   7.210   6.057
 5345TIP3    H215979   3.850   7.302   5.989
 5346TIP3   OH215980   5.209   6.537   4.750
 5346TIP3    H115981   5.160   6.607   4.707
 5346TIP3    H215982   5.151   6.507   4.821
 5347TIP3   OH215983   6.860   2.685   1.771
 5347TIP3    H115984   6.868   2.660   1.679
 5347TIP3    H215985   6.789   2.629   1.804
 5348TIP3   OH215986   7.371   5.822   0.178
 5348TIP3    H115987   7.312   5.863   0.242
 5348TIP3    H215988   7.336   5.849   0.093
 5349TIP3   OH215989   4.867   0.283   2.047
 5349TIP3    H115990   4.914   0.202   2.064
 5349TIP3    H215991   4.927   0.336   1.995
 5350TIP3   OH215992   7.647   4.518   2.290
 5350TIP3    H115993   7.619   4.453   2.226
 5350TIP3    H215994   7.618   4.483   2.374
 5351TIP3   OH215995   1.170   3.735   0.568
 5351TIP3    H115996   1.144   3.707   0.480
 5351TIP3    H215997   1.160   3.657   0.622
 5352TIP3   OH215998   4.835   6.204   3.922
 5352TIP3    H115999   4.915   6.177   3.877
 5352TIP3    H216000   4.849   6.297   3.942
 5353TIP3   OH216001   3.086   3.008   3.275
 5353TIP3    H116002   3.102   2.997   3.181
 5353TIP3    H216003   3.000   2.969   3.289
 5354TIP3   OH216004   5.917   6.659   4.392
 5354TIP3    H116005   5.916   6.633   4.300
 5354TIP3    H216006   6.001   6.627   4.425
 5355TIP3   OH216007   6.795   6.615   0.552
 5355TIP3    H116008   6.799   6.636   0.645
 5355TIP3    H216009   6.720   6.665   0.519
 5356TIP3   OH216010   3.925   1.906   6.631
 5356TIP3    H116011   3.961   1.962   6.563
 5356TIP3    H216012   3.844   1.872   6.593
 5357TIP3   OH216013   8.093   1.425   4.781
 5357TIP3    H116014   8.042   1.373   4.843
 5357TIP3    H216015   8.130   1.360   4.721
 5358TIP3   OH216016   2.380   4.040   1.148
 5358TIP3    H116017   2.454   4.022   1.205
 5358TIP3    H216018   2.362   3.957   1.104
 5359TIP3   OH216019   6.751   1.879   4.826
 5359TIP3    H116020   6.825   1.825   4.800
 5359TIP3    H216021   6.748   1.949   4.761
 5360TIP3   OH216022   7.908   7.345   3.580
 5360TIP3    H116023   7.812   7.348   3.583
 5360TIP3    H216024   7.931   7.388   3.497
 5361TIP3   OH216025   5.515   2.866   0.787
 5361TIP3    H116026   5.446   2.894   0.847
 5361TIP3    H216027   5.579   2.937   0.790
 5362TIP3   OH216028   0.222   7.137   1.523
 5362TIP3    H116029   0.243   7.138   1.430
 5362TIP3    H216030   0.128   7.118   1.526
 5363TIP3   OH216031   4.124   7.690   4.214
 5363TIP3    H116032   4.148   7.694   4.122
 5363TIP3    H216033   4.200   7.649   4.257
 5364TIP3   OH216034   6.276   0.383   5.060
 5364TIP3    H116035   6.279   0.462   5.113
 5364TIP3    H216036   6.355   0.334   5.084
 5365TIP3   OH216037   8.033   0.576   6.437
 5365TIP3    H116038   7.981   0.620   6.503
 5365TIP3    H216039   7.969   0.537   6.377
 5366TIP3   OH216040   3.392   1.810   6.310
 5366TIP3    H116041   3.401   1.765   6.394
 5366TIP3    H216042   3.482   1.827   6.282
 5367TIP3   OH216043   2.718   6.599   1.869
 5367TIP3    H116044   2.751   6.509   1.879
 5367TIP3    H216045   2.655   6.609   1.940
 5368TIP3   OH216046   1.947   0.884   4.448
 5368TIP3    H116047   1.895   0.964   4.449
 5368TIP3    H216048   2.035   0.913   4.424
 5369TIP3   OH216049   8.122   6.017   6.609
 5369TIP3    H116050   8.178   5.948   6.644
 5369TIP3    H216051   8.117   6.082   6.680
 5370TIP3   OH216052   3.720   1.621   1.402
 5370TIP3    H116053   3.631   1.654   1.415
 5370TIP3    H216054   3.714   1.527   1.420
 5371TIP3   OH216055   4.131   4.656   3.144
 5371TIP3    H116056   4.040   4.630   3.126
 5371TIP3    H216057   4.183   4.580   3.117
 5372TIP3   OH216058   4.154   1.452   5.559
 5372TIP3    H116059   4.153   1.517   5.489
 5372TIP3    H216060   4.212   1.383   5.526
 5373TIP3   OH216061   3.755   5.556   5.943
 5373TIP3    H116062   3.762   5.465   5.916
 5373TIP3    H216063   3.688   5.556   6.011
 5374TIP3   OH216064   2.796   3.225   1.241
 5374TIP3    H116065   2.795   3.130   1.236
 5374TIP3    H216066   2.877   3.245   1.289
 5375TIP3   OH216067   0.933   5.124   3.063
 5375TIP3    H116068   0.935   5.219   3.062
 5375TIP3    H216069   0.883   5.100   2.984
 5376TIP3   OH216070   3.586   4.146   4.055
 5376TIP3    H116071   3.566   4.240   4.060
 5376TIP3    H216072   3.654   4.133   4.121
 5377TIP3   OH216073   0.039   5.716   5.335
 5377TIP3    H116074   0.012   5.806   5.348
 5377TIP3    H216075   0.044   5.679   5.423
 5378TIP3   OH216076   4.945   4.273   2.326
 5378TIP3    H116077   4.965   4.187   2.290
 5378TIP3    H216078   4.982   4.273   2.414
 5379TIP3   OH216079   4.284   4.604   2.179
 5379TIP3    H116080   4.376   4.631   2.188
 5379TIP3    H216081   4.266   4.611   2.085
 5380TIP3   OH216082   6.507   4.237   5.863
 5380TIP3    H116083   6.489   4.263   5.772
 5380TIP3    H216084   6.426   4.256   5.910
 5381TIP3   OH216085   0.169   0.130   6.789
 5381TIP3    H116086   0.163   0.058   6.727
 5381TIP3    H216087   0.106   0.195   6.757
 5382TIP3   OH216088   7.010   6.607   0.831
 5382TIP3    H116089   6.936   6.585   0.888
 5382TIP3    H216090   7.026   6.526   0.782
 5383TIP3   OH216091   3.235   6.655   1.088
 5383TIP3    H116092   3.272   6.630   1.173
 5383TIP3    H216093   3.281   6.600   1.025
 5384TIP3   OH216094   4.089   0.148   1.629
 5384TIP3    H116095   4.037   0.226   1.608
 5384TIP3    H216096   4.127   0.121   1.545
 5385TIP3   OH216097   4.703   0.679   6.103
 5385TIP3    H116098   4.713   0.628   6.183
 5385TIP3    H216099   4.649   0.625   6.046
 5386TIP3   OH216100   2.532   2.858   3.150
 5386TIP3    H116101   2.548   2.875   3.243
 5386TIP3    H216102   2.554   2.940   3.107
 5387TIP3   OH216103   1.778   6.323   2.998
 5387TIP3    H116104   1.775   6.390   3.066
 5387TIP3    H216105   1.832   6.253   3.034
 5388TIP3   OH216106   8.186   1.956   5.157
 5388TIP3    H116107   8.227   1.959   5.071
 5388TIP3    H216108   8.122   2.027   5.157
 5389TIP3   OH216109   0.443   3.777   2.299
 5389TIP3    H116110   0.372   3.819   2.348
 5389TIP3    H216111   0.400   3.741   2.221
 5390TIP3   OH216112   6.975   1.319   5.844
 5390TIP3    H116113   7.047   1.258   5.857
 5390TIP3    H216114   6.901   1.265   5.817
 5391TIP3   OH216115   0.320   6.595   2.435
 5391TIP3    H116116   0.298   6.668   2.378
 5391TIP3    H216117   0.344   6.524   2.376
 5392TIP3   OH216118   3.843   6.781   1.209
 5392TIP3    H116119   3.756   6.747   1.229
 5392TIP3    H216120   3.875   6.726   1.138
 5393TIP3   OH216121   1.701   6.694   1.552
 5393TIP3    H116122   1.642   6.770   1.556
 5393TIP3    H216123   1.663   6.638   1.484
 5394TIP3   OH216124   5.373   5.030   4.114
 5394TIP3    H116125   5.316   4.991   4.048
 5394TIP3    H216126   5.314   5.075   4.174
 5395TIP3   OH216127   1.367   4.809   0.347
 5395TIP3    H116128   1.375   4.783   0.439
 5395TIP3    H216129   1.325   4.895   0.350
 5396TIP3   OH216130   2.146   5.584   4.194
 5396TIP3    H116131   2.224   5.599   4.141
 5396TIP3    H216132   2.179   5.577   4.284
 5397TIP3   OH216133   6.185   0.499   3.965
 5397TIP3    H116134   6.162   0.437   4.034
 5397TIP3    H216135   6.218   0.444   3.894
 5398TIP3   OH216136   2.421   1.540   4.761
 5398TIP3    H116137   2.441   1.447   4.771
 5398TIP3    H216138   2.467   1.582   4.833
 5399TIP3   OH216139   7.365   3.890   5.866
 5399TIP3    H116140   7.378   3.965   5.808
 5399TIP3    H216141   7.453   3.863   5.892
 5400TIP3   OH216142   4.641   7.331   3.473
 5400TIP3    H116143   4.721   7.282   3.493
 5400TIP3    H216144   4.660   7.377   3.392
 5401TIP3   OH216145   4.763   6.095   1.826
 5401TIP3    H116146   4.742   6.006   1.798
 5401TIP3    H216147   4.694   6.149   1.788
 5402TIP3   OH216148   1.765   6.457   4.193
 5402TIP3    H116149   1.718   6.540   4.185
 5402TIP3    H216150   1.803   6.459   4.281
 5403TIP3   OH216151   7.486   4.632   4.165
 5403TIP3    H116152   7.401   4.598   4.140
 5403TIP3    H216153   7.539   4.627   4.085
 5404TIP3   OH216154   6.513   3.968   4.305
 5404TIP3    H116155   6.487   3.945   4.216
 5404TIP3    H216156   6.593   4.019   4.295
 5405TIP3   OH216157   2.271   0.924   1.202
 5405TIP3    H116158   2.280   0.970   1.118
 5405TIP3    H216159   2.252   0.834   1.178
 5406TIP3   OH216160   3.586   4.916   1.816
 5406TIP3    H116161   3.506   4.968   1.827
 5406TIP3    H216162   3.633   4.928   1.899
 5407TIP3   OH216163   5.062   1.056   1.619
 5407TIP3    H116164   5.115   1.077   1.695
 5407TIP3    H216165   4.978   1.099   1.635
 5408TIP3   OH216166   7.627   3.443   6.482
 5408TIP3    H116167   7.624   3.484   6.395
 5408TIP3    H216168   7.538   3.451   6.515
 5409TIP3   OH216169   1.473   4.300   6.199
 5409TIP3    H116170   1.405   4.361   6.171
 5409TIP3    H216171   1.519   4.346   6.270
 5410TIP3   OH216172   4.187   5.625   2.660
 5410TIP3    H116173   4.145   5.623   2.574
 5410TIP3    H216174   4.166   5.540   2.699
 5411TIP3   OH216175   8.271   3.249   3.420
 5411TIP3    H116176   8.350   3.301   3.408
 5411TIP3    H216177   8.246   3.263   3.511
 5412TIP3   OH216178   5.898   7.422   0.828
 5412TIP3    H116179   5.931   7.457   0.745
 5412TIP3    H216180   5.927   7.331   0.829
 5413TIP3   OH216181   3.934   4.114   5.639
 5413TIP3    H116182   3.928   4.046   5.572
 5413TIP3    H216183   4.004   4.085   5.697
 5414TIP3   OH216184   6.017   5.120   5.056
 5414TIP3    H116185   6.083   5.183   5.086
 5414TIP3    H216186   5.942   5.174   5.031
 5415TIP3   OH216187   6.253   6.851   0.249
 5415TIP3    H116188   6.288   6.927   0.201
 5415TIP3    H216189   6.267   6.778   0.189
 5416TIP3   OH216190   5.128   7.529   0.395
 5416TIP3    H116191   5.056   7.548   0.456
 5416TIP3    H216192   5.136   7.609   0.343
 5417TIP3   OH216193   7.522   2.008   2.490
 5417TIP3    H116194   7.512   1.923   2.532
 5417TIP3    H216195   7.470   2.068   2.544
 5418TIP3   OH216196   0.061   3.187   6.696
 5418TIP3    H116197   0.085   3.279   6.690
 5418TIP3    H216198   0.033   3.164   6.607
 5419TIP3   OH216199   4.336   2.700   0.856
 5419TIP3    H116200   4.332   2.745   0.771
 5419TIP3    H216201   4.308   2.767   0.919
 5420TIP3   OH216202   8.296   3.106   0.390
 5420TIP3    H116203   8.270   3.196   0.405
 5420TIP3    H216204   8.270   3.059   0.469
 5421TIP3   OH216205   6.074   1.043   0.196
 5421TIP3    H116206   5.980   1.059   0.203
 5421TIP3    H216207   6.088   0.959   0.238
 5422TIP3   OH216208   6.340   0.801   2.118
 5422TIP3    H116209   6.324   0.858   2.193
 5422TIP3    H216210   6.391   0.855   2.058
 5423TIP3   OH216211   0.154   6.561   3.361
 5423TIP3    H116212   0.074   6.588   3.407
 5423TIP3    H216213   0.225   6.590   3.418
 5424TIP3   OH216214   4.360   0.142   6.014
 5424TIP3    H116215   4.289   0.194   6.053
 5424TIP3    H216216   4.438   0.195   6.027
 5425TIP3   OH216217   1.085   5.218   6.083
 5425TIP3    H116218   1.110   5.294   6.030
 5425TIP3    H216219   1.044   5.157   6.021
 5426TIP3   OH216220   6.771   0.748   0.996
 5426TIP3    H116221   6.796   0.791   1.078
 5426TIP3    H216222   6.745   0.819   0.938
 5427TIP3   OH216223   5.852   4.715   0.368
 5427TIP3    H116224   5.885   4.687   0.453
 5427TIP3    H216225   5.783   4.778   0.389
 5428TIP3   OH216226   6.183   4.426   1.505
 5428TIP3    H116227   6.242   4.501   1.509
 5428TIP3    H216228   6.226   4.359   1.559
 5429TIP3   OH216229   8.148   2.477   6.422
 5429TIP3    H116230   8.106   2.504   6.504
 5429TIP3    H216231   8.119   2.542   6.358
 5430TIP3   OH216232   8.205   2.549   0.026
 5430TIP3    H116233   8.147   2.568   0.101
 5430TIP3    H216234   8.262   2.479   0.057
 5431TIP3   OH216235   2.316   5.730   5.336
 5431TIP3    H116236   2.351   5.818   5.322
 5431TIP3    H216237   2.299   5.696   5.248
 5432TIP3   OH216238   7.518   5.944   0.380
 5432TIP3    H116239   7.492   5.907   0.296
 5432TIP3    H216240   7.465   5.898   0.444
 5433TIP3   OH216241   4.127   2.003   1.851
 5433TIP3    H116242   4.194   1.935   1.856
 5433TIP3    H216243   4.095   2.012   1.941
 5434TIP3   OH216244   4.305   7.238   4.967
 5434TIP3    H116245   4.387   7.203   5.000
 5434TIP3    H216246   4.266   7.167   4.916
 5435TIP3   OH216247   5.098   1.858   1.005
 5435TIP3    H116248   5.113   1.788   0.941
 5435TIP3    H216249   5.165   1.923   0.987
 5436TIP3   OH216250   2.522   2.350   3.256
 5436TIP3    H116251   2.617   2.340   3.266
 5436TIP3    H216252   2.496   2.275   3.202
 5437TIP3   OH216253   5.688   0.277   4.687
 5437TIP3    H116254   5.781   0.264   4.669
 5437TIP3    H216255   5.676   0.241   4.775
 5438TIP3   OH216256   3.293   1.487   1.683
 5438TIP3    H116257   3.201   1.508   1.670
 5438TIP3    H216258   3.293   1.408   1.736
 5439TIP3   OH216259   7.601   0.006   6.566
 5439TIP3    H116260   7.579   0.097   6.545
 5439TIP3    H216261   7.520  -0.043   6.549
 5440TIP3   OH216262   0.862   6.797   4.426
 5440TIP3    H116263   0.889   6.879   4.384
 5440TIP3    H216264   0.943   6.747   4.433
 5441TIP3   OH216265   3.325   1.812   0.508
 5441TIP3    H116266   3.352   1.760   0.584
 5441TIP3    H216267   3.232   1.829   0.522
 5442TIP3   OH216268   3.889   0.969   5.171
 5442TIP3    H116269   3.954   0.900   5.183
 5442TIP3    H216270   3.929   1.030   5.109
 5443TIP3   OH216271   3.810   4.679   2.988
 5443TIP3    H116272   3.730   4.627   3.002
 5443TIP3    H216273   3.818   4.731   3.067
 5444TIP3   OH216274   5.844   1.132   6.679
 5444TIP3    H116275   5.932   1.160   6.655
 5444TIP3    H216276   5.832   1.048   6.634
 5445TIP3   OH216277   7.708   6.219   4.279
 5445TIP3    H116278   7.670   6.171   4.353
 5445TIP3    H216279   7.754   6.152   4.228
 5446TIP3   OH216280   6.976   3.105   0.522
 5446TIP3    H116281   6.915   3.166   0.481
 5446TIP3    H216282   7.044   3.090   0.457
 5447TIP3   OH216283   3.860   3.022   2.091
 5447TIP3    H116284   3.876   2.981   2.006
 5447TIP3    H216285   3.932   3.085   2.100
 5448TIP3   OH216286   0.281   2.250   0.565
 5448TIP3    H116287   0.362   2.284   0.601
 5448TIP3    H216288   0.252   2.183   0.628
 5449TIP3   OH216289   3.390   2.277   2.046
 5449TIP3    H116290   3.352   2.301   2.130
 5449TIP3    H216291   3.357   2.189   2.029
 5450TIP3   OH216292   0.988   2.375   0.520
 5450TIP3    H116293   1.008   2.350   0.610
 5450TIP3    H216294   0.922   2.443   0.528
 5451TIP3   OH216295   2.030   1.459   2.631
 5451TIP3    H116296   2.102   1.398   2.648
 5451TIP3    H216297   1.952   1.403   2.625
 5452TIP3   OH216298  -0.005   0.853   1.673
 5452TIP3    H116299   0.014   0.845   1.767
 5452TIP3    H216300   0.050   0.926   1.644
 5453TIP3   OH216301   5.494   1.289   2.964
 5453TIP3    H116302   5.478   1.200   2.996
 5453TIP3    H216303   5.583   1.286   2.929
 5454TIP3   OH216304   3.312   6.451   2.859
 5454TIP3    H116305   3.390   6.506   2.869
 5454TIP3    H216306   3.292   6.421   2.947
 5455TIP3   OH216307   8.249   5.150   5.982
 5455TIP3    H116308   8.246   5.169   5.888
 5455TIP3    H216309   8.184   5.080   5.994
 5456TIP3   OH216310   0.912   6.281   2.901
 5456TIP3    H116311   0.864   6.272   2.984
 5456TIP3    H216312   0.866   6.350   2.854
 5457TIP3   OH216313   7.826   1.414   3.259
 5457TIP3    H116314   7.792   1.334   3.300
 5457TIP3    H216315   7.914   1.425   3.297
 5458TIP3   OH216316   4.241   5.443   6.502
 5458TIP3    H116317   4.153   5.407   6.492
 5458TIP3    H216318   4.234   5.532   6.469
 5459TIP3   OH216319   2.061   7.632   5.039
 5459TIP3    H116320   2.102   7.567   4.981
 5459TIP3    H216321   2.099   7.616   5.125
 5460TIP3   OH216322   4.117   0.316   6.148
 5460TIP3    H116323   4.149   0.293   6.236
 5460TIP3    H216324   4.168   0.393   6.123
 5461TIP3   OH216325   2.865   4.126   5.307
 5461TIP3    H116326   2.792   4.081   5.350
 5461TIP3    H216327   2.886   4.071   5.231
 5462TIP3   OH216328   0.209   5.293   5.489
 5462TIP3    H116329   0.116   5.308   5.477
 5462TIP3    H216330   0.235   5.242   5.412
 5463TIP3   OH216331   3.545   5.475   3.823
 5463TIP3    H116332   3.536   5.559   3.867
 5463TIP3    H216333   3.516   5.491   3.734
 5464TIP3   OH216334   4.582   5.430   5.338
 5464TIP3    H116335   4.662   5.381   5.357
 5464TIP3    H216336   4.605   5.487   5.265
 5465TIP3   OH216337   6.103   1.114   6.633
 5465TIP3    H116338   6.126   1.207   6.632
 5465TIP3    H216339   6.173   1.071   6.583
 5466TIP3   OH216340   1.954   7.721   4.543
 5466TIP3    H116341   1.936   7.713   4.449
 5466TIP3    H216342   2.015   7.650   4.562
 5467TIP3   OH216343   1.939   2.675   1.991
 5467TIP3    H116344   1.982   2.741   1.936
 5467TIP3    H216345   1.865   2.720   2.030
 5468TIP3   OH216346   5.194   5.704   5.664
 5468TIP3    H116347   5.223   5.784   5.621
 5468TIP3    H216348   5.146   5.656   5.596
 5469TIP3   OH216349   7.565   6.972   0.707
 5469TIP3    H116350   7.498   6.910   0.675
 5469TIP3    H216351   7.554   6.971   0.802
 5470TIP3   OH216352   0.739   7.286   1.315
 5470TIP3    H116353   0.700   7.233   1.245
 5470TIP3    H216354   0.718   7.238   1.395
 5471TIP3   OH216355   2.818   5.285   0.367
 5471TIP3    H116356   2.905   5.249   0.349
 5471TIP3    H216357   2.783   5.229   0.435
 5472TIP3   OH216358   0.881   3.867   2.585
 5472TIP3    H116359   0.904   3.898   2.498
 5472TIP3    H216360   0.964   3.838   2.623
 5473TIP3   OH216361   6.750   7.487   2.735
 5473TIP3    H116362   6.830   7.437   2.718
 5473TIP3    H216363   6.738   7.481   2.830
 5474TIP3   OH216364   1.709   7.659   2.206
 5474TIP3    H116365   1.618   7.683   2.221
 5474TIP3    H216366   1.728   7.688   2.117
 5475TIP3   OH216367   5.001   2.718   0.646
 5475TIP3    H116368   5.019   2.635   0.602
 5475TIP3    H216369   5.049   2.783   0.596
 5476TIP3   OH216370   0.061   0.224   3.944
 5476TIP3    H116371   0.093   0.314   3.942
 5476TIP3    H216372  -0.014   0.224   3.885
 5477TIP3   OH216373   6.999   7.005   3.218
 5477TIP3    H116374   7.045   6.925   3.242
 5477TIP3    H216375   6.914   6.976   3.186
 5478TIP3   OH216376   0.448   2.431   3.524
 5478TIP3    H116377   0.506   2.355   3.532
 5478TIP3    H216378   0.480   2.493   3.589
 5479TIP3   OH216379   6.321   7.431   6.784
 5479TIP3    H116380   6.312   7.418   6.690
 5479TIP3    H216381   6.248   7.488   6.808
 5480TIP3   OH216382   1.157   0.680   3.994
 5480TIP3    H116383   1.069   0.704   3.966
 5480TIP3    H216384   1.180   0.605   3.939
 5481TIP3   OH216385   7.016   5.357   3.455
 5481TIP3    H116386   6.922   5.356   3.473
 5481TIP3    H216387   7.047   5.440   3.492
 5482TIP3   OH216388   2.142   1.508   0.836
 5482TIP3    H116389   2.057   1.509   0.881
 5482TIP3    H216390   2.196   1.447   0.887
 5483TIP3   OH216391   0.593   3.846   6.072
 5483TIP3    H116392   0.600   3.894   5.990
 5483TIP3    H216393   0.683   3.822   6.094
 5484TIP3   OH216394   4.742   5.784   2.784
 5484TIP3    H116395   4.725   5.728   2.708
 5484TIP3    H216396   4.794   5.729   2.843
 5485TIP3   OH216397   2.497   2.317   6.716
 5485TIP3    H116398   2.554   2.256   6.763
 5485TIP3    H216399   2.534   2.404   6.734
 5486TIP3   OH216400   4.684   5.173   3.638
 5486TIP3    H116401   4.733   5.144   3.560
 5486TIP3    H216402   4.748   5.223   3.689
 5487TIP3   OH216403   1.452   0.888   5.750
 5487TIP3    H116404   1.440   0.912   5.841
 5487TIP3    H216405   1.366   0.856   5.722
 5488TIP3   OH216406   5.250   1.191   5.774
 5488TIP3    H116407   5.213   1.276   5.754
 5488TIP3    H216408   5.174   1.135   5.790
 5489TIP3   OH216409   0.714   4.620   4.556
 5489TIP3    H116410   0.706   4.642   4.464
 5489TIP3    H216411   0.706   4.703   4.602
 5490TIP3   OH216412   6.013   3.625   4.325
 5490TIP3    H116413   5.976   3.703   4.365
 5490TIP3    H216414   5.970   3.620   4.239
 5491TIP3   OH216415   0.241   6.415   5.217
 5491TIP3    H116416   0.229   6.322   5.198
 5491TIP3    H216417   0.194   6.460   5.147
 5492TIP3   OH216418   1.767   0.159   3.487
 5492TIP3    H116419   1.751   0.082   3.543
 5492TIP3    H216420   1.731   0.135   3.402
 5493TIP3   OH216421   3.758   5.246   1.839
 5493TIP3    H116422   3.752   5.308   1.911
 5493TIP3    H216423   3.764   5.161   1.881
 5494TIP3   OH216424   1.034   1.325   1.810
 5494TIP3    H116425   0.983   1.399   1.778
 5494TIP3    H216426   0.983   1.248   1.785
 5495TIP3   OH216427   5.607   5.835   4.946
 5495TIP3    H116428   5.648   5.753   4.919
 5495TIP3    H216429   5.529   5.808   4.994
 5496TIP3   OH216430   0.263   2.664   5.756
 5496TIP3    H116431   0.257   2.579   5.800
 5496TIP3    H216432   0.267   2.642   5.663
 5497TIP3   OH216433   3.211   2.873   1.134
 5497TIP3    H116434   3.139   2.909   1.084
 5497TIP3    H216435   3.282   2.937   1.125
 5498TIP3   OH216436   0.486   5.894   6.461
 5498TIP3    H116437   0.484   5.983   6.497
 5498TIP3    H216438   0.399   5.882   6.423
 5499TIP3   OH216439   7.517   3.552   5.786
 5499TIP3    H116440   7.558   3.638   5.797
 5499TIP3    H216441   7.555   3.498   5.855
 5500TIP3   OH216442   6.197   7.545   5.321
 5500TIP3    H116443   6.115   7.496   5.313
 5500TIP3    H216444   6.173   7.622   5.373
 5501TIP3   OH216445   6.911   3.489   0.217
 5501TIP3    H116446   6.857   3.501   0.139
 5501TIP3    H216447   6.941   3.577   0.239
 5502TIP3   OH216448   6.831   0.974   3.561
 5502TIP3    H116449   6.893   1.016   3.502
 5502TIP3    H216450   6.855   1.005   3.648
 5503TIP3   OH216451   2.517   1.957   4.520
 5503TIP3    H116452   2.573   2.022   4.562
 5503TIP3    H216453   2.462   1.924   4.590
 5504TIP3   OH216454   0.902   2.181   1.679
 5504TIP3    H116455   0.904   2.134   1.763
 5504TIP3    H216456   0.850   2.259   1.696
 5505TIP3   OH216457   5.776   0.365   0.184
 5505TIP3    H116458   5.855   0.313   0.202
 5505TIP3    H216459   5.713   0.334   0.249
 5506TIP3   OH216460   5.275   1.210   1.352
 5506TIP3    H116461   5.187   1.172   1.359
 5506TIP3    H216462   5.301   1.229   1.442
 5507TIP3   OH216463   4.998   6.400   4.375
 5507TIP3    H116464   5.033   6.314   4.350
 5507TIP3    H216465   5.063   6.436   4.435
 5508TIP3   OH216466   2.623   5.841   2.006
 5508TIP3    H116467   2.645   5.845   2.099
 5508TIP3    H216468   2.550   5.901   1.995
 5509TIP3   OH216469   0.077   2.619   6.242
 5509TIP3    H116470   0.117   2.653   6.161
 5509TIP3    H216471  -0.012   2.654   6.240
 5510TIP3   OH216472   7.523   1.894   0.607
 5510TIP3    H116473   7.435   1.857   0.609
 5510TIP3    H216474   7.521   1.965   0.672
 5511TIP3   OH216475   0.543   4.759   5.920
 5511TIP3    H116476   0.592   4.762   6.002
 5511TIP3    H216477   0.577   4.833   5.869
 5512TIP3   OH216478   6.788   7.475   3.020
 5512TIP3    H116479   6.862   7.425   3.053
 5512TIP3    H216480   6.800   7.563   3.056
 5513TIP3   OH216481   2.611   5.261   6.582
 5513TIP3    H116482   2.631   5.251   6.675
 5513TIP3    H216483   2.630   5.175   6.544
 5514TIP3   OH216484   7.098   6.386   5.553
 5514TIP3    H116485   7.042   6.392   5.476
 5514TIP3    H216486   7.178   6.432   5.527
 5515TIP3   OH216487   4.668   7.205   3.859
 5515TIP3    H116488   4.727   7.130   3.854
 5515TIP3    H216489   4.592   7.178   3.806
 5516TIP3   OH216490   2.253   5.868   6.342
 5516TIP3    H116491   2.315   5.895   6.409
 5516TIP3    H216492   2.248   5.773   6.352
 5517TIP3   OH216493   1.805   4.921   2.886
 5517TIP3    H116494   1.797   4.844   2.830
 5517TIP3    H216495   1.899   4.930   2.901
 5518TIP3   OH216496   0.855   5.832   4.875
 5518TIP3    H116497   0.910   5.760   4.908
 5518TIP3    H216498   0.766   5.799   4.886
 5519TIP3   OH216499   0.653   6.265   0.012
 5519TIP3    H116500   0.627   6.312   0.092
 5519TIP3    H216501   0.740   6.300  -0.008
 5520TIP3   OH216502   2.235   3.320   3.960
 5520TIP3    H116503   2.271   3.244   3.914
 5520TIP3    H216504   2.308   3.383   3.961
 5521TIP3   OH216505   6.061   7.278   4.719
 5521TIP3    H116506   6.002   7.243   4.652
 5521TIP3    H216507   6.134   7.217   4.721
 5522TIP3   OH216508   3.022   2.357   6.723
 5522TIP3    H116509   3.108   2.336   6.686
 5522TIP3    H216510   2.985   2.272   6.749
 5523TIP3   OH216511   4.891   3.365   1.755
 5523TIP3    H116512   4.935   3.337   1.675
 5523TIP3    H216513   4.867   3.283   1.799
 5524TIP3   OH216514   2.436   1.258   4.822
 5524TIP3    H116515   2.496   1.246   4.896
 5524TIP3    H216516   2.349   1.246   4.860
 5525TIP3   OH216517   7.663   6.259   3.075
 5525TIP3    H116518   7.604   6.256   3.000
 5525TIP3    H216519   7.696   6.349   3.077
 5526TIP3   OH216520   4.147   2.774   3.439
 5526TIP3    H116521   4.113   2.776   3.529
 5526TIP3    H216522   4.146   2.866   3.412
 5527TIP3   OH216523   3.749   5.342   6.610
 5527TIP3    H116524   3.739   5.253   6.577
 5527TIP3    H216525   3.659   5.373   6.624
 5528TIP3   OH216526   7.655   5.788   0.114
 5528TIP3    H116527   7.578   5.748   0.073
 5528TIP3    H216528   7.636   5.882   0.114
 5529TIP3   OH216529   1.152   6.705   6.331
 5529TIP3    H116530   1.162   6.649   6.408
 5529TIP3    H216531   1.226   6.765   6.336
 5530TIP3   OH216532   2.179   0.893   0.196
 5530TIP3    H116533   2.207   0.819   0.250
 5530TIP3    H216534   2.170   0.857   0.108
 5531TIP3   OH216535   1.289   5.930   5.760
 5531TIP3    H116536   1.233   5.862   5.796
 5531TIP3    H216537   1.297   5.907   5.667
 5532TIP3   OH216538   0.034   3.308   5.146
 5532TIP3    H116539  -0.061   3.303   5.153
 5532TIP3    H216540   0.067   3.263   5.224
 5533TIP3   OH216541   8.068   5.520   6.783
 5533TIP3    H116542   8.026   5.551   6.702
 5533TIP3    H216543   8.049   5.588   6.847
 5534TIP3   OH216544   7.470   1.088   1.491
 5534TIP3    H116545   7.543   1.043   1.534
 5534TIP3    H216546   7.399   1.023   1.491
 5535TIP3   OH216547   6.993   6.822   0.206
 5535TIP3    H116548   6.983   6.731   0.178
 5535TIP3    H216549   7.045   6.818   0.285
 5536TIP3   OH216550   5.912   4.485   0.654
 5536TIP3    H116551   5.843   4.448   0.600
 5536TIP3    H216552   5.865   4.527   0.726
 5537TIP3   OH216553   7.543   2.654   1.193
 5537TIP3    H116554   7.596   2.734   1.186
 5537TIP3    H216555   7.517   2.652   1.286
 5538TIP3   OH216556   3.021   3.445   5.526
 5538TIP3    H116557   3.078   3.488   5.590
 5538TIP3    H216558   2.938   3.492   5.532
 5539TIP3   OH216559   7.978   3.671   3.222
 5539TIP3    H116560   7.997   3.651   3.130
 5539TIP3    H216561   8.001   3.590   3.269
 5540TIP3   OH216562   0.147   4.763   0.592
 5540TIP3    H116563   0.190   4.764   0.506
 5540TIP3    H216564   0.200   4.703   0.644
 5541TIP3   OH216565   3.971   5.307   5.956
 5541TIP3    H116566   3.876   5.305   5.941
 5541TIP3    H216567   3.997   5.216   5.948
 5542TIP3   OH216568   3.223   1.681   2.423
 5542TIP3    H116569   3.164   1.671   2.499
 5542TIP3    H216570   3.221   1.595   2.380
 5543TIP3   OH216571   5.298   0.631   5.535
 5543TIP3    H116572   5.302   0.653   5.442
 5543TIP3    H216573   5.322   0.538   5.539
 5544TIP3   OH216574   6.618   4.767   0.448
 5544TIP3    H116575   6.629   4.799   0.537
 5544TIP3    H216576   6.604   4.673   0.457
 5545TIP3   OH216577   8.052   3.983   1.857
 5545TIP3    H116578   8.142   4.011   1.876
 5545TIP3    H216579   8.029   4.027   1.775
 5546TIP3   OH216580   5.957   3.102   2.890
 5546TIP3    H116581   6.047   3.116   2.921
 5546TIP3    H216582   5.944   3.007   2.896
 5547TIP3   OH216583   7.094   4.047   4.414
 5547TIP3    H116584   7.135   4.061   4.329
 5547TIP3    H216585   7.064   3.956   4.412
 5548TIP3   OH216586   5.841   1.288   2.168
 5548TIP3    H116587   5.780   1.223   2.135
 5548TIP3    H216588   5.875   1.251   2.249
 5549TIP3   OH216589   8.234   1.176   2.012
 5549TIP3    H116590   8.302   1.133   1.960
 5549TIP3    H216591   8.264   1.166   2.103
 5550TIP3   OH216592   1.799   3.697   6.544
 5550TIP3    H116593   1.725   3.755   6.526
 5550TIP3    H216594   1.830   3.670   6.457
 5551TIP3   OH216595   1.474   6.414   6.484
 5551TIP3    H116596   1.546   6.464   6.523
 5551TIP3    H216597   1.490   6.324   6.511
 5552TIP3   OH216598   1.873   1.617   5.862
 5552TIP3    H116599   1.916   1.598   5.945
 5552TIP3    H216600   1.936   1.587   5.796
 5553TIP3   OH216601   6.430   6.776   5.047
 5553TIP3    H116602   6.401   6.759   4.957
 5553TIP3    H216603   6.461   6.867   5.045
 5554TIP3   OH216604   3.901   0.459   3.955
 5554TIP3    H116605   3.814   0.444   3.992
 5554TIP3    H216606   3.949   0.502   4.026
 5555TIP3   OH216607   5.796   5.072   5.277
 5555TIP3    H116608   5.843   5.105   5.354
 5555TIP3    H216609   5.713   5.039   5.311
 5556TIP3   OH216610   5.620   1.854   0.279
 5556TIP3    H116611   5.710   1.823   0.293
 5556TIP3    H216612   5.609   1.924   0.345
 5557TIP3   OH216613   4.138   7.759   3.323
 5557TIP3    H116614   4.125   7.676   3.277
 5557TIP3    H216615   4.232   7.775   3.319
 5558TIP3   OH216616   8.246   6.732   4.583
 5558TIP3    H116617   8.336   6.699   4.594
 5558TIP3    H216618   8.226   6.775   4.665
 5559TIP3   OH216619   7.637   1.362   4.021
 5559TIP3    H116620   7.579   1.288   4.003
 5559TIP3    H216621   7.590   1.415   4.086
 5560TIP3   OH216622   7.116   6.125   4.775
 5560TIP3    H116623   7.097   6.103   4.867
 5560TIP3    H216624   7.036   6.167   4.744
 5561TIP3   OH216625   6.228   2.807   3.486
 5561TIP3    H116626   6.323   2.811   3.470
 5561TIP3    H216627   6.199   2.732   3.434
 5562TIP3   OH216628   3.226   6.786   4.107
 5562TIP3    H116629   3.197   6.845   4.176
 5562TIP3    H216630   3.164   6.712   4.111
 5563TIP3   OH216631   5.599   6.636   0.242
 5563TIP3    H116632   5.672   6.664   0.297
 5563TIP3    H216633   5.603   6.541   0.242
 5564TIP3   OH216634   3.868   5.619   2.271
 5564TIP3    H116635   3.778   5.652   2.271
 5564TIP3    H216636   3.891   5.612   2.179
 5565TIP3   OH216637   2.922   5.034   6.718
 5565TIP3    H116638   2.876   5.108   6.759
 5565TIP3    H216639   2.928   5.058   6.626
 5566TIP3   OH216640   1.551   4.385   3.025
 5566TIP3    H116641   1.642   4.356   3.018
 5566TIP3    H216642   1.555   4.479   3.011
 5567TIP3   OH216643   5.383   0.740   3.110
 5567TIP3    H116644   5.379   0.748   3.206
 5567TIP3    H216645   5.302   0.781   3.079
 5568TIP3   OH216646   4.726   0.936   2.605
 5568TIP3    H116647   4.676   1.006   2.648
 5568TIP3    H216648   4.661   0.892   2.549
 5569TIP3   OH216649   2.130   3.501   3.167
 5569TIP3    H116650   2.154   3.554   3.092
 5569TIP3    H216651   2.059   3.445   3.136
 5570TIP3   OH216652   0.163   5.298   6.079
 5570TIP3    H116653   0.216   5.233   6.126
 5570TIP3    H216654   0.079   5.254   6.064
 5571TIP3   OH216655   2.693   6.007   4.327
 5571TIP3    H116656   2.724   6.002   4.237
 5571TIP3    H216657   2.755   5.952   4.376
 5572TIP3   OH216658   6.902   1.153   3.750
 5572TIP3    H116659   6.934   1.201   3.673
 5572TIP3    H216660   6.973   1.160   3.814
 5573TIP3   OH216661   2.192   1.344   0.264
 5573TIP3    H116662   2.148   1.382   0.188
 5573TIP3    H216663   2.150   1.385   0.339
 5574TIP3   OH216664   2.765   7.611   2.832
 5574TIP3    H116665   2.680   7.594   2.873
 5574TIP3    H216666   2.826   7.554   2.879
 5575TIP3   OH216667   4.738   7.177   5.948
 5575TIP3    H116668   4.732   7.272   5.958
 5575TIP3    H216669   4.668   7.143   6.003
 5576TIP3   OH216670   2.766   2.140   6.532
 5576TIP3    H116671   2.831   2.152   6.463
 5576TIP3    H216672   2.744   2.229   6.560
 5577TIP3   OH216673   3.457   4.164   2.535
 5577TIP3    H116674   3.406   4.098   2.488
 5577TIP3    H216675   3.478   4.123   2.619
 5578TIP3   OH216676   3.787   3.251   1.859
 5578TIP3    H116677   3.788   3.281   1.950
 5578TIP3    H216678   3.805   3.330   1.808
 5579TIP3   OH216679   1.812   5.697   1.100
 5579TIP3    H116680   1.760   5.746   1.163
 5579TIP3    H216681   1.779   5.727   1.015
 5580TIP3   OH216682   0.811   1.837   1.836
 5580TIP3    H116683   0.863   1.830   1.756
 5580TIP3    H216684   0.750   1.763   1.831
 5581TIP3   OH216685   6.994   2.906   4.007
 5581TIP3    H116686   7.045   2.946   3.937
 5581TIP3    H216687   7.055   2.898   4.080
 5582TIP3   OH216688   7.548   1.874   2.046
 5582TIP3    H116689   7.508   1.794   2.080
 5582TIP3    H216690   7.607   1.843   1.977
 5583TIP3   OH216691   8.190   6.569   3.461
 5583TIP3    H116692   8.110   6.528   3.494
 5583TIP3    H216693   8.205   6.529   3.376
 5584TIP3   OH216694   7.029   7.588   4.407
 5584TIP3    H116695   6.964   7.657   4.419
 5584TIP3    H216696   7.012   7.555   4.318
 5585TIP3   OH216697   0.366   5.988   4.913
 5585TIP3    H116698   0.351   5.943   4.830
 5585TIP3    H216699   0.325   5.931   4.979
 5586TIP3   OH216700   7.457   5.070   5.238
 5586TIP3    H116701   7.382   5.045   5.185
 5586TIP3    H216702   7.533   5.045   5.186
 5587TIP3   OH216703   5.323   4.585   4.248
 5587TIP3    H116704   5.398   4.635   4.280
 5587TIP3    H216705   5.361   4.519   4.191
 5588TIP3   OH216706   4.017   2.962   3.933
 5588TIP3    H116707   3.946   2.970   3.996
 5588TIP3    H216708   4.027   3.051   3.897
 5589TIP3   OH216709   3.181   2.019   2.308
 5589TIP3    H116710   3.125   1.963   2.253
 5589TIP3    H216711   3.270   1.987   2.293
 5590TIP3   OH216712   5.587   2.267   1.145
 5590TIP3    H116713   5.674   2.278   1.183
 5590TIP3    H216714   5.561   2.354   1.117
 5591TIP3   OH216715   8.198   1.531   1.444
 5591TIP3    H116716   8.177   1.441   1.470
 5591TIP3    H216717   8.225   1.574   1.525
 5592TIP3   OH216718   0.212   7.295   2.318
 5592TIP3    H116719   0.215   7.374   2.372
 5592TIP3    H216720   0.140   7.311   2.257
 5593TIP3   OH216721   0.018   0.260   5.103
 5593TIP3    H116722   0.030   0.198   5.176
 5593TIP3    H216723   0.000   0.344   5.145
 5594TIP3   OH216724   3.328   4.744   5.278
 5594TIP3    H116725   3.246   4.734   5.326
 5594TIP3    H216726   3.344   4.839   5.276
 5595TIP3   OH216727   7.965   3.176   3.886
 5595TIP3    H116728   8.007   3.159   3.971
 5595TIP3    H216729   7.974   3.093   3.838
 5596TIP3   OH216730   6.713   6.653   4.857
 5596TIP3    H116731   6.754   6.714   4.919
 5596TIP3    H216732   6.785   6.624   4.801
 5597TIP3   OH216733   2.511   7.383   2.061
 5597TIP3    H116734   2.499   7.359   2.153
 5597TIP3    H216735   2.436   7.344   2.016
 5598TIP3   OH216736   1.579   3.310   2.225
 5598TIP3    H116737   1.553   3.392   2.183
 5598TIP3    H216738   1.542   3.241   2.169
 5599TIP3   OH216739   7.155   1.406   0.258
 5599TIP3    H116740   7.229   1.402   0.197
 5599TIP3    H216741   7.194   1.396   0.344
 5600TIP3   OH216742   3.370   1.220   4.609
 5600TIP3    H116743   3.319   1.285   4.561
 5600TIP3    H216744   3.369   1.142   4.554
 5601TIP3   OH216745   1.327   4.192   0.721
 5601TIP3    H116746   1.367   4.263   0.671
 5601TIP3    H216747   1.377   4.189   0.802
 5602TIP3   OH216748   7.475   2.746   3.948
 5602TIP3    H116749   7.449   2.831   3.913
 5602TIP3    H216750   7.556   2.724   3.900
 5603TIP3   OH216751   2.377   7.184   6.192
 5603TIP3    H116752   2.292   7.162   6.231
 5603TIP3    H216753   2.376   7.280   6.184
 5604TIP3   OH216754   5.923   6.589   0.821
 5604TIP3    H116755   5.944   6.499   0.846
 5604TIP3    H216756   5.828   6.589   0.808
 5605TIP3   OH216757   2.867   5.105   4.673
 5605TIP3    H116758   2.873   5.153   4.755
 5605TIP3    H216759   2.956   5.074   4.656
 5606TIP3   OH216760   7.565   2.100   5.525
 5606TIP3    H116761   7.601   2.176   5.571
 5606TIP3    H216762   7.564   2.030   5.591
 5607TIP3   OH216763   3.011   5.541   2.620
 5607TIP3    H116764   3.091   5.586   2.593
 5607TIP3    H216765   2.965   5.605   2.674
 5608TIP3   OH216766   1.658   5.150   6.304
 5608TIP3    H116767   1.637   5.057   6.306
 5608TIP3    H216768   1.611   5.183   6.227
 5609TIP3   OH216769   7.256   4.932   2.959
 5609TIP3    H116770   7.266   4.888   3.044
 5609TIP3    H216771   7.166   4.913   2.933
 5610TIP3   OH216772   4.788   4.240   4.580
 5610TIP3    H116773   4.880   4.255   4.558
 5610TIP3    H216774   4.741   4.308   4.531
 5611TIP3   OH216775   1.181   0.106   1.344
 5611TIP3    H116776   1.186   0.040   1.274
 5611TIP3    H216777   1.129   0.064   1.412
 5612TIP3   OH216778   7.586   5.211   2.340
 5612TIP3    H116779   7.655   5.277   2.333
 5612TIP3    H216780   7.504   5.260   2.331
 5613TIP3   OH216781   5.250   0.348   6.049
 5613TIP3    H116782   5.343   0.325   6.056
 5613TIP3    H216783   5.213   0.280   5.993
 5614TIP3   OH216784   6.459   0.868   5.286
 5614TIP3    H116785   6.496   0.946   5.245
 5614TIP3    H216786   6.512   0.855   5.364
 5615TIP3   OH216787   5.789   2.768   3.193
 5615TIP3    H116788   5.850   2.783   3.122
 5615TIP3    H216789   5.705   2.801   3.160
 5616TIP3   OH216790   8.190   4.985   3.253
 5616TIP3    H116791   8.122   5.020   3.311
 5616TIP3    H216792   8.245   5.061   3.232
 5617TIP3   OH216793   6.754   1.709   6.360
 5617TIP3    H116794   6.805   1.703   6.280
 5617TIP3    H216795   6.799   1.776   6.412
 5618TIP3   OH216796   5.245   4.984   5.000
 5618TIP3    H116797   5.255   5.027   4.915
 5618TIP3    H216798   5.158   4.945   4.998
 5619TIP3   OH216799   0.497   7.177   5.270
 5619TIP3    H116800   0.587   7.162   5.299
 5619TIP3    H216801   0.503   7.252   5.211
 5620TIP3   OH216802   5.037   0.383   1.873
 5620TIP3    H116803   5.126   0.393   1.841
 5620TIP3    H216804   4.982   0.390   1.794
 5621TIP3   OH216805   3.137   2.100   1.973
 5621TIP3    H116806   3.045   2.095   1.999
 5621TIP3    H216807   3.137   2.153   1.893
 5622TIP3   OH216808   1.183   6.105   4.975
 5622TIP3    H116809   1.157   6.120   4.884
 5622TIP3    H216810   1.168   6.188   5.019
 5623TIP3   OH216811   6.803   4.060   3.251
 5623TIP3    H116812   6.824   3.974   3.286
 5623TIP3    H216813   6.888   4.105   3.247
 5624TIP3   OH216814   6.048   5.714   3.591
 5624TIP3    H116815   6.113   5.644   3.585
 5624TIP3    H216816   6.024   5.716   3.684
 5625TIP3   OH216817   2.998   7.224   1.215
 5625TIP3    H116818   2.996   7.202   1.308
 5625TIP3    H216819   3.047   7.307   1.212
 5626TIP3   OH216820   6.448   7.035   2.806
 5626TIP3    H116821   6.371   7.084   2.777
 5626TIP3    H216822   6.501   7.100   2.853
 5627TIP3   OH216823   7.550   5.431   2.905
 5627TIP3    H116824   7.590   5.352   2.867
 5627TIP3    H216825   7.513   5.477   2.830
 5628TIP3   OH216826   1.755   1.482   1.800
 5628TIP3    H116827   1.815   1.551   1.773
 5628TIP3    H216828   1.784   1.458   1.888
 5629TIP3   OH216829   5.744   3.026   0.811
 5629TIP3    H116830   5.840   3.033   0.804
 5629TIP3    H216831   5.722   3.078   0.888
 5630TIP3   OH216832   6.768   1.800   4.046
 5630TIP3    H116833   6.709   1.761   3.981
 5630TIP3    H216834   6.716   1.868   4.088
 5631TIP3   OH216835   5.192   0.388   6.310
 5631TIP3    H116836   5.266   0.440   6.340
 5631TIP3    H216837   5.216   0.361   6.221
 5632TIP3   OH216838   0.617   7.524   1.415
 5632TIP3    H116839   0.541   7.501   1.468
 5632TIP3    H216840   0.628   7.449   1.356
 5633TIP3   OH216841   2.548   7.535   0.981
 5633TIP3    H116842   2.640   7.536   0.957
 5633TIP3    H216843   2.514   7.620   0.952
 5634TIP3   OH216844   3.945   2.344   2.195
 5634TIP3    H116845   3.874   2.372   2.137
 5634TIP3    H216846   4.025   2.359   2.144
 5635TIP3   OH216847   6.977   7.662   6.399
 5635TIP3    H116848   6.985   7.727   6.469
 5635TIP3    H216849   7.062   7.662   6.356
 5636TIP3   OH216850   4.151   6.992   4.303
 5636TIP3    H116851   4.082   6.936   4.339
 5636TIP3    H216852   4.205   7.014   4.379
 5637TIP3   OH216853   1.780   7.475   6.236
 5637TIP3    H116854   1.730   7.553   6.213
 5637TIP3    H216855   1.863   7.483   6.188
 5638TIP3   OH216856   1.142   7.436   1.453
 5638TIP3    H116857   1.077   7.455   1.521
 5638TIP3    H216858   1.096   7.377   1.393
 5639TIP3   OH216859   1.638   0.497   1.717
 5639TIP3    H116860   1.648   0.592   1.719
 5639TIP3    H216861   1.725   0.464   1.693
 5640TIP3   OH216862   7.714   5.193   3.255
 5640TIP3    H116863   7.649   5.126   3.274
 5640TIP3    H216864   7.784   5.147   3.210
 5641TIP3   OH216865   1.951   6.136   0.713
 5641TIP3    H116866   1.972   6.071   0.779
 5641TIP3    H216867   1.974   6.220   0.753
 5642TIP3   OH216868   8.136   7.228   3.404
 5642TIP3    H116869   8.055   7.183   3.430
 5642TIP3    H216870   8.176   7.170   3.340
 5643TIP3   OH216871   3.138   1.195   1.952
 5643TIP3    H116872   3.200   1.214   2.023
 5643TIP3    H216873   3.073   1.265   1.958
 5644TIP3   OH216874   3.261   5.760   1.882
 5644TIP3    H116875   3.242   5.702   1.809
 5644TIP3    H216876   3.200   5.833   1.872
 5645TIP3   OH216877   5.192   5.673   0.923
 5645TIP3    H116878   5.237   5.678   1.007
 5645TIP3    H216879   5.245   5.614   0.870
 5646TIP3   OH216880   6.695   1.732   5.060
 5646TIP3    H116881   6.726   1.756   4.972
 5646TIP3    H216882   6.610   1.689   5.044
 5647TIP3   OH216883   8.217   0.006   3.328
 5647TIP3    H116884   8.129   0.022   3.363
 5647TIP3    H216885   8.222  -0.089   3.320
 5648TIP3   OH216886   7.171   3.880   3.412
 5648TIP3    H116887   7.098   3.819   3.398
 5648TIP3    H216888   7.130   3.965   3.424
 5649TIP3   OH216889   4.471   4.582   2.757
 5649TIP3    H116890   4.556   4.552   2.791
 5649TIP3    H216891   4.488   4.671   2.725
 5650TIP3   OH216892   3.148   5.737   6.554
 5650TIP3    H116893   3.242   5.741   6.535
 5650TIP3    H216894   3.142   5.699   6.641
 5651TIP3   OH216895   4.445   4.493   6.349
 5651TIP3    H116896   4.361   4.482   6.392
 5651TIP3    H216897   4.510   4.477   6.418
 5652TIP3   OH216898   0.804   2.955   3.261
 5652TIP3    H116899   0.727   2.933   3.312
 5652TIP3    H216900   0.869   2.890   3.286
 5653TIP3   OH216901   7.717   6.408   5.880
 5653TIP3    H116902   7.800   6.369   5.909
 5653TIP3    H216903   7.714   6.493   5.923
 5654TIP3   OH216904   5.357   5.941   1.444
 5654TIP3    H116905   5.411   5.873   1.402
 5654TIP3    H216906   5.420   5.994   1.494
 5655TIP3   OH216907   3.375   3.663   1.200
 5655TIP3    H116908   3.294   3.639   1.157
 5655TIP3    H216909   3.411   3.733   1.146
 5656TIP3   OH216910   7.079   0.974   2.170
 5656TIP3    H116911   7.156   0.954   2.222
 5656TIP3    H216912   7.038   0.889   2.153
 5657TIP3   OH216913   0.431   4.582   3.794
 5657TIP3    H116914   0.396   4.671   3.783
 5657TIP3    H216915   0.492   4.590   3.867
 5658TIP3   OH216916   3.575   3.526   6.182
 5658TIP3    H116917   3.495   3.556   6.224
 5658TIP3    H216918   3.619   3.606   6.153
 5659TIP3   OH216919   2.201   0.028   6.158
 5659TIP3    H116920   2.263   0.096   6.181
 5659TIP3    H216921   2.116   0.072   6.156
 5660TIP3   OH216922   6.745   0.659   2.335
 5660TIP3    H116923   6.833   0.665   2.298
 5660TIP3    H216924   6.759   0.665   2.430
 5661TIP3   OH216925   4.492   1.898   2.878
 5661TIP3    H116926   4.516   1.965   2.814
 5661TIP3    H216927   4.524   1.816   2.839
 5662TIP3   OH216928   4.617   7.604   2.943
 5662TIP3    H116929   4.689   7.645   2.896
 5662TIP3    H216930   4.659   7.559   3.016
 5663TIP3   OH216931   5.715   0.185   0.978
 5663TIP3    H116932   5.808   0.194   0.955
 5663TIP3    H216933   5.670   0.184   0.894
 5664TIP3   OH216934   8.056   1.990   1.182
 5664TIP3    H116935   8.089   1.914   1.230
 5664TIP3    H216936   8.056   1.962   1.090
 5665TIP3   OH216937   5.349   1.425   4.996
 5665TIP3    H116938   5.343   1.463   5.083
 5665TIP3    H216939   5.388   1.495   4.942
 5666TIP3   OH216940   5.775   0.085   6.092
 5666TIP3    H116941   5.777   0.157   6.155
 5666TIP3    H216942   5.847   0.028   6.118
 5667TIP3   OH216943   3.226   7.758   6.171
 5667TIP3    H116944   3.240   7.670   6.137
 5667TIP3    H216945   3.289   7.812   6.124
 5668TIP3   OH216946   6.509   0.415   4.851
 5668TIP3    H116947   6.460   0.496   4.869
 5668TIP3    H216948   6.546   0.391   4.936
 5669TIP3   OH216949   6.874   6.490   1.898
 5669TIP3    H116950   6.834   6.434   1.965
 5669TIP3    H216951   6.847   6.579   1.922
 5670TIP3   OH216952   0.813   3.956   0.107
 5670TIP3    H116953   0.727   3.952   0.064
 5670TIP3    H216954   0.872   3.909   0.047
 5671TIP3   OH216955   0.608   3.546   5.708
 5671TIP3    H116956   0.620   3.541   5.803
 5671TIP3    H216957   0.579   3.458   5.684
 5672TIP3   OH216958   4.002   4.463   0.520
 5672TIP3    H116959   4.029   4.532   0.581
 5672TIP3    H216960   3.956   4.509   0.450
 5673TIP3   OH216961   7.325   1.175   0.454
 5673TIP3    H116962   7.295   1.115   0.386
 5673TIP3    H216963   7.402   1.134   0.492
 5674TIP3   OH216964   7.662   1.656   0.789
 5674TIP3    H116965   7.734   1.603   0.824
 5674TIP3    H216966   7.706   1.725   0.739
 5675TIP3   OH216967   6.889   3.499   1.659
 5675TIP3    H116968   6.820   3.482   1.723
 5675TIP3    H216969   6.924   3.585   1.682
 5676TIP3   OH216970   1.167   4.129   1.020
 5676TIP3    H116971   1.122   4.211   1.005
 5676TIP3    H216972   1.253   4.154   1.053
 5677TIP3   OH216973   2.749   3.969   2.397
 5677TIP3    H116974   2.805   4.013   2.461
 5677TIP3    H216975   2.711   3.895   2.444
 5678TIP3   OH216976   8.152   6.433   1.729
 5678TIP3    H116977   8.069   6.453   1.685
 5678TIP3    H216978   8.127   6.394   1.813
 5679TIP3   OH216979   6.798   2.247   3.913
 5679TIP3    H116980   6.882   2.284   3.938
 5679TIP3    H216981   6.813   2.152   3.911
 5680TIP3   OH216982   7.017   5.980   3.798
 5680TIP3    H116983   7.070   6.052   3.763
 5680TIP3    H216984   7.002   5.923   3.722
 5681TIP3   OH216985   2.488   2.933   6.131
 5681TIP3    H116986   2.454   3.005   6.185
 5681TIP3    H216987   2.567   2.905   6.177
 5682TIP3   OH216988   5.779   1.775   1.502
 5682TIP3    H116989   5.757   1.683   1.516
 5682TIP3    H216990   5.813   1.805   1.587
 5683TIP3   OH216991   2.020   0.029   0.959
 5683TIP3    H116992   2.111   0.005   0.944
 5683TIP3    H216993   2.003   0.006   1.051
 5684TIP3   OH216994   7.570   4.905   5.059
 5684TIP3    H116995   7.539   4.897   4.969
 5684TIP3    H216996   7.643   4.843   5.065
 5685TIP3   OH216997   5.902   7.165   4.535
 5685TIP3    H116998   5.808   7.181   4.523
 5685TIP3    H216999   5.925   7.107   4.462
 5686TIP3   OH217000   2.126   0.516   6.423
 5686TIP3    H117001   2.134   0.566   6.504
 5686TIP3    H217002   2.042   0.471   6.431
 5687TIP3   OH217003   3.405   3.849   2.673
 5687TIP3    H117004   3.429   3.930   2.718
 5687TIP3    H217005   3.379   3.878   2.585
 5688TIP3   OH217006   2.856   0.436   2.981
 5688TIP3    H117007   2.867   0.463   3.072
 5688TIP3    H217008   2.892   0.510   2.931
 5689TIP3   OH217009   6.240   0.903   5.831
 5689TIP3    H117010   6.209   0.878   5.743
 5689TIP3    H217011   6.292   0.982   5.816
 5690TIP3   OH217012   7.728   0.478   2.870
 5690TIP3    H117013   7.804   0.489   2.927
 5690TIP3    H217014   7.671   0.418   2.918
 5691TIP3   OH217015   8.017   1.120   2.685
 5691TIP3    H117016   8.057   1.036   2.663
 5691TIP3    H217017   8.029   1.173   2.606
 5692TIP3   OH217018   6.107   0.500   3.251
 5692TIP3    H117019   6.200   0.524   3.251
 5692TIP3    H217020   6.069   0.553   3.180
 5693TIP3   OH217021   0.363   2.581   1.308
 5693TIP3    H117022   0.356   2.510   1.244
 5693TIP3    H217023   0.275   2.591   1.343
 5694TIP3   OH217024   7.731   6.602   6.101
 5694TIP3    H117025   7.740   6.551   6.182
 5694TIP3    H217026   7.755   6.691   6.126
 5695TIP3   OH217027   5.305   6.793   5.922
 5695TIP3    H117028   5.211   6.775   5.916
 5695TIP3    H217029   5.315   6.846   6.000
 5696TIP3   OH217030   4.585   5.032   5.181
 5696TIP3    H117031   4.628   4.947   5.178
 5696TIP3    H217032   4.648   5.089   5.225
 5697TIP3   OH217033   7.053   0.560   1.030
 5697TIP3    H117034   7.036   0.546   1.124
 5697TIP3    H217035   7.086   0.650   1.026
 5698TIP3   OH217036   8.263   1.400   1.839
 5698TIP3    H117037   8.252   1.322   1.893
 5698TIP3    H217038   8.347   1.437   1.867
 5699TIP3   OH217039   3.691   7.376   3.873
 5699TIP3    H117040   3.665   7.284   3.866
 5699TIP3    H217041   3.786   7.375   3.863
 5700TIP3   OH217042   5.594   2.445   2.025
 5700TIP3    H117043   5.664   2.388   2.058
 5700TIP3    H217044   5.570   2.500   2.100
 5701TIP3   OH217045   8.332   5.091   6.575
 5701TIP3    H117046   8.337   5.113   6.481
 5701TIP3    H217047   8.239   5.074   6.590
 5702TIP3   OH217048   7.980   5.711   6.261
 5702TIP3    H117049   7.995   5.791   6.210
 5702TIP3    H217050   7.887   5.693   6.251
 5703TIP3   OH217051   2.111   2.462   2.077
 5703TIP3    H117052   2.074   2.545   2.049
 5703TIP3    H217053   2.065   2.441   2.158
 5704TIP3   OH217054   7.445   3.685   3.292
 5704TIP3    H117055   7.461   3.671   3.385
 5704TIP3    H217056   7.354   3.712   3.286
 5705TIP3   OH217057   7.186   6.767   0.408
 5705TIP3    H117058   7.154   6.680   0.432
 5705TIP3    H217059   7.267   6.777   0.459
 5706TIP3   OH217060   1.182   5.468   4.338
 5706TIP3    H117061   1.154   5.405   4.272
 5706TIP3    H217062   1.123   5.543   4.327
 5707TIP3   OH217063   8.293   4.742   2.257
 5707TIP3    H117064   8.221   4.804   2.271
 5707TIP3    H217065   8.338   4.738   2.341
 5708TIP3   OH217066   2.043   7.430   0.859
 5708TIP3    H117067   2.094   7.361   0.900
 5708TIP3    H217068   2.028   7.400   0.770
 5709TIP3   OH217069   1.598   3.551   3.850
 5709TIP3    H117070   1.529   3.608   3.814
 5709TIP3    H217071   1.621   3.591   3.933
 5710TIP3   OH217072   4.975   2.181   4.434
 5710TIP3    H117073   4.968   2.207   4.342
 5710TIP3    H217074   5.042   2.238   4.471
 5711TIP3   OH217075   5.102   6.293   6.577
 5711TIP3    H117076   5.066   6.294   6.489
 5711TIP3    H217077   5.191   6.259   6.567
 5712TIP3   OH217078   4.513   5.714   4.151
 5712TIP3    H117079   4.602   5.748   4.162
 5712TIP3    H217080   4.523   5.636   4.097
 5713TIP3   OH217081   7.160   1.789   2.971
 5713TIP3    H117082   7.149   1.710   3.023
 5713TIP3    H217083   7.111   1.772   2.891
 5714TIP3   OH217084   4.192   0.913   1.023
 5714TIP3    H117085   4.161   0.853   0.955
 5714TIP3    H217086   4.138   0.893   1.099
 5715TIP3   OH217087   2.692   2.679   6.174
 5715TIP3    H117088   2.723   2.685   6.084
 5715TIP3    H217089   2.676   2.586   6.188
 5716TIP3   OH217090   0.071   3.599   4.528
 5716TIP3    H117091   0.131   3.650   4.473
 5716TIP3    H217092   0.084   3.635   4.616
 5717TIP3   OH217093   2.889   7.423   5.000
 5717TIP3    H117094   2.853   7.509   4.976
 5717TIP3    H217095   2.980   7.442   5.025
 5718TIP3   OH217096   5.017   4.582   1.831
 5718TIP3    H117097   4.948   4.645   1.851
 5718TIP3    H217098   4.974   4.516   1.777
 5719TIP3   OH217099   6.873   5.876   4.012
 5719TIP3    H117100   6.915   5.933   3.947
 5719TIP3    H217101   6.811   5.823   3.961
 5720TIP3   OH217102   1.547   4.604   2.438
 5720TIP3    H117103   1.583   4.692   2.424
 5720TIP3    H217104   1.509   4.607   2.526
 5721TIP3   OH217105   3.166   7.462   2.993
 5721TIP3    H117106   3.249   7.429   3.028
 5721TIP3    H217107   3.175   7.454   2.898
 5722TIP3   OH217108   2.075   6.478   6.487
 5722TIP3    H117109   2.003   6.526   6.528
 5722TIP3    H217110   2.150   6.493   6.545
 5723TIP3   OH217111   8.024   7.674   1.605
 5723TIP3    H117112   8.068   7.645   1.685
 5723TIP3    H217113   8.076   7.750   1.576
 5724TIP3   OH217114   2.044   1.642   6.421
 5724TIP3    H117115   2.076   1.673   6.505
 5724TIP3    H217116   2.106   1.678   6.357
 5725TIP3   OH217117   6.733   0.291   5.789
 5725TIP3    H117118   6.708   0.210   5.834
 5725TIP3    H217119   6.826   0.302   5.809
 5726TIP3   OH217120   1.708   5.412   0.323
 5726TIP3    H117121   1.777   5.429   0.258
 5726TIP3    H217122   1.653   5.345   0.282
 5727TIP3   OH217123   6.677   1.964   3.021
 5727TIP3    H117124   6.696   1.979   3.113
 5727TIP3    H217125   6.599   1.908   3.021
 5728TIP3   OH217126   6.421   4.758   3.238
 5728TIP3    H117127   6.357   4.727   3.174
 5728TIP3    H217128   6.398   4.850   3.252
 5729TIP3   OH217129   5.270   0.186   3.685
 5729TIP3    H117130   5.196   0.211   3.740
 5729TIP3    H217131   5.239   0.200   3.596
 5730TIP3   OH217132   4.618   2.615   0.243
 5730TIP3    H117133   4.586   2.668   0.316
 5730TIP3    H217134   4.538   2.590   0.196
 5731TIP3   OH217135   1.614   0.022   6.797
 5731TIP3    H117136   1.668   0.096   6.769
 5731TIP3    H217137   1.532   0.033   6.749
 5732TIP3   OH217138   3.026   5.089   6.022
 5732TIP3    H117139   3.078   5.017   5.984
 5732TIP3    H217140   3.092   5.151   6.053
 5733TIP3   OH217141   1.202   2.261   5.625
 5733TIP3    H117142   1.134   2.328   5.621
 5733TIP3    H217143   1.201   2.230   5.715
 5734TIP3   OH217144   7.240   2.599   3.052
 5734TIP3    H117145   7.296   2.633   2.982
 5734TIP3    H217146   7.271   2.510   3.066
 5735TIP3   OH217147   1.202   1.172   0.821
 5735TIP3    H117148   1.164   1.238   0.763
 5735TIP3    H217149   1.151   1.178   0.901
 5736TIP3   OH217150   4.939   6.754   2.321
 5736TIP3    H117151   4.888   6.758   2.240
 5736TIP3    H217152   5.029   6.744   2.291
 5737TIP3   OH217153   3.844   0.246   5.156
 5737TIP3    H117154   3.773   0.289   5.108
 5737TIP3    H217155   3.880   0.314   5.213
 5738TIP3   OH217156   8.270   3.618   6.024
 5738TIP3    H117157   8.211   3.634   5.951
 5738TIP3    H217158   8.346   3.575   5.984
 5739TIP3   OH217159   7.987   1.058   3.481
 5739TIP3    H117160   7.928   1.118   3.435
 5739TIP3    H217161   7.943   1.041   3.565
 5740TIP3   OH217162   3.221   0.808   3.622
 5740TIP3    H117163   3.252   0.718   3.631
 5740TIP3    H217164   3.135   0.809   3.663
 5741TIP3   OH217165   8.270   4.910   0.017
 5741TIP3    H117166   8.225   4.882  -0.063
 5741TIP3    H217167   8.327   4.837   0.040
 5742TIP3   OH217168   8.072   7.168   0.265
 5742TIP3    H117169   8.041   7.172   0.175
 5742TIP3    H217170   8.004   7.212   0.316
 5743TIP3   OH217171   0.062   1.300   0.583
 5743TIP3    H117172  -0.031   1.309   0.564
 5743TIP3    H217173   0.082   1.374   0.640
 5744TIP3   OH217174   1.159   2.967   0.444
 5744TIP3    H117175   1.157   2.984   0.538
 5744TIP3    H217176   1.192   3.049   0.406
 5745TIP3   OH217177   0.595   5.176   1.645
 5745TIP3    H117178   0.502   5.192   1.663
 5745TIP3    H217179   0.642   5.241   1.697
 5746TIP3   OH217180   2.674   5.310   5.863
 5746TIP3    H117181   2.701   5.354   5.782
 5746TIP3    H217182   2.726   5.230   5.865
 5747TIP3   OH217183   5.948   5.459   5.598
 5747TIP3    H117184   5.906   5.413   5.671
 5747TIP3    H217185   6.018   5.509   5.638
 5748TIP3   OH217186   4.532   0.371   6.148
 5748TIP3    H117187   4.580   0.408   6.074
 5748TIP3    H217188   4.460   0.433   6.163
 5749TIP3   OH217189   5.311   1.258   1.635
 5749TIP3    H117190   5.296   1.168   1.664
 5749TIP3    H217191   5.248   1.310   1.684
 5750TIP3   OH217192   4.520   0.223   6.522
 5750TIP3    H117193   4.548   0.276   6.597
 5750TIP3    H217194   4.591   0.160   6.509
 5751TIP3   OH217195   7.860   4.721   6.494
 5751TIP3    H117196   7.904   4.683   6.419
 5751TIP3    H217197   7.917   4.702   6.568
 5752TIP3   OH217198   4.711   5.591   0.639
 5752TIP3    H117199   4.737   5.683   0.632
 5752TIP3    H217200   4.659   5.587   0.720
 5753TIP3   OH217201   4.755   6.922   0.298
 5753TIP3    H117202   4.800   6.929   0.214
 5753TIP3    H217203   4.801   6.983   0.356
 5754TIP3   OH217204   0.392   2.881   1.204
 5754TIP3    H117205   0.317   2.904   1.149
 5754TIP3    H217206   0.380   2.789   1.225
 5755TIP3   OH217207   6.017   1.491   2.376
 5755TIP3    H117208   6.040   1.583   2.364
 5755TIP3    H217209   6.091   1.443   2.340
 5756TIP3   OH217210   6.767   7.378   2.425
 5756TIP3    H117211   6.676   7.349   2.438
 5756TIP3    H217212   6.817   7.331   2.491
 5757TIP3   OH217213   0.192   5.778   2.250
 5757TIP3    H117214   0.241   5.815   2.323
 5757TIP3    H217215   0.205   5.839   2.178
 5758TIP3   OH217216   4.857   3.391   5.307
 5758TIP3    H117217   4.772   3.353   5.330
 5758TIP3    H217218   4.837   3.482   5.283
 5759TIP3   OH217219   7.801   4.123   5.009
 5759TIP3    H117220   7.757   4.069   4.944
 5759TIP3    H217221   7.883   4.151   4.966
 5760TIP3   OH217222   2.124   6.759   0.543
 5760TIP3    H117223   2.147   6.692   0.478
 5760TIP3    H217224   2.166   6.729   0.623
 5761TIP3   OH217225   5.255   3.702   3.251
 5761TIP3    H117226   5.288   3.694   3.162
 5761TIP3    H217227   5.322   3.751   3.298
 5762TIP3   OH217228   4.239   3.611   4.112
 5762TIP3    H117229   4.203   3.636   4.198
 5762TIP3    H217230   4.271   3.522   4.124
 5763TIP3   OH217231   2.372   4.829   5.125
 5763TIP3    H117232   2.299   4.770   5.144
 5763TIP3    H217233   2.428   4.823   5.203
 5764TIP3   OH217234   5.696   2.168   4.288
 5764TIP3    H117235   5.731   2.097   4.234
 5764TIP3    H217236   5.740   2.159   4.372
 5765TIP3   OH217237   2.023   4.983   2.383
 5765TIP3    H117238   2.098   5.042   2.386
 5765TIP3    H217239   1.946   5.040   2.387
 5766TIP3   OH217240   7.486   2.585   4.174
 5766TIP3    H117241   7.493   2.636   4.093
 5766TIP3    H217242   7.500   2.648   4.244
 5767TIP3   OH217243   8.218   5.963   5.060
 5767TIP3    H117244   8.132   5.962   5.102
 5767TIP3    H217245   8.239   6.056   5.051
 5768TIP3   OH217246   2.134   2.992   6.546
 5768TIP3    H117247   2.155   2.941   6.625
 5768TIP3    H217248   2.154   3.082   6.571
 5769TIP3   OH217249   1.470   2.908   1.937
 5769TIP3    H117250   1.407   2.905   1.865
 5769TIP3    H217251   1.416   2.906   2.016
 5770TIP3   OH217252   6.403   3.218   4.371
 5770TIP3    H117253   6.485   3.233   4.419
 5770TIP3    H217254   6.415   3.264   4.288
 5771TIP3   OH217255   7.783   1.905   2.721
 5771TIP3    H117256   7.694   1.939   2.734
 5771TIP3    H217257   7.770   1.813   2.698
 5772TIP3   OH217258   0.430   4.976   4.983
 5772TIP3    H117259   0.423   5.002   4.891
 5772TIP3    H217260   0.468   5.053   5.026
 5773TIP3   OH217261   5.481   1.836   0.786
 5773TIP3    H117262   5.556   1.815   0.841
 5773TIP3    H217263   5.435   1.906   0.833
 5774TIP3   OH217264   4.859   0.642   2.369
 5774TIP3    H117265   4.840   0.736   2.369
 5774TIP3    H217266   4.832   0.612   2.282
 5775TIP3   OH217267   1.654   2.697   0.683
 5775TIP3    H117268   1.688   2.784   0.703
 5775TIP3    H217269   1.729   2.638   0.696
 5776TIP3   OH217270   7.791   5.351   4.426
 5776TIP3    H117271   7.830   5.381   4.508
 5776TIP3    H217272   7.864   5.351   4.364
 5777TIP3   OH217273   3.763   7.342   2.440
 5777TIP3    H117274   3.834   7.389   2.395
 5777TIP3    H217275   3.737   7.273   2.379
 5778TIP3   OH217276   7.744   1.331   5.846
 5778TIP3    H117277   7.706   1.260   5.897
 5778TIP3    H217278   7.709   1.411   5.886
 5779TIP3   OH217279   6.807   1.327   0.890
 5779TIP3    H117280   6.774   1.353   0.805
 5779TIP3    H217281   6.824   1.409   0.936
 5780TIP3   OH217282   3.154   2.734   4.637
 5780TIP3    H117283   3.206   2.696   4.567
 5780TIP3    H217284   3.070   2.756   4.597
 5781TIP3   OH217285   7.308   4.506   3.577
 5781TIP3    H117286   7.273   4.595   3.576
 5781TIP3    H217287   7.251   4.457   3.518
 5782TIP3   OH217288   1.243   2.833   3.897
 5782TIP3    H117289   1.232   2.850   3.991
 5782TIP3    H217290   1.331   2.864   3.878
 5783TIP3   OH217291   2.991   1.943   5.712
 5783TIP3    H117292   2.988   1.864   5.766
 5783TIP3    H217293   3.065   1.993   5.747
 5784TIP3   OH217294   3.997   0.108   0.198
 5784TIP3    H117295   3.992   0.035   0.137
 5784TIP3    H217296   4.011   0.185   0.142
 5785TIP3   OH217297   2.757   6.512   6.179
 5785TIP3    H117298   2.814   6.451   6.226
 5785TIP3    H217299   2.676   6.514   6.231
 5786TIP3   OH217300   7.968   5.207   4.221
 5786TIP3    H117301   8.038   5.222   4.158
 5786TIP3    H217302   7.889   5.239   4.177
 5787TIP3   OH217303   0.863   3.459   2.394
 5787TIP3    H117304   0.797   3.519   2.427
 5787TIP3    H217305   0.839   3.374   2.432
 5788TIP3   OH217306   7.842   1.581   5.563
 5788TIP3    H117307   7.858   1.651   5.500
 5788TIP3    H217308   7.850   1.623   5.648
 5789TIP3   OH217309   5.355   7.215   4.906
 5789TIP3    H117310   5.392   7.282   4.848
 5789TIP3    H217311   5.316   7.151   4.847
 5790TIP3   OH217312   5.803   5.130   3.161
 5790TIP3    H117313   5.791   5.035   3.173
 5790TIP3    H217314   5.821   5.140   3.068
 5791TIP3   OH217315   0.918   5.824   6.168
 5791TIP3    H117316   0.887   5.884   6.235
 5791TIP3    H217317   0.994   5.868   6.129
 5792TIP3   OH217318   6.982   3.847   4.940
 5792TIP3    H117319   6.988   3.911   5.011
 5792TIP3    H217320   6.944   3.895   4.867
 5793TIP3   OH217321   3.942   1.106   2.479
 5793TIP3    H117322   3.991   1.186   2.458
 5793TIP3    H217323   3.868   1.107   2.418
 5794TIP3   OH217324   1.342   1.749   1.554
 5794TIP3    H117325   1.413   1.691   1.526
 5794TIP3    H217326   1.383   1.834   1.565
 5795TIP3   OH217327   4.295   2.652   1.343
 5795TIP3    H117328   4.266   2.609   1.262
 5795TIP3    H217329   4.365   2.595   1.376
 5796TIP3   OH217330   7.037   6.800   2.906
 5796TIP3    H117331   7.046   6.778   2.998
 5796TIP3    H217332   7.117   6.768   2.865
 5797TIP3   OH217333   1.390   4.851   4.160
 5797TIP3    H117334   1.382   4.759   4.135
 5797TIP3    H217335   1.394   4.898   4.077
 5798TIP3   OH217336   0.591   6.332   6.081
 5798TIP3    H117337   0.639   6.289   6.010
 5798TIP3    H217338   0.655   6.392   6.120
 5799TIP3   OH217339   6.481   6.146   5.735
 5799TIP3    H117340   6.417   6.077   5.749
 5799TIP3    H217341   6.562   6.112   5.772
 5800TIP3   OH217342   2.773   7.232   2.010
 5800TIP3    H117343   2.731   7.169   1.951
 5800TIP3    H217344   2.713   7.306   2.013
 5801TIP3   OH217345   1.973   1.617   2.420
 5801TIP3    H117346   1.953   1.538   2.370
 5801TIP3    H217347   2.001   1.585   2.505
 5802TIP3   OH217348   2.455   5.454   2.000
 5802TIP3    H117349   2.454   5.378   2.058
 5802TIP3    H217350   2.495   5.422   1.919
 5803TIP3   OH217351   6.311   6.547   6.367
 5803TIP3    H117352   6.251   6.473   6.370
 5803TIP3    H217353   6.258   6.623   6.390
 5804TIP3   OH217354   4.290   4.636   4.534
 5804TIP3    H117355   4.370   4.618   4.485
 5804TIP3    H217356   4.288   4.568   4.602
 5805TIP3   OH217357   1.220   1.112   2.232
 5805TIP3    H117358   1.255   1.027   2.256
 5805TIP3    H217359   1.296   1.164   2.205
 5806TIP3   OH217360   1.621   7.408   2.436
 5806TIP3    H117361   1.528   7.395   2.453
 5806TIP3    H217362   1.639   7.496   2.469
 5807TIP3   OH217363   1.612   6.897   0.101
 5807TIP3    H117364   1.701   6.909   0.134
 5807TIP3    H217365   1.622   6.903   0.006
 5808TIP3   OH217366   7.345   6.067   1.180
 5808TIP3    H117367   7.343   5.981   1.140
 5808TIP3    H217368   7.428   6.105   1.151
 5809TIP3   OH217369   4.367   0.627   0.281
 5809TIP3    H117370   4.431   0.698   0.281
 5809TIP3    H217371   4.416   0.549   0.308
 5810TIP3   OH217372   1.901   6.874   3.012
 5810TIP3    H117373   1.829   6.908   2.958
 5810TIP3    H217374   1.965   6.945   3.014
 5811TIP3   OH217375   7.550   4.012   6.234
 5811TIP3    H117376   7.516   4.035   6.147
 5811TIP3    H217377   7.645   4.020   6.225
 5812TIP3   OH217378   0.674   1.268   3.981
 5812TIP3    H117379   0.714   1.284   4.067
 5812TIP3    H217380   0.621   1.190   3.993
 5813TIP3   OH217381   3.790   2.820   2.880
 5813TIP3    H117382   3.840   2.758   2.825
 5813TIP3    H217383   3.751   2.881   2.818
 5814TIP3   OH217384   6.012   6.192   3.428
 5814TIP3    H117385   5.919   6.171   3.440
 5814TIP3    H217386   6.011   6.279   3.386
 5815TIP3   OH217387   6.331   6.902   6.751
 5815TIP3    H117388   6.284   6.915   6.669
 5815TIP3    H217389   6.423   6.913   6.727
 5816TIP3   OH217390   3.630   0.672   5.903
 5816TIP3    H117391   3.629   0.608   5.975
 5816TIP3    H217392   3.540   0.671   5.870
 5817TIP3   OH217393   4.570   2.828   6.418
 5817TIP3    H117394   4.658   2.804   6.390
 5817TIP3    H217395   4.548   2.903   6.363
 5818TIP3   OH217396   4.195   1.161   6.310
 5818TIP3    H117397   4.151   1.240   6.343
 5818TIP3    H217398   4.177   1.094   6.377
 5819TIP3   OH217399   5.375   5.559   3.692
 5819TIP3    H117400   5.289   5.542   3.731
 5819TIP3    H217401   5.377   5.505   3.613
 5820TIP3   OH217402   6.574   6.466   5.841
 5820TIP3    H117403   6.623   6.390   5.871
 5820TIP3    H217404   6.603   6.537   5.898
 5821TIP3   OH217405   7.692   1.293   5.564
 5821TIP3    H117406   7.675   1.378   5.523
 5821TIP3    H217407   7.706   1.313   5.656
 5822TIP3   OH217408   1.124   3.564   3.929
 5822TIP3    H117409   1.154   3.547   4.018
 5822TIP3    H217410   1.077   3.647   3.934
 5823TIP3   OH217411   3.823   5.563   0.730
 5823TIP3    H117412   3.841   5.637   0.672
 5823TIP3    H217413   3.794   5.603   0.812
 5824TIP3   OH217414   0.320   3.284   5.337
 5824TIP3    H117415   0.313   3.229   5.416
 5824TIP3    H217416   0.295   3.371   5.367
 5825TIP3   OH217417   5.531   2.300   4.095
 5825TIP3    H117418   5.486   2.245   4.031
 5825TIP3    H217419   5.550   2.241   4.168
 5826TIP3   OH217420   1.572   0.762   1.712
 5826TIP3    H117421   1.479   0.781   1.699
 5826TIP3    H217422   1.603   0.738   1.625
 5827TIP3   OH217423   6.087   2.812   1.296
 5827TIP3    H117424   6.055   2.814   1.206
 5827TIP3    H217425   6.122   2.723   1.307
 5828TIP3   OH217426   4.513   2.497   0.920
 5828TIP3    H117427   4.458   2.430   0.879
 5828TIP3    H217428   4.469   2.580   0.900
 5829TIP3   OH217429   2.402   3.503   3.008
 5829TIP3    H117430   2.475   3.562   3.031
 5829TIP3    H217431   2.332   3.562   2.981
 5830TIP3   OH217432   5.532   6.922   3.976
 5830TIP3    H117433   5.574   6.904   4.060
 5830TIP3    H217434   5.602   6.915   3.911
 5831TIP3   OH217435   8.116   6.235   4.747
 5831TIP3    H117436   8.061   6.313   4.754
 5831TIP3    H217437   8.184   6.259   4.684
 5832TIP3   OH217438   7.163   3.959   6.647
 5832TIP3    H117439   7.115   3.949   6.729
 5832TIP3    H217440   7.252   3.979   6.673
 5833TIP3   OH217441   5.029   5.439   4.651
 5833TIP3    H117442   4.947   5.469   4.692
 5833TIP3    H217443   5.074   5.520   4.626
 5834TIP3   OH217444   4.422   3.851   5.788
 5834TIP3    H117445   4.499   3.809   5.828
 5834TIP3    H217446   4.349   3.824   5.842
 5835TIP3   OH217447   6.362   4.527   6.022
 5835TIP3    H117448   6.296   4.460   6.037
 5835TIP3    H217449   6.312   4.607   6.006
 5836TIP3   OH217450   7.586   5.997   4.383
 5836TIP3    H117451   7.515   5.941   4.415
 5836TIP3    H217452   7.574   5.999   4.288
 5837TIP3   OH217453   2.078   0.684   4.669
 5837TIP3    H117454   1.998   0.695   4.722
 5837TIP3    H217455   2.049   0.634   4.593
 5838TIP3   OH217456   3.659   1.021   2.171
 5838TIP3    H117457   3.579   1.051   2.215
 5838TIP3    H217458   3.701   0.964   2.235
 5839TIP3   OH217459   3.952   5.079   2.822
 5839TIP3    H117460   3.967   5.095   2.915
 5839TIP3    H217461   3.862   5.046   2.818
 5840TIP3   OH217462   6.822   6.582   4.242
 5840TIP3    H117463   6.879   6.506   4.252
 5840TIP3    H217464   6.735   6.550   4.262
 5841TIP3   OH217465   6.082   7.797   3.750
 5841TIP3    H117466   6.073   7.724   3.688
 5841TIP3    H217467   5.994   7.813   3.782
 5842TIP3   OH217468   4.514   0.845   0.249
 5842TIP3    H117469   4.533   0.878   0.337
 5842TIP3    H217470   4.495   0.923   0.198
 5843TIP3   OH217471   2.421   5.843   0.212
 5843TIP3    H117472   2.435   5.890   0.294
 5843TIP3    H217473   2.448   5.904   0.144
 5844TIP3   OH217474   3.728   2.355   6.669
 5844TIP3    H117475   3.767   2.361   6.581
 5844TIP3    H217476   3.790   2.302   6.719
 5845TIP3   OH217477   4.686   4.807   0.553
 5845TIP3    H117478   4.717   4.834   0.467
 5845TIP3    H217479   4.765   4.799   0.606
 5846TIP3   OH217480   7.102   5.028   4.542
 5846TIP3    H117481   7.132   4.980   4.464
 5846TIP3    H217482   7.007   5.030   4.533
 5847TIP3   OH217483   4.257   1.240   4.294
 5847TIP3    H117484   4.190   1.295   4.253
 5847TIP3    H217485   4.320   1.303   4.329
 5848TIP3   OH217486   1.452   7.305   4.781
 5848TIP3    H117487   1.433   7.286   4.689
 5848TIP3    H217488   1.488   7.393   4.780
 5849TIP3   OH217489   3.078   3.183   1.296
 5849TIP3    H117490   3.146   3.232   1.342
 5849TIP3    H217491   3.110   3.177   1.206
 5850TIP3   OH217492   4.952   7.645   1.680
 5850TIP3    H117493   4.892   7.574   1.658
 5850TIP3    H217494   4.908   7.724   1.649
 5851TIP3   OH217495   2.117   7.413   5.702
 5851TIP3    H117496   2.060   7.361   5.760
 5851TIP3    H217497   2.136   7.492   5.751
 5852TIP3   OH217498   3.873   6.006   3.521
 5852TIP3    H117499   3.872   6.010   3.425
 5852TIP3    H217500   3.962   5.978   3.542
 5853TIP3   OH217501   2.394   1.218   2.482
 5853TIP3    H117502   2.362   1.258   2.562
 5853TIP3    H217503   2.480   1.183   2.505
 5854TIP3   OH217504   3.201   7.338   0.493
 5854TIP3    H117505   3.174   7.272   0.557
 5854TIP3    H217506   3.284   7.372   0.527
 5855TIP3   OH217507   4.551   0.727   2.231
 5855TIP3    H117508   4.528   0.678   2.152
 5855TIP3    H217509   4.611   0.795   2.201
 5856TIP3   OH217510   3.414   7.677   0.917
 5856TIP3    H117511   3.418   7.768   0.888
 5856TIP3    H217512   3.357   7.679   0.994
 5857TIP3   OH217513   6.791   0.692   5.244
 5857TIP3    H117514   6.740   0.665   5.168
 5857TIP3    H217515   6.774   0.786   5.252
 5858TIP3   OH217516   4.127   5.891   3.504
 5858TIP3    H117517   4.095   5.869   3.416
 5858TIP3    H217518   4.154   5.807   3.542
 5859TIP3   OH217519   4.765   3.158   1.462
 5859TIP3    H117520   4.844   3.106   1.478
 5859TIP3    H217521   4.785   3.209   1.384
 5860TIP3   OH217522   1.406   1.409   1.535
 5860TIP3    H117523   1.409   1.447   1.623
 5860TIP3    H217524   1.469   1.460   1.485
 5861TIP3   OH217525   6.258   6.293   3.783
 5861TIP3    H117526   6.300   6.297   3.697
 5861TIP3    H217527   6.330   6.288   3.845
 5862TIP3   OH217528   3.439   1.144   6.366
 5862TIP3    H117529   3.374   1.197   6.320
 5862TIP3    H217530   3.388   1.078   6.413
 5863TIP3   OH217531   5.510   5.580   4.007
 5863TIP3    H117532   5.486   5.662   3.963
 5863TIP3    H217533   5.580   5.604   4.067
 5864TIP3   OH217534   6.419   0.281   0.728
 5864TIP3    H117535   6.499   0.329   0.709
 5864TIP3    H217536   6.349   0.344   0.714
 5865TIP3   OH217537   2.444   5.366   0.567
 5865TIP3    H117538   2.462   5.279   0.601
 5865TIP3    H217539   2.348   5.373   0.568
 5866TIP3   OH217540   0.915   4.424   4.531
 5866TIP3    H117541   0.912   4.373   4.450
 5866TIP3    H217542   0.843   4.487   4.522
 5867TIP3   OH217543   4.580   3.949   6.121
 5867TIP3    H117544   4.607   4.018   6.061
 5867TIP3    H217545   4.639   3.957   6.196
 5868TIP3   OH217546   5.896   6.510   1.696
 5868TIP3    H117547   5.924   6.493   1.606
 5868TIP3    H217548   5.837   6.438   1.717
 5869TIP3   OH217549   2.641   4.245   1.113
 5869TIP3    H117550   2.634   4.238   1.018
 5869TIP3    H217551   2.652   4.154   1.142
 5870TIP3   OH217552   6.101   4.273   6.694
 5870TIP3    H117553   6.048   4.327   6.753
 5870TIP3    H217554   6.039   4.209   6.658
 5871TIP3   OH217555   5.386   6.143   3.544
 5871TIP3    H117556   5.435   6.180   3.470
 5871TIP3    H217557   5.425   6.185   3.621
 5872TIP3   OH217558   0.905   1.878   0.432
 5872TIP3    H117559   0.954   1.856   0.352
 5872TIP3    H217560   0.957   1.947   0.473
 5873TIP3   OH217561   5.786   6.148   2.226
 5873TIP3    H117562   5.725   6.209   2.184
 5873TIP3    H217563   5.811   6.190   2.308
 5874TIP3   OH217564   3.906   6.205   2.309
 5874TIP3    H117565   3.858   6.126   2.333
 5874TIP3    H217566   3.966   6.177   2.239
 5875TIP3   OH217567   1.859   2.601   0.233
 5875TIP3    H117568   1.892   2.534   0.294
 5875TIP3    H217569   1.805   2.658   0.287
 5876TIP3   OH217570   1.406   5.636   6.071
 5876TIP3    H117571   1.446   5.682   5.998
 5876TIP3    H217572   1.388   5.704   6.136
 5877TIP3   OH217573   7.387   6.150   1.423
 5877TIP3    H117574   7.366   6.104   1.342
 5877TIP3    H217575   7.480   6.131   1.438
 5878TIP3   OH217576   1.174   0.730   5.843
 5878TIP3    H117577   1.219   0.648   5.823
 5878TIP3    H217578   1.185   0.741   5.937
 5879TIP3   OH217579   2.291   4.449   4.969
 5879TIP3    H117580   2.211   4.443   5.022
 5879TIP3    H217581   2.279   4.529   4.918
 5880TIP3   OH217582   2.268   0.635   5.564
 5880TIP3    H117583   2.214   0.667   5.491
 5880TIP3    H217584   2.255   0.700   5.633
 5881TIP3   OH217585   6.194   0.988   5.340
 5881TIP3    H117586   6.286   0.978   5.315
 5881TIP3    H217587   6.172   1.078   5.316
 5882TIP3   OH217588   6.574   5.132   1.075
 5882TIP3    H117589   6.623   5.184   1.139
 5882TIP3    H217590   6.622   5.143   0.993
 5883TIP3   OH217591   3.011   3.287   3.092
 5883TIP3    H117592   3.024   3.314   3.183
 5883TIP3    H217593   3.017   3.369   3.042
 5884TIP3   OH217594   0.164   3.214   4.277
 5884TIP3    H117595   0.100   3.180   4.338
 5884TIP3    H217596   0.144   3.308   4.271
 5885TIP3   OH217597   5.471   2.601   2.214
 5885TIP3    H117598   5.423   2.521   2.236
 5885TIP3    H217599   5.411   2.672   2.239
 5886TIP3   OH217600   5.586   7.238   2.737
 5886TIP3    H117601   5.586   7.202   2.826
 5886TIP3    H217602   5.677   7.233   2.709
 5887TIP3   OH217603   3.841   6.212   0.757
 5887TIP3    H117604   3.907   6.146   0.737
 5887TIP3    H217605   3.836   6.266   0.679
 5888TIP3   OH217606   0.782   4.351   1.927
 5888TIP3    H117607   0.774   4.391   1.841
 5888TIP3    H217608   0.720   4.279   1.927
 5889TIP3   OH217609   7.777   1.110   4.803
 5889TIP3    H117610   7.841   1.057   4.756
 5889TIP3    H217611   7.769   1.190   4.751
 5890TIP3   OH217612   1.572   0.591   1.242
 5890TIP3    H117613   1.657   0.553   1.264
 5890TIP3    H217614   1.587   0.685   1.239
 5891TIP3   OH217615   4.502   1.999   6.702
 5891TIP3    H117616   4.456   2.082   6.716
 5891TIP3    H217617   4.441   1.945   6.652
 5892TIP3   OH217618   4.890   2.593   1.255
 5892TIP3    H117619   4.894   2.576   1.161
 5892TIP3    H217620   4.799   2.617   1.271
 5893TIP3   OH217621   7.931   2.473   6.131
 5893TIP3    H117622   8.006   2.520   6.096
 5893TIP3    H217623   7.855   2.515   6.092
 5894TIP3   OH217624   5.042   4.838   6.422
 5894TIP3    H117625   5.059   4.906   6.356
 5894TIP3    H217626   5.112   4.774   6.410
 5895TIP3   OH217627   8.119   6.163   6.383
 5895TIP3    H117628   8.043   6.139   6.330
 5895TIP3    H217629   8.107   6.114   6.465
 5896TIP3   OH217630   4.345   1.107   1.118
 5896TIP3    H117631   4.306   1.026   1.086
 5896TIP3    H217632   4.271   1.168   1.125
 5897TIP3   OH217633   1.878   3.666   0.272
 5897TIP3    H117634   1.962   3.696   0.307
 5897TIP3    H217635   1.816   3.734   0.298
 5898TIP3   OH217636   0.271   3.899   4.950
 5898TIP3    H117637   0.192   3.878   4.900
 5898TIP3    H217638   0.334   3.927   4.885
 5899TIP3   OH217639   0.058   4.651   0.185
 5899TIP3    H117640   0.068   4.607   0.101
 5899TIP3    H217641  -0.031   4.688   0.183
 5900TIP3   OH217642   2.240   6.307   0.247
 5900TIP3    H117643   2.232   6.332   0.155
 5900TIP3    H217644   2.193   6.375   0.295
 5901TIP3   OH217645   1.041   6.941   5.135
 5901TIP3    H117646   1.103   7.014   5.135
 5901TIP3    H217647   1.034   6.916   5.043
 5902TIP3   OH217648   3.163   4.912   1.269
 5902TIP3    H117649   3.144   4.953   1.353
 5902TIP3    H217650   3.110   4.832   1.270
 5903TIP3   OH217651   0.240   5.767   5.762
 5903TIP3    H117652   0.250   5.824   5.685
 5903TIP3    H217653   0.309   5.795   5.822
 5904TIP3   OH217654   6.053   7.074   6.698
 5904TIP3    H117655   6.006   6.994   6.725
 5904TIP3    H217656   6.114   7.044   6.631
 5905TIP3   OH217657   6.564   0.519   0.646
 5905TIP3    H117658   6.609   0.602   0.629
 5905TIP3    H217659   6.472   0.543   0.654
 5906TIP3   OH217660   6.745   2.561   2.230
 5906TIP3    H117661   6.731   2.622   2.303
 5906TIP3    H217662   6.840   2.547   2.229
 5907TIP3   OH217663   0.952   5.556   4.616
 5907TIP3    H117664   0.911   5.574   4.701
 5907TIP3    H217665   0.884   5.575   4.552
 5908TIP3   OH217666   4.622   3.350   3.405
 5908TIP3    H117667   4.597   3.268   3.447
 5908TIP3    H217668   4.712   3.365   3.432
 5909TIP3   OH217669   6.137   7.303   4.369
 5909TIP3    H117670   6.105   7.386   4.334
 5909TIP3    H217671   6.154   7.321   4.462
 5910TIP3   OH217672   4.892   4.284   1.875
 5910TIP3    H117673   4.807   4.239   1.871
 5910TIP3    H217674   4.898   4.329   1.791
 5911TIP3   OH217675   3.422   2.070   2.794
 5911TIP3    H117676   3.424   2.061   2.890
 5911TIP3    H217677   3.476   2.147   2.776
 5912TIP3   OH217678   4.412   6.656   3.761
 5912TIP3    H117679   4.318   6.672   3.749
 5912TIP3    H217680   4.449   6.662   3.674
 5913TIP3   OH217681   5.287   5.697   0.102
 5913TIP3    H117682   5.235   5.632   0.150
 5913TIP3    H217683   5.343   5.644   0.045
 5914TIP3   OH217684   7.445   0.235   2.539
 5914TIP3    H117685   7.434   0.314   2.591
 5914TIP3    H217686   7.366   0.184   2.555
 5915TIP3   OH217687   5.196   1.096   0.060
 5915TIP3    H117688   5.189   1.186   0.093
 5915TIP3    H217689   5.107   1.062   0.064
 5916TIP3   OH217690   5.712   5.233   2.137
 5916TIP3    H117691   5.634   5.238   2.082
 5916TIP3    H217692   5.782   5.269   2.082
 5917TIP3   OH217693   2.255   0.882   4.620
 5917TIP3    H117694   2.166   0.847   4.618
 5917TIP3    H217695   2.289   0.857   4.706
 5918TIP3   OH217696   4.489   5.282   5.124
 5918TIP3    H117697   4.502   5.323   5.210
 5918TIP3    H217698   4.556   5.214   5.120
 5919TIP3   OH217699   4.579   6.035   6.087
 5919TIP3    H117700   4.520   6.051   6.161
 5919TIP3    H217701   4.566   5.943   6.066
 5920TIP3   OH217702   0.589   5.809   4.833
 5920TIP3    H117703   0.523   5.781   4.896
 5920TIP3    H217704   0.539   5.854   4.764
 5921TIP3   OH217705   7.436   1.709   2.914
 5921TIP3    H117706   7.506   1.768   2.941
 5921TIP3    H217707   7.355   1.759   2.929
 5922TIP3   OH217708   7.412   0.232   6.509
 5922TIP3    H117709   7.341   0.252   6.570
 5922TIP3    H217710   7.367   0.214   6.426
 5923TIP3   OH217711   6.702   2.304   0.436
 5923TIP3    H117712   6.656   2.230   0.398
 5923TIP3    H217713   6.772   2.324   0.375
 5924TIP3   OH217714   3.235   1.008   5.230
 5924TIP3    H117715   3.254   0.974   5.143
 5924TIP3    H217716   3.317   0.998   5.279
 5925TIP3   OH217717   8.004   5.875   4.233
 5925TIP3    H117718   7.982   5.968   4.233
 5925TIP3    H217719   7.925   5.831   4.264
 5926TIP3   OH217720   6.912   3.818   3.383
 5926TIP3    H117721   6.886   3.799   3.473
 5926TIP3    H217722   6.838   3.790   3.330
 5927TIP3   OH217723   3.549   6.722   1.133
 5927TIP3    H117724   3.568   6.697   1.043
 5927TIP3    H217725   3.543   6.818   1.130
 5928TIP3   OH217726   4.777   2.389   0.336
 5928TIP3    H117727   4.772   2.443   0.257
 5928TIP3    H217728   4.713   2.429   0.395
 5929TIP3   OH217729   8.262   1.163   5.034
 5929TIP3    H117730   8.317   1.241   5.025
 5929TIP3    H217731   8.251   1.151   5.128
 5930TIP3   OH217732   5.978   2.069   2.136
 5930TIP3    H117733   5.940   1.982   2.127
 5930TIP3    H217734   6.068   2.060   2.102
 5931TIP3   OH217735   0.962   0.797   4.467
 5931TIP3    H117736   0.897   0.727   4.465
 5931TIP3    H217737   1.029   0.771   4.404
 5932TIP3   OH217738   7.338   4.891   0.220
 5932TIP3    H117739   7.338   4.862   0.129
 5932TIP3    H217740   7.293   4.976   0.219
 5933TIP3   OH217741   2.838   0.038   6.151
 5933TIP3    H117742   2.829   0.116   6.205
 5933TIP3    H217743   2.924   0.048   6.109
 5934TIP3   OH217744   1.113   7.742   0.702
 5934TIP3    H117745   1.133   7.782   0.618
 5934TIP3    H217746   1.103   7.649   0.682
 5935TIP3   OH217747   3.333   0.139   0.777
 5935TIP3    H117748   3.273   0.211   0.795
 5935TIP3    H217749   3.361   0.109   0.864
 5936TIP3   OH217750   2.297   6.236   6.538
 5936TIP3    H117751   2.256   6.279   6.614
 5936TIP3    H217752   2.390   6.254   6.548
 5937TIP3   OH217753   2.532   5.317   6.263
 5937TIP3    H117754   2.569   5.368   6.335
 5937TIP3    H217755   2.603   5.261   6.234
 5938TIP3   OH217756   0.106   0.600   5.689
 5938TIP3    H117757   0.062   0.522   5.724
 5938TIP3    H217758   0.187   0.607   5.740
 5939TIP3   OH217759   8.113   3.591   3.766
 5939TIP3    H117760   8.050   3.528   3.729
 5939TIP3    H217761   8.174   3.537   3.816
 5940TIP3   OH217762   5.671   7.720   2.973
 5940TIP3    H117763   5.726   7.798   2.967
 5940TIP3    H217764   5.585   7.754   2.998
 5941TIP3   OH217765   1.579   7.417   3.018
 5941TIP3    H117766   1.536   7.496   3.052
 5941TIP3    H217767   1.559   7.349   3.081
 5942TIP3   OH217768   4.571   5.952   6.770
 5942TIP3    H117769   4.483   5.917   6.778
 5942TIP3    H217770   4.568   6.036   6.816
 5943TIP3   OH217771   7.206   0.302   4.299
 5943TIP3    H117772   7.196   0.240   4.227
 5943TIP3    H217773   7.273   0.363   4.269
 5944TIP3   OH217774   0.258   2.050   4.379
 5944TIP3    H117775   0.267   1.994   4.302
 5944TIP3    H217776   0.286   2.137   4.349
 5945TIP3   OH217777   6.147   0.025   6.673
 5945TIP3    H117778   6.120  -0.007   6.587
 5945TIP3    H217779   6.107   0.112   6.680
 5946TIP3   OH217780   2.479   1.182   1.776
 5946TIP3    H117781   2.442   1.098   1.751
 5946TIP3    H217782   2.403   1.238   1.793
 5947TIP3   OH217783   5.331   4.092   5.548
 5947TIP3    H117784   5.380   4.173   5.563
 5947TIP3    H217785   5.255   4.119   5.497
 5948TIP3   OH217786   0.580   4.973   4.623
 5948TIP3    H117787   0.581   4.894   4.676
 5948TIP3    H217788   0.500   5.019   4.651
 5949TIP3   OH217789   0.394   1.522   5.395
 5949TIP3    H117790   0.479   1.477   5.387
 5949TIP3    H217791   0.358   1.488   5.477
 5950TIP3   OH217792   8.211   5.667   3.424
 5950TIP3    H117793   8.196   5.733   3.357
 5950TIP3    H217794   8.217   5.716   3.505
 5951TIP3   OH217795   6.019   3.973   2.141
 5951TIP3    H117796   6.083   3.946   2.206
 5951TIP3    H217797   5.996   3.893   2.094
 5952TIP3   OH217798   4.708   1.600   1.281
 5952TIP3    H117799   4.707   1.508   1.309
 5952TIP3    H217800   4.784   1.607   1.224
 5953TIP3   OH217801   5.601   7.555   4.928
 5953TIP3    H117802   5.523   7.541   4.875
 5953TIP3    H217803   5.669   7.502   4.884
 5954TIP3   OH217804   1.704   6.380   6.264
 5954TIP3    H117805   1.731   6.467   6.295
 5954TIP3    H217806   1.775   6.322   6.292
 5955TIP3   OH217807   0.582   5.332   3.389
 5955TIP3    H117808   0.646   5.374   3.331
 5955TIP3    H217809   0.572   5.244   3.353
 5956TIP3   OH217810   0.846   7.100   0.860
 5956TIP3    H117811   0.889   7.127   0.779
 5956TIP3    H217812   0.917   7.075   0.918
 5957TIP3   OH217813   6.904   0.119   4.593
 5957TIP3    H117814   6.924   0.026   4.589
 5957TIP3    H217815   6.973   0.157   4.647
 5958TIP3   OH217816   0.140   2.925   1.075
 5958TIP3    H117817   0.097   3.001   1.036
 5958TIP3    H217818   0.088   2.906   1.153
 5959TIP3   OH217819   0.732   4.935   0.473
 5959TIP3    H117820   0.784   4.968   0.546
 5959TIP3    H217821   0.644   4.926   0.509
 5960TIP3   OH217822   3.448   4.565   2.413
 5960TIP3    H117823   3.443   4.618   2.333
 5960TIP3    H217824   3.481   4.480   2.384
 5961TIP3   OH217825   0.761   3.368   6.155
 5961TIP3    H117826   0.795   3.290   6.198
 5961TIP3    H217827   0.666   3.360   6.162
 5962TIP3   OH217828   7.055   6.769   4.678
 5962TIP3    H117829   7.143   6.747   4.648
 5962TIP3    H217830   7.069   6.833   4.748
 5963TIP3   OH217831   7.192   1.500   3.368
 5963TIP3    H117832   7.232   1.549   3.296
 5963TIP3    H217833   7.191   1.562   3.441
 5964TIP3   OH217834   0.760   7.201   5.350
 5964TIP3    H117835   0.760   7.296   5.347
 5964TIP3    H217836   0.818   7.179   5.423
 5965TIP3   OH217837   5.574   1.383   3.474
 5965TIP3    H117838   5.667   1.407   3.482
 5965TIP3    H217839   5.575   1.304   3.420
 5966TIP3   OH217840   0.410   7.130   4.732
 5966TIP3    H117841   0.442   7.220   4.724
 5966TIP3    H217842   0.435   7.103   4.820
 5967TIP3   OH217843   6.717   2.036   1.679
 5967TIP3    H117844   6.673   1.977   1.618
 5967TIP3    H217845   6.798   1.991   1.703
 5968TIP3   OH217846   7.732   1.339   2.338
 5968TIP3    H117847   7.712   1.246   2.328
 5968TIP3    H217848   7.646   1.381   2.344
 5969TIP3   OH217849   5.063   4.333   0.421
 5969TIP3    H117850   5.038   4.254   0.469
 5969TIP3    H217851   4.991   4.394   0.437
 5970TIP3   OH217852   7.406   3.538   1.028
 5970TIP3    H117853   7.434   3.531   1.119
 5970TIP3    H217854   7.434   3.456   0.988
 5971TIP3   OH217855   2.974   5.420   3.391
 5971TIP3    H117856   3.035   5.455   3.456
 5971TIP3    H217857   3.028   5.402   3.314
 5972TIP3   OH217858   3.969   2.463   1.633
 5972TIP3    H117859   3.902   2.523   1.600
 5972TIP3    H217860   4.051   2.514   1.627
 5973TIP3   OH217861   7.003   1.751   1.158
 5973TIP3    H117862   7.007   1.687   1.230
 5973TIP3    H217863   7.092   1.752   1.123
 5974TIP3   OH217864   4.118   6.313   5.646
 5974TIP3    H117865   4.072   6.385   5.602
 5974TIP3    H217866   4.170   6.356   5.714
 5975TIP3   OH217867   1.126   4.586   4.574
 5975TIP3    H117868   1.061   4.518   4.560
 5975TIP3    H217869   1.098   4.658   4.517
 5976TIP3   OH217870   2.519   6.587   1.610
 5976TIP3    H117871   2.497   6.656   1.547
 5976TIP3    H217872   2.607   6.608   1.639
 5977TIP3   OH217873   7.416   4.354   5.506
 5977TIP3    H117874   7.485   4.414   5.535
 5977TIP3    H217875   7.341   4.375   5.562
 5978TIP3   OH217876   6.936   5.658   4.175
 5978TIP3    H117877   7.031   5.668   4.169
 5978TIP3    H217878   6.901   5.731   4.123
 5979TIP3   OH217879   6.663   5.570   2.391
 5979TIP3    H117880   6.604   5.616   2.451
 5979TIP3    H217881   6.604   5.516   2.338
 5980TIP3   OH217882   6.358   0.955   6.567
 5980TIP3    H117883   6.382   0.992   6.652
 5980TIP3    H217884   6.440   0.918   6.533
 5981TIP3   OH217885   1.226   6.081   3.612
 5981TIP3    H117886   1.167   6.154   3.633
 5981TIP3    H217887   1.196   6.009   3.667
 5982TIP3   OH217888   0.029   0.771   3.700
 5982TIP3    H117889   0.088   0.746   3.629
 5982TIP3    H217890  -0.055   0.732   3.676
 5983TIP3   OH217891   8.052   4.940   2.665
 5983TIP3    H117892   7.983   5.001   2.691
 5983TIP3    H217893   8.017   4.895   2.589
 5984TIP3   OH217894   7.644   7.165   2.465
 5984TIP3    H117895   7.697   7.241   2.490
 5984TIP3    H217896   7.663   7.100   2.533
 5985TIP3   OH217897   4.399   3.339   5.901
 5985TIP3    H117898   4.478   3.366   5.854
 5985TIP3    H217899   4.340   3.307   5.832
 5986TIP3   OH217900   0.829   6.024   4.552
 5986TIP3    H117901   0.848   6.057   4.639
 5986TIP3    H217902   0.758   5.961   4.564
 5987TIP3   OH217903   6.816   6.918   6.050
 5987TIP3    H117904   6.900   6.874   6.035
 5987TIP3    H217905   6.839   7.009   6.065
 5988TIP3   OH217906   4.103   2.445   2.615
 5988TIP3    H117907   4.044   2.374   2.589
 5988TIP3    H217908   4.051   2.497   2.677
 5989TIP3   OH217909   5.298   0.622   4.261
 5989TIP3    H117910   5.294   0.666   4.176
 5989TIP3    H217911   5.227   0.558   4.258
 5990TIP3   OH217912   7.192   4.789   2.350
 5990TIP3    H117913   7.229   4.778   2.438
 5990TIP3    H217914   7.240   4.726   2.296
 5991TIP3   OH217915   3.724   5.555   1.626
 5991TIP3    H117916   3.799   5.539   1.569
 5991TIP3    H217917   3.649   5.562   1.566
 5992TIP3   OH217918   5.605   5.646   6.033
 5992TIP3    H117919   5.563   5.686   6.109
 5992TIP3    H217920   5.576   5.699   5.959
 5993TIP3   OH217921   5.879   0.332   5.644
 5993TIP3    H117922   5.836   0.328   5.559
 5993TIP3    H217923   5.860   0.420   5.677
 5994TIP3   OH217924   6.661   3.624   0.590
 5994TIP3    H117925   6.664   3.717   0.571
 5994TIP3    H217926   6.743   3.605   0.636
 5995TIP3   OH217927   3.645   4.601   0.584
 5995TIP3    H117928   3.595   4.674   0.620
 5995TIP3    H217929   3.646   4.617   0.490
 5996TIP3   OH217930   1.208   1.863   5.768
 5996TIP3    H117931   1.118   1.830   5.762
 5996TIP3    H217932   1.202   1.937   5.828
 5997TIP3   OH217933   7.454   4.818   3.533
 5997TIP3    H117934   7.395   4.889   3.560
 5997TIP3    H217935   7.473   4.771   3.614
 5998TIP3   OH217936   2.045   1.964   5.995
 5998TIP3    H117937   2.132   1.984   5.961
 5998TIP3    H217938   2.015   2.046   6.033
 5999TIP3   OH217939   1.747   0.614   2.230
 5999TIP3    H117940   1.777   0.647   2.146
 5999TIP3    H217941   1.771   0.683   2.293
 6000TIP3   OH217942   0.042   0.150   2.348
 6000TIP3    H117943  -0.046   0.114   2.364
 6000TIP3    H217944   0.076   0.169   2.435
 6001TIP3   OH217945   3.928   5.885   4.360
 6001TIP3    H117946   3.871   5.936   4.418
 6001TIP3    H217947   3.928   5.797   4.397
 6002TIP3   OH217948   4.014   5.471   0.921
 6002TIP3    H117949   3.963   5.494   0.999
 6002TIP3    H217950   3.951   5.473   0.849
 6003TIP3   OH217951   6.837   3.343   4.068
 6003TIP3    H117952   6.785   3.421   4.086
 6003TIP3    H217953   6.833   3.334   3.973
 6004TIP3   OH217954   5.963   4.956   0.255
 6004TIP3    H117955   6.027   4.978   0.322
 6004TIP3    H217956   5.942   4.864   0.271
 6005TIP3   OH217957   4.489   6.763   0.865
 6005TIP3    H117958   4.491   6.850   0.824
 6005TIP3    H217959   4.453   6.779   0.952
 6006TIP3   OH217960   0.319   7.642   0.732
 6006TIP3    H117961   0.399   7.615   0.777
 6006TIP3    H217962   0.262   7.566   0.735
 6007TIP3   OH217963   3.482   5.776   1.637
 6007TIP3    H117964   3.429   5.848   1.671
 6007TIP3    H217965   3.472   5.781   1.542
 6008TIP3   OH217966   2.150   6.334   0.983
 6008TIP3    H117967   2.184   6.246   1.001
 6008TIP3    H217968   2.183   6.387   1.056
 6009TIP3   OH217969   7.315   7.774   5.557
 6009TIP3    H117970   7.315   7.744   5.466
 6009TIP3    H217971   7.404   7.803   5.572
 6010TIP3   OH217972   8.191   5.869   3.639
 6010TIP3    H117973   8.140   5.876   3.719
 6010TIP3    H217974   8.172   5.949   3.591
 6011TIP3   OH217975   0.807   4.950   6.358
 6011TIP3    H117976   0.738   4.904   6.406
 6011TIP3    H217977   0.803   5.040   6.389
 6012TIP3   OH217978   2.418   7.164   5.121
 6012TIP3    H117979   2.403   7.083   5.073
 6012TIP3    H217980   2.431   7.136   5.212
 6013TIP3   OH217981   6.323   4.849   2.111
 6013TIP3    H117982   6.374   4.915   2.065
 6013TIP3    H217983   6.387   4.800   2.162
 6014TIP3   OH217984   5.743   4.270   2.669
 6014TIP3    H117985   5.702   4.286   2.584
 6014TIP3    H217986   5.733   4.175   2.683
 6015TIP3   OH217987   6.824   5.902   4.594
 6015TIP3    H117988   6.823   5.922   4.688
 6015TIP3    H217989   6.915   5.878   4.576
 6016TIP3   OH217990   3.125   3.919   4.322
 6016TIP3    H117991   3.165   3.993   4.277
 6016TIP3    H217992   3.040   3.906   4.278
 6017TIP3   OH217993   6.745   2.217   6.242
 6017TIP3    H117994   6.689   2.290   6.268
 6017TIP3    H217995   6.832   2.240   6.274
 6018TIP3   OH217996   8.236   4.770   6.451
 6018TIP3    H117997   8.298   4.790   6.520
 6018TIP3    H217998   8.151   4.761   6.496
 6019TIP3   OH217999   2.607   0.888   1.179
 6019TIP3    H118000   2.657   0.934   1.246
 6019TIP3    H218001   2.612   0.796   1.205
 6020TIP3   OH218002   7.019   4.959   0.003
 6020TIP3    H118003   6.991   5.022   0.069
 6020TIP3    H218004   6.943   4.903  -0.011
 6021TIP3   OH218005   4.777   1.141   3.035
 6021TIP3    H118006   4.704   1.180   3.085
 6021TIP3    H218007   4.747   1.142   2.944
 6022TIP3   OH218008   3.999   4.084   6.711
 6022TIP3    H118009   3.971   4.150   6.648
 6022TIP3    H218010   3.921   4.065   6.763
 6023TIP3   OH218011   7.398   7.263   5.005
 6023TIP3    H118012   7.340   7.268   4.929
 6023TIP3    H218013   7.469   7.205   4.977
 6024TIP3   OH218014   1.180   5.795   1.067
 6024TIP3    H118015   1.164   5.790   1.161
 6024TIP3    H218016   1.276   5.801   1.059
 6025TIP3   OH218017   3.984   5.766   6.281
 6025TIP3    H118018   3.997   5.855   6.247
 6025TIP3    H218019   4.045   5.712   6.231
 6026TIP3   OH218020   0.115   3.640   1.707
 6026TIP3    H118021   0.094   3.567   1.764
 6026TIP3    H218022   0.208   3.630   1.687
 6027TIP3   OH218023   4.425   1.106   0.137
 6027TIP3    H118024   4.415   1.172   0.206
 6027TIP3    H218025   4.486   1.146   0.075
 6028TIP3   OH218026   0.167   6.916   3.567
 6028TIP3    H118027   0.194   6.830   3.599
 6028TIP3    H218028   0.072   6.910   3.558
 6029TIP3   OH218029   0.959   6.709   5.314
 6029TIP3    H118030   0.922   6.781   5.365
 6029TIP3    H218031   1.008   6.752   5.244
 6030TIP3   OH218032   4.457   1.638   4.171
 6030TIP3    H118033   4.453   1.640   4.075
 6030TIP3    H218034   4.498   1.722   4.194
 6031TIP3   OH218035   7.848   3.408   3.762
 6031TIP3    H118036   7.845   3.468   3.837
 6031TIP3    H218037   7.876   3.325   3.800
 6032TIP3   OH218038   3.265   0.837   3.007
 6032TIP3    H118039   3.218   0.887   2.940
 6032TIP3    H218040   3.201   0.772   3.036
 6033TIP3   OH218041   6.505   6.295   0.343
 6033TIP3    H118042   6.521   6.388   0.325
 6033TIP3    H218043   6.592   6.255   0.340
 6034TIP3   OH218044   0.796   2.496   3.668
 6034TIP3    H118045   0.718   2.550   3.681
 6034TIP3    H218046   0.761   2.408   3.653
 6035TIP3   OH218047   2.844   0.621   2.513
 6035TIP3    H118048   2.860   0.629   2.419
 6035TIP3    H218049   2.787   0.695   2.534
 6036TIP3   OH218050   4.146   5.825   1.465
 6036TIP3    H118051   4.174   5.737   1.443
 6036TIP3    H218052   4.185   5.881   1.397
 6037TIP3   OH218053   2.518   2.534   5.943
 6037TIP3    H118054   2.471   2.600   5.995
 6037TIP3    H218055   2.532   2.461   6.004
 6038TIP3   OH218056   7.417   7.469   6.459
 6038TIP3    H118057   7.386   7.559   6.461
 6038TIP3    H218058   7.338   7.416   6.472
 6039TIP3   OH218059   2.583   2.009   3.433
 6039TIP3    H118060   2.546   1.921   3.438
 6039TIP3    H218061   2.662   1.999   3.379
 6040TIP3   OH218062   0.850   4.952   0.044
 6040TIP3    H118063   0.770   4.953   0.096
 6040TIP3    H218064   0.918   4.922   0.104
 6041TIP3   OH218065   1.367   5.271   4.030
 6041TIP3    H118066   1.363   5.275   4.125
 6041TIP3    H218067   1.328   5.353   4.000
 6042TIP3   OH218068   7.587   4.191   3.923
 6042TIP3    H118069   7.509   4.247   3.924
 6042TIP3    H218070   7.643   4.229   3.856
 6043TIP3   OH218071   1.390   0.944   0.847
 6043TIP3    H118072   1.364   0.879   0.781
 6043TIP3    H218073   1.329   1.016   0.835
 6044TIP3   OH218074   8.183   2.531   5.678
 6044TIP3    H118075   8.200   2.605   5.621
 6044TIP3    H218076   8.088   2.530   5.688
 6045TIP3   OH218077   7.517   5.182   3.610
 6045TIP3    H118078   7.581   5.148   3.548
 6045TIP3    H218079   7.439   5.201   3.557
 6046TIP3   OH218080   0.970   5.038   5.914
 6046TIP3    H118081   0.982   5.045   5.819
 6046TIP3    H218082   1.005   4.952   5.936
 6047TIP3   OH218083   8.145   2.190   2.955
 6047TIP3    H118084   8.067   2.143   2.925
 6047TIP3    H218085   8.124   2.217   3.045
 6048TIP3   OH218086   3.339   0.407   2.210
 6048TIP3    H118087   3.330   0.348   2.285
 6048TIP3    H218088   3.432   0.405   2.190
 6049TIP3   OH218089   2.549   0.949   2.103
 6049TIP3    H118090   2.547   0.859   2.070
 6049TIP3    H218091   2.617   0.993   2.052
 6050TIP3   OH218092   1.516   0.063   3.016
 6050TIP3    H118093   1.581   0.008   3.060
 6050TIP3    H218094   1.440   0.005   3.004
 6051TIP3   OH218095   0.880   3.079   4.625
 6051TIP3    H118096   0.853   2.995   4.662
 6051TIP3    H218097   0.935   3.056   4.550
 6052TIP3   OH218098   5.310   7.625   2.242
 6052TIP3    H118099   5.273   7.635   2.330
 6052TIP3    H218100   5.289   7.707   2.198
 6053TIP3   OH218101   5.684   1.081   2.096
 6053TIP3    H118102   5.599   1.100   2.056
 6053TIP3    H218103   5.682   0.986   2.112
 6054TIP3   OH218104   7.255   7.075   6.759
 6054TIP3    H118105   7.198   7.025   6.700
 6054TIP3    H218106   7.343   7.044   6.739
 6055TIP3   OH218107   2.769   1.168   6.479
 6055TIP3    H118108   2.819   1.102   6.527
 6055TIP3    H218109   2.741   1.230   6.547
 6056TIP3   OH218110   0.598   2.608   4.134
 6056TIP3    H118111   0.590   2.522   4.093
 6056TIP3    H218112   0.684   2.607   4.175
 6057TIP3   OH218113   6.608   7.574   1.946
 6057TIP3    H118114   6.673   7.535   2.004
 6057TIP3    H218115   6.536   7.599   2.004
 6058TIP3   OH218116   3.649   0.689   4.058
 6058TIP3    H118117   3.640   0.614   4.000
 6058TIP3    H218118   3.737   0.722   4.041
 6059TIP3   OH218119   1.443   3.800   5.959
 6059TIP3    H118120   1.349   3.793   5.977
 6059TIP3    H218121   1.485   3.762   6.037
 6060TIP3   OH218122   4.481   3.519   2.868
 6060TIP3    H118123   4.538   3.480   2.801
 6060TIP3    H218124   4.447   3.444   2.916
 6061TIP3   OH218125   0.604   3.955   5.415
 6061TIP3    H118126   0.558   4.039   5.422
 6061TIP3    H218127   0.576   3.906   5.492
 6062TIP3   OH218128   4.838   0.554   5.143
 6062TIP3    H118129   4.850   0.635   5.094
 6062TIP3    H218130   4.894   0.491   5.098
 6063TIP3   OH218131   1.344   2.129   0.345
 6063TIP3    H118132   1.342   2.043   0.386
 6063TIP3    H218133   1.316   2.115   0.255
 6064TIP3   OH218134   0.748   3.908   3.951
 6064TIP3    H118135   0.737   3.816   3.927
 6064TIP3    H218136   0.704   3.957   3.882
 6065TIP3   OH218137   0.659   1.947   5.551
 6065TIP3    H118138   0.754   1.933   5.540
 6065TIP3    H218139   0.619   1.883   5.493
 6066TIP3   OH218140   8.250   6.619   2.406
 6066TIP3    H118141   8.268   6.667   2.487
 6066TIP3    H218142   8.335   6.613   2.362
 6067TIP3   OH218143   1.076   2.334   2.020
 6067TIP3    H118144   1.132   2.362   1.947
 6067TIP3    H218145   1.105   2.245   2.039
 6068TIP3   OH218146   0.096   4.480   1.447
 6068TIP3    H118147   0.072   4.570   1.468
 6068TIP3    H218148   0.180   4.467   1.490
 6069TIP3   OH218149   7.534   2.983   1.383
 6069TIP3    H118150   7.516   2.989   1.477
 6069TIP3    H218151   7.478   3.049   1.343
 6070TIP3   OH218152   7.231   5.691   5.832
 6070TIP3    H118153   7.150   5.696   5.882
 6070TIP3    H218154   7.249   5.781   5.805
 6071TIP3   OH218155   4.175   4.947   6.682
 6071TIP3    H118156   4.237   4.882   6.715
 6071TIP3    H218157   4.100   4.896   6.652
 6072TIP3   OH218158   0.337   4.017   1.571
 6072TIP3    H118159   0.332   3.962   1.649
 6072TIP3    H218160   0.379   3.962   1.505
 6073TIP3   OH218161   0.306   3.683   1.201
 6073TIP3    H118162   0.290   3.773   1.172
 6073TIP3    H218163   0.363   3.646   1.134
 6074TIP3   OH218164   8.114   4.816   5.211
 6074TIP3    H118165   8.141   4.898   5.170
 6074TIP3    H218166   8.185   4.795   5.271
 6075TIP3   OH218167   2.381   0.343   5.316
 6075TIP3    H118168   2.395   0.250   5.298
 6075TIP3    H218169   2.441   0.388   5.256
 6076TIP3   OH218170   1.395   3.102   0.265
 6076TIP3    H118171   1.347   3.184   0.278
 6076TIP3    H218172   1.404   3.095   0.170
 6077TIP3   OH218173   7.328   1.720   3.215
 6077TIP3    H118174   7.395   1.662   3.250
 6077TIP3    H218175   7.373   1.771   3.148
 6078TIP3   OH218176   4.167   7.854   3.785
 6078TIP3    H118177   4.220   7.779   3.811
 6078TIP3    H218178   4.126   7.828   3.703
 6079TIP3   OH218179   5.329   6.745   0.254
 6079TIP3    H118180   5.421   6.716   0.259
 6079TIP3    H218181   5.279   6.664   0.258
 6080TIP3   OH218182   4.981   6.628   3.430
 6080TIP3    H118183   4.923   6.554   3.410
 6080TIP3    H218184   5.016   6.654   3.344
 6081TIP3   OH218185   7.400   5.836   4.506
 6081TIP3    H118186   7.357   5.797   4.431
 6081TIP3    H218187   7.336   5.829   4.577
 6082TIP3   OH218188   7.872   0.533   6.206
 6082TIP3    H118189   7.824   0.610   6.178
 6082TIP3    H218190   7.825   0.460   6.165
 6083TIP3   OH218191   0.605   0.119   2.628
 6083TIP3    H118192   0.686   0.105   2.678
 6083TIP3    H218193   0.612   0.057   2.555
 6084TIP3   OH218194   4.646   4.631   5.836
 6084TIP3    H118195   4.688   4.603   5.917
 6084TIP3    H218196   4.714   4.621   5.769
 6085TIP3   OH218197   4.755   0.195   3.034
 6085TIP3    H118198   4.804   0.136   2.977
 6085TIP3    H218199   4.664   0.167   3.026
 6086TIP3   OH218200   0.433   5.733   5.972
 6086TIP3    H118201   0.486   5.696   5.901
 6086TIP3    H218202   0.386   5.658   6.008
 6087TIP3   OH218203   8.135   5.366   3.558
 6087TIP3    H118204   8.180   5.394   3.478
 6087TIP3    H218205   8.150   5.437   3.620
 6088TIP3   OH218206   1.835   6.586   2.055
 6088TIP3    H118207   1.857   6.505   2.010
 6088TIP3    H218208   1.875   6.655   2.002
 6089TIP3   OH218209   0.606   1.650   3.626
 6089TIP3    H118210   0.588   1.577   3.686
 6089TIP3    H218211   0.560   1.626   3.545
 6090TIP3   OH218212   2.360   3.112   5.708
 6090TIP3    H118213   2.301   3.055   5.757
 6090TIP3    H218214   2.373   3.188   5.765
 6091TIP3   OH218215   2.748   1.507   5.115
 6091TIP3    H118216   2.824   1.499   5.057
 6091TIP3    H218217   2.774   1.571   5.181
 6092TIP3   OH218218   4.198   0.853   4.893
 6092TIP3    H118219   4.181   0.762   4.919
 6092TIP3    H218220   4.293   0.857   4.881
 6093TIP3   OH218221   6.250   4.355   5.046
 6093TIP3    H118222   6.195   4.357   4.968
 6093TIP3    H218223   6.315   4.287   5.029
 6094TIP3   OH218224   4.421   4.237   5.216
 6094TIP3    H118225   4.397   4.280   5.298
 6094TIP3    H218226   4.383   4.292   5.148
 6095TIP3   OH218227   3.228   2.854   2.004
 6095TIP3    H118228   3.176   2.933   1.990
 6095TIP3    H218229   3.253   2.857   2.097
 6096TIP3   OH218230   5.396   7.457   5.727
 6096TIP3    H118231   5.319   7.492   5.682
 6096TIP3    H218232   5.392   7.363   5.712
 6097TIP3   OH218233   1.469   5.719   0.671
 6097TIP3    H118234   1.440   5.810   0.678
 6097TIP3    H218235   1.529   5.718   0.597
 6098TIP3   OH218236   4.713   2.137   2.336
 6098TIP3    H118237   4.618   2.141   2.328
 6098TIP3    H218238   4.745   2.206   2.278
 6099TIP3   OH218239   1.574   7.455   5.891
 6099TIP3    H118240   1.568   7.408   5.974
 6099TIP3    H218241   1.485   7.456   5.857
 6100TIP3   OH218242   5.371   5.803   0.462
 6100TIP3    H118243   5.396   5.748   0.536
 6100TIP3    H218244   5.301   5.755   0.419
 6101TIP3   OH218245   5.382   1.680   4.873
 6101TIP3    H118246   5.330   1.726   4.939
 6101TIP3    H218247   5.318   1.649   4.809
 6102TIP3   OH218248   4.710   0.387   6.675
 6102TIP3    H118249   4.777   0.385   6.607
 6102TIP3    H218250   4.757   0.408   6.756
 6103TIP3   OH218251   2.376   4.708   1.922
 6103TIP3    H118252   2.287   4.698   1.955
 6103TIP3    H218253   2.366   4.749   1.836
 6104TIP3   OH218254   5.045   1.137   6.126
 6104TIP3    H118255   5.001   1.211   6.168
 6104TIP3    H218256   4.983   1.065   6.132
 6105TIP3   OH218257   1.345   3.251   5.134
 6105TIP3    H118258   1.325   3.161   5.109
 6105TIP3    H218259   1.264   3.284   5.173
 6106TIP3   OH218260   5.175   3.442   0.209
 6106TIP3    H118261   5.139   3.354   0.218
 6106TIP3    H218262   5.266   3.428   0.183
 6107TIP3   OH218263   5.984   7.086   1.118
 6107TIP3    H118264   5.890   7.074   1.106
 6107TIP3    H218265   6.004   7.167   1.071
 6108TIP3   OH218266   5.795   1.823   3.476
 6108TIP3    H118267   5.834   1.870   3.402
 6108TIP3    H218268   5.716   1.782   3.440
 6109TIP3   OH218269   0.668   3.971   1.202
 6109TIP3    H118270   0.735   3.973   1.134
 6109TIP3    H218271   0.694   4.040   1.264
 6110TIP3   OH218272   7.986   5.166   0.117
 6110TIP3    H118273   7.962   5.077   0.091
 6110TIP3    H218274   7.932   5.184   0.194
 6111TIP3   OH218275   6.094   6.972   3.453
 6111TIP3    H118276   6.167   6.921   3.486
 6111TIP3    H218277   6.130   7.021   3.379
 6112TIP3   OH218278   0.958   7.736   4.942
 6112TIP3    H118279   0.906   7.665   4.905
 6112TIP3    H218280   1.012   7.766   4.868
 6113TIP3   OH218281   3.292   6.014   2.555
 6113TIP3    H118282   3.272   6.051   2.469
 6113TIP3    H218283   3.246   6.072   2.617
 6114TIP3   OH218284   0.510   6.757   5.714
 6114TIP3    H118285   0.427   6.711   5.710
 6114TIP3    H218286   0.531   6.763   5.807
 6115TIP3   OH218287   2.507   0.703   4.457
 6115TIP3    H118288   2.590   0.679   4.497
 6115TIP3    H218289   2.486   0.631   4.398
 6116TIP3   OH218290   0.443   0.768   3.601
 6116TIP3    H118291   0.348   0.774   3.594
 6116TIP3    H218292   0.469   0.849   3.646
 6117TIP3   OH218293   4.777   7.484   1.941
 6117TIP3    H118294   4.723   7.562   1.929
 6117TIP3    H218295   4.867   7.513   1.922
 6118TIP3   OH218296   7.840   2.626   0.879
 6118TIP3    H118297   7.852   2.714   0.915
 6118TIP3    H218298   7.774   2.585   0.936
 6119TIP3   OH218299   3.841   0.345   6.230
 6119TIP3    H118300   3.802   0.287   6.164
 6119TIP3    H218301   3.931   0.358   6.201
 6120TIP3   OH218302   6.018   0.804   5.995
 6120TIP3    H118303   5.986   0.872   5.936
 6120TIP3    H218304   6.112   0.802   5.981
 6121TIP3   OH218305   6.731   1.602   1.973
 6121TIP3    H118306   6.776   1.640   2.049
 6121TIP3    H218307   6.758   1.657   1.899
 6122TIP3   OH218308   0.725   4.898   5.393
 6122TIP3    H118309   0.630   4.885   5.389
 6122TIP3    H218310   0.736   4.992   5.409
 6123TIP3   OH218311   5.962   0.813   0.330
 6123TIP3    H118312   5.938   0.725   0.359
 6123TIP3    H218313   6.029   0.841   0.393
 6124TIP3   OH218314   2.846   2.348   5.122
 6124TIP3    H118315   2.918   2.369   5.182
 6124TIP3    H218316   2.854   2.254   5.108
 6125TIP3   OH218317   6.143   5.729   4.029
 6125TIP3    H118318   6.171   5.638   4.039
 6125TIP3    H218319   6.211   5.768   3.973
 6126TIP3   OH218320   7.446   0.621   4.459
 6126TIP3    H118321   7.380   0.633   4.527
 6126TIP3    H218322   7.520   0.579   4.504
 6127TIP3   OH218323   0.657   2.964   4.147
 6127TIP3    H118324   0.566   2.991   4.157
 6127TIP3    H218325   0.694   3.027   4.085
 6128TIP3   OH218326   4.245   0.727   0.027
 6128TIP3    H118327   4.258   0.694   0.116
 6128TIP3    H218328   4.156   0.700   0.005
 6129TIP3   OH218329   4.737   7.604   4.467
 6129TIP3    H118330   4.673   7.671   4.442
 6129TIP3    H218331   4.813   7.654   4.497
 6130TIP3   OH218332   2.006   7.211   2.208
 6130TIP3    H118333   1.917   7.243   2.226
 6130TIP3    H218334   2.000   7.176   2.119
 6131TIP3   OH218335   5.121   6.936   5.566
 6131TIP3    H118336   5.100   6.915   5.475
 6131TIP3    H218337   5.036   6.943   5.609
 6132TIP3   OH218338   0.805   0.071   5.340
 6132TIP3    H118339   0.744   0.027   5.282
 6132TIP3    H218340   0.753   0.138   5.384
 6133TIP3   OH218341   0.366   7.735   1.649
 6133TIP3    H118342   0.327   7.767   1.731
 6133TIP3    H218343   0.457   7.716   1.671
 6134TIP3   OH218344   0.370   5.447   2.356
 6134TIP3    H118345   0.354   5.487   2.270
 6134TIP3    H218346   0.431   5.375   2.338
 6135TIP3   OH218347   5.480   7.723   0.562
 6135TIP3    H118348   5.447   7.636   0.542
 6135TIP3    H218349   5.541   7.710   0.635
 6136TIP3   OH218350   7.320   4.811   4.688
 6136TIP3    H118351   7.273   4.747   4.741
 6136TIP3    H218352   7.317   4.892   4.738
 6137TIP3   OH218353   8.064   7.610   3.760
 6137TIP3    H118354   7.995   7.653   3.709
 6137TIP3    H218355   8.034   7.519   3.768
 6138TIP3   OH218356   4.392   2.728   1.953
 6138TIP3    H118357   4.393   2.816   1.915
 6138TIP3    H218358   4.395   2.743   2.047
 6139TIP3   OH218359   4.255   3.108   0.584
 6139TIP3    H118360   4.230   3.136   0.672
 6139TIP3    H218361   4.218   3.175   0.526
 6140TIP3   OH218362   5.185   7.646   3.854
 6140TIP3    H118363   5.108   7.602   3.891
 6140TIP3    H218364   5.248   7.575   3.841
 6141TIP3   OH218365   4.268   3.766   0.951
 6141TIP3    H118366   4.337   3.803   1.006
 6141TIP3    H218367   4.315   3.724   0.879
 6142TIP3   OH218368   1.834   5.347   6.426
 6142TIP3    H118369   1.752   5.312   6.392
 6142TIP3    H218370   1.885   5.369   6.348
 6143TIP3   OH218371   4.110   1.543   5.084
 6143TIP3    H118372   4.149   1.457   5.068
 6143TIP3    H218373   4.124   1.559   5.177
 6144TIP3   OH218374   0.244   1.940   1.250
 6144TIP3    H118375   0.319   1.991   1.221
 6144TIP3    H218376   0.168   1.990   1.220
 6145TIP3   OH218377   6.527   5.923   6.415
 6145TIP3    H118378   6.551   5.938   6.506
 6145TIP3    H218379   6.510   5.829   6.409
 6146TIP3   OH218380   5.251   1.076   6.581
 6146TIP3    H118381   5.326   1.113   6.534
 6146TIP3    H218382   5.198   1.034   6.514
 6147TIP3   OH218383   3.982   2.692   2.143
 6147TIP3    H118384   4.056   2.669   2.199
 6147TIP3    H218385   4.011   2.667   2.055
 6148TIP3   OH218386   3.785   6.970   6.260
 6148TIP3    H118387   3.797   6.879   6.232
 6148TIP3    H218388   3.718   7.004   6.200
 6149TIP3   OH218389   0.688   1.228   1.329
 6149TIP3    H118390   0.597   1.230   1.358
 6149TIP3    H218391   0.730   1.298   1.379
 6150TIP3   OH218392   3.474   7.064   2.095
 6150TIP3    H118393   3.454   6.971   2.097
 6150TIP3    H218394   3.392   7.106   2.123
 6151TIP3   OH218395   1.163   4.190   4.510
 6151TIP3    H118396   1.219   4.187   4.587
 6151TIP3    H218397   1.078   4.159   4.541
 6152TIP3   OH218398   5.262   7.745   6.523
 6152TIP3    H118399   5.182   7.692   6.529
 6152TIP3    H218400   5.323   7.692   6.473
 6153TIP3   OH218401   7.670   3.296   1.552
 6153TIP3    H118402   7.707   3.384   1.547
 6153TIP3    H218403   7.599   3.296   1.487
 6154TIP3   OH218404   4.558   2.838   2.493
 6154TIP3    H118405   4.586   2.847   2.402
 6154TIP3    H218406   4.540   2.744   2.503
 6155TIP3   OH218407   5.395   7.156   4.084
 6155TIP3    H118408   5.437   7.085   4.036
 6155TIP3    H218409   5.306   7.159   4.050
 6156TIP3   OH218410   5.047   0.760   1.630
 6156TIP3    H118411   4.991   0.788   1.558
 6156TIP3    H218412   5.067   0.668   1.611
 6157TIP3   OH218413   3.681   2.077   4.984
 6157TIP3    H118414   3.769   2.058   4.952
 6157TIP3    H218415   3.633   1.995   4.972
 6158TIP3   OH218416   2.791   1.774   2.405
 6158TIP3    H118417   2.792   1.858   2.451
 6158TIP3    H218418   2.789   1.708   2.474
 6159TIP3   OH218419   0.954   2.157   1.020
 6159TIP3    H118420   0.903   2.208   0.958
 6159TIP3    H218421   0.930   2.066   1.002
 6160TIP3   OH218422   5.241   6.909   0.758
 6160TIP3    H118423   5.239   6.816   0.778
 6160TIP3    H218424   5.162   6.924   0.705
 6161TIP3   OH218425   0.753   4.155   4.456
 6161TIP3    H118426   0.694   4.215   4.500
 6161TIP3    H218427   0.806   4.118   4.526
 6162TIP3   OH218428   6.672   5.463   5.299
 6162TIP3    H118429   6.763   5.434   5.295
 6162TIP3    H218430   6.670   5.523   5.374
 6163TIP3   OH218431   2.978   3.939   1.493
 6163TIP3    H118432   3.053   3.910   1.544
 6163TIP3    H218433   2.960   4.027   1.525
 6164TIP3   OH218434   5.819   0.201   5.208
 6164TIP3    H118435   5.909   0.171   5.199
 6164TIP3    H218436   5.801   0.250   5.128
 6165TIP3   OH218437   2.726   0.354   3.895
 6165TIP3    H118438   2.678   0.314   3.967
 6165TIP3    H218439   2.743   0.281   3.834
 6166TIP3   OH218440   6.969   2.511   0.933
 6166TIP3    H118441   7.038   2.514   1.000
 6166TIP3    H218442   7.014   2.480   0.854
 6167TIP3   OH218443   6.239   4.725   1.266
 6167TIP3    H118444   6.248   4.756   1.176
 6167TIP3    H218445   6.145   4.719   1.280
 6168TIP3   OH218446   8.096   3.224   2.723
 6168TIP3    H118447   8.033   3.188   2.786
 6168TIP3    H218448   8.179   3.224   2.770
 6169TIP3   OH218449   4.242   2.276   2.822
 6169TIP3    H118450   4.163   2.260   2.873
 6169TIP3    H218451   4.221   2.351   2.767
 6170TIP3   OH218452   0.139   2.335   3.244
 6170TIP3    H118453   0.096   2.273   3.304
 6170TIP3    H218454   0.232   2.317   3.255
 6171TIP3   OH218455   4.372   4.310   5.479
 6171TIP3    H118456   4.434   4.336   5.547
 6171TIP3    H218457   4.287   4.308   5.522
 6172TIP3   OH218458   4.529   4.726   2.253
 6172TIP3    H118459   4.559   4.747   2.342
 6172TIP3    H218460   4.534   4.809   2.206
 6173TIP3   OH218461   7.396   0.885   4.442
 6173TIP3    H118462   7.458   0.958   4.441
 6173TIP3    H218463   7.450   0.807   4.427
 6174TIP3   OH218464   2.529   7.396   3.726
 6174TIP3    H118465   2.620   7.367   3.733
 6174TIP3    H218466   2.478   7.316   3.728
 6175TIP3   OH218467   7.750   2.654   4.949
 6175TIP3    H118468   7.696   2.720   4.906
 6175TIP3    H218469   7.815   2.703   4.998
 6176TIP3   OH218470   7.935   0.825   4.447
 6176TIP3    H118471   7.857   0.799   4.496
 6176TIP3    H218472   7.982   0.883   4.508
 6177TIP3   OH218473   4.955   6.782   1.980
 6177TIP3    H118474   4.950   6.746   1.891
 6177TIP3    H218475   4.872   6.828   1.993
 6178TIP3   OH218476   2.336   6.772   3.416
 6178TIP3    H118477   2.332   6.677   3.409
 6178TIP3    H218478   2.244   6.800   3.412
 6179TIP3   OH218479   8.176   2.579   1.361
 6179TIP3    H118480   8.261   2.607   1.395
 6179TIP3    H218481   8.120   2.656   1.370
 6180TIP3   OH218482   4.870   2.392   3.461
 6180TIP3    H118483   4.820   2.367   3.384
 6180TIP3    H218484   4.889   2.310   3.506
 6181TIP3   OH218485   7.261   3.882   4.983
 6181TIP3    H118486   7.173   3.892   5.021
 6181TIP3    H218487   7.280   3.966   4.941
 6182TIP3   OH218488   0.275   3.259   0.340
 6182TIP3    H118489   0.218   3.211   0.401
 6182TIP3    H218490   0.307   3.333   0.391
 6183TIP3   OH218491   2.508   3.782   2.979
 6183TIP3    H118492   2.526   3.776   3.073
 6183TIP3    H218493   2.592   3.806   2.941
 6184TIP3   OH218494   8.207   6.856   5.949
 6184TIP3    H118495   8.205   6.847   6.044
 6184TIP3    H218496   8.135   6.916   5.929
 6185TIP3   OH218497   1.436   1.915   4.784
 6185TIP3    H118498   1.429   1.820   4.769
 6185TIP3    H218499   1.492   1.946   4.713
 6186TIP3   OH218500   3.474   5.591   2.545
 6186TIP3    H118501   3.488   5.528   2.474
 6186TIP3    H218502   3.549   5.579   2.603
 6187TIP3   OH218503   6.747   5.571   0.199
 6187TIP3    H118504   6.774   5.650   0.153
 6187TIP3    H218505   6.672   5.539   0.149
 6188TIP3   OH218506   4.574   3.171   4.723
 6188TIP3    H118507   4.492   3.207   4.756
 6188TIP3    H218508   4.574   3.080   4.754
 6189TIP3   OH218509   5.585   3.033   3.846
 6189TIP3    H118510   5.662   2.995   3.803
 6189TIP3    H218511   5.614   3.120   3.873
 6190TIP3   OH218512   4.872   3.678   2.323
 6190TIP3    H118513   4.950   3.655   2.272
 6190TIP3    H218514   4.834   3.753   2.277
 6191TIP3   OH218515   1.749   5.326   1.653
 6191TIP3    H118516   1.785   5.283   1.730
 6191TIP3    H218517   1.677   5.270   1.625
 6192TIP3   OH218518   1.351   7.781   3.586
 6192TIP3    H118519   1.346   7.875   3.605
 6192TIP3    H218520   1.320   7.739   3.666
 6193TIP3   OH218521   0.358   3.772   4.674
 6193TIP3    H118522   0.441   3.810   4.705
 6193TIP3    H218523   0.384   3.690   4.631
 6194TIP3   OH218524   6.136   4.587   6.762
 6194TIP3    H118525   6.106   4.566   6.850
 6194TIP3    H218526   6.055   4.603   6.712
 6195TIP3   OH218527   7.995   2.895   5.424
 6195TIP3    H118528   7.926   2.929   5.368
 6195TIP3    H218529   7.963   2.908   5.513
 6196TIP3   OH218530   0.858   2.492   6.177
 6196TIP3    H118531   0.802   2.452   6.110
 6196TIP3    H218532   0.876   2.580   6.144
 6197TIP3   OH218533   2.698   4.846   4.481
 6197TIP3    H118534   2.672   4.916   4.420
 6197TIP3    H218535   2.782   4.816   4.447
 6198TIP3   OH218536   6.327   0.554   2.007
 6198TIP3    H118537   6.320   0.639   2.051
 6198TIP3    H218538   6.394   0.506   2.057
 6199TIP3   OH218539   7.826   7.722   3.283
 6199TIP3    H118540   7.920   7.707   3.291
 6199TIP3    H218541   7.802   7.680   3.201
 6200TIP3   OH218542   8.249   1.620   0.029
 6200TIP3    H118543   8.326   1.657   0.072
 6200TIP3    H218544   8.197   1.696   0.002
 6201TIP3   OH218545   4.473   1.054   3.511
 6201TIP3    H118546   4.405   1.027   3.573
 6201TIP3    H218547   4.431   1.048   3.425
 6202TIP3   OH218548   6.118   1.150   0.846
 6202TIP3    H118549   6.100   1.223   0.906
 6202TIP3    H218550   6.072   1.076   0.885
 6203TIP3   OH218551   5.215   2.127   1.315
 6203TIP3    H118552   5.187   2.037   1.304
 6203TIP3    H218553   5.310   2.125   1.305
 6204TIP3   OH218554  -0.030   7.017   3.291
 6204TIP3    H118555   0.029   7.052   3.224
 6204TIP3    H218556   0.020   7.024   3.373
 6205TIP3   OH218557   2.653   6.208   3.778
 6205TIP3    H118558   2.571   6.230   3.823
 6205TIP3    H218559   2.710   6.283   3.794
 6206TIP3   OH218560   4.507   7.798   0.432
 6206TIP3    H118561   4.487   7.817   0.340
 6206TIP3    H218562   4.556   7.875   0.463
 6207TIP3   OH218563   2.535   0.640   5.351
 6207TIP3    H118564   2.502   0.710   5.294
 6207TIP3    H218565   2.626   0.663   5.367
 6208TIP3   OH218566   4.196   5.310   6.216
 6208TIP3    H118567   4.177   5.219   6.192
 6208TIP3    H218568   4.254   5.302   6.292
 6209TIP3   OH218569   5.550   2.809   4.794
 6209TIP3    H118570   5.497   2.787   4.871
 6209TIP3    H218571   5.528   2.742   4.730
 6210TIP3   OH218572   0.139   3.560   0.666
 6210TIP3    H118573   0.139   3.655   0.679
 6210TIP3    H218574   0.050   3.539   0.639
 6211TIP3   OH218575   4.349   5.352   6.744
 6211TIP3    H118576   4.341   5.260   6.718
 6211TIP3    H218577   4.339   5.400   6.662
 6212TIP3   OH218578   5.294   1.135   6.060
 6212TIP3    H118579   5.200   1.142   6.075
 6212TIP3    H218580   5.303   1.119   5.966
 6213TIP3   OH218581   7.004   5.941   1.632
 6213TIP3    H118582   7.016   6.003   1.704
 6213TIP3    H218583   6.909   5.933   1.622
 6214TIP3   OH218584   4.489   0.757   1.953
 6214TIP3    H118585   4.484   0.709   1.871
 6214TIP3    H218586   4.574   0.801   1.949
 6215TIP3   OH218587   2.845   1.844   1.072
 6215TIP3    H118588   2.779   1.899   1.029
 6215TIP3    H218589   2.830   1.756   1.037
 6216TIP3   OH218590   6.029   1.103   5.896
 6216TIP3    H118591   6.098   1.037   5.888
 6216TIP3    H218592   6.050   1.149   5.977
 6217TIP3   OH218593   0.903   4.390   4.812
 6217TIP3    H118594   0.931   4.299   4.825
 6217TIP3    H218595   0.912   4.405   4.718
 6218TIP3   OH218596   3.090   2.299   5.994
 6218TIP3    H118597   3.019   2.350   5.957
 6218TIP3    H218598   3.113   2.235   5.926
 6219TIP3   OH218599   0.250   0.997   1.288
 6219TIP3    H118600   0.284   0.909   1.301
 6219TIP3    H218601   0.260   1.013   1.194
 6220TIP3   OH218602   4.722   3.573   1.802
 6220TIP3    H118603   4.706   3.601   1.892
 6220TIP3    H218604   4.774   3.494   1.810
 6221TIP3   OH218605   7.043   2.407   2.737
 6221TIP3    H118606   7.031   2.348   2.662
 6221TIP3    H218607   7.046   2.348   2.813
 6222TIP3   OH218608   5.554   1.375   4.274
 6222TIP3    H118609   5.583   1.373   4.366
 6222TIP3    H218610   5.564   1.466   4.247
 6223TIP3   OH218611   4.363   2.548   2.232
 6223TIP3    H118612   4.291   2.499   2.194
 6223TIP3    H218613   4.322   2.626   2.270
 6224TIP3   OH218614   7.083   0.802   0.760
 6224TIP3    H118615   7.154   0.786   0.822
 6224TIP3    H218616   7.047   0.887   0.786
 6225TIP3   OH218617   0.377   4.218   5.848
 6225TIP3    H118618   0.384   4.313   5.859
 6225TIP3    H218619   0.289   4.204   5.813
 6226TIP3   OH218620   2.293   3.012   0.362
 6226TIP3    H118621   2.320   3.092   0.408
 6226TIP3    H218622   2.201   3.002   0.386
 6227TIP3   OH218623   4.736   2.383   0.741
 6227TIP3    H118624   4.673   2.396   0.670
 6227TIP3    H218625   4.698   2.432   0.815
 6228TIP3   OH218626   7.639   3.846   5.931
 6228TIP3    H118627   7.669   3.937   5.934
 6228TIP3    H218628   7.703   3.797   5.982
 6229TIP3   OH218629   2.769   7.563   2.546
 6229TIP3    H118630   2.744   7.582   2.636
 6229TIP3    H218631   2.803   7.474   2.548
 6230TIP3   OH218632   2.430   6.200   0.948
 6230TIP3    H118633   2.393   6.123   0.904
 6230TIP3    H218634   2.440   6.173   1.039
 6231TIP3   OH218635   1.726   3.970   1.173
 6231TIP3    H118636   1.639   3.963   1.211
 6231TIP3    H218637   1.717   3.936   1.084
 6232TIP3   OH218638   5.498   6.513   6.652
 6232TIP3    H118639   5.424   6.454   6.637
 6232TIP3    H218640   5.489   6.581   6.585
 6233TIP3   OH218641   4.118   1.984   6.220
 6233TIP3    H118642   4.174   1.911   6.192
 6233TIP3    H218643   4.153   2.060   6.173
 6234TIP3   OH218644   8.165   2.016   1.501
 6234TIP3    H118645   8.148   2.110   1.498
 6234TIP3    H218646   8.101   1.981   1.562
 6235TIP3   OH218647   5.572   6.372   2.739
 6235TIP3    H118648   5.500   6.433   2.756
 6235TIP3    H218649   5.536   6.286   2.758
 6236TIP3   OH218650   2.622   4.843   0.659
 6236TIP3    H118651   2.527   4.847   0.674
 6236TIP3    H218652   2.645   4.753   0.680
 6237TIP3   OH218653   6.958   5.411   1.459
 6237TIP3    H118654   7.036   5.383   1.412
 6237TIP3    H218655   6.967   5.506   1.468
 6238TIP3   OH218656   5.496   4.477   0.359
 6238TIP3    H118657   5.538   4.540   0.300
 6238TIP3    H218658   5.445   4.421   0.301
 6239TIP3   OH218659   2.933   7.816   1.347
 6239TIP3    H118660   2.959   7.730   1.381
 6239TIP3    H218661   3.013   7.867   1.346
 6240TIP3   OH218662   1.966   0.593   5.510
 6240TIP3    H118663   1.879   0.559   5.489
 6240TIP3    H218664   1.996   0.634   5.429
 6241TIP3   OH218665   0.851   1.324   5.463
 6241TIP3    H118666   0.832   1.311   5.556
 6241TIP3    H218667   0.937   1.366   5.461
 6242TIP3   OH218668   3.312   0.799   4.712
 6242TIP3    H118669   3.375   0.727   4.711
 6242TIP3    H218670   3.320   0.840   4.626
 6243TIP3   OH218671   2.165   0.766   5.057
 6243TIP3    H118672   2.077   0.803   5.057
 6243TIP3    H218673   2.156   0.682   5.011
 6244TIP3   OH218674   2.616   2.642   1.256
 6244TIP3    H118675   2.673   2.715   1.281
 6244TIP3    H218676   2.676   2.575   1.222
 6245TIP3   OH218677   5.627   3.883   1.251
 6245TIP3    H118678   5.614   3.977   1.264
 6245TIP3    H218679   5.683   3.878   1.174
 6246TIP3   OH218680   4.351   4.687   4.166
 6246TIP3    H118681   4.364   4.592   4.175
 6246TIP3    H218682   4.424   4.715   4.111
 6247TIP3   OH218683   1.503   6.239   2.312
 6247TIP3    H118684   1.481   6.276   2.398
 6247TIP3    H218685   1.594   6.264   2.297
 6248TIP3   OH218686   1.230   6.158   2.050
 6248TIP3    H118687   1.215   6.217   2.123
 6248TIP3    H218688   1.255   6.214   1.977
 6249TIP3   OH218689   7.969   4.051   6.518
 6249TIP3    H118690   7.994   3.985   6.583
 6249TIP3    H218691   8.009   4.019   6.437
 6250TIP3   OH218692   1.194   6.932   3.360
 6250TIP3    H118693   1.155   7.011   3.397
 6250TIP3    H218694   1.230   6.960   3.276
 6251TIP3   OH218695   2.917   6.474   1.418
 6251TIP3    H118696   2.960   6.558   1.402
 6251TIP3    H218697   2.973   6.409   1.375
 6252TIP3   OH218698   0.726   4.599   1.232
 6252TIP3    H118699   0.674   4.674   1.201
 6252TIP3    H218700   0.666   4.551   1.289
 6253TIP3   OH218701   2.754   4.336   0.261
 6253TIP3    H118702   2.704   4.311   0.338
 6253TIP3    H218703   2.845   4.315   0.283
 6254TIP3   OH218704   0.703   3.879   2.270
 6254TIP3    H118705   0.613   3.854   2.292
 6254TIP3    H218706   0.697   3.971   2.243
 6255TIP3   OH218707   7.287   4.140   4.893
 6255TIP3    H118708   7.273   4.202   4.965
 6255TIP3    H218709   7.380   4.148   4.872
 6256TIP3   OH218710   5.396   6.629   0.550
 6256TIP3    H118711   5.446   6.705   0.520
 6256TIP3    H218712   5.393   6.572   0.473
 6257TIP3   OH218713   1.601   2.244   2.063
 6257TIP3    H118714   1.613   2.299   1.986
 6257TIP3    H218715   1.606   2.304   2.137
 6258TIP3   OH218716   1.680   1.746   4.377
 6258TIP3    H118717   1.746   1.707   4.434
 6258TIP3    H218718   1.721   1.749   4.291
 6259TIP3   OH218719   5.977   1.033   2.810
 6259TIP3    H118720   5.903   1.047   2.751
 6259TIP3    H218721   5.967   1.101   2.877
 6260TIP3   OH218722   0.783   4.541   0.035
 6260TIP3    H118723   0.773   4.527  -0.060
 6260TIP3    H218724   0.746   4.628   0.050
 6261TIP3   OH218725   2.393   2.081  -0.019
 6261TIP3    H118726   2.357   2.087   0.070
 6261TIP3    H218727   2.426   2.169  -0.037
 6262TIP3   OH218728   3.517   2.524   6.712
 6262TIP3    H118729   3.573   2.600   6.726
 6262TIP3    H218730   3.577   2.451   6.698
 6263TIP3   OH218731   4.496   1.112   2.501
 6263TIP3    H118732   4.447   1.112   2.418
 6263TIP3    H218733   4.526   1.021   2.511
 6264TIP3   OH218734   2.033   4.111   1.880
 6264TIP3    H118735   2.063   4.187   1.931
 6264TIP3    H218736   2.011   4.045   1.945
 6265TIP3   OH218737   4.076   6.248   2.784
 6265TIP3    H118738   4.057   6.224   2.693
 6265TIP3    H218739   4.160   6.293   2.780
 6266TIP3   OH218740   7.981   7.726   0.680
 6266TIP3    H118741   8.038   7.667   0.729
 6266TIP3    H218742   7.894   7.710   0.715
 6267TIP3   OH218743   4.236   5.097   3.909
 6267TIP3    H118744   4.188   5.163   3.959
 6267TIP3    H218745   4.190   5.015   3.926
 6268TIP3   OH218746   7.537   4.689   4.570
 6268TIP3    H118747   7.474   4.622   4.545
 6268TIP3    H218748   7.484   4.768   4.584
 6269TIP3   OH218749   1.692   5.542   5.594
 6269TIP3    H118750   1.661   5.630   5.618
 6269TIP3    H218751   1.660   5.486   5.664
 6270TIP3   OH218752   5.292   0.309   5.486
 6270TIP3    H118753   5.205   0.318   5.526
 6270TIP3    H218754   5.304   0.215   5.477
 6271TIP3   OH218755   2.816   1.229   0.111
 6271TIP3    H118756   2.873   1.153   0.123
 6271TIP3    H218757   2.809   1.268   0.198
 6272TIP3   OH218758   7.212   1.904   5.336
 6272TIP3    H118759   7.238   1.907   5.243
 6272TIP3    H218760   7.202   1.996   5.360
 6273TIP3   OH218761   8.234   7.050   3.721
 6273TIP3    H118762   8.236   7.005   3.636
 6273TIP3    H218763   8.186   6.991   3.779
 6274TIP3   OH218764   0.985   1.274   4.879
 6274TIP3    H118765   0.905   1.322   4.897
 6274TIP3    H218766   0.977   1.247   4.788
 6275TIP3   OH218767   1.799   5.927   5.168
 6275TIP3    H118768   1.893   5.925   5.184
 6275TIP3    H218769   1.765   5.987   5.235
 6276TIP3   OH218770   6.144   2.073   0.149
 6276TIP3    H118771   6.108   2.081   0.061
 6276TIP3    H218772   6.179   1.983   0.153
 6277TIP3   OH218773   2.625   0.536   2.212
 6277TIP3    H118774   2.584   0.584   2.141
 6277TIP3    H218775   2.565   0.462   2.229
 6278TIP3   OH218776   3.238   0.594   0.456
 6278TIP3    H118777   3.311   0.570   0.513
 6278TIP3    H218778   3.192   0.511   0.440
 6279TIP3   OH218779   1.383   3.252   3.918
 6279TIP3    H118780   1.306   3.238   3.973
 6279TIP3    H218781   1.423   3.331   3.954
 6280TIP3   OH218782   4.276   2.311   5.512
 6280TIP3    H118783   4.236   2.224   5.503
 6280TIP3    H218784   4.290   2.322   5.606
 6281TIP3   OH218785   0.540   6.227   5.245
 6281TIP3    H118786   0.577   6.227   5.334
 6281TIP3    H218787   0.451   6.194   5.257
 6282TIP3   OH218788   5.112   6.145   4.271
 6282TIP3    H118789   5.193   6.128   4.319
 6282TIP3    H218790   5.116   6.086   4.196
 6283TIP3   OH218791   1.702   7.447   5.420
 6283TIP3    H118792   1.749   7.521   5.458
 6283TIP3    H218793   1.759   7.416   5.351
 6284TIP3   OH218794   5.054   1.281   2.476
 6284TIP3    H118795   5.146   1.308   2.484
 6284TIP3    H218796   5.015   1.303   2.561
 6285TIP3   OH218797   4.676   3.350   0.783
 6285TIP3    H118798   4.603   3.297   0.753
 6285TIP3    H218799   4.646   3.388   0.865
 6286TIP3   OH218800   5.452   1.375   1.989
 6286TIP3    H118801   5.543   1.404   1.986
 6286TIP3    H218802   5.431   1.372   2.082
 6287TIP3   OH218803   7.304   2.097   2.635
 6287TIP3    H118804   7.273   2.093   2.725
 6287TIP3    H218805   7.227   2.077   2.581
 6288TIP3   OH218806   8.159   4.345   2.231
 6288TIP3    H118807   8.138   4.391   2.312
 6288TIP3    H218808   8.191   4.260   2.259
 6289TIP3   OH218809   3.889   3.628   3.615
 6289TIP3    H118810   3.958   3.569   3.646
 6289TIP3    H218811   3.855   3.669   3.694
 6290TIP3   OH218812   4.039   4.899   0.542
 6290TIP3    H118813   3.956   4.882   0.499
 6290TIP3    H218814   4.024   4.878   0.634
 6291TIP3   OH218815   0.602   7.229   2.908
 6291TIP3    H118816   0.544   7.296   2.945
 6291TIP3    H218817   0.545   7.155   2.889
 6292TIP3   OH218818   2.387   3.241   2.889
 6292TIP3    H118819   2.385   3.325   2.935
 6292TIP3    H218820   2.299   3.230   2.855
 6293TIP3   OH218821   4.254   2.850   4.723
 6293TIP3    H118822   4.323   2.807   4.772
 6293TIP3    H218823   4.202   2.897   4.789
 6294TIP3   OH218824   6.076   5.788   0.424
 6294TIP3    H118825   6.085   5.719   0.490
 6294TIP3    H218826   5.995   5.767   0.378
 6295TIP3   OH218827   2.105   1.573   4.096
 6295TIP3    H118828   2.111   1.654   4.147
 6295TIP3    H218829   2.177   1.519   4.129
 6296TIP3   OH218830   0.289   7.271   3.397
 6296TIP3    H118831   0.255   7.360   3.383
 6296TIP3    H218832   0.260   7.222   3.320
 6297TIP3   OH218833   1.396   6.063   4.345
 6297TIP3    H118834   1.436   5.998   4.403
 6297TIP3    H218835   1.319   6.094   4.393
 6298TIP3   OH218836   2.003   1.977   3.204
 6298TIP3    H118837   2.039   1.988   3.116
 6298TIP3    H218838   1.908   1.986   3.192
 6299TIP3   OH218839   0.804   6.080   4.815
 6299TIP3    H118840   0.748   6.106   4.888
 6299TIP3    H218841   0.813   5.985   4.825
 6300TIP3   OH218842   7.001   2.496   6.051
 6300TIP3    H118843   7.064   2.541   6.107
 6300TIP3    H218844   7.037   2.408   6.041
 6301TIP3   OH218845   2.807   2.647   5.366
 6301TIP3    H118846   2.727   2.597   5.355
 6301TIP3    H218847   2.786   2.714   5.431
 6302TIP3   OH218848   4.618   5.789   2.385
 6302TIP3    H118849   4.684   5.737   2.430
 6302TIP3    H218850   4.616   5.755   2.295
 6303TIP3   OH218851   0.127   1.975   6.614
 6303TIP3    H118852   0.219   1.991   6.592
 6303TIP3    H218853   0.131   1.923   6.695
 6304TIP3   OH218854   6.385   3.343   6.167
 6304TIP3    H118855   6.397   3.425   6.215
 6304TIP3    H218856   6.437   3.353   6.088
 6305TIP3   OH218857   3.693   0.708   6.690
 6305TIP3    H118858   3.685   0.796   6.654
 6305TIP3    H218859   3.764   0.667   6.640
 6306TIP3   OH218860   0.905   5.029   1.407
 6306TIP3    H118861   0.956   4.953   1.378
 6306TIP3    H218862   0.824   5.023   1.357
 6307TIP3   OH218863   3.805   0.544   3.097
 6307TIP3    H118864   3.831   0.547   3.005
 6307TIP3    H218865   3.825   0.632   3.130
 6308TIP3   OH218866   7.840   4.595   2.482
 6308TIP3    H118867   7.836   4.571   2.389
 6308TIP3    H218868   7.906   4.664   2.486
 6309TIP3   OH218869   3.552   7.477   1.115
 6309TIP3    H118870   3.520   7.516   1.197
 6309TIP3    H218871   3.592   7.549   1.068
 6310TIP3   OH218872   8.184   0.837   5.119
 6310TIP3    H118873   8.135   0.849   5.037
 6310TIP3    H218874   8.154   0.908   5.176
 6311TIP3   OH218875   4.898   5.414   0.507
 6311TIP3    H118876   4.886   5.324   0.540
 6311TIP3    H218877   4.825   5.463   0.546
 6312TIP3   OH218878   2.712   2.818   0.926
 6312TIP3    H118879   2.701   2.790   0.835
 6312TIP3    H218880   2.622   2.835   0.956
 6313TIP3   OH218881   5.181   5.436   5.549
 6313TIP3    H118882   5.230   5.396   5.477
 6313TIP3    H218883   5.094   5.396   5.543
 6314TIP3   OH218884   0.281   1.247   6.317
 6314TIP3    H118885   0.286   1.152   6.312
 6314TIP3    H218886   0.372   1.277   6.312
 6315TIP3   OH218887   3.412   5.167   0.259
 6315TIP3    H118888   3.469   5.124   0.197
 6315TIP3    H218889   3.340   5.106   0.274
 6316TIP3   OH218890   3.322   0.716   4.027
 6316TIP3    H118891   3.320   0.776   4.101
 6316TIP3    H218892   3.377   0.760   3.962
 6317TIP3   OH218893   2.969   6.423   5.758
 6317TIP3    H118894   3.040   6.471   5.799
 6317TIP3    H218895   2.901   6.488   5.744
 6318TIP3   OH218896   7.361   2.413   0.027
 6318TIP3    H118897   7.295   2.431  -0.041
 6318TIP3    H218898   7.328   2.335   0.071
 6319TIP3   OH218899   4.812   0.113   2.638
 6319TIP3    H118900   4.742   0.072   2.588
 6319TIP3    H218901   4.869   0.040   2.665
 6320TIP3   OH218902   5.778   4.438   5.160
 6320TIP3    H118903   5.782   4.360   5.215
 6320TIP3    H218904   5.739   4.505   5.216
 6321TIP3   OH218905   5.597   5.080   4.888
 6321TIP3    H118906   5.605   4.984   4.892
 6321TIP3    H218907   5.503   5.096   4.885
 6322TIP3   OH218908   2.952   2.100   1.529
 6322TIP3    H118909   2.877   2.046   1.554
 6322TIP3    H218910   3.019   2.037   1.503
 6323TIP3   OH218911   3.986   7.712   2.538
 6323TIP3    H118912   3.906   7.724   2.487
 6323TIP3    H218913   4.055   7.747   2.482
 6324TIP3   OH218914   1.972   7.478   6.624
 6324TIP3    H118915   1.986   7.443   6.712
 6324TIP3    H218916   1.918   7.556   6.637
 6325TIP3   OH218917   0.584   3.305   2.589
 6325TIP3    H118918   0.541   3.274   2.669
 6325TIP3    H218919   0.669   3.261   2.589
 6326TIP3   OH218920   3.074   1.113   3.087
 6326TIP3    H118921   3.131   1.166   3.143
 6326TIP3    H218922   3.132   1.079   3.019
 6327TIP3   OH218923   7.150   4.673   5.599
 6327TIP3    H118924   7.152   4.723   5.680
 6327TIP3    H218925   7.166   4.737   5.530
 6328TIP3   OH218926   5.031   1.682   3.382
 6328TIP3    H118927   5.056   1.706   3.292
 6328TIP3    H218928   4.941   1.714   3.391
 6329TIP3   OH218929   4.197   0.778   3.916
 6329TIP3    H118930   4.116   0.792   3.964
 6329TIP3    H218931   4.243   0.711   3.966
 6330TIP3   OH218932   5.059   7.131   1.363
 6330TIP3    H118933   5.062   7.224   1.388
 6330TIP3    H218934   4.980   7.098   1.406
 6331TIP3   OH218935   5.627   3.619   3.537
 6331TIP3    H118936   5.560   3.587   3.476
 6331TIP3    H218937   5.650   3.542   3.590
 6332TIP3   OH218938   4.636   4.357   1.042
 6332TIP3    H118939   4.590   4.441   1.043
 6332TIP3    H218940   4.665   4.347   0.952
 6333TIP3   OH218941   3.565   1.750   2.026
 6333TIP3    H118942   3.505   1.788   1.961
 6333TIP3    H218943   3.649   1.792   2.009
 6334TIP3   OH218944   3.366   1.657   4.388
 6334TIP3    H118945   3.458   1.631   4.377
 6334TIP3    H218946   3.370   1.733   4.447
 6335TIP3   OH218947   5.188   4.176   6.048
 6335TIP3    H118948   5.129   4.112   6.009
 6335TIP3    H218949   5.157   4.260   6.014
 6336TIP3   OH218950   2.708   3.724   0.603
 6336TIP3    H118951   2.755   3.661   0.548
 6336TIP3    H218952   2.734   3.810   0.568
 6337TIP3   OH218953   3.753   6.895   4.199
 6337TIP3    H118954   3.789   6.982   4.216
 6337TIP3    H218955   3.660   6.909   4.185
 6338TIP3   OH218956   6.678   6.694   2.465
 6338TIP3    H118957   6.625   6.766   2.498
 6338TIP3    H218958   6.767   6.714   2.494
 6339TIP3   OH218959   0.108   2.927   2.822
 6339TIP3    H118960   0.175   2.995   2.817
 6339TIP3    H218961   0.135   2.862   2.757
 6340TIP3   OH218962   2.070   3.665   6.579
 6340TIP3    H118963   2.082   3.604   6.507
 6340TIP3    H218964   1.985   3.706   6.561
 6341TIP3   OH218965   5.485   2.174   5.755
 6341TIP3    H118966   5.441   2.237   5.697
 6341TIP3    H218967   5.448   2.191   5.841
 6342TIP3   OH218968   5.393   7.250   2.006
 6342TIP3    H118969   5.399   7.187   2.077
 6342TIP3    H218970   5.354   7.201   1.933
 6343TIP3   OH218971   6.516   0.275   2.072
 6343TIP3    H118972   6.517   0.325   2.153
 6343TIP3    H218973   6.597   0.299   2.027
 6344TIP3   OH218974   5.801   2.419   0.890
 6344TIP3    H118975   5.806   2.434   0.985
 6344TIP3    H218976   5.785   2.505   0.853
 6345TIP3   OH218977   1.738   2.392   5.643
 6345TIP3    H118978   1.728   2.304   5.679
 6345TIP3    H218979   1.659   2.406   5.591
 6346TIP3   OH218980   6.267   7.129   2.468
 6346TIP3    H118981   6.217   7.075   2.529
 6346TIP3    H218982   6.210   7.137   2.391
 6347TIP3   OH218983   4.427   6.351   1.030
 6347TIP3    H118984   4.351   6.295   1.044
 6347TIP3    H218985   4.405   6.434   1.073
 6348TIP3   OH218986   7.445   6.645   1.647
 6348TIP3    H118987   7.472   6.737   1.650
 6348TIP3    H218988   7.488   6.606   1.723
 6349TIP3   OH218989   3.977   4.415   3.008
 6349TIP3    H118990   4.043   4.451   2.948
 6349TIP3    H218991   3.896   4.417   2.958
 6350TIP3   OH218992   6.808   3.713   3.636
 6350TIP3    H118993   6.750   3.760   3.696
 6350TIP3    H218994   6.892   3.709   3.681
 6351TIP3   OH218995   3.289   0.180   5.172
 6351TIP3    H118996   3.312   0.247   5.236
 6351TIP3    H218997   3.368   0.170   5.119
 6352TIP3   OH218998   7.229   1.287   2.523
 6352TIP3    H118999   7.195   1.294   2.613
 6352TIP3    H219000   7.216   1.195   2.500
 6353TIP3   OH219001   1.794   1.610   4.975
 6353TIP3    H119002   1.720   1.612   4.915
 6353TIP3    H219003   1.800   1.519   5.004
 6354TIP3   OH219004   1.288   6.062   0.022
 6354TIP3    H119005   1.229   5.988   0.037
 6354TIP3    H219006   1.296   6.103   0.108
 6355TIP3   OH219007   5.875   7.347   5.643
 6355TIP3    H119008   5.943   7.284   5.668
 6355TIP3    H219009   5.890   7.422   5.701
 6356TIP3   OH219010   1.839   2.807   4.898
 6356TIP3    H119011   1.900   2.733   4.902
 6356TIP3    H219012   1.786   2.797   4.977
 6357TIP3   OH219013   3.600   0.259   2.443
 6357TIP3    H119014   3.640   0.197   2.505
 6357TIP3    H219015   3.506   0.245   2.454
 6358TIP3   OH219016   6.361   4.440   3.932
 6358TIP3    H119017   6.413   4.519   3.949
 6358TIP3    H219018   6.270   4.470   3.935
 6359TIP3   OH219019   7.825   4.753   0.865
 6359TIP3    H119020   7.908   4.721   0.900
 6359TIP3    H219021   7.790   4.811   0.932
 6360TIP3   OH219022   0.398   1.255   2.126
 6360TIP3    H119023   0.392   1.160   2.128
 6360TIP3    H219024   0.325   1.285   2.182
 6361TIP3   OH219025   5.997   1.951   4.995
 6361TIP3    H119026   6.056   1.986   5.061
 6361TIP3    H219027   6.054   1.912   4.929
 6362TIP3   OH219028   2.927   5.654   3.769
 6362TIP3    H119029   2.955   5.563   3.769
 6362TIP3    H219030   2.868   5.661   3.844
 6363TIP3   OH219031   4.724   4.510   2.808
 6363TIP3    H119032   4.715   4.427   2.760
 6363TIP3    H219033   4.807   4.546   2.777
 6364TIP3   OH219034   2.782   3.822   3.960
 6364TIP3    H119035   2.700   3.856   3.922
 6364TIP3    H219036   2.822   3.899   4.001
 6365TIP3   OH219037   1.080   1.505   1.354
 6365TIP3    H119038   1.030   1.464   1.425
 6365TIP3    H219039   1.140   1.564   1.398
 6366TIP3   OH219040   7.426   5.566   0.393
 6366TIP3    H119041   7.361   5.584   0.325
 6366TIP3    H219042   7.403   5.625   0.465
 6367TIP3   OH219043   2.784   7.469   1.611
 6367TIP3    H119044   2.756   7.528   1.681
 6367TIP3    H219045   2.729   7.392   1.620
 6368TIP3   OH219046   7.294   6.991   2.069
 6368TIP3    H119047   7.342   7.009   2.150
 6368TIP3    H219048   7.265   6.900   2.078
 6369TIP3   OH219049   7.826   0.890   0.322
 6369TIP3    H119050   7.773   0.841   0.384
 6369TIP3    H219051   7.908   0.840   0.315
 6370TIP3   OH219052   5.588   3.476   0.427
 6370TIP3    H119053   5.664   3.441   0.381
 6370TIP3    H219054   5.607   3.569   0.439
 6371TIP3   OH219055   6.081   1.391   0.951
 6371TIP3    H119056   6.005   1.394   1.010
 6371TIP3    H219057   6.073   1.471   0.899
 6372TIP3   OH219058   0.459   7.302   0.263
 6372TIP3    H119059   0.442   7.341   0.177
 6372TIP3    H219060   0.509   7.368   0.310
 6373TIP3   OH219061   7.969   4.362   3.177
 6373TIP3    H119062   7.877   4.389   3.182
 6373TIP3    H219063   7.991   4.337   3.266
 6374TIP3   OH219064   7.581   3.772   6.680
 6374TIP3    H119065   7.579   3.740   6.770
 6374TIP3    H219066   7.561   3.865   6.687
 6375TIP3   OH219067   1.974   7.274   1.673
 6375TIP3    H119068   2.017   7.358   1.687
 6375TIP3    H219069   2.023   7.234   1.601
 6376TIP3   OH219070   4.138   6.314   4.359
 6376TIP3    H119071   4.113   6.223   4.343
 6376TIP3    H219072   4.196   6.336   4.285
 6377TIP3   OH219073   3.963   0.216   4.218
 6377TIP3    H119074   3.875   0.246   4.239
 6377TIP3    H219075   3.973   0.134   4.267
 6378TIP3   OH219076   7.393   1.532   0.536
 6378TIP3    H119077   7.477   1.505   0.572
 6378TIP3    H219078   7.415   1.603   0.476
 6379TIP3   OH219079   0.240   2.329   3.689
 6379TIP3    H119080   0.294   2.357   3.763
 6379TIP3    H219081   0.272   2.380   3.615
 6380TIP3   OH219082   6.903   1.678   3.223
 6380TIP3    H119083   6.852   1.735   3.280
 6380TIP3    H219084   6.964   1.633   3.281
 6381TIP3   OH219085   7.142   4.595   0.059
 6381TIP3    H119086   7.195   4.654   0.007
 6381TIP3    H219087   7.052   4.612   0.031
 6382TIP3   OH219088   0.385   6.707   6.223
 6382TIP3    H119089   0.411   6.735   6.135
 6382TIP3    H219090   0.324   6.774   6.253
 6383TIP3   OH219091   6.204   2.113   1.332
 6383TIP3    H119092   6.207   2.152   1.245
 6383TIP3    H219093   6.138   2.165   1.379
 6384TIP3   OH219094   1.262   7.456   2.137
 6384TIP3    H119095   1.222   7.371   2.154
 6384TIP3    H219096   1.257   7.503   2.220
 6385TIP3   OH219097   2.868   3.077   3.712
 6385TIP3    H119098   2.960   3.099   3.698
 6385TIP3    H219099   2.869   2.985   3.739
 6386TIP3   OH219100   4.575   6.631   2.802
 6386TIP3    H119101   4.609   6.606   2.716
 6386TIP3    H219102   4.480   6.626   2.792
 6387TIP3   OH219103   6.592   0.850   6.462
 6387TIP3    H119104   6.630   0.918   6.406
 6387TIP3    H219105   6.658   0.781   6.465
 6388TIP3   OH219106   0.540   0.406   4.388
 6388TIP3    H119107   0.611   0.353   4.354
 6388TIP3    H219108   0.472   0.401   4.321
 6389TIP3   OH219109   1.606   7.292   6.603
 6389TIP3    H119110   1.622   7.334   6.687
 6389TIP3    H219111   1.687   7.246   6.583
 6390TIP3   OH219112   0.847   1.758   1.236
 6390TIP3    H119113   0.931   1.740   1.193
 6390TIP3    H219114   0.817   1.840   1.198
 6391TIP3   OH219115   5.530   4.550   5.288
 6391TIP3    H119116   5.594   4.615   5.261
 6391TIP3    H219117   5.459   4.601   5.327
 6392TIP3   OH219118   4.717   7.602   3.909
 6392TIP3    H119119   4.741   7.683   3.955
 6392TIP3    H219120   4.642   7.626   3.856
 6393TIP3   OH219121   7.172   2.262   6.719
 6393TIP3    H119122   7.256   2.216   6.730
 6393TIP3    H219123   7.167   2.321   6.795
 6394TIP3   OH219124   2.954   7.710   6.375
 6394TIP3    H119125   2.949   7.632   6.430
 6394TIP3    H219126   3.005   7.773   6.427
 6395TIP3   OH219127   0.594   2.935   0.106
 6395TIP3    H119128   0.675   2.919   0.154
 6395TIP3    H219129   0.552   3.008   0.152
 6396TIP3   OH219130   7.447   6.987   4.225
 6396TIP3    H119131   7.522   7.047   4.225
 6396TIP3    H219132   7.375   7.038   4.261
 6397TIP3   OH219133   4.666   0.712   0.058
 6397TIP3    H119134   4.624   0.761   0.128
 6397TIP3    H219135   4.753   0.751   0.050
 6398TIP3   OH219136   1.855   3.378   2.747
 6398TIP3    H119137   1.888   3.371   2.658
 6398TIP3    H219138   1.760   3.382   2.737
 6399TIP3   OH219139   4.713   5.946   3.593
 6399TIP3    H119140   4.705   5.966   3.686
 6399TIP3    H219141   4.704   5.851   3.587
 6400TIP3   OH219142   6.720   6.612   2.187
 6400TIP3    H119143   6.720   6.693   2.236
 6400TIP3    H219144   6.652   6.559   2.227
 6401TIP3   OH219145   6.811   4.904   3.669
 6401TIP3    H119146   6.783   4.815   3.692
 6401TIP3    H219147   6.875   4.891   3.599
 6402TIP3   OH219148   5.547   1.482   3.721
 6402TIP3    H119149   5.466   1.441   3.751
 6402TIP3    H219150   5.560   1.447   3.633
 6403TIP3   OH219151   2.763   5.227   4.455
 6403TIP3    H119152   2.786   5.201   4.545
 6403TIP3    H219153   2.844   5.215   4.406
 6404TIP3   OH219154   3.618   3.308   0.793
 6404TIP3    H119155   3.552   3.366   0.830
 6404TIP3    H219156   3.698   3.361   0.789
 6405TIP3   OH219157   1.202   3.495   4.186
 6405TIP3    H119158   1.192   3.586   4.214
 6405TIP3    H219159   1.296   3.486   4.168
 6406TIP3   OH219160   2.895   6.058   5.717
 6406TIP3    H119161   2.800   6.061   5.726
 6406TIP3    H219162   2.915   6.133   5.661
 6407TIP3   OH219163   0.441   7.484   4.558
 6407TIP3    H119164   0.523   7.445   4.529
 6407TIP3    H219165   0.460   7.517   4.646
 6408TIP3   OH219166   1.407   6.404   3.671
 6408TIP3    H119167   1.315   6.408   3.696
 6408TIP3    H219168   1.409   6.442   3.583
 6409TIP3   OH219169   5.971   4.326   6.066
 6409TIP3    H119170   5.954   4.375   6.147
 6409TIP3    H219171   5.885   4.297   6.037
 6410TIP3   OH219172   1.296   7.648   1.929
 6410TIP3    H119173   1.255   7.596   1.861
 6410TIP3    H219174   1.310   7.587   2.001
 6411TIP3   OH219175   3.946   0.746   3.221
 6411TIP3    H119176   3.988   0.796   3.150
 6411TIP3    H219177   4.018   0.696   3.260
 6412TIP3   OH219178   0.522   5.726   0.703
 6412TIP3    H119179   0.469   5.673   0.763
 6412TIP3    H219180   0.610   5.690   0.709
 6413TIP3   OH219181   2.030   5.408   1.141
 6413TIP3    H119182   1.978   5.371   1.212
 6413TIP3    H219183   2.031   5.502   1.159
 6414TIP3   OH219184   2.633   6.447   4.959
 6414TIP3    H119185   2.642   6.355   4.934
 6414TIP3    H219186   2.637   6.494   4.876
 6415TIP3   OH219187   2.113   1.458   2.144
 6415TIP3    H119188   2.072   1.425   2.224
 6415TIP3    H219189   2.047   1.446   2.076
 6416TIP3   OH219190   3.567   0.561   3.259
 6416TIP3    H119191   3.653   0.528   3.230
 6416TIP3    H219192   3.584   0.601   3.344
 6417TIP3   OH219193   1.774   3.880   4.238
 6417TIP3    H119194   1.719   3.889   4.315
 6417TIP3    H219195   1.743   3.947   4.177
 6418TIP3   OH219196   3.315   6.966   0.773
 6418TIP3    H119197   3.335   7.022   0.847
 6418TIP3    H219198   3.220   6.952   0.778
 6419TIP3   OH219199   6.148   7.240   5.654
 6419TIP3    H119200   6.160   7.329   5.622
 6419TIP3    H219201   6.203   7.186   5.596
 6420TIP3   OH219202   1.188   2.684   2.221
 6420TIP3    H119203   1.187   2.776   2.247
 6420TIP3    H219204   1.262   2.676   2.160
 6421TIP3   OH219205   1.169   1.861   0.329
 6421TIP3    H119206   1.165   1.838   0.236
 6421TIP3    H219207   1.237   1.805   0.365
 6422TIP3   OH219208   1.878   2.796   5.953
 6422TIP3    H119209   1.872   2.765   5.863
 6422TIP3    H219210   1.818   2.871   5.955
 6423TIP3   OH219211   2.842   1.713   2.805
 6423TIP3    H119212   2.777   1.658   2.847
 6423TIP3    H219213   2.806   1.801   2.809
 6424TIP3   OH219214   4.808   3.319   4.824
 6424TIP3    H119215   4.735   3.272   4.786
 6424TIP3    H219216   4.820   3.395   4.767
 6425TIP3   OH219217   0.563   6.146   0.598
 6425TIP3    H119218   0.628   6.134   0.530
 6425TIP3    H219219   0.566   6.240   0.619
 6426TIP3   OH219220   2.803   7.526   6.187
 6426TIP3    H119221   2.744   7.498   6.257
 6426TIP3    H219222   2.861   7.590   6.229
 6427TIP3   OH219223   2.609   1.203   5.028
 6427TIP3    H119224   2.647   1.124   5.066
 6427TIP3    H219225   2.682   1.245   4.982
 6428TIP3   OH219226   6.401   1.561   3.876
 6428TIP3    H119227   6.360   1.510   3.945
 6428TIP3    H219228   6.365   1.525   3.795
 6429TIP3   OH219229   3.506   4.126   0.568
 6429TIP3    H119230   3.460   4.052   0.530
 6429TIP3    H219231   3.465   4.139   0.654
 6430TIP3   OH219232   0.776   2.415   1.718
 6430TIP3    H119233   0.838   2.486   1.702
 6430TIP3    H219234   0.720   2.413   1.640
 6431TIP3   OH219235   1.914   7.036   0.725
 6431TIP3    H119236   1.958   7.120   0.716
 6431TIP3    H219237   1.982   6.976   0.753
 6432TIP3   OH219238   7.953   7.184   1.645
 6432TIP3    H119239   7.930   7.117   1.581
 6432TIP3    H219240   7.875   7.239   1.652
 6433TIP3   OH219241   5.724   5.793   5.698
 6433TIP3    H119242   5.637   5.769   5.731
 6433TIP3    H219243   5.706   5.847   5.621
 6434TIP3   OH219244   3.033   1.573   5.295
 6434TIP3    H119245   2.962   1.635   5.279
 6434TIP3    H219246   3.049   1.578   5.389
 6435TIP3   OH219247   0.542   6.312   1.705
 6435TIP3    H119248   0.494   6.269   1.776
 6435TIP3    H219249   0.629   6.272   1.707
 6436TIP3   OH219250   5.608   0.047   5.511
 6436TIP3    H119251   5.528   0.046   5.458
 6436TIP3    H219252   5.577   0.061   5.600
 6437TIP3   OH219253   3.356   2.742   5.363
 6437TIP3    H119254   3.285   2.788   5.408
 6437TIP3    H219255   3.434   2.796   5.378
 6438TIP3   OH219256   5.280   1.044   2.644
 6438TIP3    H119257   5.207   0.995   2.606
 6438TIP3    H219258   5.241   1.094   2.715
 6439TIP3   OH219259   7.668   2.846   6.619
 6439TIP3    H119260   7.602   2.819   6.555
 6439TIP3    H219261   7.751   2.823   6.579
 6440TIP3   OH219262   7.666   2.430   3.314
 6440TIP3    H119263   7.740   2.377   3.284
 6440TIP3    H219264   7.647   2.489   3.241
 6441TIP3   OH219265   6.056   7.625   3.129
 6441TIP3    H119266   6.059   7.707   3.079
 6441TIP3    H219267   6.144   7.616   3.166
 6442TIP3   OH219268   1.127   1.386   6.101
 6442TIP3    H119269   1.033   1.385   6.085
 6442TIP3    H219270   1.152   1.479   6.094
 6443TIP3   OH219271   6.089   6.081   3.070
 6443TIP3    H119272   6.049   6.071   2.984
 6443TIP3    H219273   6.121   5.993   3.092
 6444TIP3   OH219274   2.743   0.197   3.685
 6444TIP3    H119275   2.823   0.150   3.660
 6444TIP3    H219276   2.673   0.149   3.640
 6445TIP3   OH219277   2.120   6.454   2.228
 6445TIP3    H119278   2.166   6.378   2.192
 6445TIP3    H219279   2.137   6.450   2.322
 6446TIP3   OH219280   6.788   1.438   5.588
 6446TIP3    H119281   6.716   1.497   5.613
 6446TIP3    H219282   6.772   1.358   5.638
 6447TIP3   OH219283   5.318   2.382   1.952
 6447TIP3    H119284   5.410   2.388   1.977
 6447TIP3    H219285   5.288   2.299   1.988
 6448TIP3   OH219286   5.468   6.612   5.661
 6448TIP3    H119287   5.390   6.649   5.621
 6448TIP3    H219288   5.514   6.688   5.698
 6449TIP3   OH219289   4.176   4.028   5.756
 6449TIP3    H119290   4.257   4.014   5.706
 6449TIP3    H219291   4.190   3.981   5.838
 6450TIP3   OH219292   7.646   5.046   0.944
 6450TIP3    H119293   7.716   5.093   0.899
 6450TIP3    H219294   7.692   4.977   0.993
 6451TIP3   OH219295   2.954   5.751   2.802
 6451TIP3    H119296   2.970   5.844   2.789
 6451TIP3    H219297   3.014   5.725   2.872
 6452TIP3   OH219298   5.653   7.534   5.939
 6452TIP3    H119299   5.737   7.555   5.980
 6452TIP3    H219300   5.655   7.440   5.926
 6453TIP3   OH219301   8.074   5.865   2.897
 6453TIP3    H119302   8.030   5.781   2.886
 6453TIP3    H219303   8.064   5.885   2.990
 6454TIP3   OH219304   4.721   7.666   4.943
 6454TIP3    H119305   4.656   7.596   4.942
 6454TIP3    H219306   4.743   7.677   5.036
 6455TIP3   OH219307   1.373   5.069   0.134
 6455TIP3    H119308   1.319   5.115   0.069
 6455TIP3    H219309   1.311   5.038   0.199
 6456TIP3   OH219310   4.182   6.698   4.336
 6456TIP3    H119311   4.182   6.772   4.397
 6456TIP3    H219312   4.121   6.635   4.375
 6457TIP3   OH219313   1.202   1.565   2.453
 6457TIP3    H119314   1.136   1.617   2.407
 6457TIP3    H219315   1.197   1.595   2.543
 6458TIP3   OH219316   1.138   0.935   6.578
 6458TIP3    H119317   1.126   0.954   6.671
 6458TIP3    H219318   1.139   0.839   6.573
 6459TIP3   OH219319   7.158   7.107   1.832
 6459TIP3    H119320   7.192   7.047   1.898
 6459TIP3    H219321   7.209   7.088   1.753
 6460TIP3   OH219322   3.432   5.489   5.232
 6460TIP3    H119323   3.349   5.442   5.234
 6460TIP3    H219324   3.414   5.568   5.181
 6461TIP3   OH219325   4.576   3.064   0.921
 6461TIP3    H119326   4.631   2.986   0.914
 6461TIP3    H219327   4.567   3.095   0.831
 6462TIP3   OH219328   4.462   3.811   4.888
 6462TIP3    H119329   4.495   3.748   4.824
 6462TIP3    H219330   4.527   3.809   4.959
 6463TIP3   OH219331   0.658   1.724   2.864
 6463TIP3    H119332   0.667   1.708   2.770
 6463TIP3    H219333   0.746   1.714   2.899
 6464TIP3   OH219334   3.982   0.271   1.125
 6464TIP3    H119335   3.968   0.183   1.090
 6464TIP3    H219336   4.067   0.266   1.168
 6465TIP3   OH219337   4.627   5.419   3.987
 6465TIP3    H119338   4.692   5.464   3.932
 6465TIP3    H219339   4.673   5.343   4.021
 6466TIP3   OH219340   5.671   2.640   5.451
 6466TIP3    H119341   5.578   2.660   5.441
 6466TIP3    H219342   5.698   2.683   5.532
 6467TIP3   OH219343   3.061   2.580   5.473
 6467TIP3    H119344   3.109   2.663   5.477
 6467TIP3    H219345   2.986   2.598   5.417
 6468TIP3   OH219346   0.273   6.625   5.704
 6468TIP3    H119347   0.210   6.556   5.723
 6468TIP3    H219348   0.238   6.703   5.746
 6469TIP3   OH219349   6.787   0.851   1.831
 6469TIP3    H119350   6.738   0.884   1.907
 6469TIP3    H219351   6.815   0.930   1.784
 6470TIP3   OH219352   1.723   0.590   0.852
 6470TIP3    H119353   1.639   0.625   0.883
 6470TIP3    H219354   1.731   0.506   0.897
 6471TIP3   OH219355   6.768   5.316   3.059
 6471TIP3    H119356   6.786   5.286   2.970
 6471TIP3    H219357   6.853   5.319   3.102
 6472TIP3   OH219358   1.082   0.924   1.527
 6472TIP3    H119359   1.058   0.836   1.497
 6472TIP3    H219360   1.039   0.983   1.465
 6473TIP3   OH219361   7.230   0.703   3.909
 6473TIP3    H119362   7.222   0.704   4.004
 6473TIP3    H219363   7.276   0.783   3.887
 6474TIP3   OH219364  -0.011   7.801   6.708
 6474TIP3    H119365   0.065   7.796   6.766
 6474TIP3    H219366   0.024   7.826   6.623
 6475TIP3   OH219367   6.682   4.317   1.891
 6475TIP3    H119368   6.729   4.364   1.822
 6475TIP3    H219369   6.638   4.245   1.846
 6476TIP3   OH219370   5.607   3.451   5.483
 6476TIP3    H119371   5.601   3.392   5.558
 6476TIP3    H219372   5.687   3.426   5.439
 6477TIP3   OH219373   7.285   2.672   4.451
 6477TIP3    H119374   7.209   2.694   4.505
 6477TIP3    H219375   7.361   2.699   4.503
 6478TIP3   OH219376   0.263   2.015   6.054
 6478TIP3    H119377   0.222   2.090   6.097
 6478TIP3    H219378   0.317   1.974   6.121
 6479TIP3   OH219379   4.212   7.793   2.372
 6479TIP3    H119380   4.211   7.784   2.276
 6479TIP3    H219381   4.241   7.883   2.387
 6480TIP3   OH219382   2.825   5.473   6.051
 6480TIP3    H119383   2.774   5.404   6.009
 6480TIP3    H219384   2.771   5.501   6.125
 6481TIP3   OH219385   8.140   7.424   3.154
 6481TIP3    H119386   8.228   7.387   3.160
 6481TIP3    H219387   8.133   7.455   3.064
 6482TIP3   OH219388   2.039   2.951   3.506
 6482TIP3    H119389   2.049   3.011   3.580
 6482TIP3    H219390   1.951   2.916   3.516
 6483TIP3   OH219391   6.777   6.683   6.646
 6483TIP3    H119392   6.868   6.657   6.632
 6483TIP3    H219393   6.729   6.601   6.654
 6484TIP3   OH219394   2.841   3.600   1.194
 6484TIP3    H119395   2.817   3.516   1.154
 6484TIP3    H219396   2.813   3.665   1.130
 6485TIP3   OH219397   4.288   2.396   5.765
 6485TIP3    H119398   4.287   2.487   5.796
 6485TIP3    H219399   4.376   2.384   5.729
 6486TIP3   OH219400   7.097   4.023   3.886
 6486TIP3    H119401   7.005   4.000   3.879
 6486TIP3    H219402   7.140   3.941   3.912
 6487TIP3   OH219403   3.150   1.257   5.586
 6487TIP3    H119404   3.072   1.279   5.535
 6487TIP3    H219405   3.177   1.172   5.553
 6488TIP3   OH219406   7.063   0.345   6.422
 6488TIP3    H119407   7.029   0.385   6.502
 6488TIP3    H219408   7.023   0.396   6.351
 6489TIP3   OH219409   0.828   1.724   5.786
 6489TIP3    H119410   0.868   1.810   5.779
 6489TIP3    H219411   0.899   1.663   5.766
 6490TIP3   OH219412   5.021   4.111   5.443
 6490TIP3    H119413   5.080   4.166   5.390
 6490TIP3    H219414   4.934   4.130   5.409
 6491TIP3   OH219415   1.732   4.539   3.658
 6491TIP3    H119416   1.669   4.525   3.730
 6491TIP3    H219417   1.752   4.633   3.662
 6492TIP3   OH219418   6.705   5.989   6.690
 6492TIP3    H119419   6.764   5.914   6.677
 6492TIP3    H219420   6.651   5.963   6.765
 6493TIP3   OH219421   7.159   5.585   3.588
 6493TIP3    H119422   7.164   5.653   3.654
 6493TIP3    H219423   7.230   5.524   3.611
 6494TIP3   OH219424   5.681   2.547   0.220
 6494TIP3    H119425   5.700   2.518   0.310
 6494TIP3    H219426   5.709   2.474   0.165
 6495TIP3   OH219427   3.387   5.467   4.083
 6495TIP3    H119428   3.379   5.472   3.988
 6495TIP3    H219429   3.302   5.434   4.112
 6496TIP3   OH219430   7.191   5.876   6.434
 6496TIP3    H119431   7.268   5.823   6.456
 6496TIP3    H219432   7.218   5.966   6.450
 6497TIP3   OH219433   6.491   3.016   4.684
 6497TIP3    H119434   6.579   2.987   4.659
 6497TIP3    H219435   6.503   3.058   4.769
 6498TIP3   OH219436   5.991   7.853   0.446
 6498TIP3    H119437   6.054   7.782   0.449
 6498TIP3    H219438   5.938   7.834   0.368
 6499TIP3   OH219439   5.011   7.810   1.449
 6499TIP3    H119440   4.976   7.723   1.431
 6499TIP3    H219441   4.953   7.870   1.403
 6500TIP3   OH219442   5.279   7.737   5.051
 6500TIP3    H119443   5.352   7.790   5.019
 6500TIP3    H219444   5.251   7.686   4.975
 6501TIP3   OH219445   2.141   0.924   2.240
 6501TIP3    H119446   2.199   0.956   2.171
 6501TIP3    H219447   2.154   0.830   2.240
 6502TIP3   OH219448   0.757   0.822   0.144
 6502TIP3    H119449   0.668   0.827   0.110
 6502TIP3    H219450   0.780   0.730   0.138
 6503TIP3   OH219451   0.268   1.370   2.877
 6503TIP3    H119452   0.317   1.447   2.904
 6503TIP3    H219453   0.321   1.296   2.907
 6504TIP3   OH219454   4.087   3.796   6.552
 6504TIP3    H119455   4.124   3.792   6.464
 6504TIP3    H219456   4.060   3.888   6.563
 6505TIP3   OH219457   7.003   3.477   5.173
 6505TIP3    H119458   6.923   3.466   5.224
 6505TIP3    H219459   7.072   3.441   5.228
 6506TIP3   OH219460   1.447   3.924   1.984
 6506TIP3    H119461   1.409   3.896   2.068
 6506TIP3    H219462   1.414   4.013   1.972
 6507TIP3   OH219463   7.302   0.573   2.789
 6507TIP3    H119464   7.265   0.505   2.732
 6507TIP3    H219465   7.329   0.642   2.728
 6508TIP3   OH219466   6.561   3.744   4.636
 6508TIP3    H119467   6.567   3.650   4.650
 6508TIP3    H219468   6.507   3.776   4.708
 6509TIP3   OH219469   4.308   2.377   4.788
 6509TIP3    H119470   4.221   2.390   4.751
 6509TIP3    H219471   4.368   2.389   4.715
 6510TIP3   OH219472   2.688   6.736   4.095
 6510TIP3    H119473   2.730   6.678   4.032
 6510TIP3    H219474   2.760   6.779   4.140
 6511TIP3   OH219475   7.389   5.772   3.903
 6511TIP3    H119476   7.484   5.768   3.891
 6511TIP3    H219477   7.354   5.777   3.815
 6512TIP3   OH219478   2.292   5.036   3.227
 6512TIP3    H119479   2.328   5.040   3.139
 6512TIP3    H219480   2.274   4.943   3.241
 6513TIP3   OH219481   6.308   6.176   2.898
 6513TIP3    H119482   6.244   6.120   2.942
 6513TIP3    H219483   6.338   6.236   2.965
 6514TIP3   OH219484   6.346   1.944   5.125
 6514TIP3    H119485   6.300   2.028   5.133
 6514TIP3    H219486   6.433   1.968   5.092
 6515TIP3   OH219487   5.719   2.383   4.681
 6515TIP3    H119488   5.706   2.466   4.727
 6515TIP3    H219489   5.637   2.336   4.693
 6516TIP3   OH219490   6.145   6.257   2.400
 6516TIP3    H119491   6.172   6.297   2.482
 6516TIP3    H219492   6.112   6.330   2.347
 6517TIP3   OH219493   4.707   3.630   0.662
 6517TIP3    H119494   4.630   3.685   0.682
 6517TIP3    H219495   4.670   3.545   0.639
 6518TIP3   OH219496   4.874   5.385   3.781
 6518TIP3    H119497   4.933   5.394   3.706
 6518TIP3    H219498   4.828   5.468   3.786
 6519TIP3   OH219499   3.691   2.319   4.037
 6519TIP3    H119500   3.596   2.310   4.031
 6519TIP3    H219501   3.722   2.305   3.947
 6520TIP3   OH219502   6.750   4.391   4.042
 6520TIP3    H119503   6.737   4.385   4.137
 6520TIP3    H219504   6.693   4.324   4.005
 6521TIP3   OH219505   0.123   5.300   3.882
 6521TIP3    H119506   0.134   5.270   3.792
 6521TIP3    H219507   0.163   5.387   3.884
 6522TIP3   OH219508   8.086   1.134   0.555
 6522TIP3    H119509   8.000   1.168   0.529
 6522TIP3    H219510   8.123   1.098   0.475
 6523TIP3   OH219511   0.652   5.724   6.308
 6523TIP3    H119512   0.580   5.768   6.353
 6523TIP3    H219513   0.721   5.790   6.303
 6524TIP3   OH219514   2.354   2.325   0.172
 6524TIP3    H119515   2.377   2.412   0.138
 6524TIP3    H219516   2.438   2.279   0.177
 6525TIP3   OH219517   3.249   5.823   4.361
 6525TIP3    H119518   3.214   5.735   4.348
 6525TIP3    H219519   3.172   5.878   4.374
 6526TIP3   OH219520   1.072   0.943   5.254
 6526TIP3    H119521   1.052   0.861   5.299
 6526TIP3    H219522   0.997   0.999   5.273
 6527TIP3   OH219523   4.672   3.758   3.288
 6527TIP3    H119524   4.693   3.682   3.233
 6527TIP3    H219525   4.689   3.833   3.233
 6528TIP3   OH219526   5.046   7.582   6.606
 6528TIP3    H119527   4.973   7.623   6.560
 6528TIP3    H219528   5.028   7.600   6.699
 6529TIP3   OH219529   1.143   6.368   5.072
 6529TIP3    H119530   1.102   6.374   5.158
 6529TIP3    H219531   1.226   6.415   5.083
 6530TIP3   OH219532   5.740   1.279   1.343
 6530TIP3    H119533   5.660   1.313   1.383
 6530TIP3    H219534   5.755   1.195   1.385
 6531TIP3   OH219535   7.792   6.455   2.464
 6531TIP3    H119536   7.799   6.369   2.506
 6531TIP3    H219537   7.741   6.438   2.385
 6532TIP3   OH219538   3.000   5.936   6.680
 6532TIP3    H119539   3.042   5.852   6.663
 6532TIP3    H219540   2.959   5.960   6.597
 6533TIP3   OH219541   1.552   2.388   2.790
 6533TIP3    H119542   1.586   2.435   2.714
 6533TIP3    H219543   1.470   2.349   2.759
 6534TIP3   OH219544   6.131   0.972   0.470
 6534TIP3    H119545   6.131   1.028   0.393
 6534TIP3    H219546   6.224   0.954   0.487
 6535TIP3   OH219547   0.074   7.242   5.131
 6535TIP3    H119548  -0.006   7.195   5.106
 6535TIP3    H219549   0.057   7.272   5.220
 6536TIP3   OH219550   1.444   1.839   2.739
 6536TIP3    H119551   1.385   1.877   2.674
 6536TIP3    H219552   1.492   1.914   2.775
 6537TIP3   OH219553   2.626   6.073   5.736
 6537TIP3    H119554   2.556   6.077   5.670
 6537TIP3    H219555   2.583   6.095   5.818
 6538TIP3   OH219556   0.091   0.864   6.312
 6538TIP3    H119557   0.057   0.911   6.388
 6538TIP3    H219558   0.091   0.772   6.338
 6539TIP3   OH219559   4.769   4.696   1.277
 6539TIP3    H119560   4.708   4.691   1.352
 6539TIP3    H219561   4.713   4.721   1.203
 6540TIP3   OH219562   2.948   3.792   0.286
 6540TIP3    H119563   3.022   3.817   0.230
 6540TIP3    H219564   2.877   3.772   0.225
 6541TIP3   OH219565   3.116   5.110   3.434
 6541TIP3    H119566   3.118   5.095   3.340
 6541TIP3    H219567   3.127   5.205   3.443
 6542TIP3   OH219568   4.498   6.800   3.971
 6542TIP3    H119569   4.468   6.876   3.921
 6542TIP3    H219570   4.492   6.727   3.909
 6543TIP3   OH219571   3.296   0.314   0.525
 6543TIP3    H119572   3.377   0.268   0.548
 6543TIP3    H219573   3.289   0.304   0.430
 6544TIP3   OH219574   5.934   5.705   5.862
 6544TIP3    H119575   5.925   5.763   5.938
 6544TIP3    H219576   5.847   5.704   5.823
 6545TIP3   OH219577   6.794   3.408   2.621
 6545TIP3    H119578   6.729   3.454   2.567
 6545TIP3    H219579   6.789   3.450   2.707
 6546TIP3   OH219580   7.041   4.543   5.883
 6546TIP3    H119581   6.998   4.538   5.968
 6546TIP3    H219582   6.975   4.584   5.826
 6547TIP3   OH219583   1.778   1.093   3.068
 6547TIP3    H119584   1.730   1.143   3.002
 6547TIP3    H219585   1.829   1.030   3.017
 6548TIP3   OH219586   3.250   6.947   0.482
 6548TIP3    H119587   3.315   6.886   0.446
 6548TIP3    H219588   3.260   6.940   0.576
 6549TIP3   OH219589   3.132   2.465   1.109
 6549TIP3    H119590   3.112   2.372   1.119
 6549TIP3    H219591   3.195   2.469   1.037
 6550TIP3   OH219592   0.234   3.438   5.855
 6550TIP3    H119593   0.223   3.532   5.842
 6550TIP3    H219594   0.325   3.421   5.828
 6551TIP3   OH219595   2.211   2.306   6.721
 6551TIP3    H119596   2.305   2.322   6.730
 6551TIP3    H219597   2.205   2.227   6.667
 6552TIP3   OH219598   1.742   0.528   6.688
 6552TIP3    H119599   1.661   0.564   6.651
 6552TIP3    H219600   1.731   0.536   6.782
 6553TIP3   OH219601   5.857   3.546   5.794
 6553TIP3    H119602   5.839   3.513   5.882
 6553TIP3    H219603   5.886   3.470   5.745
 6554TIP3   OH219604   3.204   4.811   1.725
 6554TIP3    H119605   3.115   4.781   1.743
 6554TIP3    H219606   3.212   4.893   1.773
 6555TIP3   OH219607   7.775   4.779   4.690
 6555TIP3    H119608   7.755   4.869   4.718
 6555TIP3    H219609   7.691   4.742   4.666
 6556TIP3   OH219610   2.904   4.224   5.748
 6556TIP3    H119611   2.959   4.259   5.818
 6556TIP3    H219612   2.862   4.147   5.785
 6557TIP3   OH219613   0.648   4.335   3.324
 6557TIP3    H119614   0.630   4.417   3.370
 6557TIP3    H219615   0.742   4.319   3.339
 6558TIP3   OH219616   6.228   1.295   1.231
 6558TIP3    H119617   6.219   1.210   1.189
 6558TIP3    H219618   6.139   1.330   1.235
 6559TIP3   OH219619   1.506   2.422   2.305
 6559TIP3    H119620   1.466   2.369   2.373
 6559TIP3    H219621   1.435   2.477   2.272
 6560TIP3   OH219622   0.217   0.885   5.448
 6560TIP3    H119623   0.151   0.826   5.412
 6560TIP3    H219624   0.300   0.845   5.425
 6561TIP3   OH219625   1.958   4.908   5.688
 6561TIP3    H119626   1.921   4.901   5.775
 6561TIP3    H219627   1.926   4.991   5.654
 6562TIP3   OH219628   3.348   7.455   3.306
 6562TIP3    H119629   3.340   7.509   3.384
 6562TIP3    H219630   3.405   7.505   3.248
 6563TIP3   OH219631   4.598   6.026   3.869
 6563TIP3    H119632   4.545   6.013   3.948
 6563TIP3    H219633   4.668   6.085   3.897
 6564TIP3   OH219634   5.591   0.621   6.724
 6564TIP3    H119635   5.584   0.647   6.632
 6564TIP3    H219636   5.650   0.546   6.723
 6565TIP3   OH219637   6.395   1.017   4.528
 6565TIP3    H119638   6.335   0.973   4.468
 6565TIP3    H219639   6.481   1.003   4.489
 6566TIP3   OH219640   6.873   2.688   6.286
 6566TIP3    H119641   6.839   2.695   6.375
 6566TIP3    H219642   6.968   2.692   6.296
 6567TIP3   OH219643   6.554   7.704   3.045
 6567TIP3    H119644   6.511   7.719   3.129
 6567TIP3    H219645   6.645   7.731   3.059
 6568TIP3   OH219646   6.701   7.029   0.673
 6568TIP3    H119647   6.650   7.107   0.652
 6568TIP3    H219648   6.735   6.998   0.589
 6569TIP3   OH219649   5.413   6.544   5.940
 6569TIP3    H119650   5.421   6.544   5.844
 6569TIP3    H219651   5.403   6.637   5.963
 6570TIP3   OH219652   2.632   4.787   2.367
 6570TIP3    H119653   2.600   4.854   2.426
 6570TIP3    H219654   2.574   4.793   2.291
 6571TIP3   OH219655   7.865   7.575   1.353
 6571TIP3    H119656   7.885   7.636   1.282
 6571TIP3    H219657   7.946   7.567   1.402
 6572TIP3   OH219658   0.593   1.819   3.284
 6572TIP3    H119659   0.564   1.836   3.194
 6572TIP3    H219660   0.686   1.797   3.275
 6573TIP3   OH219661   3.797   6.538   2.795
 6573TIP3    H119662   3.877   6.531   2.846
 6573TIP3    H219663   3.727   6.535   2.860
 6574TIP3   OH219664   1.900   1.533   3.690
 6574TIP3    H119665   1.877   1.536   3.782
 6574TIP3    H219666   1.890   1.624   3.660
 6575TIP3   OH219667   6.100   5.992   5.942
 6575TIP3    H119668   6.052   5.980   5.860
 6575TIP3    H219669   6.035   5.976   6.011
 6576TIP3   OH219670   2.586   3.058   5.562
 6576TIP3    H119671   2.521   3.073   5.631
 6576TIP3    H219672   2.639   3.138   5.561
 6577TIP3   OH219673   6.253   6.844   6.247
 6577TIP3    H119674   6.335   6.890   6.228
 6577TIP3    H219675   6.184   6.906   6.224
 6578TIP3   OH219676   4.451   1.016   5.557
 6578TIP3    H119677   4.517   1.046   5.620
 6578TIP3    H219678   4.384   0.975   5.610
 6579TIP3   OH219679   8.281   3.136   5.436
 6579TIP3    H119680   8.339   3.104   5.505
 6579TIP3    H219681   8.275   3.231   5.452
 6580TIP3   OH219682   5.166   5.685   5.352
 6580TIP3    H119683   5.237   5.628   5.321
 6580TIP3    H219684   5.086   5.644   5.317
 6581TIP3   OH219685   7.802   5.623   5.031
 6581TIP3    H119686   7.854   5.672   4.968
 6581TIP3    H219687   7.791   5.683   5.105
 6582TIP3   OH219688   7.571   3.502   0.712
 6582TIP3    H119689   7.510   3.447   0.761
 6582TIP3    H219690   7.539   3.500   0.622
 6583TIP3   OH219691   4.684   6.119   1.032
 6583TIP3    H119692   4.651   6.091   1.117
 6583TIP3    H219693   4.607   6.123   0.976
 6584TIP3   OH219694   3.789   7.479   2.009
 6584TIP3    H119695   3.732   7.550   2.040
 6584TIP3    H219696   3.871   7.492   2.057
 6585TIP3   OH219697   4.994   2.905   3.051
 6585TIP3    H119698   5.058   2.844   3.087
 6585TIP3    H219699   5.033   2.991   3.062
 6586TIP3   OH219700   1.416   0.559   0.421
 6586TIP3    H119701   1.386   0.472   0.394
 6586TIP3    H219702   1.507   0.564   0.391
 6587TIP3   OH219703   4.362   2.059   3.323
 6587TIP3    H119704   4.311   2.028   3.398
 6587TIP3    H219705   4.298   2.103   3.267
 6588TIP3   OH219706   0.796   0.845   5.945
 6588TIP3    H119707   0.708   0.809   5.935
 6588TIP3    H219708   0.841   0.819   5.864
 6589TIP3   OH219709   8.139   4.649   2.048
 6589TIP3    H119710   8.093   4.732   2.040
 6589TIP3    H219711   8.210   4.666   2.110
 6590TIP3   OH219712   3.500   0.659   0.620
 6590TIP3    H119713   3.534   0.672   0.532
 6590TIP3    H219714   3.578   0.657   0.676
 6591TIP3   OH219715   7.964   0.881   4.913
 6591TIP3    H119716   7.925   0.808   4.961
 6591TIP3    H219717   7.893   0.913   4.857
 6592TIP3   OH219718   2.954   2.244   6.347
 6592TIP3    H119719   2.914   2.200   6.272
 6592TIP3    H219720   3.045   2.254   6.323
 6593TIP3   OH219721   1.611   6.360   1.943
 6593TIP3    H119722   1.662   6.427   1.899
 6593TIP3    H219723   1.661   6.341   2.023
 6594TIP3   OH219724   3.755   3.067   6.031
 6594TIP3    H119725   3.772   3.137   6.094
 6594TIP3    H219726   3.737   3.113   5.949
 6595TIP3   OH219727   2.870   3.272   5.836
 6595TIP3    H119728   2.818   3.215   5.893
 6595TIP3    H219729   2.960   3.242   5.847
 6596TIP3   OH219730   2.990   5.808   5.229
 6596TIP3    H119731   2.897   5.829   5.235
 6596TIP3    H219732   2.993   5.724   5.184
 6597TIP3   OH219733   2.791   0.852   4.014
 6597TIP3    H119734   2.882   0.824   4.002
 6597TIP3    H219735   2.744   0.812   3.941
 6598TIP3   OH219736   1.498   4.264   4.655
 6598TIP3    H119737   1.592   4.266   4.672
 6598TIP3    H219738   1.459   4.311   4.729
 6599TIP3   OH219739   8.092   6.033   0.972
 6599TIP3    H119740   8.047   6.070   0.896
 6599TIP3    H219741   8.185   6.039   0.950
 6600TIP3   OH219742   5.842   6.842   6.268
 6600TIP3    H119743   5.775   6.876   6.210
 6600TIP3    H219744   5.910   6.910   6.269
 6601TIP3   OH219745   7.486   7.254   5.617
 6601TIP3    H119746   7.521   7.308   5.688
 6601TIP3    H219747   7.548   7.266   5.545
 6602TIP3   OH219748   2.157   5.810   0.061
 6602TIP3    H119749   2.125   5.895   0.091
 6602TIP3    H219750   2.245   5.804   0.096
 6603TIP3   OH219751   5.902   7.685   5.127
 6603TIP3    H119752   5.908   7.614   5.062
 6603TIP3    H219753   5.823   7.665   5.177
 6604TIP3   OH219754   1.450   4.302   6.513
 6604TIP3    H119755   1.520   4.367   6.501
 6604TIP3    H219756   1.485   4.241   6.578
 6605TIP3   OH219757   2.255   5.108   4.060
 6605TIP3    H119758   2.176   5.067   4.095
 6605TIP3    H219759   2.226   5.193   4.028
 6606TIP3   OH219760   1.044   4.280   4.265
 6606TIP3    H119761   1.019   4.190   4.284
 6606TIP3    H219762   1.133   4.289   4.300
 6607TIP3   OH219763   3.821   2.151   2.356
 6607TIP3    H119764   3.805   2.094   2.281
 6607TIP3    H219765   3.848   2.235   2.318
 6608TIP3   OH219766   6.745   2.426   3.034
 6608TIP3    H119767   6.743   2.371   3.112
 6608TIP3    H219768   6.812   2.492   3.053
 6609TIP3   OH219769   5.399   7.760   4.672
 6609TIP3    H119770   5.308   7.787   4.682
 6609TIP3    H219771   5.444   7.798   4.747
 6610TIP3   OH219772   0.686   7.796   1.275
 6610TIP3    H119773   0.677   7.842   1.358
 6610TIP3    H219774   0.709   7.706   1.299
 6611TIP3   OH219775   6.706   1.025   0.351
 6611TIP3    H119776   6.699   1.108   0.304
 6611TIP3    H219777   6.769   0.974   0.300
 6612TIP3   OH219778   2.765   6.031   1.843
 6612TIP3    H119779   2.706   6.076   1.783
 6612TIP3    H219780   2.762   6.082   1.923
 6613TIP3   OH219781   7.231   6.243   6.074
 6613TIP3    H119782   7.297   6.265   6.008
 6613TIP3    H219783   7.210   6.151   6.058
 6614TIP3   OH219784   2.502   6.371   2.032
 6614TIP3    H119785   2.584   6.321   2.030
 6614TIP3    H219786   2.523   6.447   2.087
 6615TIP3   OH219787   2.356   4.393   4.179
 6615TIP3    H119788   2.400   4.412   4.096
 6615TIP3    H219789   2.361   4.475   4.228
 6616TIP3   OH219790   3.715   7.709   4.158
 6616TIP3    H119791   3.747   7.798   4.143
 6616TIP3    H219792   3.658   7.691   4.083
 6617TIP3   OH219793   0.198   3.311   6.435
 6617TIP3    H119794   0.198   3.404   6.411
 6617TIP3    H219795   0.270   3.302   6.497
 6618TIP3   OH219796   4.722   6.957   1.220
 6618TIP3    H119797   4.794   6.896   1.205
 6618TIP3    H219798   4.750   7.010   1.294
 6619TIP3   OH219799   1.113   0.874   2.984
 6619TIP3    H119800   1.091   0.824   3.063
 6619TIP3    H219801   1.070   0.958   2.996
 6620TIP3   OH219802   8.169   5.120   5.533
 6620TIP3    H119803   8.188   5.190   5.596
 6620TIP3    H219804   8.110   5.160   5.470
 6621TIP3   OH219805   5.578   5.883   0.230
 6621TIP3    H119806   5.663   5.848   0.256
 6621TIP3    H219807   5.514   5.833   0.281
 6622TIP3   OH219808   3.962   2.126   0.280
 6622TIP3    H119809   3.965   2.034   0.309
 6622TIP3    H219810   3.993   2.175   0.356
 6623TIP3   OH219811   5.030   0.885   2.203
 6623TIP3    H119812   5.121   0.859   2.186
 6623TIP3    H219813   5.031   0.916   2.294
 6624TIP3   OH219814   0.049   6.196   1.637
 6624TIP3    H119815   0.090   6.208   1.551
 6624TIP3    H219816  -0.001   6.277   1.651
 6625TIP3   OH219817   7.441   1.308   3.082
 6625TIP3    H119818   7.420   1.328   2.991
 6625TIP3    H219819   7.491   1.227   3.078
 6626TIP3   OH219820   7.927   5.113   5.351
 6626TIP3    H119821   7.973   5.033   5.325
 6626TIP3    H219822   7.852   5.117   5.292
 6627TIP3   OH219823   7.373   4.320   3.813
 6627TIP3    H119824   7.354   4.391   3.751
 6627TIP3    H219825   7.400   4.247   3.759
 6628TIP3   OH219826   0.156   1.296   0.316
 6628TIP3    H119827   0.153   1.273   0.409
 6628TIP3    H219828   0.247   1.282   0.291
 6629TIP3   OH219829   1.178   1.887   0.737
 6629TIP3    H119830   1.141   1.818   0.792
 6629TIP3    H219831   1.273   1.874   0.742
 6630TIP3   OH219832   5.402   2.155   2.531
 6630TIP3    H119833   5.449   2.115   2.459
 6630TIP3    H219834   5.424   2.248   2.526
 6631TIP3   OH219835   4.684   3.554   6.401
 6631TIP3    H119836   4.667   3.471   6.356
 6631TIP3    H219837   4.604   3.605   6.390
 6632TIP3   OH219838   1.283   5.763   2.750
 6632TIP3    H119839   1.299   5.781   2.657
 6632TIP3    H219840   1.347   5.817   2.796
 6633TIP3   OH219841   0.464   5.782   3.169
 6633TIP3    H119842   0.485   5.793   3.076
 6633TIP3    H219843   0.550   5.772   3.212
 6634TIP3   OH219844   6.629   7.402   5.918
 6634TIP3    H119845   6.616   7.403   5.823
 6634TIP3    H219846   6.650   7.310   5.938
 6635TIP3   OH219847   5.645   0.328   2.241
 6635TIP3    H119848   5.704   0.340   2.316
 6635TIP3    H219849   5.673   0.393   2.177
 6636TIP3   OH219850   4.241   1.090   3.264
 6636TIP3    H119851   4.289   1.013   3.233
 6636TIP3    H219852   4.176   1.054   3.325
 6637TIP3   OH219853   3.963   3.271   5.571
 6637TIP3    H119854   4.000   3.216   5.502
 6637TIP3    H219855   3.881   3.303   5.535
 6638TIP3   OH219856   4.233   1.568   2.608
 6638TIP3    H119857   4.305   1.617   2.568
 6638TIP3    H219858   4.204   1.624   2.680
 6639TIP3   OH219859   5.466   4.711   6.480
 6639TIP3    H119860   5.404   4.640   6.463
 6639TIP3    H219861   5.459   4.768   6.404
 6640TIP3   OH219862   2.410   2.584   1.511
 6640TIP3    H119863   2.497   2.558   1.482
 6640TIP3    H219864   2.378   2.642   1.442
 6641TIP3   OH219865   5.791   7.156   1.591
 6641TIP3    H119866   5.868   7.099   1.589
 6641TIP3    H219867   5.730   7.111   1.649
 6642TIP3   OH219868   2.100   0.270   5.920
 6642TIP3    H119869   2.186   0.245   5.955
 6642TIP3    H219870   2.113   0.359   5.887
 6643TIP3   OH219871   1.064   4.583   5.470
 6643TIP3    H119872   1.119   4.647   5.424
 6643TIP3    H219873   0.992   4.635   5.506
 6644TIP3   OH219874   2.572   6.737   1.354
 6644TIP3    H119875   2.500   6.714   1.295
 6644TIP3    H219876   2.651   6.706   1.308
 6645TIP3   OH219877   3.163   1.590   0.803
 6645TIP3    H119878   3.163   1.533   0.880
 6645TIP3    H219879   3.252   1.585   0.769
 6646TIP3   OH219880   3.050   3.653   5.744
 6646TIP3    H119881   3.013   3.705   5.815
 6646TIP3    H219882   2.976   3.634   5.687
 6647TIP3   OH219883   0.277   3.958   1.113
 6647TIP3    H119884   0.361   3.983   1.150
 6647TIP3    H219885   0.252   4.031   1.057
 6648TIP3   OH219886   5.736   2.613   4.806
 6648TIP3    H119887   5.676   2.684   4.784
 6648TIP3    H219888   5.819   2.638   4.764
 6649TIP3   OH219889   3.372   3.625   3.026
 6649TIP3    H119890   3.356   3.550   3.084
 6649TIP3    H219891   3.467   3.632   3.023
 6650TIP3   OH219892   3.545   6.647   5.161
 6650TIP3    H119893   3.563   6.739   5.179
 6650TIP3    H219894   3.592   6.629   5.080
 6651TIP3   OH219895   4.758   2.732   4.986
 6651TIP3    H119896   4.851   2.709   4.978
 6651TIP3    H219897   4.711   2.656   4.952
 6652TIP3   OH219898   0.866   3.347   3.837
 6652TIP3    H119899   0.822   3.298   3.906
 6652TIP3    H219900   0.872   3.436   3.871
 6653TIP3   OH219901   7.810   2.330   0.175
 6653TIP3    H119902   7.894   2.292   0.149
 6653TIP3    H219903   7.826   2.425   0.175
 6654TIP3   OH219904   3.463   4.788   4.773
 6654TIP3    H119905   3.426   4.775   4.686
 6654TIP3    H219906   3.388   4.809   4.828
 6655TIP3   OH219907   3.985   7.472   2.208
 6655TIP3    H119908   4.022   7.401   2.155
 6655TIP3    H219909   4.061   7.524   2.234
 6656TIP3   OH219910   5.365   2.962   6.662
 6656TIP3    H119911   5.285   2.910   6.651
 6656TIP3    H219912   5.435   2.897   6.663
 6657TIP3   OH219913   6.229   5.687   2.819
 6657TIP3    H119914   6.275   5.770   2.831
 6657TIP3    H219915   6.187   5.670   2.903
 6658TIP3   OH219916   4.191   3.855   3.119
 6658TIP3    H119917   4.265   3.896   3.164
 6658TIP3    H219918   4.171   3.777   3.172
 6659TIP3   OH219919   7.588   3.979  -0.005
 6659TIP3    H119920   7.574   4.006   0.086
 6659TIP3    H219921   7.644   3.902   0.001
 6660TIP3   OH219922   6.919   0.748   1.566
 6660TIP3    H119923   6.962   0.668   1.593
 6660TIP3    H219924   6.856   0.767   1.636
 6661TIP3   OH219925   1.468   4.291   0.296
 6661TIP3    H119926   1.379   4.299   0.331
 6661TIP3    H219927   1.465   4.338   0.213
 6662TIP3   OH219928   4.224   3.498   5.436
 6662TIP3    H119929   4.246   3.548   5.357
 6662TIP3    H219930   4.128   3.496   5.437
 6663TIP3   OH219931   6.779   7.316   1.966
 6663TIP3    H119932   6.840   7.269   1.910
 6663TIP3    H219933   6.693   7.286   1.939
 6664TIP3   OH219934   0.814   2.498   0.223
 6664TIP3    H119935   0.831   2.410   0.258
 6664TIP3    H219936   0.848   2.495   0.134
 6665TIP3   OH219937   6.995   6.601   2.205
 6665TIP3    H119938   6.998   6.635   2.294
 6665TIP3    H219939   6.901   6.599   2.184
 6666TIP3   OH219940   5.645   5.426   0.762
 6666TIP3    H119941   5.740   5.443   0.762
 6666TIP3    H219942   5.612   5.473   0.685
 6667TIP3   OH219943   3.192   2.482   4.953
 6667TIP3    H119944   3.115   2.532   4.977
 6667TIP3    H219945   3.229   2.454   5.037
 6668TIP3   OH219946   5.918   4.082   6.374
 6668TIP3    H119947   5.917   4.178   6.377
 6668TIP3    H219948   5.892   4.055   6.463
 6669TIP3   OH219949   3.123   5.728   1.491
 6669TIP3    H119950   3.138   5.714   1.585
 6669TIP3    H219951   3.191   5.677   1.448
 6670TIP3   OH219952   2.814   7.188   4.514
 6670TIP3    H119953   2.907   7.165   4.505
 6670TIP3    H219954   2.810   7.238   4.596
 6671TIP3   OH219955   3.465   1.156   1.191
 6671TIP3    H119956   3.488   1.242   1.155
 6671TIP3    H219957   3.408   1.177   1.265
 6672TIP3   OH219958   3.251   0.264   5.455
 6672TIP3    H119959   3.278   0.258   5.547
 6672TIP3    H219960   3.305   0.334   5.419
 6673TIP3   OH219961   5.754   3.842   5.303
 6673TIP3    H119962   5.680   3.895   5.329
 6673TIP3    H219963   5.774   3.788   5.380
 6674TIP3   OH219964   2.516   3.693   3.686
 6674TIP3    H119965   2.456   3.728   3.620
 6674TIP3    H219966   2.544   3.770   3.737
 6675TIP3   OH219967   3.011   0.785   0.457
 6675TIP3    H119968   2.957   0.770   0.535
 6675TIP3    H219969   3.083   0.723   0.466
 6676TIP3   OH219970   7.173   1.957   2.383
 6676TIP3    H119971   7.196   1.871   2.420
 6676TIP3    H219972   7.125   1.936   2.303
 6677TIP3   OH219973   3.610   7.843   5.408
 6677TIP3    H119974   3.579   7.792   5.334
 6677TIP3    H219975   3.633   7.778   5.475
 6678TIP3   OH219976   2.594   3.563   1.010
 6678TIP3    H119977   2.630   3.626   0.948
 6678TIP3    H219978   2.532   3.613   1.062
 6679TIP3   OH219979   7.781   7.416   2.983
 6679TIP3    H119980   7.793   7.510   2.994
 6679TIP3    H219981   7.768   7.404   2.889
 6680TIP3   OH219982   7.479   1.720   0.339
 6680TIP3    H119983   7.556   1.673   0.307
 6680TIP3    H219984   7.491   1.810   0.307
 6681TIP3   OH219985   2.600   6.563   2.447
 6681TIP3    H119986   2.680   6.580   2.495
 6681TIP3    H219987   2.530   6.596   2.504
 6682TIP3   OH219988   2.814   1.578   2.006
 6682TIP3    H119989   2.761   1.505   2.036
 6682TIP3    H219990   2.786   1.652   2.060
 6683TIP3   OH219991   8.087   2.006   3.493
 6683TIP3    H119992   8.098   1.941   3.562
 6683TIP3    H219993   8.025   1.967   3.432
 6684TIP3   OH219994   7.121   1.217   3.912
 6684TIP3    H119995   7.202   1.231   3.862
 6684TIP3    H219996   7.116   1.292   3.971
 6685TIP3   OH219997   1.795   3.267   0.799
 6685TIP3    H119998   1.755   3.258   0.713
 6685TIP3    H219999   1.887   3.286   0.781
 6686TIP3   OH220000   8.195   1.139   6.297
 6686TIP3    H120001   8.251   1.196   6.244
 6686TIP3    H220002   8.243   1.129   6.379
 6687TIP3   OH220003   2.118   2.507   2.959
 6687TIP3    H120004   2.086   2.470   2.876
 6687TIP3    H220005   2.095   2.442   3.025
 6688TIP3   OH220006   6.757   7.100   4.443
 6688TIP3    H120007   6.762   7.007   4.464
 6688TIP3    H220008   6.749   7.144   4.528
 6689TIP3   OH220009   6.515   2.340   1.146
 6689TIP3    H120010   6.564   2.422   1.148
 6689TIP3    H220011   6.565   2.284   1.087
 6690TIP3   OH220012   2.833   1.061   1.246
 6690TIP3    H120013   2.847   1.155   1.262
 6690TIP3    H220014   2.918   1.029   1.216
 6691TIP3   OH220015   3.327   2.408   5.181
 6691TIP3    H120016   3.378   2.462   5.240
 6691TIP3    H220017   3.388   2.342   5.149
 6692TIP3   OH220018   6.189   3.051   3.095
 6692TIP3    H120019   6.222   3.108   3.026
 6692TIP3    H220020   6.224   3.088   3.176
 6693TIP3   OH220021   1.503   3.821   5.704
 6693TIP3    H120022   1.575   3.883   5.692
 6693TIP3    H220023   1.484   3.825   5.798
 6694TIP3   OH220024   6.759   6.278   2.046
 6694TIP3    H120025   6.665   6.280   2.064
 6694TIP3    H220026   6.798   6.249   2.128
 6695TIP3   OH220027   1.592   0.074   2.693
 6695TIP3    H120028   1.538   0.125   2.754
 6695TIP3    H220029   1.620   0.137   2.626
 6696TIP3   OH220030   2.183   5.908   0.606
 6696TIP3    H120031   2.165   5.847   0.678
 6696TIP3    H220032   2.232   5.856   0.542
 6697TIP3   OH220033   7.201   7.762   3.615
 6697TIP3    H120034   7.199   7.736   3.523
 6697TIP3    H220035   7.112   7.742   3.647
 6698TIP3   OH220036   7.950   0.304   5.561
 6698TIP3    H120037   8.025   0.363   5.561
 6698TIP3    H220038   7.914   0.309   5.473
 6699TIP3   OH220039   1.801   3.263   1.378
 6699TIP3    H120040   1.784   3.298   1.290
 6699TIP3    H220041   1.884   3.216   1.369
 6700TIP3   OH220042   2.586   6.841   3.291
 6700TIP3    H120043   2.498   6.812   3.316
 6700TIP3    H220044   2.645   6.784   3.340
 6701TIP3   OH220045   6.968   3.149   1.338
 6701TIP3    H120046   7.007   3.201   1.268
 6701TIP3    H220047   6.995   3.193   1.419
 6702TIP3   OH220048   0.887   5.337   6.384
 6702TIP3    H120049   0.856   5.404   6.445
 6702TIP3    H220050   0.873   5.375   6.298
 6703TIP3   OH220051   0.399   5.684   5.006
 6703TIP3    H120052   0.306   5.674   5.030
 6703TIP3    H220053   0.429   5.595   4.989
 6704TIP3   OH220054   0.242   1.154   3.511
 6704TIP3    H120055   0.153   1.121   3.507
 6704TIP3    H220056   0.289   1.106   3.444
 6705TIP3   OH220057   2.680   4.223   4.496
 6705TIP3    H120058   2.655   4.292   4.557
 6705TIP3    H220059   2.762   4.188   4.532
 6706TIP3   OH220060   4.331   1.039   4.125
 6706TIP3    H120061   4.310   1.072   4.212
 6706TIP3    H220062   4.342   0.944   4.137
 6707TIP3   OH220063   2.702   3.594   3.234
 6707TIP3    H120064   2.681   3.666   3.294
 6707TIP3    H220065   2.797   3.582   3.243
 6708TIP3   OH220066   3.771   2.536   2.021
 6708TIP3    H120067   3.752   2.587   1.942
 6708TIP3    H220068   3.819   2.595   2.078
 6709TIP3   OH220069   1.089   2.136   2.467
 6709TIP3    H120070   1.135   2.163   2.387
 6709TIP3    H220071   1.155   2.089   2.517
 6710TIP3   OH220072   7.973   4.948   1.641
 6710TIP3    H120073   7.944   5.038   1.656
 6710TIP3    H220074   7.941   4.928   1.553
 6711TIP3   OH220075   5.747   2.669   1.323
 6711TIP3    H120076   5.671   2.612   1.313
 6711TIP3    H220077   5.751   2.719   1.241
 6712TIP3   OH220078   0.409   0.758   6.630
 6712TIP3    H120079   0.496   0.725   6.650
 6712TIP3    H220080   0.360   0.681   6.600
 6713TIP3   OH220081   2.472   0.291   2.279
 6713TIP3    H120082   2.421   0.227   2.229
 6713TIP3    H220083   2.461   0.265   2.370
 6714TIP3   OH220084   5.156   0.923   4.276
 6714TIP3    H120085   5.105   0.920   4.195
 6714TIP3    H220086   5.246   0.935   4.246
 6715TIP3   OH220087   0.470   5.079   3.059
 6715TIP3    H120088   0.524   5.023   3.003
 6715TIP3    H220089   0.452   5.156   3.005
 6716TIP3   OH220090   1.650   3.885   3.030
 6716TIP3    H120091   1.701   3.823   3.082
 6716TIP3    H220092   1.581   3.832   2.990
 6717TIP3   OH220093   7.687   5.732   3.889
 6717TIP3    H120094   7.772   5.753   3.927
 6717TIP3    H220095   7.706   5.697   3.802
 6718TIP3   OH220096   7.035   3.878   2.655
 6718TIP3    H120097   7.003   3.822   2.726
 6718TIP3    H220098   7.109   3.831   2.618
 6719TIP3   OH220099   7.124   5.671   1.840
 6719TIP3    H120100   7.033   5.655   1.818
 6719TIP3    H220101   7.120   5.724   1.920
 6720TIP3   OH220102   7.644   7.108   0.222
 6720TIP3    H120103   7.730   7.129   0.258
 6720TIP3    H220104   7.596   7.190   0.223
 6721TIP3   OH220105   6.380   7.369   3.195
 6721TIP3    H120106   6.354   7.459   3.213
 6721TIP3    H220107   6.337   7.347   3.113
 6722TIP3   OH220108   3.414   4.304   3.219
 6722TIP3    H120109   3.459   4.236   3.268
 6722TIP3    H220110   3.461   4.309   3.136
 6723TIP3   OH220111   8.167   7.207   0.920
 6723TIP3    H120112   8.187   7.301   0.927
 6723TIP3    H220113   8.245   7.170   0.878
 6724TIP3   OH220114   5.364   1.817   0.204
 6724TIP3    H120115   5.443   1.822   0.257
 6724TIP3    H220116   5.297   1.783   0.264
 6725TIP3   OH220117   2.097   6.071   6.216
 6725TIP3    H120118   2.171   6.091   6.159
 6725TIP3    H220119   2.133   6.013   6.283
 6726TIP3   OH220120   7.221   4.298   0.029
 6726TIP3    H120121   7.218   4.392   0.050
 6726TIP3    H220122   7.311   4.283   0.000
 6727TIP3   OH220123   8.121   2.064   2.349
 6727TIP3    H120124   8.030   2.068   2.381
 6727TIP3    H220125   8.165   2.003   2.408
 6728TIP3   OH220126   2.851   1.231   4.885
 6728TIP3    H120127   2.942   1.204   4.873
 6728TIP3    H220128   2.854   1.327   4.881
 6729TIP3   OH220129   3.195   0.303   1.099
 6729TIP3    H120130   3.222   0.218   1.063
 6729TIP3    H220131   3.247   0.367   1.051
 6730TIP3   OH220132   0.176   0.556   0.951
 6730TIP3    H120133   0.159   0.464   0.928
 6730TIP3    H220134   0.104   0.604   0.913
 6731TIP3   OH220135   0.986   3.045   3.899
 6731TIP3    H120136   0.920   3.073   3.835
 6731TIP3    H220137   1.031   3.125   3.924
 6732TIP3   OH220138   6.429   7.408   1.393
 6732TIP3    H120139   6.355   7.464   1.414
 6732TIP3    H220140   6.390   7.328   1.357
 6733TIP3   OH220141   2.678   0.557   0.018
 6733TIP3    H120142   2.585   0.537   0.008
 6733TIP3    H220143   2.691   0.560   0.113
 6734TIP3   OH220144   5.471   6.549   3.299
 6734TIP3    H120145   5.467   6.618   3.233
 6734TIP3    H220146   5.396   6.565   3.356
 6735TIP3   OH220147   2.172   1.732   0.372
 6735TIP3    H120148   2.197   1.752   0.462
 6735TIP3    H220149   2.077   1.719   0.376
 6736TIP3   OH220150   3.231   4.158   5.479
 6736TIP3    H120151   3.314   4.157   5.527
 6736TIP3    H220152   3.175   4.098   5.527
 6737TIP3   OH220153   1.070   6.055   0.966
 6737TIP3    H120154   1.083   5.966   0.999
 6737TIP3    H220155   1.154   6.078   0.925
 6738TIP3   OH220156   3.787   4.382   1.675
 6738TIP3    H120157   3.742   4.411   1.596
 6738TIP3    H220158   3.743   4.428   1.747
 6739TIP3   OH220159   5.866   4.825   4.755
 6739TIP3    H120160   5.775   4.795   4.758
 6739TIP3    H220161   5.869   4.883   4.678
 6740TIP3   OH220162   3.740   4.883   2.806
 6740TIP3    H120163   3.787   4.813   2.852
 6740TIP3    H220164   3.765   4.873   2.714
 6741TIP3   OH220165   4.246   3.057   3.034
 6741TIP3    H120166   4.285   3.099   2.957
 6741TIP3    H220167   4.320   3.024   3.084
 6742TIP3   OH220168   4.177   0.999   6.073
 6742TIP3    H120169   4.165   1.037   6.160
 6742TIP3    H220170   4.254   1.045   6.037
 6743TIP3   OH220171   4.682   4.598   6.713
 6743TIP3    H120172   4.653   4.513   6.681
 6743TIP3    H220173   4.760   4.619   6.661
 6744TIP3   OH220174   6.591   2.072   2.756
 6744TIP3    H120175   6.623   1.998   2.705
 6744TIP3    H220176   6.617   2.053   2.846
 6745TIP3   OH220177   2.342   0.818   6.453
 6745TIP3    H120178   2.262   0.839   6.405
 6745TIP3    H220179   2.376   0.740   6.409
 6746TIP3   OH220180   3.294   0.798   3.345
 6746TIP3    H120181   3.261   0.708   3.344
 6746TIP3    H220182   3.227   0.848   3.392
 6747TIP3   OH220183   0.768   6.192   3.112
 6747TIP3    H120184   0.826   6.121   3.140
 6747TIP3    H220185   0.745   6.238   3.193
 6748TIP3   OH220186   3.883   6.684   2.195
 6748TIP3    H120187   3.947   6.728   2.139
 6748TIP3    H220188   3.934   6.652   2.270
 6749TIP3   OH220189   5.799   2.187   2.498
 6749TIP3    H120190   5.855   2.110   2.488
 6749TIP3    H220191   5.710   2.154   2.484
 6750TIP3   OH220192   4.153   2.334   4.511
 6750TIP3    H120193   4.070   2.382   4.513
 6750TIP3    H220194   4.214   2.394   4.468
 6751TIP3   OH220195   0.718   4.014   3.495
 6751TIP3    H120196   0.722   3.919   3.509
 6751TIP3    H220197   0.649   4.026   3.430
 6752TIP3   OH220198   2.871   0.491   3.256
 6752TIP3    H120199   2.905   0.525   3.339
 6752TIP3    H220200   2.841   0.402   3.278
 6753TIP3   OH220201   8.110   5.617   0.446
 6753TIP3    H120202   8.135   5.664   0.366
 6753TIP3    H220203   8.102   5.685   0.513
 6754TIP3   OH220204   5.525   0.457   5.089
 6754TIP3    H120205   5.590   0.460   5.159
 6754TIP3    H220206   5.452   0.510   5.121
 6755TIP3   OH220207   7.355   7.292   0.035
 6755TIP3    H120208   7.431   7.320  -0.017
 6755TIP3    H220209   7.360   7.196   0.035
 6756TIP3   OH220210   0.510   4.494   3.525
 6756TIP3    H120211   0.429   4.526   3.484
 6756TIP3    H220212   0.516   4.543   3.607
 6757TIP3   OH220213   6.698   2.269   4.274
 6757TIP3    H120214   6.605   2.248   4.271
 6757TIP3    H220215   6.708   2.323   4.353
 6758TIP3   OH220216   4.637   0.956   6.189
 6758TIP3    H120217   4.659   0.891   6.122
 6758TIP3    H220218   4.716   0.962   6.243
 6759TIP3   OH220219   8.183   4.686   3.844
 6759TIP3    H120220   8.093   4.715   3.834
 6759TIP3    H220221   8.197   4.685   3.939
 6760TIP3   OH220222   1.527   3.703   3.274
 6760TIP3    H120223   1.581   3.765   3.322
 6760TIP3    H220224   1.511   3.631   3.336
 6761TIP3   OH220225   0.262   6.106   1.063
 6761TIP3    H120226   0.299   6.189   1.093
 6761TIP3    H220227   0.314   6.083   0.986
 6762TIP3   OH220228   4.354   7.665   2.979
 6762TIP3    H120229   4.370   7.758   2.993
 6762TIP3    H220230   4.440   7.628   2.961
 6763TIP3   OH220231   6.444   5.453   2.236
 6763TIP3    H120232   6.443   5.398   2.158
 6763TIP3    H220233   6.356   5.488   2.243
 6764TIP3   OH220234   0.132   3.980   4.686
 6764TIP3    H120235   0.063   3.956   4.624
 6764TIP3    H220236   0.209   3.997   4.632
 6765TIP3   OH220237   0.515   2.050   3.790
 6765TIP3    H120238   0.611   2.048   3.788
 6765TIP3    H220239   0.494   2.064   3.882
 6766TIP3   OH220240   4.466   4.767   3.925
 6766TIP3    H120241   4.524   4.708   3.875
 6766TIP3    H220242   4.520   4.845   3.940
 6767TIP3   OH220243   3.128   1.929   6.607
 6767TIP3    H120244   3.124   1.972   6.521
 6767TIP3    H220245   3.085   1.990   6.666
 6768TIP3   OH220246   4.308   4.007   0.815
 6768TIP3    H120247   4.215   3.999   0.837
 6768TIP3    H220248   4.343   4.066   0.882
 6769TIP3   OH220249   3.884   7.365   5.436
 6769TIP3    H120250   3.815   7.420   5.399
 6769TIP3    H220251   3.902   7.300   5.368
 6770TIP3   OH220252   5.221   4.148   4.606
 6770TIP3    H120253   5.284   4.152   4.534
 6770TIP3    H220254   5.142   4.113   4.567
 6771TIP3   OH220255   5.822   5.514   3.141
 6771TIP3    H120256   5.835   5.601   3.104
 6771TIP3    H220257   5.878   5.512   3.218
 6772TIP3   OH220258   4.087   5.620   2.413
 6772TIP3    H120259   4.136   5.670   2.348
 6772TIP3    H220260   4.014   5.582   2.365
 6773TIP3   OH220261   3.142   5.623   2.299
 6773TIP3    H120262   3.134   5.712   2.265
 6773TIP3    H220263   3.181   5.633   2.386
 6774TIP3   OH220264   6.772   1.430   3.126
 6774TIP3    H120265   6.811   1.517   3.113
 6774TIP3    H220266   6.678   1.446   3.128
 6775TIP3   OH220267   5.470   2.393   3.073
 6775TIP3    H120268   5.459   2.482   3.107
 6775TIP3    H220269   5.542   2.356   3.123
 6776TIP3   OH220270   5.307   5.810   2.802
 6776TIP3    H120271   5.212   5.823   2.793
 6776TIP3    H220272   5.340   5.817   2.712
 6777TIP3   OH220273   5.881   4.961   4.120
 6777TIP3    H120274   5.813   4.988   4.058
 6777TIP3    H220275   5.960   4.952   4.066
 6778TIP3   OH220276   5.814   1.237   1.731
 6778TIP3    H120277   5.752   1.187   1.679
 6778TIP3    H220278   5.900   1.201   1.707
 6779TIP3   OH220279   5.179   7.198   2.620
 6779TIP3    H120280   5.172   7.104   2.605
 6779TIP3    H220281   5.095   7.233   2.592
 6780TIP3   OH220282   4.333   3.335   4.109
 6780TIP3    H120283   4.417   3.303   4.076
 6780TIP3    H220284   4.320   3.289   4.192
 6781TIP3   OH220285   6.500   6.934   2.521
 6781TIP3    H120286   6.429   6.994   2.546
 6781TIP3    H220287   6.576   6.964   2.572
 6782TIP3   OH220288   4.406   0.607   0.715
 6782TIP3    H120289   4.340   0.651   0.660
 6782TIP3    H220290   4.356   0.546   0.768
 6783TIP3   OH220291   4.002   6.741   1.518
 6783TIP3    H120292   4.054   6.735   1.599
 6783TIP3    H220293   3.912   6.749   1.549
 6784TIP3   OH220294   7.961   5.536   5.445
 6784TIP3    H120295   8.021   5.564   5.514
 6784TIP3    H220296   8.006   5.557   5.363
 6785TIP3   OH220297   2.116   1.954   0.765
 6785TIP3    H120298   2.057   1.945   0.840
 6785TIP3    H220299   2.087   2.035   0.722
 6786TIP3   OH220300   8.301   2.885   1.313
 6786TIP3    H120301   8.245   2.963   1.319
 6786TIP3    H220302   8.246   2.814   1.346
 6787TIP3   OH220303   1.679   6.996   2.863
 6787TIP3    H120304   1.696   6.970   2.773
 6787TIP3    H220305   1.680   7.092   2.862
 6788TIP3   OH220306   0.470   6.112   6.641
 6788TIP3    H120307   0.400   6.144   6.584
 6788TIP3    H220308   0.535   6.182   6.639
 6789TIP3   OH220309   6.313   1.194   2.972
 6789TIP3    H120310   6.360   1.216   3.052
 6789TIP3    H220311   6.223   1.177   3.001
 6790TIP3   OH220312   3.656   3.602   0.385
 6790TIP3    H120313   3.569   3.634   0.409
 6790TIP3    H220314   3.680   3.653   0.308
 6791TIP3   OH220315   2.127   2.760   0.205
 6791TIP3    H120316   2.037   2.735   0.222
 6791TIP3    H220317   2.148   2.824   0.273
 6792TIP3   OH220318   5.743   2.337   1.414
 6792TIP3    H120319   5.830   2.299   1.397
 6792TIP3    H220320   5.756   2.393   1.491
 6793TIP3   OH220321   7.233   5.458   5.282
 6793TIP3    H120322   7.314   5.439   5.328
 6793TIP3    H220323   7.260   5.472   5.191
 6794TIP3   OH220324   3.464   4.177   5.650
 6794TIP3    H120325   3.473   4.251   5.709
 6794TIP3    H220326   3.550   4.169   5.608
 6795TIP3   OH220327   7.294   1.496   4.809
 6795TIP3    H120328   7.317   1.585   4.836
 6795TIP3    H220329   7.359   1.474   4.743
 6796TIP3   OH220330   0.336   2.069   3.003
 6796TIP3    H120331   0.246   2.051   2.974
 6796TIP3    H220332   0.333   2.051   3.097
 6797TIP3   OH220333   6.615   7.326   4.550
 6797TIP3    H120334   6.603   7.284   4.636
 6797TIP3    H220335   6.654   7.411   4.571
 6798TIP3   OH220336   7.205   3.007   6.582
 6798TIP3    H120337   7.222   2.912   6.582
 6798TIP3    H220338   7.198   3.030   6.490
 6799TIP3   OH220339   4.919   6.417   1.714
 6799TIP3    H120340   4.865   6.447   1.787
 6799TIP3    H220341   4.891   6.471   1.640
 6800TIP3   OH220342   1.792   0.323   4.642
 6800TIP3    H120343   1.727   0.392   4.650
 6800TIP3    H220344   1.741   0.242   4.634
 6801TIP3   OH220345   0.784   5.048   5.017
 6801TIP3    H120346   0.788   5.079   4.926
 6801TIP3    H220347   0.712   5.098   5.056
 6802TIP3   OH220348   6.280   0.519   0.632
 6802TIP3    H120349   6.202   0.571   0.655
 6802TIP3    H220350   6.268   0.499   0.539
 6803TIP3   OH220351   1.511   1.548   6.102
 6803TIP3    H120352   1.489   1.611   6.170
 6803TIP3    H220353   1.462   1.578   6.025
 6804TIP3   OH220354   2.666   5.850   1.620
 6804TIP3    H120355   2.752   5.829   1.584
 6804TIP3    H220356   2.679   5.931   1.669
 6805TIP3   OH220357   4.806   0.191   4.591
 6805TIP3    H120358   4.779   0.102   4.568
 6805TIP3    H220359   4.835   0.229   4.508
 6806TIP3   OH220360   7.676   6.934   2.680
 6806TIP3    H120361   7.683   6.848   2.639
 6806TIP3    H220362   7.589   6.934   2.721
 6807TIP3   OH220363   5.631   5.919   6.104
 6807TIP3    H120364   5.549   5.968   6.110
 6807TIP3    H220365   5.647   5.889   6.193
 6808TIP3   OH220366   2.696   4.534   3.754
 6808TIP3    H120367   2.702   4.628   3.774
 6808TIP3    H220368   2.710   4.530   3.659
 6809TIP3   OH220369   5.178   3.966   2.719
 6809TIP3    H120370   5.098   3.924   2.691
 6809TIP3    H220371   5.153   4.020   2.794
 6810TIP3   OH220372   5.513   7.403   3.642
 6810TIP3    H120373   5.533   7.452   3.722
 6810TIP3    H220374   5.484   7.317   3.672
 6811TIP3   OH220375   3.530   5.062   0.685
 6811TIP3    H120376   3.570   5.010   0.616
 6811TIP3    H220377   3.495   5.139   0.641
 6812TIP3   OH220378   2.946   6.530   3.971
 6812TIP3    H120379   3.016   6.477   3.933
 6812TIP3    H220380   2.870   6.513   3.916
 6813TIP3   OH220381   1.039   7.309   3.214
 6813TIP3    H120382   0.961   7.278   3.168
 6813TIP3    H220383   1.112   7.271   3.167
 6814TIP3   OH220384   0.905   3.057   2.333
 6814TIP3    H120385   0.855   2.976   2.321
 6814TIP3    H220386   0.847   3.126   2.300
 6815TIP3   OH220387   1.159   6.519   1.236
 6815TIP3    H120388   1.187   6.486   1.151
 6815TIP3    H220389   1.114   6.444   1.277
 6816TIP3   OH220390   3.474   6.403   5.205
 6816TIP3    H120391   3.499   6.495   5.215
 6816TIP3    H220392   3.523   6.374   5.128
 6817TIP3   OH220393   0.316   5.491   0.441
 6817TIP3    H120394   0.367   5.569   0.421
 6817TIP3    H220395   0.239   5.523   0.489
 6818TIP3   OH220396   0.988   2.781   3.810
 6818TIP3    H120397   0.953   2.858   3.856
 6818TIP3    H220398   1.082   2.787   3.821
 6819TIP3   OH220399   3.649   5.004   4.887
 6819TIP3    H120400   3.673   4.980   4.977
 6819TIP3    H220401   3.600   4.928   4.854
 6820TIP3   OH220402   6.739   5.375   1.619
 6820TIP3    H120403   6.734   5.305   1.684
 6820TIP3    H220404   6.827   5.369   1.583
 6821TIP3   OH220405   0.349   2.746   6.588
 6821TIP3    H120406   0.442   2.764   6.601
 6821TIP3    H220407   0.306   2.829   6.605
 6822TIP3   OH220408   1.873   6.451   3.697
 6822TIP3    H120409   1.839   6.536   3.671
 6822TIP3    H220410   1.811   6.418   3.761
 6823TIP3   OH220411   3.817   2.861   3.635
 6823TIP3    H120412   3.912   2.864   3.651
 6823TIP3    H220413   3.809   2.860   3.540
 6824TIP3   OH220414   2.639   7.512   0.535
 6824TIP3    H120415   2.612   7.425   0.505
 6824TIP3    H220416   2.733   7.515   0.519
 6825TIP3   OH220417   3.989   6.731   6.739
 6825TIP3    H120418   3.945   6.802   6.785
 6825TIP3    H220419   3.976   6.655   6.794
 6826TIP3   OH220420   3.923   3.693   5.821
 6826TIP3    H120421   4.000   3.721   5.772
 6826TIP3    H220422   3.948   3.609   5.859
 6827TIP3   OH220423   3.178   2.284   5.550
 6827TIP3    H120424   3.151   2.294   5.458
 6827TIP3    H220425   3.238   2.357   5.566
 6828TIP3   OH220426   6.897   4.324   5.812
 6828TIP3    H120427   6.924   4.258   5.876
 6828TIP3    H220428   6.881   4.403   5.865
 6829TIP3   OH220429   5.930   6.813   6.734
 6829TIP3    H120430   5.995   6.743   6.743
 6829TIP3    H220431   5.872   6.783   6.664
 6830TIP3   OH220432   8.095   3.803   2.491
 6830TIP3    H120433   8.099   3.741   2.564
 6830TIP3    H220434   8.040   3.875   2.523
 6831TIP3   OH220435   0.044   3.001   4.945
 6831TIP3    H120436   0.104   3.074   4.956
 6831TIP3    H220437  -0.043   3.041   4.939
 6832TIP3   OH220438   2.770   6.638   5.446
 6832TIP3    H120439   2.749   6.660   5.537
 6832TIP3    H220440   2.829   6.707   5.417
 6833TIP3   OH220441   2.433   2.329   5.379
 6833TIP3    H120442   2.474   2.281   5.308
 6833TIP3    H220443   2.460   2.420   5.366
 6834TIP3   OH220444   7.966   2.529   5.486
 6834TIP3    H120445   7.936   2.487   5.405
 6834TIP3    H220446   8.052   2.564   5.465
 6835TIP3   OH220447   5.522   3.474   1.556
 6835TIP3    H120448   5.451   3.411   1.547
 6835TIP3    H220449   5.535   3.482   1.651
 6836TIP3   OH220450   7.441   2.370   0.481
 6836TIP3    H120451   7.349   2.344   0.484
 6836TIP3    H220452   7.472   2.340   0.395
 6837TIP3   OH220453   4.188   6.170   5.971
 6837TIP3    H120454   4.270   6.168   5.921
 6837TIP3    H220455   4.167   6.263   5.980
 6838TIP3   OH220456   4.301   5.333   4.196
 6838TIP3    H120457   4.242   5.380   4.254
 6838TIP3    H220458   4.363   5.290   4.254
 6839TIP3   OH220459   4.235   5.577   1.073
 6839TIP3    H120460   4.195   5.544   0.992
 6839TIP3    H220461   4.163   5.618   1.121
 6840TIP3   OH220462   5.480   0.075   5.738
 6840TIP3    H120463   5.534   0.107   5.811
 6840TIP3    H220464   5.390   0.083   5.770
 6841TIP3   OH220465   4.121   1.276   1.162
 6841TIP3    H120466   4.146   1.366   1.183
 6841TIP3    H220467   4.043   1.285   1.108
 6842TIP3   OH220468   3.778   1.706   2.779
 6842TIP3    H120469   3.821   1.789   2.758
 6842TIP3    H220470   3.701   1.703   2.722
 6843TIP3   OH220471   1.081   5.605   2.726
 6843TIP3    H120472   1.166   5.644   2.742
 6843TIP3    H220473   1.077   5.594   2.631
 6844TIP3   OH220474   1.446   1.154   6.493
 6844TIP3    H120475   1.475   1.080   6.440
 6844TIP3    H220476   1.485   1.230   6.450
 6845TIP3   OH220477   6.538   2.758   0.891
 6845TIP3    H120478   6.524   2.676   0.844
 6845TIP3    H220479   6.626   2.786   0.865
 6846TIP3   OH220480   8.098   0.110   3.570
 6846TIP3    H120481   8.021   0.060   3.597
 6846TIP3    H220482   8.166   0.045   3.553
 6847TIP3   OH220483   0.815   3.692   5.569
 6847TIP3    H120484   0.811   3.728   5.480
 6847TIP3    H220485   0.728   3.709   5.605
 6848TIP3   OH220486   6.285   6.781   4.813
 6848TIP3    H120487   6.294   6.838   4.737
 6848TIP3    H220488   6.253   6.698   4.777
 6849TIP3   OH220489   7.211   7.506   0.566
 6849TIP3    H120490   7.223   7.597   0.594
 6849TIP3    H220491   7.121   7.485   0.591
 6850TIP3   OH220492   2.047   1.321   6.010
 6850TIP3    H120493   1.983   1.362   6.069
 6850TIP3    H220494   2.019   1.230   6.003
 6851TIP3   OH220495   4.145   2.275   1.792
 6851TIP3    H120496   4.059   2.287   1.833
 6851TIP3    H220497   4.144   2.184   1.761
 6852TIP3   OH220498   2.356   1.523   1.925
 6852TIP3    H120499   2.338   1.455   1.990
 6852TIP3    H220500   2.393   1.596   1.976
 6853TIP3   OH220501   3.377   1.569   0.633
 6853TIP3    H120502   3.447   1.577   0.698
 6853TIP3    H220503   3.395   1.485   0.591
 6854TIP3   OH220504   0.800   5.647   0.480
 6854TIP3    H120505   0.815   5.583   0.548
 6854TIP3    H220506   0.843   5.727   0.512
 6855TIP3   OH220507   7.819   1.072   0.114
 6855TIP3    H120508   7.893   1.131   0.100
 6855TIP3    H220509   7.839   1.027   0.197
 6856TIP3   OH220510   3.738   6.464   6.179
 6856TIP3    H120511   3.705   6.507   6.101
 6856TIP3    H220512   3.683   6.387   6.190
 6857TIP3   OH220513   2.405   7.232   4.038
 6857TIP3    H120514   2.390   7.147   3.997
 6857TIP3    H220515   2.482   7.220   4.094
 6858TIP3   OH220516   5.612   4.274   3.275
 6858TIP3    H120517   5.668   4.334   3.225
 6858TIP3    H220518   5.543   4.249   3.213
 6859TIP3   OH220519   3.619   0.720   2.712
 6859TIP3    H120520   3.654   0.767   2.787
 6859TIP3    H220521   3.674   0.748   2.639
 6860TIP3   OH220522   0.584   6.928   0.076
 6860TIP3    H120523   0.491   6.904   0.083
 6860TIP3    H220524   0.594   6.954  -0.015
 6861TIP3   OH220525   0.606   5.564   0.265
 6861TIP3    H120526   0.673   5.594   0.327
 6861TIP3    H220527   0.576   5.481   0.302
 6862TIP3   OH220528   4.963   6.181   6.105
 6862TIP3    H120529   4.948   6.086   6.101
 6862TIP3    H220530   4.924   6.215   6.024
 6863TIP3   OH220531   7.726   5.789   6.030
 6863TIP3    H120532   7.807   5.753   5.992
 6863TIP3    H220533   7.657   5.760   5.970
 6864TIP3   OH220534   5.310   2.586   5.867
 6864TIP3    H120535   5.392   2.542   5.845
 6864TIP3    H220536   5.335   2.676   5.886
 6865TIP3   OH220537   0.669   0.693   6.711
 6865TIP3    H120538   0.725   0.755   6.665
 6865TIP3    H220539   0.694   0.701   6.803
 6866TIP3   OH220540   7.493   5.485   6.120
 6866TIP3    H120541   7.537   5.476   6.035
 6866TIP3    H220542   7.450   5.570   6.116
 6867TIP3   OH220543   1.118   5.952   6.635
 6867TIP3    H120544   1.148   6.039   6.609
 6867TIP3    H220545   1.198   5.901   6.646
 6868TIP3   OH220546   0.531   1.666   1.789
 6868TIP3    H120547   0.519   1.708   1.704
 6868TIP3    H220548   0.554   1.576   1.768
 6869TIP3   OH220549   3.912   5.010   5.130
 6869TIP3    H120550   3.981   4.952   5.100
 6869TIP3    H220551   3.833   4.955   5.132
 6870TIP3   OH220552   5.037   4.840   5.825
 6870TIP3    H120553   5.105   4.816   5.889
 6870TIP3    H220554   4.961   4.862   5.878
 6871TIP3   OH220555   5.266   3.769   2.894
 6871TIP3    H120556   5.243   3.836   2.829
 6871TIP3    H220557   5.186   3.754   2.943
 6872TIP3   OH220558   0.662   7.434   2.320
 6872TIP3    H120559   0.608   7.512   2.304
 6872TIP3    H220560   0.613   7.363   2.278
 6873TIP3   OH220561   5.465   2.822   5.889
 6873TIP3    H120562   5.490   2.914   5.886
 6873TIP3    H220563   5.548   2.775   5.897
 6874TIP3   OH220564   7.922   2.046   0.055
 6874TIP3    H120565   7.844   2.077   0.102
 6874TIP3    H220566   7.951   1.970   0.106
 6875TIP3   OH220567   6.098   6.845   5.036
 6875TIP3    H120568   6.142   6.841   4.951
 6875TIP3    H220569   6.030   6.911   5.025
 6876TIP3   OH220570   3.937   5.997   1.534
 6876TIP3    H120571   3.853   5.963   1.563
 6876TIP3    H220572   3.989   5.920   1.512
 6877TIP3   OH220573   5.103   5.306   4.405
 6877TIP3    H120574   5.032   5.317   4.342
 6877TIP3    H220575   5.064   5.331   4.489
 6878TIP3   OH220576   7.425   0.041   2.811
 6878TIP3    H120577   7.401  -0.006   2.731
 6878TIP3    H220578   7.515   0.014   2.828
 6879TIP3   OH220579   5.763   6.508   1.121
 6879TIP3    H120580   5.691   6.449   1.100
 6879TIP3    H220581   5.788   6.484   1.211
 6880TIP3   OH220582   1.866   2.577   4.627
 6880TIP3    H120583   1.920   2.527   4.689
 6880TIP3    H220584   1.779   2.537   4.635
 6881TIP3   OH220585   3.754   1.469   1.655
 6881TIP3    H120586   3.710   1.469   1.740
 6881TIP3    H220587   3.737   1.555   1.618
 6882TIP3   OH220588   7.248   1.702   2.477
 6882TIP3    H120589   7.330   1.665   2.510
 6882TIP3    H220590   7.208   1.630   2.428
 6883TIP3   OH220591   4.640   1.247   0.418
 6883TIP3    H120592   4.689   1.286   0.490
 6883TIP3    H220593   4.704   1.236   0.348
 6884TIP3   OH220594   7.635   7.504   4.291
 6884TIP3    H120595   7.566   7.490   4.226
 6884TIP3    H220596   7.600   7.469   4.372
 6885TIP3   OH220597   0.349   1.630   4.609
 6885TIP3    H120598   0.404   1.692   4.561
 6885TIP3    H220599   0.297   1.586   4.541
 6886TIP3   OH220600   6.491   2.816   3.431
 6886TIP3    H120601   6.547   2.894   3.435
 6886TIP3    H220602   6.552   2.743   3.419
 6887TIP3   OH220603   3.249   1.250   3.238
 6887TIP3    H120604   3.309   1.179   3.263
 6887TIP3    H220605   3.305   1.313   3.192
 6888TIP3   OH220606   5.872   1.459   1.550
 6888TIP3    H120607   5.840   1.426   1.634
 6888TIP3    H220608   5.857   1.387   1.489
 6889TIP3   OH220609   4.707   7.412   2.605
 6889TIP3    H120610   4.662   7.359   2.670
 6889TIP3    H220611   4.676   7.501   2.621
 6890TIP3   OH220612   2.637   4.207   6.495
 6890TIP3    H120613   2.656   4.182   6.586
 6890TIP3    H220614   2.550   4.246   6.499
 6891TIP3   OH220615   6.715   2.572   1.532
 6891TIP3    H120616   6.743   2.489   1.494
 6891TIP3    H220617   6.635   2.552   1.580
 6892TIP3   OH220618   4.850   6.480   5.746
 6892TIP3    H120619   4.833   6.521   5.831
 6892TIP3    H220620   4.918   6.414   5.765
 6893TIP3   OH220621   1.973   7.799   2.220
 6893TIP3    H120622   1.890   7.752   2.236
 6893TIP3    H220623   2.041   7.736   2.245
 6894TIP3   OH220624   0.259   4.922   6.383
 6894TIP3    H120625   0.278   4.829   6.372
 6894TIP3    H220626   0.267   4.937   6.477
 6895TIP3   OH220627   3.760   6.842   1.618
 6895TIP3    H120628   3.755   6.834   1.713
 6895TIP3    H220629   3.694   6.780   1.585
 6896TIP3   OH220630   5.340   2.749   0.150
 6896TIP3    H120631   5.410   2.796   0.195
 6896TIP3    H220632   5.262   2.803   0.163
 6897TIP3   OH220633   0.084   5.577   0.629
 6897TIP3    H120634   0.110   5.669   0.630
 6897TIP3    H220635  -0.002   5.575   0.670
 6898TIP3   OH220636   1.058   2.287   6.315
 6898TIP3    H120637   0.984   2.226   6.305
 6898TIP3    H220638   1.028   2.368   6.276
 6899TIP3   OH220639   8.041   1.839   0.945
 6899TIP3    H120640   7.962   1.821   0.895
 6899TIP3    H220641   8.094   1.895   0.888
 6900TIP3   OH220642   7.234   5.192   3.015
 6900TIP3    H120643   7.233   5.238   2.931
 6900TIP3    H220644   7.244   5.099   2.991
 6901TIP3   OH220645   7.840   3.010   3.558
 6901TIP3    H120646   7.923   2.999   3.512
 6901TIP3    H220647   7.773   2.994   3.492
 6902TIP3   OH220648   0.134   4.059   2.713
 6902TIP3    H120649   0.093   3.982   2.753
 6902TIP3    H220650   0.061   4.120   2.700
 6903TIP3   OH220651   1.864   6.928   5.883
 6903TIP3    H120652   1.808   6.881   5.822
 6903TIP3    H220653   1.946   6.878   5.885
 6904TIP3   OH220654   6.912   6.788   3.570
 6904TIP3    H120655   6.996   6.742   3.571
 6904TIP3    H220656   6.930   6.872   3.528
 6905TIP3   OH220657   2.445   3.078   6.542
 6905TIP3    H120658   2.413   3.081   6.452
 6905TIP3    H220659   2.432   3.166   6.575
 6906TIP3   OH220660   3.948   4.327   2.705
 6906TIP3    H120661   3.856   4.319   2.678
 6906TIP3    H220662   3.955   4.417   2.739
 6907TIP3   OH220663   3.645   3.775   0.123
 6907TIP3    H120664   3.642   3.756   0.029
 6907TIP3    H220665   3.622   3.868   0.129
 6908TIP3   OH220666   0.297   7.572   6.007
 6908TIP3    H120667   0.315   7.651   6.058
 6908TIP3    H220668   0.229   7.527   6.057
 6909TIP3   OH220669   4.266   6.522   0.485
 6909TIP3    H120670   4.324   6.516   0.409
 6909TIP3    H220671   4.325   6.522   0.560
 6910TIP3   OH220672   2.253   3.725   5.707
 6910TIP3    H120673   2.167   3.741   5.667
 6910TIP3    H220674   2.266   3.631   5.700
 6911TIP3   OH220675   5.127   6.506   5.910
 6911TIP3    H120676   5.125   6.441   5.840
 6911TIP3    H220677   5.219   6.510   5.937
 6912TIP3   OH220678   2.669   2.999   0.497
 6912TIP3    H120679   2.700   2.908   0.497
 6912TIP3    H220680   2.665   3.023   0.589
 6913TIP3   OH220681   0.412   7.336   1.924
 6913TIP3    H120682   0.339   7.320   1.864
 6913TIP3    H220683   0.446   7.422   1.899
 6914TIP3   OH220684   5.275   2.657   3.863
 6914TIP3    H120685   5.303   2.735   3.910
 6914TIP3    H220686   5.350   2.632   3.809
 6915TIP3   OH220687   0.419   3.186   0.879
 6915TIP3    H120688   0.370   3.158   0.956
 6915TIP3    H220689   0.372   3.149   0.805
 6916TIP3   OH220690   1.434   3.255   3.630
 6916TIP3    H120691   1.360   3.244   3.571
 6916TIP3    H220692   1.396   3.256   3.717
 6917TIP3   OH220693   2.934   0.327   6.673
 6917TIP3    H120694   2.936   0.422   6.659
 6917TIP3    H220695   2.841   0.306   6.680
 6918TIP3   OH220696   4.592   1.964   3.207
 6918TIP3    H120697   4.552   1.906   3.143
 6918TIP3    H220698   4.519   1.998   3.259
 6919TIP3   OH220699   0.532   7.189   1.144
 6919TIP3    H120700   0.444   7.201   1.107
 6919TIP3    H220701   0.519   7.125   1.215
 6920TIP3   OH220702   7.003   6.521   0.428
 6920TIP3    H120703   6.919   6.560   0.454
 6920TIP3    H220704   6.991   6.497   0.336
 6921TIP3   OH220705   5.420   6.685   0.944
 6921TIP3    H120706   5.380   6.724   1.023
 6921TIP3    H220707   5.346   6.662   0.889
 6922TIP3   OH220708   0.918   3.475   0.498
 6922TIP3    H120709   0.838   3.528   0.503
 6922TIP3    H220710   0.966   3.512   0.424
 6923TIP3   OH220711   0.062   2.338   0.129
 6923TIP3    H120712   0.147   2.382   0.126
 6923TIP3    H220713   0.061   2.283   0.051
 6924TIP3   OH220714   0.026   0.602   2.822
 6924TIP3    H120715   0.114   0.565   2.819
 6924TIP3    H220716  -0.016   0.558   2.896
 6925TIP3   OH220717   2.233   0.000   5.804
 6925TIP3    H120718   2.192  -0.024   5.887
 6925TIP3    H220719   2.160   0.020   5.746
 6926TIP3   OH220720   4.437   1.377   2.590
 6926TIP3    H120721   4.347   1.398   2.614
 6926TIP3    H220722   4.434   1.284   2.565
 6927TIP3   OH220723   3.395   0.929   0.672
 6927TIP3    H120724   3.417   0.843   0.637
 6927TIP3    H220725   3.413   0.989   0.600
 6928TIP3   OH220726   5.198   2.849   1.249
 6928TIP3    H120727   5.105   2.852   1.268
 6928TIP3    H220728   5.237   2.913   1.308
 6929TIP3   OH220729   3.183   7.117   2.190
 6929TIP3    H120730   3.194   7.151   2.101
 6929TIP3    H220731   3.200   7.023   2.182
 6930TIP3   OH220732   0.553   4.195   2.937
 6930TIP3    H120733   0.612   4.171   3.008
 6930TIP3    H220734   0.596   4.163   2.858
 6931TIP3   OH220735   7.650   7.375   5.804
 6931TIP3    H120736   7.731   7.416   5.773
 6931TIP3    H220737   7.605   7.444   5.854
 6932TIP3   OH220738   0.030   4.947   5.404
 6932TIP3    H120739  -0.009   5.022   5.450
 6932TIP3    H220740   0.109   4.984   5.362
 6933TIP3   OH220741   7.087   0.411   0.386
 6933TIP3    H120742   7.179   0.399   0.364
 6933TIP3    H220743   7.088   0.448   0.475
 6934TIP3   OH220744   6.552   6.140   4.865
 6934TIP3    H120745   6.527   6.061   4.913
 6934TIP3    H220746   6.507   6.211   4.911
 6935TIP3   OH220747   7.661   0.634   0.270
 6935TIP3    H120748   7.571   0.665   0.260
 6935TIP3    H220749   7.651   0.543   0.299
 6936TIP3   OH220750   7.601   0.959   1.850
 6936TIP3    H120751   7.511   0.927   1.852
 6936TIP3    H220752   7.609   1.005   1.767
 6937TIP3   OH220753   1.549   2.344   0.791
 6937TIP3    H120754   1.583   2.385   0.712
 6937TIP3    H220755   1.603   2.266   0.803
 6938TIP3   OH220756   2.839   7.331   0.342
 6938TIP3    H120757   2.868   7.249   0.383
 6938TIP3    H220758   2.886   7.399   0.389
 6939TIP3   OH220759   1.354   0.870   4.013
 6939TIP3    H120760   1.327   0.926   3.941
 6939TIP3    H220761   1.296   0.795   4.009
 6940TIP3   OH220762   3.838   4.482   1.004
 6940TIP3    H120763   3.762   4.426   0.988
 6940TIP3    H220764   3.808   4.545   1.070
 6941TIP3   OH220765   1.267   5.903   5.483
 6941TIP3    H120766   1.352   5.925   5.445
 6941TIP3    H220767   1.204   5.953   5.431
 6942TIP3   OH220768   0.390   1.551   0.857
 6942TIP3    H120769   0.357   1.524   0.943
 6942TIP3    H220770   0.482   1.574   0.873
 6943TIP3   OH220771   7.581   2.408   0.885
 6943TIP3    H120772   7.568   2.373   0.973
 6943TIP3    H220773   7.496   2.397   0.841
 6944TIP3   OH220774   5.479   1.608   5.923
 6944TIP3    H120775   5.391   1.642   5.910
 6944TIP3    H220776   5.466   1.521   5.962
 6945TIP3   OH220777   5.909   1.781   0.025
 6945TIP3    H120778   5.987   1.769  -0.029
 6945TIP3    H220779   5.931   1.739   0.108
 6946TIP3   OH220780   3.857   4.650   6.381
 6946TIP3    H120781   3.916   4.672   6.454
 6946TIP3    H220782   3.771   4.643   6.422
 6947TIP3   OH220783   6.371   1.580   0.205
 6947TIP3    H120784   6.466   1.589   0.207
 6947TIP3    H220785   6.352   1.516   0.273
 6948TIP3   OH220786   3.784   7.044   4.994
 6948TIP3    H120787   3.742   7.073   4.913
 6948TIP3    H220788   3.857   6.989   4.965
 6949TIP3   OH220789   2.596   3.361   0.755
 6949TIP3    H120790   2.525   3.400   0.805
 6949TIP3    H220791   2.668   3.351   0.817
 6950TIP3   OH220792   3.241   5.980   0.844
 6950TIP3    H120793   3.194   5.939   0.771
 6950TIP3    H220794   3.294   5.909   0.881
 6951TIP3   OH220795   5.611   1.635   1.857
 6951TIP3    H120796   5.554   1.709   1.878
 6951TIP3    H220797   5.623   1.590   1.940
 6952TIP3   OH220798   4.964   1.879   0.656
 6952TIP3    H120799   4.905   1.883   0.581
 6952TIP3    H220800   4.934   1.948   0.714
 6953TIP3   OH220801   7.838   3.449   6.215
 6953TIP3    H120802   7.885   3.398   6.150
 6953TIP3    H220803   7.748   3.451   6.183
 6954TIP3   OH220804   4.041   2.951   3.158
 6954TIP3    H120805   4.109   2.980   3.098
 6954TIP3    H220806   4.069   2.984   3.244
 6955TIP3   OH220807   7.146   5.722   2.098
 6955TIP3    H120808   7.176   5.632   2.110
 6955TIP3    H220809   7.226   5.773   2.090
 6956TIP3   OH220810   2.755   3.435   2.141
 6956TIP3    H120811   2.796   3.515   2.172
 6956TIP3    H220812   2.667   3.461   2.114
 6957TIP3   OH220813   7.397   5.814   5.025
 6957TIP3    H120814   7.426   5.905   5.036
 6957TIP3    H220815   7.442   5.785   4.945
 6958TIP3   OH220816   1.511   3.669   1.854
 6958TIP3    H120817   1.491   3.756   1.889
 6958TIP3    H220818   1.604   3.671   1.835
 6959TIP3   OH220819   2.327   2.128   6.062
 6959TIP3    H120820   2.313   2.220   6.085
 6959TIP3    H220821   2.367   2.090   6.140
 6960TIP3   OH220822   1.730   7.416   3.863
 6960TIP3    H120823   1.688   7.330   3.866
 6960TIP3    H220824   1.743   7.433   3.770
 6961TIP3   OH220825   5.377   5.816   3.943
 6961TIP3    H120826   5.369   5.809   3.848
 6961TIP3    H220827   5.437   5.889   3.957
 6962TIP3   OH220828   6.447   1.670   3.277
 6962TIP3    H120829   6.485   1.648   3.362
 6962TIP3    H220830   6.393   1.747   3.294
 6963TIP3   OH220831   0.086   6.849   2.576
 6963TIP3    H120832   0.120   6.920   2.631
 6963TIP3    H220833   0.004   6.883   2.540
 6964TIP3   OH220834   2.905   3.974   4.170
 6964TIP3    H120835   2.811   3.970   4.186
 6964TIP3    H220836   2.934   4.054   4.214
 6965TIP3   OH220837   8.305   0.686   4.515
 6965TIP3    H120838   8.309   0.691   4.419
 6965TIP3    H220839   8.247   0.613   4.533
 6966TIP3   OH220840   1.651   3.429   1.209
 6966TIP3    H120841   1.666   3.521   1.185
 6966TIP3    H220842   1.556   3.421   1.215
 6967TIP3   OH220843   3.767   6.273   3.352
 6967TIP3    H120844   3.834   6.225   3.400
 6967TIP3    H220845   3.693   6.213   3.348
 6968TIP3   OH220846   7.533   5.750   5.277
 6968TIP3    H120847   7.474   5.746   5.202
 6968TIP3    H220848   7.475   5.766   5.352
 6969TIP3   OH220849   2.154   4.177   3.231
 6969TIP3    H120850   2.096   4.117   3.276
 6969TIP3    H220851   2.124   4.264   3.256
 6970TIP3   OH220852   7.848   1.840   5.447
 6970TIP3    H120853   7.903   1.799   5.381
 6970TIP3    H220854   7.774   1.877   5.398
 6971TIP3   OH220855   7.345   6.419   6.260
 6971TIP3    H120856   7.271   6.460   6.303
 6971TIP3    H220857   7.314   6.331   6.237
 6972TIP3   OH220858   7.886   2.270   0.536
 6972TIP3    H120859   7.841   2.354   0.548
 6972TIP3    H220860   7.976   2.287   0.564
 6973TIP3   OH220861   1.889   6.058   1.293
 6973TIP3    H120862   1.961   6.092   1.346
 6973TIP3    H220863   1.810   6.079   1.343
 6974TIP3   OH220864   7.454   0.928   6.408
 6974TIP3    H120865   7.444   0.890   6.321
 6974TIP3    H220866   7.433   0.857   6.468
 6975TIP3   OH220867   1.767   4.245   6.736
 6975TIP3    H120868   1.749   4.286   6.821
 6975TIP3    H220869   1.703   4.175   6.729
 6976TIP3   OH220870   6.948   6.458   4.977
 6976TIP3    H120871   6.908   6.371   4.982
 6976TIP3    H220872   6.928   6.488   4.889
 6977TIP3   OH220873   4.163   7.015   0.215
 6977TIP3    H120874   4.163   6.932   0.263
 6977TIP3    H220875   4.243   7.059   0.243
 6978TIP3   OH220876   0.089   4.382   1.145
 6978TIP3    H120877   0.084   4.289   1.126
 6978TIP3    H220878   0.069   4.389   1.239
 6979TIP3   OH220879   4.583   2.161   4.030
 6979TIP3    H120880   4.604   2.073   3.999
 6979TIP3    H220881   4.656   2.185   4.087
 6980TIP3   OH220882   0.672   0.234   3.789
 6980TIP3    H120883   0.638   0.151   3.756
 6980TIP3    H220884   0.692   0.285   3.710
 6981TIP3   OH220885   3.268   6.125   1.098
 6981TIP3    H120886   3.206   6.113   1.170
 6981TIP3    H220887   3.250   6.053   1.038
 6982TIP3   OH220888   4.597   1.379   5.376
 6982TIP3    H120889   4.643   1.305   5.337
 6982TIP3    H220890   4.664   1.446   5.388
 6983TIP3   OH220891   3.518   2.874   3.347
 6983TIP3    H120892   3.609   2.843   3.345
 6983TIP3    H220893   3.525   2.969   3.341
 6984TIP3   OH220894   5.175   5.289   1.293
 6984TIP3    H120895   5.202   5.377   1.320
 6984TIP3    H220896   5.128   5.254   1.369
 6985TIP3   OH220897   7.931   2.588   1.983
 6985TIP3    H120898   7.852   2.593   2.037
 6985TIP3    H220899   7.967   2.501   2.001
 6986TIP3   OH220900   2.687   6.946   1.796
 6986TIP3    H120901   2.625   6.940   1.724
 6986TIP3    H220902   2.773   6.935   1.755
 6987TIP3   OH220903   6.235   0.116   2.587
 6987TIP3    H120904   6.320   0.151   2.613
 6987TIP3    H220905   6.229   0.133   2.494
 6988TIP3   OH220906   4.436   0.592   1.759
 6988TIP3    H120907   4.349   0.617   1.727
 6988TIP3    H220908   4.434   0.496   1.761
 6989TIP3   OH220909   3.226   7.347   2.708
 6989TIP3    H120910   3.310   7.365   2.666
 6989TIP3    H220911   3.193   7.270   2.663
 6990TIP3   OH220912   1.263   1.701   3.298
 6990TIP3    H120913   1.217   1.646   3.234
 6990TIP3    H220914   1.337   1.649   3.327
 6991TIP3   OH220915   5.727   1.373   0.731
 6991TIP3    H120916   5.683   1.354   0.648
 6991TIP3    H220917   5.807   1.320   0.727
 6992TIP3   OH220918   3.829   7.024   3.380
 6992TIP3    H120919   3.826   6.986   3.293
 6992TIP3    H220920   3.914   6.997   3.415
 6993TIP3   OH220921   3.134   1.217   3.598
 6993TIP3    H120922   3.093   1.255   3.521
 6993TIP3    H220923   3.185   1.288   3.636
 6994TIP3   OH220924   1.117   7.699   3.109
 6994TIP3    H120925   1.200   7.729   3.072
 6994TIP3    H220926   1.138   7.615   3.148
 6995TIP3   OH220927   0.959   6.305   3.453
 6995TIP3    H120928   1.038   6.279   3.407
 6995TIP3    H220929   0.893   6.314   3.384
 6996TIP3   OH220930   1.653   6.245   0.657
 6996TIP3    H120931   1.657   6.300   0.735
 6996TIP3    H220932   1.742   6.211   0.647
 6997TIP3   OH220933   4.309   7.727   4.985
 6997TIP3    H120934   4.244   7.797   4.988
 6997TIP3    H220935   4.343   7.722   5.074
 6998TIP3   OH220936   0.559   2.131   1.770
 6998TIP3    H120937   0.498   2.085   1.829
 6998TIP3    H220938   0.619   2.176   1.830
 6999TIP3   OH220939   0.091   2.395   5.310
 6999TIP3    H120940   0.022   2.462   5.309
 6999TIP3    H220941   0.088   2.356   5.222
 7000TIP3   OH220942   4.827   2.001   5.610
 7000TIP3    H120943   4.849   2.052   5.688
 7000TIP3    H220944   4.817   2.066   5.540
 7001TIP3   OH220945   3.101   1.067   4.631
 7001TIP3    H120946   3.130   1.117   4.707
 7001TIP3    H220947   3.036   1.123   4.588
 7002TIP3   OH220948   2.349   0.074   2.134
 7002TIP3    H120949   2.285   0.004   2.145
 7002TIP3    H220950   2.391   0.055   2.050
 7003TIP3   OH220951   3.696   0.659   1.242
 7003TIP3    H120952   3.636   0.728   1.270
 7003TIP3    H220953   3.744   0.697   1.169
 7004TIP3   OH220954   0.166   2.744   0.176
 7004TIP3    H120955   0.141   2.671   0.232
 7004TIP3    H220956   0.084   2.789   0.155
 7005TIP3   OH220957   6.345   3.429   1.025
 7005TIP3    H120958   6.408   3.410   0.956
 7005TIP3    H220959   6.397   3.435   1.105
 7006TIP3   OH220960   4.555   1.108   3.804
 7006TIP3    H120961   4.556   1.100   3.709
 7006TIP3    H220962   4.577   1.020   3.836
 7007TIP3   OH220963   3.402   2.446   5.565
 7007TIP3    H120964   3.400   2.511   5.495
 7007TIP3    H220965   3.487   2.403   5.556
 7008TIP3   OH220966   1.630   3.918   3.462
 7008TIP3    H120967   1.575   3.920   3.541
 7008TIP3    H220968   1.686   3.995   3.470
 7009TIP3   OH220969  -0.016   4.666   2.828
 7009TIP3    H120970  -0.053   4.754   2.826
 7009TIP3    H220971   0.072   4.676   2.793
 7010TIP3   OH220972   0.875   2.869   1.949
 7010TIP3    H120973   0.911   2.956   1.965
 7010TIP3    H220974   0.844   2.840   2.035
 7011TIP3   OH220975   6.427   5.672   3.689
 7011TIP3    H120976   6.453   5.584   3.715
 7011TIP3    H220977   6.469   5.686   3.604
 7012TIP3   OH220978   4.250   5.202   5.917
 7012TIP3    H120979   4.327   5.181   5.969
 7012TIP3    H220980   4.280   5.202   5.826
 7013TIP3   OH220981   5.640   3.297   3.941
 7013TIP3    H120982   5.577   3.365   3.967
 7013TIP3    H220983   5.667   3.256   4.023
 7014TIP3   OH220984   1.771   4.655   4.568
 7014TIP3    H120985   1.725   4.668   4.486
 7014TIP3    H220986   1.784   4.743   4.603
 7015TIP3   OH220987   5.330   6.649   1.576
 7015TIP3    H120988   5.359   6.737   1.555
 7015TIP3    H220989   5.349   6.597   1.498
 7016TIP3   OH220990   7.933   6.270   0.114
 7016TIP3    H120991   7.928   6.280   0.019
 7016TIP3    H220992   7.953   6.177   0.127
 7017TIP3   OH220993   7.258   1.018   5.174
 7017TIP3    H120994   7.163   1.016   5.170
 7017TIP3    H220995   7.286   0.935   5.133
 7018TIP3   OH220996   3.512   7.140   0.698
 7018TIP3    H120997   3.575   7.073   0.672
 7018TIP3    H220998   3.428   7.094   0.699
 7019TIP3   OH220999   5.899   5.887   6.094
 7019TIP3    H121000   5.901   5.902   6.189
 7019TIP3    H221001   5.806   5.885   6.072
 7020TIP3   OH221002   2.422   1.387   6.154
 7020TIP3    H121003   2.417   1.352   6.243
 7020TIP3    H221004   2.395   1.478   6.163
 7021TIP3   OH221005   4.479   1.588   3.871
 7021TIP3    H121006   4.559   1.550   3.907
 7021TIP3    H221007   4.509   1.651   3.805
 7022TIP3   OH221008   8.167   0.924   5.394
 7022TIP3    H121009   8.216   0.928   5.476
 7022TIP3    H221010   8.127   1.010   5.385
 7023TIP3   OH221011   2.318   3.092   3.816
 7023TIP3    H121012   2.388   3.150   3.785
 7023TIP3    H221013   2.294   3.041   3.738
 7024TIP3   OH221014   0.043   5.546   5.770
 7024TIP3    H121015   0.103   5.619   5.753
 7024TIP3    H221016  -0.008   5.575   5.846
 7025TIP3   OH221017   1.257   3.159   4.776
 7025TIP3    H121018   1.275   3.095   4.845
 7025TIP3    H221019   1.174   3.199   4.801
 7026TIP3   OH221020   6.295   2.067   2.989
 7026TIP3    H121021   6.287   2.044   3.082
 7026TIP3    H221022   6.304   1.983   2.944
 7027TIP3   OH221023   2.800   3.148   6.091
 7027TIP3    H121024   2.874   3.091   6.073
 7027TIP3    H221025   2.759   3.111   6.169
 7028TIP3   OH221026   3.364   3.489   5.939
 7028TIP3    H121027   3.287   3.446   5.901
 7028TIP3    H221028   3.414   3.418   5.977
 7029TIP3   OH221029   3.485   5.328   6.520
 7029TIP3    H121030   3.516   5.261   6.459
 7029TIP3    H221031   3.390   5.332   6.505
 7030TIP3   OH221032   0.439   3.724   0.263
 7030TIP3    H121033   0.522   3.679   0.282
 7030TIP3    H221034   0.405   3.679   0.186
 7031TIP3   OH221035   4.552   7.365   0.080
 7031TIP3    H121036   4.535   7.278   0.116
 7031TIP3    H221037   4.644   7.363   0.054
 7032TIP3   OH221038   2.770   4.437   3.169
 7032TIP3    H121039   2.812   4.383   3.235
 7032TIP3    H221040   2.828   4.513   3.159
 7033TIP3   OH221041   8.293   6.210   4.972
 7033TIP3    H121042   8.234   6.189   4.899
 7033TIP3    H221043   8.380   6.217   4.932
 7034TIP3   OH221044   5.534   2.147   3.440
 7034TIP3    H121045   5.478   2.077   3.474
 7034TIP3    H221046   5.574   2.186   3.518
 7035TIP3   OH221047   4.700  -0.015   3.999
 7035TIP3    H121048   4.665   0.054   4.057
 7035TIP3    H221049   4.681   0.017   3.911
 7036TIP3   OH221050   0.215   7.497   5.642
 7036TIP3    H121051   0.173   7.467   5.561
 7036TIP3    H221052   0.222   7.592   5.633
 7037TIP3   OH221053   1.227   1.964   3.270
 7037TIP3    H121054   1.187   1.994   3.351
 7037TIP3    H221055   1.226   1.868   3.276
 7038TIP3   OH221056   7.832   7.410   6.739
 7038TIP3    H121057   7.840   7.504   6.722
 7038TIP3    H221058   7.866   7.398   6.828
 7039TIP3   OH221059   6.384   5.121   5.203
 7039TIP3    H121060   6.314   5.186   5.202
 7039TIP3    H221061   6.439   5.145   5.278
 7040TIP3   OH221062   8.288   4.785   4.502
 7040TIP3    H121063   8.200   4.748   4.493
 7040TIP3    H221064   8.344   4.711   4.526
 7041TIP3   OH221065   3.594   5.222   1.609
 7041TIP3    H121066   3.542   5.179   1.677
 7041TIP3    H221067   3.673   5.251   1.653
 7042TIP3   OH221068   0.230   5.590   5.500
 7042TIP3    H121069   0.243   5.586   5.594
 7042TIP3    H221070   0.214   5.499   5.474
 7043TIP3   OH221071   7.613   0.515   5.363
 7043TIP3    H121072   7.693   0.465   5.345
 7043TIP3    H221073   7.602   0.572   5.286
 7044TIP3   OH221074   6.390   7.645   6.020
 7044TIP3    H121075   6.383   7.574   5.956
 7044TIP3    H221076   6.299   7.661   6.047
 7045TIP3   OH221077   6.525   6.788   2.996
 7045TIP3    H121078   6.526   6.878   3.031
 7045TIP3    H221079   6.463   6.791   2.924
 7046TIP3   OH221080   7.138   7.535   1.592
 7046TIP3    H121081   7.134   7.461   1.652
 7046TIP3    H221082   7.132   7.612   1.648
 7047TIP3   OH221083   0.019   6.946   5.379
 7047TIP3    H121084  -0.034   6.874   5.412
 7047TIP3    H221085   0.107   6.909   5.370
 7048TIP3   OH221086   5.693   1.635   4.123
 7048TIP3    H121087   5.757   1.627   4.053
 7048TIP3    H221088   5.623   1.689   4.086
 7049TIP3   OH221089   7.910   1.537   0.846
 7049TIP3    H121090   7.955   1.574   0.771
 7049TIP3    H221091   7.959   1.458   0.867
 7050TIP3   OH221092   1.711   1.095   5.153
 7050TIP3    H121093   1.688   1.037   5.081
 7050TIP3    H221094   1.708   1.040   5.231
 7051TIP3   OH221095   1.917   6.378   0.816
 7051TIP3    H121096   1.824   6.397   0.811
 7051TIP3    H221097   1.935   6.370   0.910
 7052TIP3   OH221098   1.913   4.963   0.681
 7052TIP3    H121099   2.009   4.962   0.681
 7052TIP3    H221100   1.890   5.044   0.726
 7053TIP3   OH221101   5.136   5.372   2.191
 7053TIP3    H121102   5.209   5.347   2.247
 7053TIP3    H221103   5.118   5.294   2.138
 7054TIP3   OH221104   3.084   3.663   4.900
 7054TIP3    H121105   3.163   3.628   4.859
 7054TIP3    H221106   3.102   3.657   4.994
 7055TIP3   OH221107   7.725   6.707   5.729
 7055TIP3    H121108   7.677   6.734   5.807
 7055TIP3    H221109   7.714   6.780   5.668
 7056TIP3   OH221110   6.743   5.058   3.904
 7056TIP3    H121111   6.670   4.997   3.907
 7056TIP3    H221112   6.796   5.029   3.829
 7057TIP3   OH221113   5.359   3.961   3.452
 7057TIP3    H121114   5.425   3.894   3.434
 7057TIP3    H221115   5.409   4.035   3.485
 7058TIP3   OH221116   8.089   5.681   1.797
 7058TIP3    H121117   8.119   5.615   1.735
 7058TIP3    H221118   8.007   5.647   1.832
 7059TIP3   OH221119   6.585   4.556   5.207
 7059TIP3    H121120   6.502   4.587   5.171
 7059TIP3    H221121   6.652   4.595   5.151
 7060TIP3   OH221122   5.043   5.370   0.062
 7060TIP3    H121123   5.116   5.378   0.123
 7060TIP3    H221124   4.997   5.290   0.090
 7061TIP3   OH221125   4.141   1.252   2.745
 7061TIP3    H121126   4.117   1.283   2.657
 7061TIP3    H221127   4.089   1.307   2.804
 7062TIP3   OH221128   4.103   4.405   1.624
 7062TIP3    H121129   4.146   4.490   1.627
 7062TIP3    H221130   4.013   4.422   1.650
 7063TIP3   OH221131   7.207   7.636   3.094
 7063TIP3    H121132   7.229   7.659   3.004
 7063TIP3    H221133   7.253   7.554   3.109
 7064TIP3   OH221134   0.769   1.043   6.159
 7064TIP3    H121135   0.803   0.987   6.088
 7064TIP3    H221136   0.844   1.098   6.183
 7065TIP3   OH221137   7.707   0.827   1.278
 7065TIP3    H121138   7.617   0.860   1.272
 7065TIP3    H221139   7.698   0.735   1.303
 7066TIP3   OH221140   7.595   4.371   5.734
 7066TIP3    H121141   7.654   4.379   5.809
 7066TIP3    H221142   7.537   4.447   5.741
 7067TIP3   OH221143   1.950   0.206   5.077
 7067TIP3    H121144   1.917   0.122   5.110
 7067TIP3    H221145   1.877   0.242   5.026
 7068TIP3   OH221146   7.188   3.320   4.776
 7068TIP3    H121147   7.169   3.270   4.856
 7068TIP3    H221148   7.194   3.411   4.805
 7069TIP3   OH221149   4.193   5.594   3.479
 7069TIP3    H121150   4.164   5.523   3.421
 7069TIP3    H221151   4.259   5.554   3.535
 7070TIP3   OH221152   0.604   2.840   6.639
 7070TIP3    H121153   0.662   2.875   6.572
 7070TIP3    H221154   0.615   2.898   6.714
 7071TIP3   OH221155   1.029   3.424   1.694
 7071TIP3    H121156   1.115   3.459   1.716
 7071TIP3    H221157   1.020   3.347   1.750
 7072TIP3   OH221158   5.820   0.886   3.428
 7072TIP3    H121159   5.811   0.895   3.523
 7072TIP3    H221160   5.833   0.792   3.414
 7073TIP3   OH221161   4.598   0.939   0.741
 7073TIP3    H121162   4.503   0.932   0.751
 7073TIP3    H221163   4.612   0.943   0.647
 7074TIP3   OH221164   3.475   6.589   6.016
 7074TIP3    H121165   3.466   6.499   6.047
 7074TIP3    H221166   3.452   6.585   5.923
 7075TIP3   OH221167   3.497   1.948   4.211
 7075TIP3    H121168   3.495   2.034   4.252
 7075TIP3    H221169   3.406   1.933   4.183
 7076TIP3   OH221170   4.119   3.799   5.265
 7076TIP3    H121171   4.123   3.893   5.280
 7076TIP3    H221172   4.046   3.769   5.319
 7077TIP3   OH221173   5.340   6.905   6.167
 7077TIP3    H121174   5.340   6.960   6.246
 7077TIP3    H221175   5.264   6.849   6.176
 7078TIP3   OH221176   0.635   7.525   2.824
 7078TIP3    H121177   0.655   7.575   2.903
 7078TIP3    H221178   0.706   7.461   2.818
 7079TIP3   OH221179   1.169   1.496   3.492
 7079TIP3    H121180   1.242   1.523   3.436
 7079TIP3    H221181   1.199   1.415   3.534
 7080TIP3   OH221182   8.231   5.985   5.397
 7080TIP3    H121183   8.293   6.058   5.397
 7080TIP3    H221184   8.159   6.015   5.453
 7081TIP3   OH221185   3.946   7.554   5.165
 7081TIP3    H121186   3.886   7.547   5.091
 7081TIP3    H221187   4.020   7.498   5.142
 7082TIP3   OH221188   3.752   2.828   0.330
 7082TIP3    H121189   3.836   2.806   0.289
 7082TIP3    H221190   3.774   2.851   0.420
 7083TIP3   OH221191   1.479   2.666   4.020
 7083TIP3    H121192   1.459   2.598   3.955
 7083TIP3    H221193   1.567   2.643   4.051
 7084TIP3   OH221194   2.010   5.566   0.937
 7084TIP3    H121195   1.949   5.616   0.991
 7084TIP3    H221196   2.030   5.488   0.990
 7085TIP3   OH221197   4.680   3.358   2.723
 7085TIP3    H121198   4.744   3.373   2.653
 7085TIP3    H221199   4.674   3.262   2.730
 7086TIP3   OH221200   5.753   4.357   3.980
 7086TIP3    H121201   5.731   4.433   4.034
 7086TIP3    H221202   5.845   4.369   3.957
 7087TIP3   OH221203   7.511   2.964   1.657
 7087TIP3    H121204   7.575   3.030   1.681
 7087TIP3    H221205   7.441   2.973   1.722
 7088TIP3   OH221206   6.095   1.819   4.253
 7088TIP3    H121207   6.062   1.759   4.187
 7088TIP3    H221208   6.090   1.770   4.335
 7089TIP3   OH221209   1.800   0.177   4.160
 7089TIP3    H121210   1.849   0.258   4.174
 7089TIP3    H221211   1.730   0.202   4.100
 7090TIP3   OH221212   3.674   4.876   5.171
 7090TIP3    H121213   3.669   4.912   5.260
 7090TIP3    H221214   3.617   4.799   5.173
 7091TIP3   OH221215   2.903   2.634   1.715
 7091TIP3    H121216   2.810   2.613   1.707
 7091TIP3    H221217   2.907   2.729   1.714
 7092TIP3   OH221218   6.927   0.822   3.906
 7092TIP3    H121219   6.995   0.769   3.865
 7092TIP3    H221220   6.974   0.871   3.974
 7093TIP3   OH221221   4.868   4.190   5.804
 7093TIP3    H121222   4.923   4.262   5.832
 7093TIP3    H221223   4.921   4.112   5.819
 7094TIP3   OH221224   3.061   3.068   6.477
 7094TIP3    H121225   2.967   3.065   6.495
 7094TIP3    H221226   3.069   3.118   6.396
 7095TIP3   OH221227   3.821   5.773   0.294
 7095TIP3    H121228   3.729   5.761   0.270
 7095TIP3    H221229   3.868   5.707   0.243
 7096TIP3   OH221230   0.729   1.968   5.258
 7096TIP3    H121231   0.736   2.061   5.276
 7096TIP3    H221232   0.641   1.945   5.289
 7097TIP3   OH221233   4.054   6.820   2.040
 7097TIP3    H121234   3.983   6.884   2.027
 7097TIP3    H221235   4.096   6.848   2.122
 7098TIP3   OH221236   1.684   2.501   1.940
 7098TIP3    H121237   1.707   2.504   2.032
 7098TIP3    H221238   1.752   2.553   1.896
 7099TIP3   OH221239   5.408   1.405   2.250
 7099TIP3    H121240   5.463   1.331   2.278
 7099TIP3    H221241   5.324   1.390   2.293
 7100TIP3   OH221242   0.995   5.818   5.741
 7100TIP3    H121243   1.021   5.752   5.805
 7100TIP3    H221244   0.959   5.767   5.668
 7101TIP3   OH221245   5.757   0.742   0.677
 7101TIP3    H121246   5.823   0.809   0.665
 7101TIP3    H221247   5.686   0.766   0.618
 7102TIP3   OH221248   7.101   4.289   0.312
 7102TIP3    H121249   7.111   4.380   0.339
 7102TIP3    H221250   7.088   4.292   0.218
 7103TIP3   OH221251   5.916   5.929   2.101
 7103TIP3    H121252   5.847   5.989   2.130
 7103TIP3    H221253   5.944   5.883   2.180
 7104TIP3   OH221254   0.706   0.220   4.268
 7104TIP3    H121255   0.699   0.169   4.188
 7104TIP3    H221256   0.721   0.155   4.337
 7105TIP3   OH221257   7.765   0.153   2.293
 7105TIP3    H121258   7.775   0.226   2.354
 7105TIP3    H221259   7.763   0.193   2.206
 7106TIP3   OH221260   5.324   2.502   0.278
 7106TIP3    H121261   5.340   2.586   0.236
 7106TIP3    H221262   5.409   2.478   0.315
 7107TIP3   OH221263   6.648   1.326   0.261
 7107TIP3    H121264   6.739   1.323   0.290
 7107TIP3    H221265   6.649   1.380   0.182
 7108TIP3   OH221266   4.589   7.421   6.357
 7108TIP3    H121267   4.668   7.369   6.367
 7108TIP3    H221268   4.562   7.406   6.266
 7109TIP3   OH221269   0.614   7.309   5.865
 7109TIP3    H121270   0.519   7.298   5.871
 7109TIP3    H221271   0.629   7.398   5.896
 7110TIP3   OH221272   8.129   6.126   3.514
 7110TIP3    H121273   8.078   6.207   3.509
 7110TIP3    H221274   8.217   6.151   3.485
 7111TIP3   OH221275   6.753   0.238   1.924
 7111TIP3    H121276   6.848   0.228   1.933
 7111TIP3    H221277   6.737   0.226   1.831
 7112TIP3   OH221278   1.529   1.442   4.932
 7112TIP3    H121279   1.491   1.520   4.973
 7112TIP3    H221280   1.453   1.395   4.896
 7113TIP3   OH221281   4.966   2.837   3.636
 7113TIP3    H121282   5.004   2.845   3.549
 7113TIP3    H221283   5.008   2.760   3.674
 7114TIP3   OH221284   0.559   6.758   1.023
 7114TIP3    H121285   0.522   6.670   1.010
 7114TIP3    H221286   0.570   6.793   0.934
 7115TIP3   OH221287   7.583   3.367   0.313
 7115TIP3    H121288   7.595   3.451   0.358
 7115TIP3    H221289   7.634   3.305   0.365
 7116TIP3   OH221290   7.698   1.170   2.013
 7116TIP3    H121291   7.634   1.169   2.084
 7116TIP3    H221292   7.689   1.085   1.971
 7117TIP3   OH221293   2.918   5.048   2.349
 7117TIP3    H121294   2.935   5.032   2.442
 7117TIP3    H221295   3.003   5.068   2.312
 7118TIP3   OH221296   6.009   5.835   4.430
 7118TIP3    H121297   6.073   5.780   4.384
 7118TIP3    H221298   6.062   5.895   4.482
 7119TIP3   OH221299   1.788   5.606   5.332
 7119TIP3    H121300   1.740   5.682   5.300
 7119TIP3    H221301   1.730   5.568   5.399
 7120TIP3   OH221302   0.920   6.763   3.522
 7120TIP3    H121303   0.959   6.850   3.522
 7120TIP3    H221304   0.986   6.706   3.561
 7121TIP3   OH221305   3.735   4.105   2.871
 7121TIP3    H121306   3.780   4.030   2.834
 7121TIP3    H221307   3.796   4.140   2.936
 7122TIP3   OH221308   4.092   7.622   6.502
 7122TIP3    H121309   4.176   7.666   6.517
 7122TIP3    H221310   4.086   7.614   6.407
 7123TIP3   OH221311   5.847   1.501   0.415
 7123TIP3    H121312   5.935   1.463   0.428
 7123TIP3    H221313   5.789   1.425   0.415
 7124TIP3   OH221314   4.532   2.103   4.598
 7124TIP3    H121315   4.502   2.022   4.559
 7124TIP3    H221316   4.478   2.113   4.677
 7125TIP3   OH221317   7.256   6.151   6.416
 7125TIP3    H121318   7.161   6.160   6.411
 7125TIP3    H221319   7.285   6.226   6.468
 7126TIP3   OH221320   5.524   0.358   3.889
 7126TIP3    H121321   5.578   0.283   3.913
 7126TIP3    H221322   5.480   0.331   3.808
 7127TIP3   OH221323   4.132   0.928   5.388
 7127TIP3    H121324   4.111   0.861   5.324
 7127TIP3    H221325   4.210   0.895   5.434
 7128TIP3   OH221326   2.976   0.077   0.694
 7128TIP3    H121327   2.919   0.102   0.766
 7128TIP3    H221328   3.009  -0.010   0.718
 7129TIP3   OH221329   4.850   1.706   2.932
 7129TIP3    H121330   4.831   1.663   3.015
 7129TIP3    H221331   4.928   1.661   2.899
 7130TIP3   OH221332   6.786   6.770   1.941
 7130TIP3    H121333   6.737   6.849   1.918
 7130TIP3    H221334   6.756   6.749   2.030
 7131TIP3   OH221335   1.345   3.951   3.356
 7131TIP3    H121336   1.288   3.875   3.367
 7131TIP3    H221337   1.433   3.918   3.376
 7132TIP3   OH221338   3.770   3.893   3.255
 7132TIP3    H121339   3.800   3.803   3.267
 7132TIP3    H221340   3.842   3.936   3.209
 7133TIP3   OH221341   7.099   5.905   4.405
 7133TIP3    H121342   7.149   5.907   4.486
 7133TIP3    H221343   7.123   5.821   4.364
 7134TIP3   OH221344   3.707   4.942   1.201
 7134TIP3    H121345   3.681   4.889   1.126
 7134TIP3    H221346   3.717   5.030   1.166
 7135TIP3   OH221347   4.670   5.819   4.999
 7135TIP3    H121348   4.611   5.878   5.046
 7135TIP3    H221349   4.675   5.856   4.910
 7136TIP3   OH221350   6.570   0.767   1.474
 7136TIP3    H121351   6.584   0.752   1.567
 7136TIP3    H221352   6.498   0.708   1.450
 7137TIP3   OH221353   2.047   4.592   5.446
 7137TIP3    H121354   1.951   4.583   5.446
 7137TIP3    H221355   2.064   4.657   5.514
 7138TIP3   OH221356   3.210   4.342   5.268
 7138TIP3    H121357   3.116   4.356   5.255
 7138TIP3    H221358   3.216   4.291   5.348
 7139TIP3   OH221359   4.611   7.141   4.874
 7139TIP3    H121360   4.696   7.185   4.874
 7139TIP3    H221361   4.618   7.073   4.808
 7140TIP3   OH221362   5.077   4.797   3.711
 7140TIP3    H121363   5.108   4.746   3.637
 7140TIP3    H221364   5.060   4.732   3.780
 7141TIP3   OH221365   6.688   5.998   2.758
 7141TIP3    H121366   6.662   6.081   2.718
 7141TIP3    H221367   6.772   6.016   2.799
 7142TIP3   OH221368   4.072   2.531   3.088
 7142TIP3    H121369   3.990   2.576   3.108
 7142TIP3    H221370   4.049   2.472   3.015
 7143TIP3   OH221371   1.558   1.106   4.379
 7143TIP3    H121372   1.517   1.026   4.347
 7143TIP3    H221373   1.487   1.157   4.417
 7144TIP3   OH221374   0.595   4.186   1.837
 7144TIP3    H121375   0.541   4.243   1.781
 7144TIP3    H221376   0.652   4.140   1.775
 7145TIP3   OH221377   7.802   6.797   2.055
 7145TIP3    H121378   7.748   6.726   2.091
 7145TIP3    H221379   7.877   6.802   2.114
 7146TIP3   OH221380   7.097   1.298   6.603
 7146TIP3    H121381   7.179   1.316   6.557
 7146TIP3    H221382   7.074   1.209   6.576
 7147TIP3   OH221383   0.003   1.681   0.982
 7147TIP3    H121384   0.027   1.635   1.062
 7147TIP3    H221385  -0.066   1.741   1.009
 7148TIP3   OH221386   4.785   7.258   2.121
 7148TIP3    H121387   4.785   7.351   2.098
 7148TIP3    H221388   4.724   7.251   2.194
 7149TIP3   OH221389   4.028   6.308   1.805
 7149TIP3    H121390   4.039   6.322   1.711
 7149TIP3    H221391   3.962   6.238   1.811
 7150TIP3   OH221392   4.321   5.742   0.311
 7150TIP3    H121393   4.391   5.807   0.310
 7150TIP3    H221394   4.346   5.680   0.380
 7151TIP3   OH221395   6.352   7.192   0.547
 7151TIP3    H121396   6.442   7.201   0.578
 7151TIP3    H221397   6.350   7.108   0.501
 7152TIP3   OH221398   4.268   6.170   2.181
 7152TIP3    H121399   4.276   6.119   2.261
 7152TIP3    H221400   4.207   6.121   2.127
 7153TIP3   OH221401   6.634   6.746   3.667
 7153TIP3    H121402   6.572   6.784   3.604
 7153TIP3    H221403   6.715   6.795   3.652
 7154TIP3   OH221404   1.328   6.678   5.978
 7154TIP3    H121405   1.234   6.668   5.991
 7154TIP3    H221406   1.355   6.600   5.930
 7155TIP3   OH221407   2.013   4.742   3.038
 7155TIP3    H121408   2.085   4.688   3.007
 7155TIP3    H221409   2.048   4.831   3.038
 7156TIP3   OH221410   7.225   7.206   6.038
 7156TIP3    H121411   7.171   7.178   6.111
 7156TIP3    H221412   7.224   7.302   6.041
 7157TIP3   OH221413   0.705   6.287   2.012
 7157TIP3    H121414   0.635   6.229   2.040
 7157TIP3    H221415   0.712   6.351   2.083
 7158TIP3   OH221416   2.989   1.686   5.527
 7158TIP3    H121417   3.047   1.673   5.603
 7158TIP3    H221418   2.905   1.712   5.565
 7159TIP3   OH221419   6.780   3.327   3.808
 7159TIP3    H121420   6.847   3.319   3.740
 7159TIP3    H221421   6.697   3.332   3.760
 7160TIP3   OH221422   8.035   2.933   3.820
 7160TIP3    H121423   8.095   2.912   3.892
 7160TIP3    H221424   8.024   2.850   3.774
 7161TIP3   OH221425   4.639   0.199   4.150
 7161TIP3    H121426   4.631   0.294   4.144
 7161TIP3    H221427   4.551   0.169   4.175
 7162TIP3   OH221428   6.470   4.581   5.759
 7162TIP3    H121429   6.429   4.522   5.823
 7162TIP3    H221430   6.489   4.660   5.809
 7163TIP3   OH221431   2.801   5.090   5.889
 7163TIP3    H121432   2.892   5.100   5.917
 7163TIP3    H221433   2.783   4.996   5.900
 7164TIP3   OH221434   0.681   2.093   5.790
 7164TIP3    H121435   0.649   2.053   5.710
 7164TIP3    H221436   0.754   2.037   5.817
 7165TIP3   OH221437   7.547   7.184   2.037
 7165TIP3    H121438   7.523   7.157   2.126
 7165TIP3    H221439   7.463   7.191   1.991
 7166TIP3   OH221440   7.147   6.699   5.372
 7166TIP3    H121441   7.114   6.755   5.442
 7166TIP3    H221442   7.083   6.709   5.301
 7167TIP3   OH221443   6.515   3.582   2.643
 7167TIP3    H121444   6.457   3.505   2.647
 7167TIP3    H221445   6.563   3.571   2.561
 7168TIP3   OH221446   1.379   3.748   5.279
 7168TIP3    H121447   1.466   3.787   5.287
 7168TIP3    H221448   1.396   3.653   5.276
 7169TIP3   OH221449   2.625   2.394   1.411
 7169TIP3    H121450   2.693   2.444   1.457
 7169TIP3    H221451   2.571   2.357   1.481
 7170TIP3   OH221452   2.015   6.862   6.148
 7170TIP3    H121453   2.040   6.772   6.168
 7170TIP3    H221454   1.919   6.860   6.144
 7171TIP3   OH221455   1.250   3.734   2.219
 7171TIP3    H121456   1.157   3.712   2.214
 7171TIP3    H221457   1.251   3.827   2.240
 7172TIP3   OH221458   4.414   7.361   2.930
 7172TIP3    H121459   4.448   7.379   3.018
 7172TIP3    H221460   4.365   7.279   2.940
 7173TIP3   OH221461   4.279   3.073   3.659
 7173TIP3    H121462   4.291   3.168   3.657
 7173TIP3    H221463   4.367   3.038   3.674
 7174TIP3   OH221464   5.072   3.675   4.635
 7174TIP3    H121465   5.154   3.640   4.600
 7174TIP3    H221466   5.096   3.758   4.676
 7175TIP3   OH221467   8.178   1.807   1.865
 7175TIP3    H121468   8.158   1.750   1.940
 7175TIP3    H221469   8.189   1.746   1.791
 7176TIP3   OH221470   1.792   1.858   1.274
 7176TIP3    H121471   1.886   1.842   1.283
 7176TIP3    H221472   1.765   1.890   1.360
 7177TIP3   OH221473   4.648   7.194   0.502
 7177TIP3    H121474   4.622   7.276   0.544
 7177TIP3    H221475   4.743   7.202   0.491
 7178TIP3   OH221476   1.570   6.340   0.406
 7178TIP3    H121477   1.601   6.292   0.482
 7178TIP3    H221478   1.608   6.294   0.331
 7179TIP3   OH221479   8.076   2.489   3.913
 7179TIP3    H121480   7.990   2.505   3.950
 7179TIP3    H221481   8.112   2.417   3.964
 7180TIP3   OH221482   1.401   5.593   1.914
 7180TIP3    H121483   1.482   5.576   1.865
 7180TIP3    H221484   1.430   5.643   1.990
 7181TIP3   OH221485   8.207   1.938   3.243
 7181TIP3    H121486   8.157   1.977   3.314
 7181TIP3    H221487   8.195   1.998   3.169
 7182TIP3   OH221488   7.565   3.856   1.139
 7182TIP3    H121489   7.571   3.819   1.051
 7182TIP3    H221490   7.474   3.841   1.165
 7183TIP3   OH221491   6.434   3.705   4.354
 7183TIP3    H121492   6.465   3.791   4.327
 7183TIP3    H221493   6.485   3.685   4.433
 7184TIP3   OH221494   4.132   4.523   1.178
 7184TIP3    H121495   4.087   4.556   1.256
 7184TIP3    H221496   4.127   4.596   1.116
 7185TIP3   OH221497   2.107   0.102   1.796
 7185TIP3    H121498   2.067   0.130   1.878
 7185TIP3    H221499   2.037   0.054   1.751
 7186TIP3   OH221500   5.315   0.771   6.551
 7186TIP3    H121501   5.323   0.865   6.540
 7186TIP3    H221502   5.247   0.745   6.490
 7187TIP3   OH221503   5.385   4.879   1.265
 7187TIP3    H121504   5.309   4.923   1.226
 7187TIP3    H221505   5.365   4.875   1.358
 7188TIP3   OH221506   6.101   2.217   2.347
 7188TIP3    H121507   6.106   2.148   2.413
 7188TIP3    H221508   6.047   2.180   2.277
 7189TIP3   OH221509   7.107   0.925   1.482
 7189TIP3    H121510   7.029   0.882   1.516
 7189TIP3    H221511   7.077   1.011   1.454
 7190TIP3   OH221512   6.295   7.693   2.883
 7190TIP3    H121513   6.388   7.699   2.905
 7190TIP3    H221514   6.255   7.767   2.929
 7191TIP3   OH221515   4.554   2.616   6.200
 7191TIP3    H121516   4.590   2.677   6.265
 7191TIP3    H221517   4.558   2.664   6.118
 7192TIP3   OH221518   2.428   2.544   4.482
 7192TIP3    H121519   2.332   2.551   4.481
 7192TIP3    H221520   2.448   2.483   4.411
 7193TIP3   OH221521   4.868   2.296   3.195
 7193TIP3    H121522   4.920   2.318   3.118
 7193TIP3    H221523   4.780   2.282   3.160
 7194TIP3   OH221524   7.563   6.049   6.677
 7194TIP3    H121525   7.531   6.017   6.593
 7194TIP3    H221526   7.658   6.034   6.673
 7195TIP3   OH221527   7.739   2.721   0.283
 7195TIP3    H121528   7.667   2.671   0.245
 7195TIP3    H221529   7.742   2.693   0.374
 7196TIP3   OH221530   6.743   5.318   1.248
 7196TIP3    H121531   6.828   5.311   1.290
 7196TIP3    H221532   6.710   5.404   1.276
 7197TIP3   OH221533   7.582   5.018   1.348
 7197TIP3    H121534   7.512   5.006   1.413
 7197TIP3    H221535   7.588   5.113   1.337
 7198TIP3   OH221536   3.416   3.352   1.974
 7198TIP3    H121537   3.484   3.284   1.971
 7198TIP3    H221538   3.348   3.315   2.031
 7199TIP3   OH221539   6.099   0.322   2.729
 7199TIP3    H121540   6.123   0.238   2.692
 7199TIP3    H221541   6.179   0.374   2.726
 7200TIP3   OH221542   5.433   6.498   4.916
 7200TIP3    H121543   5.382   6.546   4.981
 7200TIP3    H221544   5.382   6.505   4.835
 7201TIP3   OH221545   2.759   7.566   4.289
 7201TIP3    H121546   2.854   7.574   4.282
 7201TIP3    H221547   2.726   7.655   4.280
 7202TIP3   OH221548   5.479   2.033   1.209
 7202TIP3    H121549   5.553   1.994   1.255
 7202TIP3    H221550   5.512   2.118   1.179
 7203TIP3   OH221551   6.471   3.276   2.271
 7203TIP3    H121552   6.515   3.331   2.335
 7203TIP3    H221553   6.524   3.196   2.268
 7204TIP3   OH221554   3.300   5.489   2.905
 7204TIP3    H121555   3.296   5.584   2.901
 7204TIP3    H221556   3.349   5.463   2.827
 7205TIP3   OH221557   3.044   4.212   1.050
 7205TIP3    H121558   3.120   4.235   0.996
 7205TIP3    H221559   3.078   4.150   1.114
 7206TIP3   OH221560   2.497   2.797   6.409
 7206TIP3    H121561   2.553   2.747   6.350
 7206TIP3    H221562   2.552   2.813   6.486
 7207TIP3   OH221563   3.423   1.609  -0.024
 7207TIP3    H121564   3.373   1.644   0.049
 7207TIP3    H221565   3.508   1.587   0.013
 7208TIP3   OH221566   1.945   6.263   6.343
 7208TIP3    H121567   1.983   6.300   6.422
 7208TIP3    H221568   2.011   6.203   6.309
 7209TIP3   OH221569   2.301   4.279   0.999
 7209TIP3    H121570   2.310   4.201   1.054
 7209TIP3    H221571   2.391   4.307   0.981
 7210TIP3   OH221572   3.156   2.149   4.703
 7210TIP3    H121573   3.163   2.159   4.608
 7210TIP3    H221574   3.236   2.188   4.737
 7211TIP3   OH221575   0.671   1.132   0.067
 7211TIP3    H121576   0.737   1.139  -0.002
 7211TIP3    H221577   0.626   1.049   0.049
 7212TIP3   OH221578   4.592   7.335   1.791
 7212TIP3    H121579   4.562   7.406   1.735
 7212TIP3    H221580   4.633   7.379   1.865
 7213TIP3   OH221581   4.410   5.929   0.650
 7213TIP3    H121582   4.487   5.916   0.705
 7213TIP3    H221583   4.338   5.889   0.700
 7214TIP3   OH221584   6.048   2.926   5.069
 7214TIP3    H121585   6.025   2.886   4.986
 7214TIP3    H221586   6.105   2.862   5.112
 7215TIP3   OH221587   0.574   0.274   0.432
 7215TIP3    H121588   0.609   0.292   0.519
 7215TIP3    H221589   0.520   0.196   0.443
 7216TIP3   OH221590   2.055   6.608   5.354
 7216TIP3    H121591   2.132   6.554   5.334
 7216TIP3    H221592   2.020   6.634   5.269
 7217TIP3   OH221593   3.424   7.131   6.423
 7217TIP3    H121594   3.471   7.189   6.483
 7217TIP3    H221595   3.353   7.185   6.390
 7218TIP3   OH221596   1.830   1.622   5.428
 7218TIP3    H121597   1.762   1.643   5.364
 7218TIP3    H221598   1.787   1.632   5.513
 7219TIP3   OH221599   2.695   6.525   3.840
 7219TIP3    H121600   2.606   6.515   3.874
 7219TIP3    H221601   2.684   6.568   3.755
 7220TIP3   OH221602   2.188   7.005   6.324
 7220TIP3    H121603   2.154   6.950   6.394
 7220TIP3    H221604   2.124   6.995   6.253
 7221TIP3   OH221605   6.435   6.073   0.557
 7221TIP3    H121606   6.373   6.002   0.576
 7221TIP3    H221607   6.390   6.127   0.492
 7222TIP3   OH221608   2.949   2.404   4.542
 7222TIP3    H121609   3.036   2.365   4.534
 7222TIP3    H221610   2.889   2.335   4.513
 7223TIP3   OH221611   3.228   7.790   3.334
 7223TIP3    H121612   3.266   7.795   3.246
 7223TIP3    H221613   3.299   7.757   3.388
 7224TIP3   OH221614   8.221   2.900   0.192
 7224TIP3    H121615   8.239   2.974   0.250
 7224TIP3    H221616   8.126   2.898   0.184
 7225TIP3   OH221617   8.150   1.468   5.802
 7225TIP3    H121618   8.187   1.489   5.717
 7225TIP3    H221619   8.187   1.534   5.861
 7226TIP3   OH221620   6.526   2.343   3.516
 7226TIP3    H121621   6.465   2.375   3.449
 7226TIP3    H221622   6.519   2.407   3.586
 7227TIP3   OH221623   1.851   6.600   6.388
 7227TIP3    H121624   1.832   6.687   6.352
 7227TIP3    H221625   1.932   6.574   6.346
 7228TIP3   OH221626   8.101   4.915   5.979
 7228TIP3    H121627   8.054   4.838   5.947
 7228TIP3    H221628   8.151   4.945   5.903
 7229TIP3   OH221629   1.726   6.524   1.749
 7229TIP3    H121630   1.715   6.599   1.690
 7229TIP3    H221631   1.709   6.448   1.694
 7230TIP3   OH221632   3.441   1.842   5.360
 7230TIP3    H121633   3.428   1.753   5.393
 7230TIP3    H221634   3.525   1.869   5.396
 7231TIP3   OH221635   2.857   0.895   2.086
 7231TIP3    H121636   2.821   0.941   2.011
 7231TIP3    H221637   2.904   0.963   2.135
 7232TIP3   OH221638   8.215   0.290   1.646
 7232TIP3    H121639   8.173   0.375   1.662
 7232TIP3    H221640   8.255   0.300   1.559
 7233TIP3   OH221641   4.744   0.274   0.551
 7233TIP3    H121642   4.718   0.364   0.573
 7233TIP3    H221643   4.672   0.220   0.583
 7234TIP3   OH221644   5.086   1.941   0.142
 7234TIP3    H121645   5.069   1.862   0.193
 7234TIP3    H221646   5.138   1.996   0.200
 7235TIP3   OH221647   1.685   2.549   5.939
 7235TIP3    H121648   1.748   2.616   5.967
 7235TIP3    H221649   1.686   2.485   6.010
 7236TIP3   OH221650   5.129   2.401   6.623
 7236TIP3    H121651   5.188   2.346   6.570
 7236TIP3    H221652   5.042   2.370   6.601
 7237TIP3   OH221653   1.725   6.703   3.671
 7237TIP3    H121654   1.662   6.715   3.741
 7237TIP3    H221655   1.794   6.768   3.689
 7238TIP3   OH221656   4.694   2.130   6.383
 7238TIP3    H121657   4.687   2.222   6.357
 7238TIP3    H221658   4.756   2.129   6.455
 7239TIP3   OH221659   2.588   3.586   0.362
 7239TIP3    H121660   2.613   3.511   0.415
 7239TIP3    H221661   2.535   3.549   0.291
 7240TIP3   OH221662   4.366   3.241   4.877
 7240TIP3    H121663   4.281   3.197   4.868
 7240TIP3    H221664   4.395   3.218   4.965
 7241TIP3   OH221665   5.040   7.328   2.282
 7241TIP3    H121666   5.133   7.303   2.279
 7241TIP3    H221667   4.999   7.258   2.333
 7242TIP3   OH221668   4.725   2.775   5.987
 7242TIP3    H121669   4.646   2.823   5.962
 7242TIP3    H221670   4.734   2.708   5.919
 7243TIP3   OH221671   1.681   1.500   2.574
 7243TIP3    H121672   1.651   1.517   2.663
 7243TIP3    H221673   1.606   1.522   2.519
 7244TIP3   OH221674   2.103   1.475   1.777
 7244TIP3    H121675   2.172   1.511   1.834
 7244TIP3    H221676   2.090   1.386   1.808
 7245TIP3   OH221677   2.064   6.752   5.760
 7245TIP3    H121678   2.104   6.665   5.755
 7245TIP3    H221679   1.987   6.747   5.704
 7246TIP3   OH221680   0.263   1.133   5.329
 7246TIP3    H121681   0.358   1.116   5.325
 7246TIP3    H221682   0.224   1.047   5.344
 7247TIP3   OH221683   6.339   2.139   4.801
 7247TIP3    H121684   6.378   2.150   4.888
 7247TIP3    H221685   6.406   2.172   4.740
 7248TIP3   OH221686   3.861   5.855   3.085
 7248TIP3    H121687   3.874   5.939   3.042
 7248TIP3    H221688   3.766   5.848   3.095
 7249TIP3   OH221689   5.055   6.101   3.791
 7249TIP3    H121690   5.145   6.066   3.793
 7249TIP3    H221691   5.022   6.076   3.704
 7250TIP3   OH221692   3.437   6.555   5.493
 7250TIP3    H121693   3.490   6.496   5.440
 7250TIP3    H221694   3.407   6.501   5.567
 7251TIP3   OH221695   5.474   7.118   5.952
 7251TIP3    H121696   5.542   7.173   5.912
 7251TIP3    H221697   5.426   7.081   5.877
 7252TIP3   OH221698   7.202   5.968   5.962
 7252TIP3    H121699   7.154   5.891   5.992
 7252TIP3    H221700   7.141   6.015   5.907
 7253TIP3   OH221701   0.136   4.255   2.481
 7253TIP3    H121702   0.125   4.199   2.404
 7253TIP3    H221703   0.051   4.297   2.493
 7254TIP3   OH221704   1.077   0.282   2.136
 7254TIP3    H121705   1.091   0.259   2.228
 7254TIP3    H221706   1.092   0.200   2.088
 7255TIP3   OH221707   7.649   0.712   4.189
 7255TIP3    H121708   7.611   0.800   4.186
 7255TIP3    H221709   7.603   0.663   4.121
 7256TIP3   OH221710   4.515   1.794   0.982
 7256TIP3    H121711   4.552   1.714   0.944
 7256TIP3    H221712   4.592   1.847   1.005
 7257TIP3   OH221713   4.860   7.274   4.859
 7257TIP3    H121714   4.909   7.356   4.861
 7257TIP3    H221715   4.864   7.245   4.768
 7258TIP3   OH221716   1.388   6.158   3.400
 7258TIP3    H121717   1.422   6.076   3.365
 7258TIP3    H221718   1.341   6.134   3.479
 7259TIP3   OH221719   3.929   4.272   3.244
 7259TIP3    H121720   3.971   4.310   3.168
 7259TIP3    H221721   3.993   4.211   3.280
 7260TIP3   OH221722   5.898   7.609   6.053
 7260TIP3    H121723   5.875   7.559   6.131
 7260TIP3    H221724   5.956   7.678   6.086
 7261TIP3   OH221725   6.229   2.003   4.077
 7261TIP3    H121726   6.167   2.068   4.107
 7261TIP3    H221727   6.216   1.928   4.135
 7262TIP3   OH221728   3.909   4.659   0.304
 7262TIP3    H121729   3.887   4.750   0.324
 7262TIP3    H221730   3.972   4.665   0.233
 7263TIP3   OH221731   5.132   6.722   6.250
 7263TIP3    H121732   5.101   6.722   6.341
 7263TIP3    H221733   5.056   6.751   6.199
 7264TIP3   OH221734   1.034   6.801   4.893
 7264TIP3    H121735   1.100   6.748   4.939
 7264TIP3    H221736   0.968   6.738   4.864
 7265TIP3   OH221737   7.376   7.108   3.120
 7265TIP3    H121738   7.460   7.083   3.082
 7265TIP3    H221739   7.341   7.028   3.158
 7266TIP3   OH221740   1.632   1.161   5.473
 7266TIP3    H121741   1.705   1.202   5.426
 7266TIP3    H221742   1.651   1.176   5.565
 7267TIP3   OH221743   0.035   6.727  -0.003
 7267TIP3    H121744   0.127   6.743   0.016
 7267TIP3    H221745  -0.011   6.752   0.077
 7268TIP3   OH221746   5.078   6.809   4.577
 7268TIP3    H121747   5.152   6.757   4.545
 7268TIP3    H221748   5.028   6.831   4.498
 7269TIP3   OH221749   3.342   6.853   0.122
 7269TIP3    H121750   3.410   6.817   0.179
 7269TIP3    H221751   3.261   6.814   0.154
 7270TIP3   OH221752   0.263   6.911   6.333
 7270TIP3    H121753   0.178   6.940   6.366
 7270TIP3    H221754   0.319   6.908   6.410
 7271TIP3   OH221755   6.673   7.743   2.213
 7271TIP3    H121756   6.713   7.657   2.216
 7271TIP3    H221757   6.728   7.797   2.270
 7272TIP3   OH221758   6.190   3.488   2.475
 7272TIP3    H121759   6.246   3.440   2.536
 7272TIP3    H221760   6.157   3.422   2.415
 7273TIP3   OH221761   7.554   4.642   1.793
 7273TIP3    H121762   7.642   4.675   1.808
 7273TIP3    H221763   7.562   4.587   1.715
 7274TIP3   OH221764   5.910   0.883   6.573
 7274TIP3    H121765   5.962   0.897   6.495
 7274TIP3    H221766   5.968   0.837   6.634
 7275TIP3   OH221767   0.380   7.809   5.305
 7275TIP3    H121768   0.456   7.759   5.335
 7275TIP3    H221769   0.417   7.890   5.270
 7276TIP3   OH221770   7.323   4.004   1.889
 7276TIP3    H121771   7.315   4.014   1.984
 7276TIP3    H221772   7.350   3.912   1.877
 7277TIP3   OH221773   7.165   6.701   6.237
 7277TIP3    H121774   7.256   6.720   6.260
 7277TIP3    H221775   7.129   6.659   6.315
 7278TIP3   OH221776   6.818   3.324   2.260
 7278TIP3    H121777   6.801   3.249   2.203
 7278TIP3    H221778   6.897   3.299   2.309
 7279TIP3   OH221779   5.110   1.310   1.800
 7279TIP3    H121780   5.128   1.261   1.881
 7279TIP3    H221781   5.059   1.386   1.829
 7280TIP3   OH221782   0.274   1.060   4.456
 7280TIP3    H121783   0.282   0.983   4.400
 7280TIP3    H221784   0.190   1.047   4.501
 7281TIP3   OH221785   8.218   3.369   6.234
 7281TIP3    H121786   8.291   3.422   6.204
 7281TIP3    H221787   8.243   3.340   6.322
 7282TIP3   OH221788   2.502   5.235   4.377
 7282TIP3    H121789   2.507   5.143   4.350
 7282TIP3    H221790   2.590   5.255   4.409
 7283TIP3   OH221791   1.459   0.565   0.026
 7283TIP3    H121792   1.439   0.475   0.001
 7283TIP3    H221793   1.521   0.557   0.099
 7284TIP3   OH221794   3.180   6.672   4.567
 7284TIP3    H121795   3.094   6.701   4.537
 7284TIP3    H221796   3.171   6.578   4.578
 7285TIP3   OH221797   4.797   2.259   2.765
 7285TIP3    H121798   4.724   2.222   2.815
 7285TIP3    H221799   4.766   2.345   2.736
 7286TIP3   OH221800   6.200   0.808   4.456
 7286TIP3    H121801   6.114   0.789   4.495
 7286TIP3    H221802   6.240   0.723   4.443
 7287TIP3   OH221803   1.395   4.773   0.618
 7287TIP3    H121804   1.381   4.837   0.687
 7287TIP3    H221805   1.483   4.739   0.633
 7288TIP3   OH221806   7.397   0.093   0.711
 7288TIP3    H121807   7.306   0.064   0.710
 7288TIP3    H221808   7.442   0.031   0.769
 7289TIP3   OH221809   8.028   6.720   0.639
 7289TIP3    H121810   7.937   6.743   0.620
 7289TIP3    H221811   8.021   6.635   0.683
 7290TIP3   OH221812   4.198   0.252   5.081
 7290TIP3    H121813   4.270   0.195   5.054
 7290TIP3    H221814   4.124   0.226   5.026
 7291TIP3   OH221815   5.792   3.154   6.610
 7291TIP3    H121816   5.839   3.224   6.656
 7291TIP3    H221817   5.712   3.142   6.660
 7292TIP3   OH221818   7.019   6.120   1.838
 7292TIP3    H121819   7.052   6.205   1.866
 7292TIP3    H221820   6.946   6.102   1.898
 7293TIP3   OH221821   4.874   7.419   3.773
 7293TIP3    H121822   4.826   7.497   3.802
 7293TIP3    H221823   4.807   7.351   3.768
 7294TIP3   OH221824   1.744   1.987   6.137
 7294TIP3    H121825   1.796   2.010   6.060
 7294TIP3    H221826   1.780   1.903   6.166
 7295TIP3   OH221827   2.623   7.641   6.020
 7295TIP3    H121828   2.653   7.720   6.064
 7295TIP3    H221829   2.699   7.583   6.021
 7296TIP3   OH221830   0.021   0.948   4.588
 7296TIP3    H121831  -0.011   0.978   4.673
 7296TIP3    H221832   0.026   0.853   4.596
 7297TIP3   OH221833   4.957   0.389   1.592
 7297TIP3    H121834   4.864   0.371   1.574
 7297TIP3    H221835   5.002   0.311   1.559
 7298TIP3   OH221836   3.179   0.394   0.767
 7298TIP3    H121837   3.238   0.463   0.797
 7298TIP3    H221838   3.218   0.363   0.686
 7299TIP3   OH221839   6.275   7.098   4.697
 7299TIP3    H121840   6.338   7.142   4.640
 7299TIP3    H221841   6.247   7.021   4.647
 7300TIP3   OH221842   3.002   0.332   6.037
 7300TIP3    H121843   3.038   0.370   5.957
 7300TIP3    H221844   3.003   0.237   6.021
 7301TIP3   OH221845   1.029   0.627   0.596
 7301TIP3    H121846   1.009   0.534   0.599
 7301TIP3    H221847   0.943   0.670   0.599
 7302TIP3   OH221848   1.212   3.798   1.427
 7302TIP3    H121849   1.302   3.827   1.446
 7302TIP3    H221850   1.216   3.703   1.434
 7303TIP3   OH221851   4.367   2.841   1.610
 7303TIP3    H121852   4.326   2.926   1.626
 7303TIP3    H221853   4.293   2.780   1.604
 7304TIP3   OH221854   4.823   5.234   4.375
 7304TIP3    H121855   4.753   5.173   4.351
 7304TIP3    H221856   4.852   5.271   4.292
 7305TIP3   OH221857   4.532   6.780   0.415
 7305TIP3    H121858   4.560   6.694   0.385
 7305TIP3    H221859   4.601   6.840   0.384
 7306TIP3   OH221860   6.632   0.938   4.385
 7306TIP3    H121861   6.692   0.877   4.428
 7306TIP3    H221862   6.622   0.902   4.297
 7307TIP3   OH221863   5.002   6.412   2.099
 7307TIP3    H121864   4.907   6.406   2.087
 7307TIP3    H221865   5.039   6.369   2.022
 7308TIP3   OH221866   0.911   3.896   4.952
 7308TIP3    H121867   0.852   3.943   5.012
 7308TIP3    H221868   0.917   3.952   4.875
 7309TIP3   OH221869   6.814   3.939   3.875
 7309TIP3    H121870   6.766   4.012   3.914
 7309TIP3    H221871   6.847   3.888   3.949
 7310TIP3   OH221872   3.096   5.914   5.922
 7310TIP3    H121873   3.027   5.860   5.960
 7310TIP3    H221874   3.146   5.853   5.867
 7311TIP3   OH221875   4.536   2.942   3.723
 7311TIP3    H121876   4.481   2.946   3.802
 7311TIP3    H221877   4.605   2.880   3.745
 7312TIP3   OH221878   6.345   2.117   0.553
 7312TIP3    H121879   6.394   2.052   0.503
 7312TIP3    H221880   6.375   2.201   0.519
 7313TIP3   OH221881   7.386   1.632   0.831
 7313TIP3    H121882   7.343   1.657   0.748
 7313TIP3    H221883   7.478   1.651   0.816
 7314TIP3   OH221884   0.130   3.205   2.221
 7314TIP3    H121885   0.048   3.249   2.201
 7314TIP3    H221886   0.152   3.236   2.310
 7315TIP3   OH221887   7.498   5.728   4.778
 7315TIP3    H121888   7.446   5.773   4.712
 7315TIP3    H221889   7.531   5.650   4.733
 7316TIP3   OH221890   3.858   5.067   4.392
 7316TIP3    H121891   3.873   5.082   4.485
 7316TIP3    H221892   3.945   5.074   4.352
 7317TIP3   OH221893   3.051   4.947   2.767
 7317TIP3    H121894   3.089   5.035   2.774
 7317TIP3    H221895   3.019   4.928   2.855
 7318TIP3   OH221896   6.888   1.151   2.787
 7318TIP3    H121897   6.811   1.206   2.803
 7318TIP3    H221898   6.953   1.183   2.849
 7319TIP3   OH221899   3.234   5.691   2.555
 7319TIP3    H121900   3.322   5.655   2.557
 7319TIP3    H221901   3.241   5.775   2.602
 7320TIP3   OH221902   0.671   1.766   4.818
 7320TIP3    H121903   0.610   1.787   4.747
 7320TIP3    H221904   0.621   1.784   4.898
 7321TIP3   OH221905   7.719   0.305   6.556
 7321TIP3    H121906   7.625   0.304   6.536
 7321TIP3    H221907   7.740   0.398   6.565
 7322TIP3   OH221908   7.964   0.207   2.695
 7322TIP3    H121909   7.880   0.245   2.669
 7322TIP3    H221910   8.014   0.281   2.729
 7323TIP3   OH221911   0.010   6.459   0.512
 7323TIP3    H121912   0.074   6.518   0.551
 7323TIP3    H221913  -0.067   6.513   0.497
 7324TIP3   OH221914   1.797   1.463   0.828
 7324TIP3    H121915   1.781   1.516   0.907
 7324TIP3    H221916   1.750   1.381   0.845
 7325TIP3   OH221917   5.517   0.192   2.037
 7325TIP3    H121918   5.515   0.238   2.121
 7325TIP3    H221919   5.594   0.227   1.992
 7326TIP3   OH221920   6.373   0.360   6.479
 7326TIP3    H121921   6.427   0.334   6.554
 7326TIP3    H221922   6.359   0.454   6.491
 7327TIP3   OH221923   7.112   2.060   0.152
 7327TIP3    H121924   7.192   2.112   0.155
 7327TIP3    H221925   7.141   1.970   0.164
 7328TIP3   OH221926   7.977   4.158   1.650
 7328TIP3    H121927   7.936   4.123   1.571
 7328TIP3    H221928   8.056   4.202   1.618
 7329TIP3   OH221929   1.128   7.188   6.116
 7329TIP3    H121930   1.046   7.186   6.066
 7329TIP3    H221931   1.181   7.119   6.077
 7330TIP3   OH221932   3.532   2.973   4.150
 7330TIP3    H121933   3.445   2.967   4.192
 7330TIP3    H221934   3.514   3.011   4.064
 7331TIP3   OH221935   6.675   6.505   5.590
 7331TIP3    H121936   6.669   6.593   5.553
 7331TIP3    H221937   6.629   6.511   5.674
 7332TIP3   OH221938   8.242   1.236   3.713
 7332TIP3    H121939   8.203   1.318   3.681
 7332TIP3    H221940   8.282   1.197   3.636
 7333TIP3   OH221941   5.856   4.061   0.591
 7333TIP3    H121942   5.905   4.095   0.516
 7333TIP3    H221943   5.915   4.073   0.666
 7334TIP3   OH221944   3.989   4.302   2.029
 7334TIP3    H121945   4.060   4.252   1.989
 7334TIP3    H221946   3.909   4.261   1.994
 7335TIP3   OH221947   5.173   3.796   4.300
 7335TIP3    H121948   5.238   3.735   4.332
 7335TIP3    H221949   5.203   3.882   4.329
 7336TIP3   OH221950   0.166   7.536   5.361
 7336TIP3    H121951   0.124   7.452   5.341
 7336TIP3    H221952   0.101   7.602   5.335
 7337TIP3   OH221953   1.687   4.996   1.019
 7337TIP3    H121954   1.721   5.075   1.058
 7337TIP3    H221955   1.651   5.024   0.935
 7338TIP3   OH221956   4.087   2.041   3.911
 7338TIP3    H121957   4.039   2.093   3.846
 7338TIP3    H221958   4.178   2.070   3.903
 7339TIP3   OH221959   0.316   0.897   2.445
 7339TIP3    H121960   0.255   0.828   2.469
 7339TIP3    H221961   0.402   0.861   2.465
 7340TIP3   OH221962   6.182   4.256   4.565
 7340TIP3    H121963   6.117   4.207   4.615
 7340TIP3    H221964   6.202   4.201   4.490
 7341TIP3   OH221965   6.457   4.326   4.368
 7341TIP3    H121966   6.551   4.342   4.356
 7341TIP3    H221967   6.451   4.289   4.456
 7342TIP3   OH221968   3.540   5.094   6.350
 7342TIP3    H121969   3.613   5.036   6.371
 7342TIP3    H221970   3.464   5.052   6.389
 7343TIP3   OH221971   1.980   3.099   1.216
 7343TIP3    H121972   2.010   3.011   1.242
 7343TIP3    H221973   1.962   3.091   1.123
 7344TIP3   OH221974   0.549   7.531   0.858
 7344TIP3    H121975   0.583   7.458   0.805
 7344TIP3    H221976   0.608   7.604   0.839
 7345TIP3   OH221977   3.094   1.017   4.141
 7345TIP3    H121978   3.163   1.084   4.140
 7345TIP3    H221979   3.083   0.996   4.234
 7346TIP3   OH221980   2.423   0.915   5.658
 7346TIP3    H121981   2.456   0.898   5.570
 7346TIP3    H221982   2.428   1.011   5.667
 7347TIP3   OH221983   0.493   4.661   6.685
 7347TIP3    H121984   0.552   4.691   6.615
 7347TIP3    H221985   0.526   4.705   6.763
 7348TIP3   OH221986   4.059   4.913   1.243
 7348TIP3    H121987   4.123   4.974   1.208
 7348TIP3    H221988   3.992   4.968   1.284
 7349TIP3   OH221989   1.178   6.796   2.520
 7349TIP3    H121990   1.259   6.836   2.488
 7349TIP3    H221991   1.140   6.863   2.577
 7350TIP3   OH221992   4.398   6.759   6.514
 7350TIP3    H121993   4.445   6.710   6.447
 7350TIP3    H221994   4.305   6.744   6.494
 7351TIP3   OH221995   4.133   7.833   0.675
 7351TIP3    H121996   4.101   7.744   0.658
 7351TIP3    H221997   4.053   7.885   0.685
 7352TIP3   OH221998   7.566   3.470   6.195
 7352TIP3    H121999   7.482   3.444   6.233
 7352TIP3    H222000   7.558   3.564   6.182
 7353TIP3   OH222001   3.204   7.471   6.753
 7353TIP3    H122002   3.133   7.531   6.730
 7353TIP3    H222003   3.161   7.386   6.764
 7354TIP3   OH222004   3.757   3.070   3.069
 7354TIP3    H122005   3.776   2.999   3.007
 7354TIP3    H222006   3.793   3.039   3.152
 7355TIP3   OH222007   3.478   1.617   3.991
 7355TIP3    H122008   3.470   1.693   3.934
 7355TIP3    H222009   3.560   1.631   4.039
 7356TIP3   OH222010   0.672   6.854   1.246
 7356TIP3    H122011   0.609   6.839   1.317
 7356TIP3    H222012   0.625   6.826   1.167
 7357TIP3   OH222013   0.445   0.141   1.337
 7357TIP3    H122014   0.440   0.136   1.241
 7357TIP3    H222015   0.421   0.054   1.367
 7358TIP3   OH222016   1.031   2.081   6.730
 7358TIP3    H122017   1.033   1.988   6.710
 7358TIP3    H222018   1.077   2.089   6.813
 7359TIP3   OH222019   3.918   5.786   2.781
 7359TIP3    H122020   3.973   5.804   2.857
 7359TIP3    H222021   3.950   5.845   2.713
 7360TIP3   OH222022   3.492   7.605   6.073
 7360TIP3    H122023   3.539   7.688   6.071
 7360TIP3    H222024   3.428   7.612   6.002
 7361TIP3   OH222025   0.270   0.095   3.406
 7361TIP3    H122026   0.252   0.002   3.422
 7361TIP3    H222027   0.237   0.139   3.484
 7362TIP3   OH222028   3.796   0.433   4.387
 7362TIP3    H122029   3.826   0.524   4.395
 7362TIP3    H222030   3.862   0.382   4.434
 7363TIP3   OH222031   1.644   0.441   4.166
 7363TIP3    H122032   1.572   0.494   4.199
 7363TIP3    H222033   1.613   0.408   4.082
 7364TIP3   OH222034   1.197   3.365   2.299
 7364TIP3    H122035   1.232   3.415   2.373
 7364TIP3    H222036   1.105   3.351   2.321
 7365TIP3   OH222037   4.258   2.205   3.108
 7365TIP3    H122038   4.164   2.212   3.094
 7365TIP3    H222039   4.297   2.234   3.026
 7366TIP3   OH222040   6.756   2.333   1.662
 7366TIP3    H122041   6.719   2.244   1.658
 7366TIP3    H222042   6.681   2.390   1.646
 7367TIP3   OH222043   1.208   7.847   0.935
 7367TIP3    H122044   1.183   7.813   0.849
 7367TIP3    H222045   1.148   7.804   0.996
 7368TIP3   OH222046   3.597   0.431   2.839
 7368TIP3    H122047   3.617   0.500   2.776
 7368TIP3    H222048   3.503   0.439   2.854
 7369TIP3   OH222049   0.802   2.134   3.814
 7369TIP3    H122050   0.896   2.117   3.817
 7369TIP3    H222051   0.781   2.165   3.902
 7370TIP3   OH222052   7.581   3.947   1.481
 7370TIP3    H122053   7.528   3.927   1.404
 7370TIP3    H222054   7.540   4.026   1.518
 7371TIP3   OH222055   1.517   6.131   4.700
 7371TIP3    H122056   1.467   6.203   4.660
 7371TIP3    H222057   1.554   6.084   4.626
 7372TIP3   OH222058   6.030   0.594   6.674
 7372TIP3    H122059   6.092   0.644   6.727
 7372TIP3    H222060   5.966   0.561   6.736
 7373TIP3   OH222061   4.814   3.624   6.142
 7373TIP3    H122062   4.804   3.592   6.232
 7373TIP3    H222063   4.898   3.589   6.113
 7374TIP3   OH222064   1.437   0.307   0.802
 7374TIP3    H122065   1.443   0.379   0.865
 7374TIP3    H222066   1.383   0.342   0.731
 7375TIP3   OH222067   7.116   2.937   6.085
 7375TIP3    H122068   7.136   2.976   6.000
 7375TIP3    H222069   7.172   2.983   6.147
 7376TIP3   OH222070   7.231   5.109   0.636
 7376TIP3    H122071   7.264   5.191   0.600
 7376TIP3    H222072   7.284   5.094   0.714
 7377TIP3   OH222073   4.556   1.033   6.501
 7377TIP3    H122074   4.597   0.951   6.477
 7377TIP3    H222075   4.604   1.100   6.451
 7378TIP3   OH222076   0.768   2.715   0.372
 7378TIP3    H122077   0.759   2.653   0.299
 7378TIP3    H222078   0.798   2.796   0.330
 7379TIP3   OH222079   3.116   6.992   5.411
 7379TIP3    H122080   3.035   6.967   5.457
 7379TIP3    H222081   3.086   7.027   5.327
 7380TIP3   OH222082   3.687   3.486   4.114
 7380TIP3    H122083   3.679   3.530   4.199
 7380TIP3    H222084   3.762   3.528   4.072
 7381TIP3   OH222085   1.426   1.008   2.851
 7381TIP3    H122086   1.519   0.992   2.869
 7381TIP3    H222087   1.382   0.930   2.885
 7382TIP3   OH222088   3.942   3.782   4.145
 7382TIP3    H122089   3.985   3.836   4.079
 7382TIP3    H222090   3.865   3.831   4.171
 7383TIP3   OH222091   7.580   4.965   3.325
 7383TIP3    H122092   7.524   4.940   3.398
 7383TIP3    H222093   7.655   4.906   3.330
 7384TIP3   OH222094   3.125   6.155   2.010
 7384TIP3    H122095   3.160   6.236   2.048
 7384TIP3    H222096   3.069   6.119   2.079
 7385TIP3   OH222097   7.601   4.243   1.529
 7385TIP3    H122098   7.663   4.210   1.594
 7385TIP3    H222099   7.604   4.338   1.540
 7386TIP3   OH222100   4.410   0.342   0.554
 7386TIP3    H122101   4.450   0.306   0.633
 7386TIP3    H222102   4.365   0.421   0.584
 7387TIP3   OH222103   2.038   0.536   5.784
 7387TIP3    H122104   2.093   0.612   5.806
 7387TIP3    H222105   2.014   0.549   5.692
 7388TIP3   OH222106   2.043   0.059   5.598
 7388TIP3    H122107   2.068   0.151   5.595
 7388TIP3    H222108   2.081   0.022   5.518
 7389TIP3   OH222109   1.849   1.374   2.020
 7389TIP3    H122110   1.787   1.315   2.063
 7389TIP3    H222111   1.928   1.322   2.009
 7390TIP3   OH222112   1.445   3.892   1.597
 7390TIP3    H122113   1.402   3.952   1.657
 7390TIP3    H222114   1.511   3.848   1.651
 7391TIP3   OH222115   3.194   2.795   4.246
 7391TIP3    H122116   3.246   2.777   4.324
 7391TIP3    H222117   3.119   2.736   4.253
 7392TIP3   OH222118   7.751   4.414   4.983
 7392TIP3    H122119   7.714   4.431   4.896
 7392TIP3    H222120   7.777   4.322   4.980
 7393TIP3   OH222121   3.369   4.093   0.843
 7393TIP3    H122122   3.276   4.083   0.821
 7393TIP3    H222123   3.370   4.155   0.916
 7394TIP3   OH222124   8.234   3.802   1.560
 7394TIP3    H122125   8.263   3.721   1.602
 7394TIP3    H222126   8.139   3.795   1.557
 7395TIP3   OH222127   6.355   3.241   4.802
 7395TIP3    H122128   6.319   3.248   4.714
 7395TIP3    H222129   6.349   3.148   4.823
 7396TIP3   OH222130   2.997   5.992   4.851
 7396TIP3    H122131   3.022   6.056   4.917
 7396TIP3    H222132   2.998   6.041   4.769
 7397TIP3   OH222133   6.525   2.287   3.943
 7397TIP3    H122134   6.613   2.276   3.908
 7397TIP3    H222135   6.488   2.199   3.942
 7398TIP3   OH222136   7.030   6.822   5.595
 7398TIP3    H122137   7.053   6.883   5.665
 7398TIP3    H222138   6.988   6.749   5.639
 7399TIP3   OH222139   3.210   5.574   4.709
 7399TIP3    H122140   3.248   5.661   4.712
 7399TIP3    H222141   3.284   5.516   4.690
 7400TIP3   OH222142   4.648   2.751   0.986
 7400TIP3    H122143   4.743   2.737   0.987
 7400TIP3    H222144   4.611   2.669   0.954
 7401TIP3   OH222145   0.712   3.746   6.430
 7401TIP3    H122146   0.787   3.784   6.476
 7401TIP3    H222147   0.747   3.669   6.386
 7402TIP3   OH222148   4.281   3.497   3.609
 7402TIP3    H122149   4.345   3.427   3.612
 7402TIP3    H222150   4.327   3.570   3.568
 7403TIP3   OH222151   8.140   6.412   6.608
 7403TIP3    H122152   8.064   6.365   6.574
 7403TIP3    H222153   8.157   6.372   6.693
 7404TIP3   OH222154   0.603   5.930   6.022
 7404TIP3    H122155   0.624   5.938   6.115
 7404TIP3    H222156   0.586   5.837   6.010
 7405TIP3   OH222157   6.910   7.687   0.617
 7405TIP3    H122158   6.979   7.744   0.652
 7405TIP3    H222159   6.838   7.747   0.597
 7406TIP3   OH222160   5.833   4.150   6.647
 7406TIP3    H122161   5.796   4.070   6.683
 7406TIP3    H222162   5.831   4.212   6.720
 7407TIP3   OH222163   6.422   2.455   6.411
 7407TIP3    H122164   6.401   2.363   6.395
 7407TIP3    H222165   6.503   2.470   6.361
 7408TIP3   OH222166   1.816   0.451   1.294
 7408TIP3    H122167   1.897   0.401   1.297
 7408TIP3    H222168   1.757   0.406   1.355
 7409TIP3   OH222169   6.521   5.680   5.427
 7409TIP3    H122170   6.532   5.771   5.455
 7409TIP3    H222171   6.522   5.630   5.509
 7410TIP3   OH222172   2.028   0.422   3.219
 7410TIP3    H122173   2.075   0.341   3.199
 7410TIP3    H222174   1.962   0.395   3.283
 7411TIP3   OH222175   3.421   7.191   5.738
 7411TIP3    H122176   3.514   7.213   5.737
 7411TIP3    H222177   3.389   7.215   5.651
 7412TIP3   OH222178   7.220   6.141   4.452
 7412TIP3    H122179   7.277   6.148   4.375
 7412TIP3    H222180   7.156   6.074   4.428
 7413TIP3   OH222181   2.014   3.368   3.838
 7413TIP3    H122182   1.951   3.297   3.845
 7413TIP3    H222183   2.078   3.351   3.908
 7414TIP3   OH222184   0.323   6.996   3.337
 7414TIP3    H122185   0.360   6.908   3.330
 7414TIP3    H222186   0.257   6.989   3.406
 7415TIP3   OH222187   2.237   6.169   4.055
 7415TIP3    H122188   2.206   6.241   4.001
 7415TIP3    H222189   2.323   6.146   4.018
 7416TIP3   OH222190   6.633   6.751   3.967
 7416TIP3    H122191   6.644   6.742   3.873
 7416TIP3    H222192   6.704   6.810   3.994
 7417TIP3   OH222193   6.495   0.047   5.935
 7417TIP3    H122194   6.507   0.047   5.840
 7417TIP3    H222195   6.583   0.037   5.971
 7418TIP3   OH222196   4.643   5.005   4.099
 7418TIP3    H122197   4.601   5.064   4.162
 7418TIP3    H222198   4.620   5.040   4.014
 7419TIP3   OH222199   2.210   6.747   0.204
 7419TIP3    H122200   2.249   6.734   0.118
 7419TIP3    H222201   2.255   6.824   0.240
 7420TIP3   OH222202   0.372   7.441   3.704
 7420TIP3    H122203   0.407   7.437   3.615
 7420TIP3    H222204   0.286   7.483   3.694
 7421TIP3   OH222205   5.299   4.741   3.945
 7421TIP3    H122206   5.248   4.678   3.895
 7421TIP3    H222207   5.234   4.801   3.982
 7422TIP3   OH222208   7.450   2.794   0.539
 7422TIP3    H122209   7.525   2.736   0.531
 7422TIP3    H222210   7.415   2.800   0.450
 7423TIP3   OH222211   2.262   1.823   5.529
 7423TIP3    H122212   2.295   1.734   5.523
 7423TIP3    H222213   2.180   1.815   5.578
 7424TIP3   OH222214   0.445   6.616   3.743
 7424TIP3    H122215   0.356   6.650   3.733
 7424TIP3    H222216   0.463   6.622   3.836
 7425TIP3   OH222217   7.508   0.311   5.013
 7425TIP3    H122218   7.427   0.354   5.040
 7425TIP3    H222219   7.573   0.382   5.008
 7426TIP3   OH222220   5.328   6.757   3.920
 7426TIP3    H122221   5.368   6.724   3.839
 7426TIP3    H222222   5.386   6.828   3.947
 7427TIP3   OH222223   1.093   5.909   2.085
 7427TIP3    H122224   1.129   5.997   2.095
 7427TIP3    H222225   1.150   5.854   2.139
 7428TIP3   OH222226   2.324   2.274   4.054
 7428TIP3    H122227   2.382   2.213   4.099
 7428TIP3    H222228   2.374   2.355   4.048
 7429TIP3   OH222229   0.304   7.450   3.084
 7429TIP3    H122230   0.396   7.422   3.084
 7429TIP3    H222231   0.257   7.378   3.126
 7430TIP3   OH222232   7.583   5.293   6.479
 7430TIP3    H122233   7.582   5.230   6.551
 7430TIP3    H222234   7.498   5.283   6.437
 7431TIP3   OH222235   2.063   4.488   0.919
 7431TIP3    H122236   2.096   4.433   0.990
 7431TIP3    H222237   1.970   4.499   0.938
 7432TIP3   OH222238   5.242   0.720   4.911
 7432TIP3    H122239   5.242   0.630   4.875
 7432TIP3    H222240   5.296   0.770   4.850
 7433TIP3   OH222241   5.336   4.697   0.211
 7433TIP3    H122242   5.428   4.679   0.188
 7433TIP3    H222243   5.298   4.611   0.227
 7434TIP3   OH222244   5.328   0.038   5.442
 7434TIP3    H122245   5.297   0.030   5.352
 7434TIP3    H222246   5.316  -0.049   5.480
 7435TIP3   OH222247   7.701   2.937   3.979
 7435TIP3    H122248   7.784   2.964   4.019
 7435TIP3    H222249   7.638   2.942   4.051
 7436TIP3   OH222250   3.430   4.294   4.673
 7436TIP3    H122251   3.389   4.380   4.661
 7436TIP3    H222252   3.397   4.264   4.758
 7437TIP3   OH222253   4.685   6.008   4.346
 7437TIP3    H122254   4.733   5.936   4.306
 7437TIP3    H222255   4.671   6.070   4.275
 7438TIP3   OH222256   2.288   7.044   3.645
 7438TIP3    H122257   2.272   6.950   3.653
 7438TIP3    H222258   2.373   7.057   3.687
 7439TIP3   OH222259   5.816   4.255   0.357
 7439TIP3    H122260   5.762   4.220   0.287
 7439TIP3    H222261   5.754   4.292   0.420
 7440TIP3   OH222262   1.429   4.500   5.715
 7440TIP3    H122263   1.453   4.443   5.642
 7440TIP3    H222264   1.345   4.467   5.746
 7441TIP3   OH222265   7.597   3.866   0.510
 7441TIP3    H122266   7.657   3.939   0.520
 7441TIP3    H222267   7.542   3.869   0.589
 7442TIP3   OH222268   7.834   1.839   4.585
 7442TIP3    H122269   7.757   1.784   4.597
 7442TIP3    H222270   7.845   1.883   4.670
 7443TIP3   OH222271   2.996   3.020   2.666
 7443TIP3    H122272   2.911   2.986   2.638
 7443TIP3    H222273   2.980   3.056   2.753
 7444TIP3   OH222274   5.883   4.420   1.221
 7444TIP3    H122275   5.836   4.417   1.138
 7444TIP3    H222276   5.815   4.408   1.287
 7445TIP3   OH222277   6.441   4.676   4.208
 7445TIP3    H122278   6.463   4.749   4.265
 7445TIP3    H222279   6.379   4.624   4.259
 7446TIP3   OH222280   5.255   1.237   4.392
 7446TIP3    H122281   5.164   1.228   4.364
 7446TIP3    H222282   5.306   1.224   4.312
 7447TIP3   OH222283   6.329   6.400   1.707
 7447TIP3    H122284   6.370   6.486   1.712
 7447TIP3    H222285   6.315   6.375   1.799
 7448TIP3   OH222286   3.702   6.523   4.543
 7448TIP3    H122287   3.675   6.461   4.611
 7448TIP3    H222288   3.785   6.558   4.574
 7449TIP3   OH222289   3.762   4.646   1.277
 7449TIP3    H122290   3.851   4.641   1.309
 7449TIP3    H222291   3.743   4.740   1.270
 7450TIP3   OH222292   0.994   5.568   3.676
 7450TIP3    H122293   0.979   5.659   3.650
 7450TIP3    H222294   0.910   5.524   3.662
 7451TIP3   OH222295   6.071   7.286   3.360
 7451TIP3    H122296   6.135   7.330   3.416
 7451TIP3    H222297   6.124   7.238   3.297
 7452TIP3   OH222298   3.534   0.066   5.741
 7452TIP3    H122299   3.607   0.031   5.690
 7452TIP3    H222300   3.574   0.095   5.823
 7453TIP3   OH222301   1.108   4.913   3.342
 7453TIP3    H122302   1.020   4.949   3.343
 7453TIP3    H222303   1.149   4.950   3.264
 7454TIP3   OH222304   2.761   4.293   1.766
 7454TIP3    H122305   2.831   4.341   1.809
 7454TIP3    H222306   2.694   4.359   1.748
 7455TIP3   OH222307   1.277   3.259   0.621
 7455TIP3    H122308   1.240   3.269   0.534
 7455TIP3    H222309   1.208   3.214   0.671
 7456TIP3   OH222310   1.872   0.372   1.677
 7456TIP3    H122311   1.883   0.278   1.684
 7456TIP3    H222312   1.952   0.403   1.635
 7457TIP3   OH222313   0.350   7.038   0.801
 7457TIP3    H122314   0.438   7.004   0.784
 7457TIP3    H222315   0.363   7.111   0.862
 7458TIP3   OH222316   5.809   2.494   4.445
 7458TIP3    H122317   5.756   2.453   4.513
 7458TIP3    H222318   5.897   2.457   4.457
 7459TIP3   OH222319   4.868   0.136   5.127
 7459TIP3    H122320   4.850   0.058   5.075
 7459TIP3    H222321   4.851   0.209   5.067
 7460TIP3   OH222322   2.831   6.217   6.592
 7460TIP3    H122323   2.892   6.279   6.553
 7460TIP3    H222324   2.823   6.147   6.527
 7461TIP3   OH222325   0.237   4.559   5.028
 7461TIP3    H122326   0.239   4.575   5.123
 7461TIP3    H222327   0.323   4.521   5.009
 7462TIP3   OH222328   7.141   0.674   1.347
 7462TIP3    H122329   7.136   0.744   1.412
 7462TIP3    H222330   7.050   0.646   1.335
 7463TIP3   OH222331   4.538   6.999   0.753
 7463TIP3    H122332   4.577   7.045   0.827
 7463TIP3    H222333   4.571   7.044   0.676
 7464TIP3   OH222334   3.448   6.767   1.963
 7464TIP3    H122335   3.410   6.823   1.895
 7464TIP3    H222336   3.387   6.694   1.971
 7465TIP3   OH222337   1.244   7.434   4.264
 7465TIP3    H122338   1.246   7.359   4.204
 7465TIP3    H222339   1.196   7.403   4.340
 7466TIP3   OH222340   4.480   2.465   1.972
 7466TIP3    H122341   4.456   2.554   1.946
 7466TIP3    H222342   4.436   2.451   2.056
 7467TIP3   OH222343   7.387   0.304   1.240
 7467TIP3    H122344   7.380   0.272   1.150
 7467TIP3    H222345   7.321   0.253   1.288
 7468TIP3   OH222346   1.376   4.208   2.114
 7468TIP3    H122347   1.389   4.285   2.169
 7468TIP3    H222348   1.364   4.242   2.025
 7469TIP3   OH222349   6.883   6.409   6.643
 7469TIP3    H122350   6.894   6.320   6.609
 7469TIP3    H222351   6.891   6.399   6.738
 7470TIP3   OH222352   7.184   1.486   2.322
 7470TIP3    H122353   7.204   1.415   2.383
 7470TIP3    H222354   7.120   1.449   2.261
 7471TIP3   OH222355   4.832   3.452   2.512
 7471TIP3    H122356   4.855   3.529   2.460
 7471TIP3    H222357   4.916   3.408   2.528
 7472TIP3   OH222358   6.508   2.172   5.021
 7472TIP3    H122359   6.529   2.257   4.980
 7472TIP3    H222360   6.593   2.138   5.048
 7473TIP3   OH222361   5.871   1.473   5.331
 7473TIP3    H122362   5.872   1.550   5.274
 7473TIP3    H222363   5.780   1.466   5.359
 7474TIP3   OH222364   4.691   7.004   3.029
 7474TIP3    H122365   4.733   7.025   3.112
 7474TIP3    H222366   4.762   7.006   2.965
 7475TIP3   OH222367   2.786   2.379   5.986
 7475TIP3    H122368   2.726   2.365   6.059
 7475TIP3    H222369   2.801   2.291   5.951
 7476TIP3   OH222370   3.078   0.392   5.197
 7476TIP3    H122371   3.079   0.344   5.114
 7476TIP3    H222372   3.141   0.345   5.253
 7477TIP3   OH222373   6.207   5.788   2.040
 7477TIP3    H122374   6.161   5.860   1.997
 7477TIP3    H222375   6.285   5.829   2.079
 7478TIP3   OH222376   2.028   6.677   3.160
 7478TIP3    H122377   1.984   6.728   3.092
 7478TIP3    H222378   1.978   6.595   3.164
 7479TIP3   OH222379   2.182   5.553   6.149
 7479TIP3    H122380   2.246   5.504   6.098
 7479TIP3    H222381   2.165   5.499   6.226
 7480TIP3   OH222382   5.822   6.857   1.845
 7480TIP3    H122383   5.758   6.923   1.873
 7480TIP3    H222384   5.775   6.774   1.851
 7481TIP3   OH222385   3.194   2.884   1.412
 7481TIP3    H122386   3.186   2.860   1.320
 7481TIP3    H222387   3.281   2.924   1.419
 7482TIP3   OH222388   3.492   0.235   3.206
 7482TIP3    H122389   3.580   0.246   3.171
 7482TIP3    H222390   3.457   0.323   3.212
 7483TIP3   OH222391   6.590   1.996   0.688
 7483TIP3    H122392   6.522   1.936   0.657
 7483TIP3    H222393   6.631   1.950   0.761
 7484TIP3   OH222394   3.695   2.152   4.519
 7484TIP3    H122395   3.727   2.066   4.544
 7484TIP3    H222396   3.679   2.196   4.603
 7485TIP3   OH222397   0.831   2.162   1.330
 7485TIP3    H122398   0.812   2.091   1.268
 7485TIP3    H222399   0.778   2.235   1.300
 7486TIP3   OH222400   2.882   2.811   2.175
 7486TIP3    H122401   2.880   2.738   2.113
 7486TIP3    H222402   2.974   2.837   2.178
 7487TIP3   OH222403   3.623   3.912   5.783
 7487TIP3    H122404   3.715   3.911   5.757
 7487TIP3    H222405   3.575   3.894   5.702
 7488TIP3   OH222406   4.026   0.257   4.550
 7488TIP3    H122407   3.984   0.325   4.604
 7488TIP3    H222408   4.048   0.188   4.612
 7489TIP3   OH222409   4.567   3.190   2.097
 7489TIP3    H122410   4.615   3.216   2.175
 7489TIP3    H222411   4.530   3.271   2.062
 7490TIP3   OH222412   0.605   7.662   4.717
 7490TIP3    H122413   0.664   7.713   4.662
 7490TIP3    H222414   0.558   7.727   4.769
 7491TIP3   OH222415   5.472   0.593   6.157
 7491TIP3    H122416   5.539   0.561   6.096
 7491TIP3    H222417   5.455   0.519   6.216
 7492TIP3   OH222418   4.074   0.112   2.531
 7492TIP3    H122419   4.004   0.074   2.584
 7492TIP3    H222420   4.049   0.093   2.441
 7493TIP3   OH222421   2.595   4.287   2.830
 7493TIP3    H122422   2.519   4.277   2.887
 7493TIP3    H222423   2.621   4.197   2.809
 7494TIP3   OH222424   4.912   1.722   6.379
 7494TIP3    H122425   4.962   1.736   6.459
 7494TIP3    H222426   4.927   1.630   6.357
 7495TIP3   OH222427   3.452   6.008   4.997
 7495TIP3    H122428   3.365   5.990   5.032
 7495TIP3    H222429   3.447   5.985   4.905
 7496TIP3   OH222430   3.065   0.922   2.805
 7496TIP3    H122431   3.073   0.969   2.722
 7496TIP3    H222432   2.991   0.964   2.849
 7497TIP3   OH222433   2.801   4.033   1.862
 7497TIP3    H122434   2.804   4.128   1.852
 7497TIP3    H222435   2.786   4.019   1.956
 7498TIP3   OH222436   0.593   2.731   6.266
 7498TIP3    H122437   0.612   2.642   6.294
 7498TIP3    H222438   0.675   2.779   6.281
 7499TIP3   OH222439   7.391   4.414   4.596
 7499TIP3    H122440   7.343   4.331   4.591
 7499TIP3    H222441   7.325   4.482   4.581
 7500TIP3   OH222442   5.813   6.489   6.052
 7500TIP3    H122443   5.745   6.510   6.116
 7500TIP3    H222444   5.826   6.394   6.061
 7501TIP3   OH222445   7.712   2.344   1.706
 7501TIP3    H122446   7.781   2.385   1.653
 7501TIP3    H222447   7.756   2.275   1.754
 7502TIP3   OH222448   7.352   3.358   5.157
 7502TIP3    H122449   7.294   3.387   5.228
 7502TIP3    H222450   7.304   3.289   5.112
 7503TIP3   OH222451   6.272   2.461   2.868
 7503TIP3    H122452   6.303   2.497   2.785
 7503TIP3    H222453   6.352   2.438   2.916
 7504TIP3   OH222454   1.857   0.972   4.169
 7504TIP3    H122455   1.874   1.059   4.134
 7504TIP3    H222456   1.853   0.984   4.264
 7505TIP3   OH222457   7.446   4.575   2.933
 7505TIP3    H122458   7.364   4.604   2.894
 7505TIP3    H222459   7.509   4.577   2.861
 7506TIP3   OH222460   8.025   0.746   3.674
 7506TIP3    H122461   7.997   0.798   3.749
 7506TIP3    H222462   7.971   0.777   3.602
 7507TIP3   OH222463   7.083   3.518   3.476
 7507TIP3    H122464   7.111   3.504   3.566
 7507TIP3    H222465   7.043   3.435   3.450
 7508TIP3   OH222466   7.532   6.783   4.399
 7508TIP3    H122467   7.499   6.706   4.352
 7508TIP3    H222468   7.503   6.858   4.347
 7509TIP3   OH222469   1.082   3.495   6.036
 7509TIP3    H122470   1.149   3.468   5.974
 7509TIP3    H222471   1.083   3.427   6.103
 7510TIP3   OH222472   5.602   7.259   0.830
 7510TIP3    H122473   5.617   7.330   0.893
 7510TIP3    H222474   5.662   7.190   0.859
 7511TIP3   OH222475   0.231   3.339   0.075
 7511TIP3    H122476   0.239   3.309   0.166
 7511TIP3    H222477   0.160   3.288   0.038
 7512TIP3   OH222478   6.189   1.623   4.485
 7512TIP3    H122479   6.243   1.637   4.563
 7512TIP3    H222480   6.146   1.538   4.501
 7513TIP3   OH222481   5.833   5.450   4.639
 7513TIP3    H122482   5.928   5.438   4.632
 7513TIP3    H222483   5.802   5.370   4.682
 7514TIP3   OH222484   4.060   1.289   5.918
 7514TIP3    H122485   4.017   1.307   5.835
 7514TIP3    H222486   4.050   1.370   5.968
 7515TIP3   OH222487   3.094   3.820   0.941
 7515TIP3    H122488   3.099   3.901   0.891
 7515TIP3    H222489   3.073   3.848   1.030
 7516TIP3   OH222490   0.620   2.180   0.374
 7516TIP3    H122491   0.528   2.154   0.385
 7516TIP3    H222492   0.616   2.267   0.335
 7517TIP3   OH222493   6.131   6.998   1.340
 7517TIP3    H122494   6.081   6.917   1.354
 7517TIP3    H222495   6.093   7.037   1.261
 7518TIP3   OH222496   0.252   5.059   2.549
 7518TIP3    H122497   0.330   5.064   2.605
 7518TIP3    H222498   0.236   5.150   2.523
 7519TIP3   OH222499   5.209   2.368   4.018
 7519TIP3    H122500   5.274   2.308   4.054
 7519TIP3    H222501   5.189   2.428   4.090
 7520TIP3   OH222502   0.981   5.202   1.629
 7520TIP3    H122503   1.062   5.232   1.587
 7520TIP3    H222504   0.947   5.135   1.571
 7521TIP3   OH222505   2.525   0.558   0.733
 7521TIP3    H122506   2.504   0.611   0.810
 7521TIP3    H222507   2.444   0.558   0.681
 7522TIP3   OH222508   4.476   6.757   5.924
 7522TIP3    H122509   4.466   6.680   5.868
 7522TIP3    H222510   4.410   6.818   5.892
 7523TIP3   OH222511   4.307   6.709   4.945
 7523TIP3    H122512   4.355   6.695   4.864
 7523TIP3    H222513   4.359   6.772   4.994
 7524TIP3   OH222514   8.239   6.593   5.906
 7524TIP3    H122515   8.258   6.687   5.911
 7524TIP3    H222516   8.169   6.580   5.970
 7525TIP3   OH222517   4.800   5.102   0.846
 7525TIP3    H122518   4.836   5.019   0.878
 7525TIP3    H222519   4.803   5.160   0.923
 7526TIP3   OH222520   3.240   4.067   2.927
 7526TIP3    H122521   3.314   4.032   2.877
 7526TIP3    H222522   3.233   4.010   3.003
 7527TIP3   OH222523   2.219   5.011   5.276
 7527TIP3    H122524   2.213   5.093   5.227
 7527TIP3    H222525   2.238   4.945   5.210
 7528TIP3   OH222526   4.274   5.277   1.578
 7528TIP3    H122527   4.189   5.257   1.618
 7528TIP3    H222528   4.283   5.214   1.507
 7529TIP3   OH222529   7.206   7.213   2.912
 7529TIP3    H122530   7.239   7.295   2.875
 7529TIP3    H222531   7.266   7.193   2.984
 7530TIP3   OH222532   8.170   1.037   4.807
 7530TIP3    H122533   8.096   0.994   4.849
 7530TIP3    H222534   8.224   1.069   4.879
 7531TIP3   OH222535   7.556   7.595   5.935
 7531TIP3    H122536   7.554   7.589   6.031
 7531TIP3    H222537   7.490   7.660   5.914
 7532TIP3   OH222538   4.864   5.939   6.032
 7532TIP3    H122539   4.780   5.985   6.022
 7532TIP3    H222540   4.872   5.887   5.953
 7533TIP3   OH222541   2.930   2.429   0.518
 7533TIP3    H122542   2.908   2.518   0.547
 7533TIP3    H222543   3.024   2.433   0.500
 7534TIP3   OH222544   6.601   6.475   5.011
 7534TIP3    H122545   6.505   6.477   5.002
 7534TIP3    H222546   6.633   6.536   4.944
 7535TIP3   OH222547   1.307   5.034   4.535
 7535TIP3    H122548   1.266   5.080   4.609
 7535TIP3    H222549   1.266   5.074   4.457
 7536TIP3   OH222550   0.083   3.059   5.998
 7536TIP3    H122551   0.111   3.041   6.087
 7536TIP3    H222552   0.089   3.154   5.989
 7537TIP3   OH222553   4.252   7.329   4.275
 7537TIP3    H122554   4.302   7.247   4.281
 7537TIP3    H222555   4.297   7.389   4.334
 7538TIP3   OH222556   0.205   6.046   3.033
 7538TIP3    H122557   0.149   5.989   2.981
 7538TIP3    H222558   0.181   6.027   3.124
 7539TIP3   OH222559   5.212   4.597   4.735
 7539TIP3    H122560   5.242   4.660   4.670
 7539TIP3    H222561   5.276   4.526   4.731
 7540TIP3   OH222562   6.820   0.806   1.289
 7540TIP3    H122563   6.831   0.875   1.355
 7540TIP3    H222564   6.851   0.726   1.332
 7541TIP3   OH222565   1.691   0.716   5.699
 7541TIP3    H122566   1.767   0.755   5.657
 7541TIP3    H222567   1.637   0.791   5.725
 7542TIP3   OH222568   3.798   1.610   2.295
 7542TIP3    H122569   3.877   1.652   2.330
 7542TIP3    H222570   3.779   1.540   2.358
 7543TIP3   OH222571   5.044   4.419   1.174
 7543TIP3    H122572   5.070   4.507   1.147
 7543TIP3    H222573   5.016   4.376   1.093
 7544TIP3   OH222574   0.656   6.378   4.228
 7544TIP3    H122575   0.674   6.325   4.306
 7544TIP3    H222576   0.561   6.391   4.229
 7545TIP3   OH222577   2.536   5.921   2.977
 7545TIP3    H122578   2.467   5.954   2.919
 7545TIP3    H222579   2.569   5.843   2.933
 7546TIP3   OH222580   1.395   1.875   1.065
 7546TIP3    H122581   1.443   1.920   0.995
 7546TIP3    H222582   1.381   1.787   1.031
 7547TIP3   OH222583   2.156   2.590   1.335
 7547TIP3    H122584   2.076   2.564   1.290
 7547TIP3    H222585   2.223   2.533   1.299
 7548TIP3   OH222586   1.150   0.530   1.607
 7548TIP3    H122587   1.062   0.556   1.581
 7548TIP3    H222588   1.165   0.576   1.690
 7549TIP3   OH222589   5.056   2.096   2.054
 7549TIP3    H122590   5.013   2.148   2.121
 7549TIP3    H222591   5.019   2.128   1.972
 7550TIP3   OH222592   5.782   7.476   4.656
 7550TIP3    H122593   5.726   7.549   4.629
 7550TIP3    H222594   5.869   7.499   4.624
 7551TIP3   OH222595   0.920   4.535   2.306
 7551TIP3    H122596   0.963   4.583   2.377
 7551TIP3    H222597   0.955   4.446   2.312
 7552TIP3   OH222598   0.699   3.204   0.050
 7552TIP3    H122599   0.679   3.112   0.033
 7552TIP3    H222600   0.641   3.227   0.122
 7553TIP3   OH222601   7.888   1.593   6.757
 7553TIP3    H122602   7.846   1.617   6.839
 7553TIP3    H222603   7.816   1.572   6.698
 7554TIP3   OH222604   3.374   4.861   3.561
 7554TIP3    H122605   3.380   4.949   3.522
 7554TIP3    H222606   3.464   4.829   3.562
 7555TIP3   OH222607   1.812   4.977   1.999
 7555TIP3    H122608   1.775   5.022   2.075
 7555TIP3    H222609   1.858   4.901   2.036
 7556TIP3   OH222610   1.890   3.578   2.324
 7556TIP3    H122611   1.841   3.592   2.405
 7556TIP3    H222612   1.823   3.555   2.259
 7557TIP3   OH222613   2.004   2.337   5.611
 7557TIP3    H122614   2.029   2.365   5.523
 7557TIP3    H222615   1.909   2.349   5.614
 7558TIP3   OH222616   4.768   6.229   4.524
 7558TIP3    H122617   4.741   6.175   4.450
 7558TIP3    H222618   4.847   6.275   4.494
 7559TIP3   OH222619   0.844   0.882   6.660
 7559TIP3    H122620   0.924   0.867   6.610
 7559TIP3    H222621   0.834   0.978   6.661
 7560TIP3   OH222622   5.600   4.148   3.975
 7560TIP3    H122623   5.662   4.076   3.989
 7560TIP3    H222624   5.655   4.226   3.977
 7561TIP3   OH222625   4.431   7.143   3.718
 7561TIP3    H122626   4.497   7.140   3.648
 7561TIP3    H222627   4.390   7.057   3.716
 7562TIP3   OH222628   5.306   6.492   3.521
 7562TIP3    H122629   5.242   6.457   3.583
 7562TIP3    H222630   5.352   6.415   3.488
 7563TIP3   OH222631   2.777   7.659   4.917
 7563TIP3    H122632   2.777   7.732   4.979
 7563TIP3    H222633   2.822   7.694   4.840
 7564TIP3   OH222634   7.407   6.813   5.407
 7564TIP3    H122635   7.328   6.759   5.400
 7564TIP3    H222636   7.374   6.900   5.428
 7565TIP3   OH222637   7.420   1.118   4.016
 7565TIP3    H122638   7.354   1.052   3.997
 7565TIP3    H222639   7.379   1.177   4.079
 7566TIP3   OH222640   0.374   3.505   2.279
 7566TIP3    H122641   0.286   3.539   2.259
 7566TIP3    H222642   0.387   3.527   2.371
 7567TIP3   OH222643   3.258   6.674   3.291
 7567TIP3    H122644   3.204   6.597   3.273
 7567TIP3    H222645   3.223   6.742   3.233
 7568TIP3   OH222646   8.272   0.012   0.201
 7568TIP3    H122647   8.359  -0.017   0.229
 7568TIP3    H222648   8.225   0.027   0.283
 7569TIP3   OH222649   3.164   4.489   3.482
 7569TIP3    H122650   3.172   4.508   3.576
 7569TIP3    H222651   3.175   4.394   3.476
 7570TIP3   OH222652   1.073   5.986   6.354
 7570TIP3    H122653   1.061   6.080   6.367
 7570TIP3    H222654   1.051   5.948   6.439
 7571TIP3   OH222655   3.293   0.501   3.116
 7571TIP3    H122656   3.377   0.516   3.158
 7571TIP3    H222657   3.228   0.510   3.186
 7572TIP3   OH222658   4.196   0.736   4.543
 7572TIP3    H122659   4.224   0.739   4.451
 7572TIP3    H222660   4.228   0.818   4.580
 7573TIP3   OH222661   0.433   6.147   1.915
 7573TIP3    H122662   0.426   6.092   1.993
 7573TIP3    H222663   0.384   6.226   1.936
 7574TIP3   OH222664   2.573   0.375   3.004
 7574TIP3    H122665   2.667   0.366   2.994
 7574TIP3    H222666   2.556   0.468   2.986
 7575TIP3   OH222667   4.603   7.421   5.065
 7575TIP3    H122668   4.694   7.396   5.083
 7575TIP3    H222669   4.554   7.389   5.141
 7576TIP3   OH222670   0.936   7.026   6.434
 7576TIP3    H122671   1.005   7.049   6.495
 7576TIP3    H222672   0.904   7.110   6.401
 7577TIP3   OH222673   7.907   3.435   2.170
 7577TIP3    H122674   7.837   3.477   2.220
 7577TIP3    H222675   7.877   3.438   2.079
 7578TIP3   OH222676   2.525   0.056   0.257
 7578TIP3    H122677   2.572   0.103   0.326
 7578TIP3    H222678   2.506  -0.029   0.296
 7579TIP3   OH222679   3.414   2.777   0.056
 7579TIP3    H122680   3.483   2.839   0.033
 7579TIP3    H222681   3.430   2.757   0.148
 7580TIP3   OH222682   3.463   5.280   0.509
 7580TIP3    H122683   3.502   5.355   0.464
 7580TIP3    H222684   3.418   5.232   0.439
 7581TIP3   OH222685   3.078   1.488   1.961
 7581TIP3    H122686   2.997   1.538   1.948
 7581TIP3    H222687   3.138   1.551   2.000
 7582TIP3   OH222688   3.209   3.157   4.789
 7582TIP3    H122689   3.175   3.080   4.834
 7582TIP3    H222690   3.174   3.150   4.700
 7583TIP3   OH222691   6.487   6.139   1.260
 7583TIP3    H122692   6.557   6.167   1.319
 7583TIP3    H222693   6.422   6.209   1.264
 7584TIP3   OH222694   2.818   1.220   2.232
 7584TIP3    H122695   2.877   1.148   2.206
 7584TIP3    H222696   2.865   1.265   2.302
 7585TIP3   OH222697   6.812   0.665   3.426
 7585TIP3    H122698   6.810   0.594   3.362
 7585TIP3    H222699   6.805   0.745   3.372
 7586TIP3   OH222700   7.278   1.535   1.678
 7586TIP3    H122701   7.218   1.510   1.749
 7586TIP3    H222702   7.360   1.556   1.722
 7587TIP3   OH222703   4.687   1.944   0.077
 7587TIP3    H122704   4.775   1.913   0.099
 7587TIP3    H222705   4.702   2.021   0.023
 7588TIP3   OH222706   5.773   5.610   2.382
 7588TIP3    H122707   5.743   5.635   2.469
 7588TIP3    H222708   5.853   5.661   2.368
 7589TIP3   OH222709   0.914   2.687   1.490
 7589TIP3    H122710   0.930   2.693   1.585
 7589TIP3    H222711   0.881   2.598   1.478
 7590TIP3   OH222712   6.290   3.598   6.259
 7590TIP3    H122713   6.225   3.618   6.192
 7590TIP3    H222714   6.331   3.683   6.278
 7591TIP3   OH222715   0.281   4.600   2.739
 7591TIP3    H122716   0.314   4.514   2.767
 7591TIP3    H222717   0.303   4.659   2.811
 7592TIP3   OH222718   6.348   5.618   1.220
 7592TIP3    H122719   6.329   5.709   1.243
 7592TIP3    H222720   6.269   5.588   1.175
 7593TIP3   OH222721   3.598   1.497   2.101
 7593TIP3    H122722   3.692   1.497   2.121
 7593TIP3    H222723   3.577   1.589   2.084
 7594TIP3   OH222724   6.689   1.347   0.633
 7594TIP3    H122725   6.758   1.330   0.570
 7594TIP3    H222726   6.700   1.438   0.658
 7595TIP3   OH222727   2.430   2.176   1.040
 7595TIP3    H122728   2.446   2.082   1.045
 7595TIP3    H222729   2.335   2.184   1.026
 7596TIP3   OH222730   7.133   0.337   1.542
 7596TIP3    H122731   7.056   0.391   1.526
 7596TIP3    H222732   7.111   0.251   1.505
 7597TIP3   OH222733   5.498   2.896   5.258
 7597TIP3    H122734   5.489   2.840   5.181
 7597TIP3    H222735   5.478   2.840   5.332
 7598TIP3   OH222736   7.406   0.731   0.270
 7598TIP3    H122737   7.314   0.725   0.295
 7598TIP3    H222738   7.410   0.805   0.210
 7599TIP3   OH222739   6.770   0.223   1.553
 7599TIP3    H122740   6.699   0.239   1.490
 7599TIP3    H222741   6.789   0.309   1.589
 7600TIP3   OH222742   2.438   0.341   0.410
 7600TIP3    H122743   2.511   0.290   0.376
 7600TIP3    H222744   2.469   0.432   0.408
 7601TIP3   OH222745   1.628   1.158   0.140
 7601TIP3    H122746   1.678   1.102   0.080
 7601TIP3    H222747   1.653   1.247   0.117
 7602TIP3   OH222748   7.271   5.899   1.590
 7602TIP3    H122749   7.297   5.985   1.623
 7602TIP3    H222750   7.176   5.900   1.592
 7603TIP3   OH222751   4.887   0.034   6.035
 7603TIP3    H122752   4.935   0.113   6.009
 7603TIP3    H222753   4.795   0.054   6.018
 7604TIP3   OH222754   4.718   2.688   5.685
 7604TIP3    H122755   4.651   2.655   5.625
 7604TIP3    H222756   4.738   2.776   5.652
 7605TIP3   OH222757   6.857   7.473   6.580
 7605TIP3    H122758   6.888   7.500   6.494
 7605TIP3    H222759   6.910   7.522   6.643
 7606TIP3   OH222760   2.101   3.803   0.446
 7606TIP3    H122761   2.196   3.809   0.437
 7606TIP3    H222762   2.072   3.894   0.453
 7607TIP3   OH222763   3.106   7.747   0.262
 7607TIP3    H122764   3.194   7.746   0.299
 7607TIP3    H222765   3.099   7.667   0.211
 7608TIP3   OH222766   7.358   1.297   0.128
 7608TIP3    H122767   7.399   1.261   0.050
 7608TIP3    H222768   7.265   1.275   0.119
 7609TIP3   OH222769   1.693   3.591   2.537
 7609TIP3    H122770   1.614   3.644   2.545
 7609TIP3    H222771   1.666   3.503   2.563
 7610TIP3   OH222772   3.043   6.436   5.149
 7610TIP3    H122773   3.113   6.373   5.132
 7610TIP3    H222774   3.088   6.520   5.157
 7611TIP3   OH222775   3.731   0.013   3.974
 7611TIP3    H122776   3.799   0.070   3.938
 7611TIP3    H222777   3.660   0.072   3.999
 7612TIP3   OH222778   4.392   4.407   0.836
 7612TIP3    H122779   4.301   4.431   0.857
 7612TIP3    H222780   4.387   4.369   0.749
 7613TIP3   OH222781   6.848   4.493   2.348
 7613TIP3    H122782   6.832   4.575   2.301
 7613TIP3    H222783   6.762   4.468   2.382
 7614TIP3   OH222784   2.701   2.627   0.149
 7614TIP3    H122785   2.773   2.581   0.193
 7614TIP3    H222786   2.724   2.623   0.056
 7615TIP3   OH222787   4.477   6.334   2.065
 7615TIP3    H122788   4.421   6.257   2.071
 7615TIP3    H222789   4.417   6.405   2.042
 7616TIP3   OH222790   1.429   6.776   5.614
 7616TIP3    H122791   1.454   6.864   5.639
 7616TIP3    H222792   1.334   6.773   5.626
 7617TIP3   OH222793   4.905   7.559   2.416
 7617TIP3    H122794   4.841   7.512   2.469
 7617TIP3    H222795   4.952   7.491   2.369
 7618TIP3   OH222796   4.892   7.230   4.593
 7618TIP3    H122797   4.899   7.320   4.561
 7618TIP3    H222798   4.952   7.180   4.537
 7619TIP3   OH222799   0.688   0.067   3.072
 7619TIP3    H122800   0.743   0.014   3.129
 7619TIP3    H222801   0.707   0.158   3.098
 7620TIP3   OH222802   3.331   4.904   1.012
 7620TIP3    H122803   3.321   4.876   1.103
 7620TIP3    H222804   3.420   4.939   1.007
 7621TIP3   OH222805   3.138   6.139   6.383
 7621TIP3    H122806   3.089   6.184   6.313
 7621TIP3    H222807   3.125   6.046   6.365
 7622TIP3   OH222808   3.200   1.305   1.248
 7622TIP3    H122809   3.140   1.322   1.320
 7622TIP3    H222810   3.248   1.387   1.236
 7623TIP3   OH222811   0.257   4.090   5.476
 7623TIP3    H122812   0.240   4.094   5.382
 7623TIP3    H222813   0.348   4.119   5.485
 7624TIP3   OH222814   2.468   1.754   3.445
 7624TIP3    H122815   2.382   1.750   3.486
 7624TIP3    H222816   2.496   1.663   3.439
 7625TIP3   OH222817   5.283   1.071   0.868
 7625TIP3    H122818   5.276   1.161   0.835
 7625TIP3    H222819   5.374   1.046   0.850
 7626TIP3   OH222820   3.831   4.993   3.967
 7626TIP3    H122821   3.902   4.932   3.948
 7626TIP3    H222822   3.875   5.076   3.988
 7627TIP3   OH222823   4.079   3.373   6.143
 7627TIP3    H122824   4.061   3.279   6.142
 7627TIP3    H222825   4.014   3.409   6.205
 7628TIP3   OH222826   4.961   6.509   0.966
 7628TIP3    H122827   4.975   6.473   0.878
 7628TIP3    H222828   4.869   6.534   0.966
 7629TIP3   OH222829   3.670   6.343   0.988
 7629TIP3    H122830   3.612   6.417   0.969
 7629TIP3    H222831   3.713   6.325   0.904
 7630TIP3   OH222832   7.713   4.388   0.030
 7630TIP3    H122833   7.757   4.306   0.010
 7630TIP3    H222834   7.696   4.385   0.124
 7631TIP3   OH222835   4.345   3.998   5.147
 7631TIP3    H122836   4.346   4.089   5.176
 7631TIP3    H222837   4.296   3.952   5.215
 7632TIP3   OH222838   5.402   0.934   5.138
 7632TIP3    H122839   5.406   0.982   5.055
 7632TIP3    H222840   5.492   0.929   5.168
 7633TIP3   OH222841   4.116   4.352   0.877
 7633TIP3    H122842   4.023   4.342   0.859
 7633TIP3    H222843   4.123   4.343   0.972
 7634TIP3   OH222844   6.172   4.925   3.763
 7634TIP3    H122845   6.108   4.956   3.699
 7634TIP3    H222846   6.257   4.949   3.727
 7635TIP3   OH222847   6.198   0.942   6.277
 7635TIP3    H122848   6.164   0.853   6.282
 7635TIP3    H222849   6.252   0.953   6.355
 7636TIP3   OH222850   5.147   7.654   6.057
 7636TIP3    H122851   5.240   7.649   6.077
 7636TIP3    H222852   5.113   7.567   6.077
 7637TIP3   OH222853   2.473   4.541   0.291
 7637TIP3    H122854   2.528   4.490   0.351
 7637TIP3    H222855   2.383   4.524   0.321
 7638TIP3   OH222856   2.770   1.947   3.246
 7638TIP3    H122857   2.861   1.930   3.269
 7638TIP3    H222858   2.772   2.030   3.198
 7639TIP3   OH222859   1.612   4.189   0.900
 7639TIP3    H122860   1.599   4.106   0.947
 7639TIP3    H222861   1.680   4.170   0.836
 7640TIP3   OH222862   5.433   1.390   0.441
 7640TIP3    H122863   5.461   1.475   0.475
 7640TIP3    H222864   5.338   1.396   0.438
 7641TIP3   OH222865   7.301   5.396   0.617
 7641TIP3    H122866   7.320   5.415   0.709
 7641TIP3    H222867   7.375   5.433   0.570
 7642TIP3   OH222868   5.072   4.406   5.920
 7642TIP3    H122869   5.122   4.440   5.846
 7642TIP3    H222870   5.061   4.480   5.979
 7643TIP3   OH222871   2.692   6.786   6.052
 7643TIP3    H122872   2.703   6.692   6.048
 7643TIP3    H222873   2.603   6.802   6.021
 7644TIP3   OH222874   3.487   3.108   3.911
 7644TIP3    H122875   3.499   3.133   3.819
 7644TIP3    H222876   3.402   3.064   3.912
 7645TIP3   OH222877   0.874   2.081   6.264
 7645TIP3    H122878   0.781   2.081   6.287
 7645TIP3    H222879   0.897   1.989   6.255
 7646TIP3   OH222880   2.181   7.499   4.857
 7646TIP3    H122881   2.169   7.511   4.763
 7646TIP3    H222882   2.266   7.455   4.865
 7647TIP3   OH222883   0.619   2.897   1.687
 7647TIP3    H122884   0.597   2.843   1.611
 7647TIP3    H222885   0.677   2.842   1.739
 7648TIP3   OH222886   5.423   3.087   0.235
 7648TIP3    H122887   5.509   3.046   0.248
 7648TIP3    H222888   5.443   3.175   0.203
 7649TIP3   OH222889   7.283   4.889   3.893
 7649TIP3    H122890   7.337   4.929   3.961
 7649TIP3    H222891   7.199   4.872   3.936
 7650TIP3   OH222892   2.258   0.139   0.426
 7650TIP3    H122893   2.323   0.208   0.412
 7650TIP3    H222894   2.284   0.069   0.366
 7651TIP3   OH222895   0.848   7.265   4.888
 7651TIP3    H122896   0.937   7.292   4.862
 7651TIP3    H222897   0.807   7.238   4.806
 7652TIP3   OH222898   4.989   3.163   3.552
 7652TIP3    H122899   5.053   3.096   3.531
 7652TIP3    H222900   4.941   3.177   3.470
 7653TIP3   OH222901   0.369   4.137   3.843
 7653TIP3    H122902   0.377   4.226   3.878
 7653TIP3    H222903   0.369   4.081   3.920
 7654TIP3   OH222904   5.162   1.301   1.010
 7654TIP3    H122905   5.202   1.215   1.001
 7654TIP3    H222906   5.229   1.354   1.052
 7655TIP3   OH222907   2.726   1.818   2.116
 7655TIP3    H122908   2.742   1.804   2.209
 7655TIP3    H222909   2.673   1.897   2.112
 7656TIP3   OH222910   6.994   0.302   6.129
 7656TIP3    H122911   6.928   0.348   6.078
 7656TIP3    H222912   7.070   0.360   6.128
 7657TIP3   OH222913   2.326   4.126   2.052
 7657TIP3    H122914   2.275   4.050   2.025
 7657TIP3    H222915   2.261   4.191   2.077
 7658TIP3   OH222916   3.085   4.540   3.760
 7658TIP3    H122917   3.104   4.572   3.848
 7658TIP3    H222918   3.007   4.485   3.771
 7659TIP3   OH222919   7.723   3.853   4.069
 7659TIP3    H122920   7.688   3.849   4.158
 7659TIP3    H222921   7.786   3.925   4.071
 7660TIP3   OH222922   5.813   0.785   1.650
 7660TIP3    H122923   5.898   0.816   1.681
 7660TIP3    H222924   5.829   0.759   1.559
 7661TIP3   OH222925   5.410   0.024   2.753
 7661TIP3    H122926   5.321   0.037   2.786
 7661TIP3    H222927   5.440  -0.057   2.795
 7662TIP3   OH222928   2.191   1.731   3.575
 7662TIP3    H122929   2.213   1.704   3.665
 7662TIP3    H222930   2.195   1.650   3.524
 7663TIP3   OH222931   4.585   6.377   4.651
 7663TIP3    H122932   4.630   6.322   4.587
 7663TIP3    H222933   4.502   6.400   4.609
 7664TIP3   OH222934   7.557   5.010   2.144
 7664TIP3    H122935   7.509   5.068   2.086
 7664TIP3    H222936   7.607   5.068   2.201
 7665TIP3   OH222937   0.425   4.493   5.866
 7665TIP3    H122938   0.483   4.525   5.936
 7665TIP3    H222939   0.350   4.551   5.868
 7666TIP3   OH222940   8.086   3.746   1.251
 7666TIP3    H122941   8.084   3.759   1.346
 7666TIP3    H222942   8.030   3.670   1.236
 7667TIP3   OH222943   4.135   3.049   4.844
 7667TIP3    H122944   4.099   3.012   4.924
 7667TIP3    H222945   4.066   3.040   4.779
 7668TIP3   OH222946   7.573   1.117   4.419
 7668TIP3    H122947   7.553   1.181   4.487
 7668TIP3    H222948   7.640   1.159   4.366
 7669TIP3   OH222949   6.662   4.383   1.064
 7669TIP3    H122950   6.743   4.336   1.084
 7669TIP3    H222951   6.678   4.472   1.093
 7670TIP3   OH222952   7.390   3.184   6.666
 7670TIP3    H122953   7.318   3.122   6.656
 7670TIP3    H222954   7.460   3.134   6.706
 7671TIP3   OH222955   5.093   6.306   0.342
 7671TIP3    H122956   5.151   6.230   0.332
 7671TIP3    H222957   5.005   6.271   0.326
 7672TIP3   OH222958   5.478   6.577   2.251
 7672TIP3    H122959   5.451   6.540   2.335
 7672TIP3    H222960   5.429   6.528   2.185
 7673TIP3   OH222961   0.613   7.216   0.868
 7673TIP3    H122962   0.692   7.164   0.884
 7673TIP3    H222963   0.577   7.232   0.955
 7674TIP3   OH222964   3.930   7.030   0.399
 7674TIP3    H122965   4.008   7.058   0.351
 7674TIP3    H222966   3.944   6.937   0.415
 7675TIP3   OH222967   3.186   1.632   5.000
 7675TIP3    H122968   3.094   1.605   5.002
 7675TIP3    H222969   3.235   1.550   5.005
 7676TIP3   OH222970   5.346   6.117   3.131
 7676TIP3    H122971   5.301   6.033   3.143
 7676TIP3    H222972   5.380   6.139   3.218
 7677TIP3   OH222973   4.409   6.570   0.111
 7677TIP3    H122974   4.323   6.610   0.123
 7677TIP3    H222975   4.401   6.516   0.032
 7678TIP3   OH222976   0.764   2.089   3.152
 7678TIP3    H122977   0.846   2.058   3.114
 7678TIP3    H222978   0.696   2.036   3.111
 7679TIP3   OH222979   5.022   1.036   5.809
 7679TIP3    H122980   4.983   1.066   5.891
 7679TIP3    H222981   4.952   1.048   5.744
 7680TIP3   OH222982   8.207   2.506   2.839
 7680TIP3    H122983   8.173   2.429   2.884
 7680TIP3    H222984   8.301   2.490   2.830
 7681TIP3   OH222985   6.483   0.205   2.690
 7681TIP3    H122986   6.453   0.184   2.779
 7681TIP3    H222987   6.564   0.255   2.703
 7682TIP3   OH222988   1.845   7.302   6.441
 7682TIP3    H122989   1.901   7.354   6.498
 7682TIP3    H222990   1.829   7.358   6.365
 7683TIP3   OH222991   7.014   5.246   3.190
 7683TIP3    H122992   7.075   5.289   3.249
 7683TIP3    H222993   7.068   5.217   3.117
 7684TIP3   OH222994   7.019   2.896   1.944
 7684TIP3    H122995   6.968   2.844   1.882
 7684TIP3    H222996   7.067   2.831   1.995
 7685TIP3   OH222997   5.886   4.285   5.398
 7685TIP3    H122998   5.979   4.285   5.372
 7685TIP3    H222999   5.881   4.219   5.467
 7686TIP3   OH223000   1.844   4.466   1.466
 7686TIP3    H123001   1.912   4.519   1.425
 7686TIP3    H223002   1.892   4.399   1.515
 7687TIP3   OH223003   7.934   1.609   1.959
 7687TIP3    H123004   7.966   1.582   1.873
 7687TIP3    H223005   7.943   1.531   2.014
 7688TIP3   OH223006   1.700   4.028   5.645
 7688TIP3    H123007   1.679   4.111   5.687
 7688TIP3    H223008   1.741   4.052   5.562
 7689TIP3   OH223009   1.620   1.411   5.675
 7689TIP3    H123010   1.706   1.381   5.704
 7689TIP3    H223011   1.565   1.333   5.680
 7690TIP3   OH223012   2.532   2.544   5.270
 7690TIP3    H123013   2.586   2.500   5.205
 7690TIP3    H223014   2.477   2.605   5.219
 7691TIP3   OH223015   7.794   2.988   5.588
 7691TIP3    H123016   7.783   3.066   5.642
 7691TIP3    H223017   7.716   2.986   5.532
 7692TIP3   OH223018   2.833   6.633   2.826
 7692TIP3    H123019   2.916   6.595   2.855
 7692TIP3    H223020   2.766   6.579   2.868
 7693TIP3   OH223021   0.580   3.372   1.823
 7693TIP3    H123022   0.610   3.309   1.758
 7693TIP3    H223023   0.618   3.341   1.905
 7694TIP3   OH223024   3.540   4.585   3.008
 7694TIP3    H123025   3.487   4.655   2.970
 7694TIP3    H223026   3.542   4.605   3.101
 7695TIP3   OH223027   0.329   7.829   2.719
 7695TIP3    H123028   0.283   7.768   2.776
 7695TIP3    H223029   0.381   7.883   2.779
 7696TIP3   OH223030   6.440   1.475   3.086
 7696TIP3    H123031   6.459   1.394   3.134
 7696TIP3    H223032   6.443   1.544   3.152
 7697TIP3   OH223033   0.461   5.609   1.205
 7697TIP3    H123034   0.383   5.599   1.261
 7697TIP3    H223035   0.477   5.703   1.203
 7698TIP3   OH223036   2.525   4.647   4.489
 7698TIP3    H123037   2.576   4.728   4.491
 7698TIP3    H223038   2.499   4.637   4.398
 7699TIP3   OH223039   3.316   3.874   3.120
 7699TIP3    H123040   3.401   3.917   3.130
 7699TIP3    H223041   3.337   3.784   3.095
 7700TIP3   OH223042   7.593   5.431   1.684
 7700TIP3    H123043   7.639   5.441   1.601
 7700TIP3    H223044   7.654   5.464   1.750
 7701TIP3   OH223045   1.392   7.702   5.551
 7701TIP3    H123046   1.315   7.743   5.511
 7701TIP3    H223047   1.416   7.760   5.623
 7702TIP3   OH223048   6.456   1.029   1.399
 7702TIP3    H123049   6.486   0.943   1.427
 7702TIP3    H223050   6.472   1.031   1.305
 7703TIP3   OH223051   7.379   3.140   2.935
 7703TIP3    H123052   7.425   3.134   3.018
 7703TIP3    H223053   7.394   3.229   2.904
 7704TIP3   OH223054   2.746   4.044   2.123
 7704TIP3    H123055   2.767   4.029   2.215
 7704TIP3    H223056   2.694   4.124   2.123
 7705TIP3   OH223057   2.424   5.167   1.124
 7705TIP3    H123058   2.479   5.245   1.133
 7705TIP3    H223059   2.387   5.154   1.212
 7706TIP3   OH223060   3.842   3.243   5.814
 7706TIP3    H123061   3.794   3.323   5.835
 7706TIP3    H223062   3.898   3.266   5.740
 7707TIP3   OH223063   4.264   0.395   0.845
 7707TIP3    H123064   4.271   0.373   0.938
 7707TIP3    H223065   4.217   0.321   0.807
 7708TIP3   OH223066   1.015   7.712   1.093
 7708TIP3    H123067   0.963   7.637   1.066
 7708TIP3    H223068   1.062   7.682   1.170
 7709TIP3   OH223069   2.205   4.966   0.701
 7709TIP3    H123070   2.265   5.034   0.731
 7709TIP3    H223071   2.231   4.949   0.610
 7710TIP3   OH223072   1.807   7.791   4.759
 7710TIP3    H123073   1.789   7.883   4.742
 7710TIP3    H223074   1.859   7.763   4.684
 7711TIP3   OH223075   6.077   0.685   0.585
 7711TIP3    H123076   5.983   0.706   0.590
 7711TIP3    H223077   6.084   0.630   0.507
 7712TIP3   OH223078   4.234   1.944   1.481
 7712TIP3    H123079   4.241   1.850   1.463
 7712TIP3    H223080   4.310   1.983   1.435
 7713TIP3   OH223081   2.799   4.937   0.865
 7713TIP3    H123082   2.846   4.865   0.906
 7713TIP3    H223083   2.752   4.897   0.791
 7714TIP3   OH223084   4.528   0.337   2.741
 7714TIP3    H123085   4.618   0.356   2.715
 7714TIP3    H223086   4.535   0.316   2.834
 7715TIP3   OH223087   1.698   1.999   2.215
 7715TIP3    H123088   1.787   2.027   2.194
 7715TIP3    H223089   1.647   2.018   2.136
 7716TIP3   OH223090   2.671   0.966   5.978
 7716TIP3    H123091   2.763   0.965   6.004
 7716TIP3    H223092   2.663   0.896   5.914
 7717TIP3   OH223093   5.005   4.046   2.012
 7717TIP3    H123094   5.044   4.089   2.088
 7717TIP3    H223095   5.008   4.113   1.943
 7718TIP3   OH223096   5.385   7.523   4.443
 7718TIP3    H123097   5.353   7.434   4.424
 7718TIP3    H223098   5.313   7.580   4.417
 7719TIP3   OH223099   2.695   0.778   3.524
 7719TIP3    H123100   2.698   0.848   3.589
 7719TIP3    H223101   2.675   0.699   3.575
 7720TIP3   OH223102   1.644   1.647   4.712
 7720TIP3    H123103   1.549   1.656   4.722
 7720TIP3    H223104   1.655   1.571   4.655
 7721TIP3   OH223105   0.953   7.496   3.619
 7721TIP3    H123106   0.932   7.534   3.704
 7721TIP3    H223107   0.871   7.456   3.590
 7722TIP3   OH223108   4.174   6.162   4.989
 7722TIP3    H123109   4.219   6.234   4.945
 7722TIP3    H223110   4.188   6.086   4.933
 7723TIP3   OH223111   3.894   3.585   6.287
 7723TIP3    H123112   3.839   3.589   6.209
 7723TIP3    H223113   3.833   3.594   6.360
 7724TIP3   OH223114   8.190   7.787   5.737
 7724TIP3    H123115   8.184   7.812   5.645
 7724TIP3    H223116   8.125   7.843   5.781
 7725TIP3   OH223117   5.001   2.848   5.329
 7725TIP3    H123118   4.960   2.769   5.362
 7725TIP3    H223119   4.938   2.918   5.346
 7726TIP3   OH223120   6.601   3.797   5.570
 7726TIP3    H123121   6.600   3.746   5.651
 7726TIP3    H223122   6.673   3.859   5.581
 7727TIP3   OH223123   6.803   6.986   0.419
 7727TIP3    H123124   6.886   7.021   0.453
 7727TIP3    H223125   6.787   7.034   0.338
 7728TIP3   OH223126   4.009   3.881   0.905
 7728TIP3    H123127   4.029   3.959   0.957
 7728TIP3    H223128   4.088   3.827   0.910
 7729TIP3   OH223129   7.277   0.375   6.058
 7729TIP3    H123130   7.267   0.464   6.024
 7729TIP3    H223131   7.371   0.357   6.050
 7730TIP3   OH223132   5.331   6.549   2.734
 7730TIP3    H123133   5.304   6.640   2.742
 7730TIP3    H223134   5.276   6.501   2.796
 7731TIP3   OH223135   6.773   3.484   3.452
 7731TIP3    H123136   6.835   3.526   3.511
 7731TIP3    H223137   6.827   3.448   3.381
 7732TIP3   OH223138   5.928   2.223   3.880
 7732TIP3    H123139   5.871   2.298   3.898
 7732TIP3    H223140   5.978   2.211   3.961
 7733TIP3   OH223141   3.640   5.623   1.251
 7733TIP3    H123142   3.612   5.573   1.328
 7733TIP3    H223143   3.607   5.712   1.268
 7734TIP3   OH223144   4.075   1.576   3.609
 7734TIP3    H123145   3.981   1.582   3.627
 7734TIP3    H223146   4.113   1.650   3.658
 7735TIP3   OH223147   1.577   2.604   4.562
 7735TIP3    H123148   1.584   2.548   4.485
 7735TIP3    H223149   1.585   2.693   4.528
 7736TIP3   OH223150   3.352   4.505   6.078
 7736TIP3    H123151   3.278   4.533   6.132
 7736TIP3    H223152   3.365   4.413   6.102
 7737TIP3   OH223153   6.973   3.283   2.867
 7737TIP3    H123154   6.896   3.295   2.922
 7737TIP3    H223155   7.036   3.348   2.900
 7738TIP3   OH223156   1.435   3.530   3.479
 7738TIP3    H123157   1.424   3.440   3.511
 7738TIP3    H223158   1.427   3.584   3.557
 7739TIP3   OH223159   0.025   0.044   2.659
 7739TIP3    H123160  -0.059   0.028   2.616
 7739TIP3    H223161   0.086  -0.016   2.616
 7740TIP3   OH223162   0.745   2.356   5.942
 7740TIP3    H123163   0.694   2.278   5.964
 7740TIP3    H223164   0.684   2.413   5.895
 7741TIP3   OH223165   6.105   6.895   2.596
 7741TIP3    H123166   6.028   6.947   2.576
 7741TIP3    H223167   6.095   6.816   2.543
 7742TIP3   OH223168   2.466   7.345   1.172
 7742TIP3    H123169   2.377   7.329   1.202
 7742TIP3    H223170   2.457   7.401   1.096
 7743TIP3   OH223171   3.638   1.478   0.682
 7743TIP3    H123172   3.632   1.455   0.589
 7743TIP3    H223173   3.712   1.538   0.687
 7744TIP3   OH223174   3.109   7.160   6.448
 7744TIP3    H123175   3.145   7.080   6.411
 7744TIP3    H223176   3.044   7.189   6.384
 7745TIP3   OH223177   2.151   2.287   2.345
 7745TIP3    H123178   2.238   2.286   2.385
 7745TIP3    H223179   2.163   2.245   2.260
 7746TIP3   OH223180   4.195   4.314   3.649
 7746TIP3    H123181   4.141   4.393   3.641
 7746TIP3    H223182   4.283   4.348   3.665
 7747TIP3   OH223183   6.492   1.327   6.512
 7747TIP3    H123184   6.448   1.349   6.430
 7747TIP3    H223185   6.424   1.336   6.578
 7748TIP3   OH223186   4.878   1.332   3.709
 7748TIP3    H123187   4.949   1.382   3.669
 7748TIP3    H223188   4.818   1.398   3.743
 7749TIP3   OH223189   0.071   1.244   1.247
 7749TIP3    H123190   0.108   1.177   1.304
 7749TIP3    H223191   0.046   1.196   1.168
 7750TIP3   OH223192   4.088   3.956   4.332
 7750TIP3    H123193   4.079   3.953   4.427
 7750TIP3    H223194   4.001   3.935   4.298
 7751TIP3   OH223195   1.392   2.804   1.250
 7751TIP3    H123196   1.466   2.839   1.200
 7751TIP3    H223197   1.430   2.775   1.333
 7752TIP3   OH223198   5.731   6.746   6.495
 7752TIP3    H123199   5.644   6.785   6.484
 7752TIP3    H223200   5.784   6.784   6.424
 7753TIP3   OH223201   7.867   3.231   5.393
 7753TIP3    H123202   7.878   3.138   5.374
 7753TIP3    H223203   7.789   3.236   5.449
 7754TIP3   OH223204   6.519   5.624   3.414
 7754TIP3    H123205   6.513   5.555   3.348
 7754TIP3    H223206   6.613   5.629   3.434
 7755TIP3   OH223207   5.331   1.178   4.122
 7755TIP3    H123208   5.332   1.201   4.029
 7755TIP3    H223209   5.421   1.152   4.141
 7756TIP3   OH223210   6.157   7.253   1.418
 7756TIP3    H123211   6.142   7.249   1.512
 7756TIP3    H223212   6.154   7.162   1.388
 7757TIP3   OH223213   0.307   3.755   5.343
 7757TIP3    H123214   0.317   3.763   5.438
 7757TIP3    H223215   0.396   3.745   5.310
 7758TIP3   OH223216   4.590   3.885   1.875
 7758TIP3    H123217   4.617   3.977   1.871
 7758TIP3    H223218   4.552   3.868   1.789
 7759TIP3   OH223219   2.602   3.547   5.860
 7759TIP3    H123220   2.663   3.523   5.930
 7759TIP3    H223221   2.576   3.637   5.881
 7760TIP3   OH223222   6.031   4.928   0.836
 7760TIP3    H123223   6.051   4.871   0.910
 7760TIP3    H223224   5.936   4.920   0.824
 7761TIP3   OH223225   3.984   7.237   4.603
 7761TIP3    H123226   3.966   7.330   4.589
 7761TIP3    H223227   3.969   7.197   4.517
 7762TIP3   OH223228   3.096   0.071   6.054
 7762TIP3    H123229   3.181   0.070   6.098
 7762TIP3    H223230   3.116   0.081   5.961
 7763TIP3   OH223231   6.665   6.187   3.007
 7763TIP3    H123232   6.716   6.255   2.964
 7763TIP3    H223233   6.649   6.221   3.095
 7764TIP3   OH223234   3.010   1.706   6.384
 7764TIP3    H123235   3.058   1.787   6.367
 7764TIP3    H223236   2.922   1.723   6.351
 7765TIP3   OH223237   0.786   2.836   2.212
 7765TIP3    H123238   0.698   2.855   2.242
 7765TIP3    H223239   0.809   2.753   2.256
 7766TIP3   OH223240   3.695   4.728   5.897
 7766TIP3    H123241   3.730   4.659   5.840
 7766TIP3    H223242   3.773   4.777   5.925
 7767TIP3   OH223243   0.902   4.000   1.011
 7767TIP3    H123244   0.903   3.908   0.982
 7767TIP3    H223245   0.991   4.031   0.992
 7768TIP3   OH223246   2.092   5.169   1.697
 7768TIP3    H123247   2.044   5.086   1.701
 7768TIP3    H223248   2.093   5.200   1.788
 7769TIP3   OH223249   4.212   6.932   1.746
 7769TIP3    H123250   4.293   6.914   1.793
 7769TIP3    H223251   4.148   6.872   1.784
 7770TIP3   OH223252   0.040   6.054   1.338
 7770TIP3    H123253   0.126   6.017   1.358
 7770TIP3    H223254   0.059   6.141   1.301
 7771TIP3   OH223255   6.361   1.257   4.323
 7771TIP3    H123256   6.368   1.239   4.417
 7771TIP3    H223257   6.440   1.217   4.285
 7772TIP3   OH223258   5.516   5.384   4.883
 7772TIP3    H123259   5.557   5.457   4.929
 7772TIP3    H223260   5.429   5.417   4.860
 7773TIP3   OH223261   4.497   0.826   2.467
 7773TIP3    H123262   4.508   0.763   2.396
 7773TIP3    H223263   4.418   0.799   2.512
 7774TIP3   OH223264   7.246   0.414   5.667
 7774TIP3    H123265   7.224   0.444   5.579
 7774TIP3    H223266   7.302   0.338   5.653
 7775TIP3   OH223267   8.191   6.822   3.535
 7775TIP3    H123268   8.112   6.867   3.506
 7775TIP3    H223269   8.174   6.729   3.516
 7776TIP3   OH223270   8.201   6.314   5.242
 7776TIP3    H123271   8.223   6.305   5.149
 7776TIP3    H223272   8.278   6.281   5.288
 7777TIP3   OH223273   2.373   6.759   3.043
 7777TIP3    H123274   2.394   6.765   2.950
 7777TIP3    H223275   2.384   6.849   3.075
 7778TIP3   OH223276   2.383   7.518   6.105
 7778TIP3    H123277   2.323   7.574   6.154
 7778TIP3    H223278   2.449   7.579   6.071
 7779TIP3   OH223279   7.238   2.150   5.419
 7779TIP3    H123280   7.307   2.213   5.398
 7779TIP3    H223281   7.261   2.117   5.505
 7780TIP3   OH223282   4.405   2.124   6.383
 7780TIP3    H123283   4.387   2.148   6.474
 7780TIP3    H223284   4.495   2.154   6.368
 7781TIP3   OH223285   0.622   0.328   1.461
 7781TIP3    H123286   0.584   0.262   1.403
 7781TIP3    H223287   0.652   0.279   1.538
 7782TIP3   OH223288   6.173   4.284   5.803
 7782TIP3    H123289   6.118   4.349   5.759
 7782TIP3    H223290   6.238   4.260   5.738
 7783TIP3   OH223291   3.567   2.635   4.192
 7783TIP3    H123292   3.660   2.641   4.170
 7783TIP3    H223293   3.523   2.634   4.107
 7784TIP3   OH223294   4.982   5.263   2.514
 7784TIP3    H123295   5.077   5.260   2.523
 7784TIP3    H223296   4.951   5.305   2.595
 7785TIP3   OH223297   1.195   1.110   4.903
 7785TIP3    H123298   1.099   1.107   4.901
 7785TIP3    H223299   1.217   1.105   4.996
 7786TIP3   OH223300   0.453   1.575   2.977
 7786TIP3    H123301   0.529   1.620   2.941
 7786TIP3    H223302   0.409   1.641   3.031
 7787TIP3   OH223303   7.250   0.639   5.963
 7787TIP3    H123304   7.199   0.719   5.972
 7787TIP3    H223305   7.296   0.649   5.880
 7788TIP3   OH223306   5.129   1.448   5.739
 7788TIP3    H123307   5.034   1.457   5.745
 7788TIP3    H223308   5.162   1.538   5.745
 7789TIP3   OH223309   2.757   5.455   3.576
 7789TIP3    H123310   2.849   5.426   3.573
 7789TIP3    H223311   2.762   5.550   3.585
 7790TIP3   OH223312   5.028   3.988   5.938
 7790TIP3    H123313   5.066   3.930   5.872
 7790TIP3    H223314   4.992   3.928   6.004
 7791TIP3   OH223315   3.291   1.994   1.582
 7791TIP3    H123316   3.238   1.939   1.640
 7791TIP3    H223317   3.287   1.949   1.497
 7792TIP3   OH223318   4.231   1.879   6.635
 7792TIP3    H123319   4.155   1.916   6.680
 7792TIP3    H223320   4.255   1.803   6.687
 7793TIP3   OH223321   2.723   6.644   3.412
 7793TIP3    H123322   2.764   6.676   3.492
 7793TIP3    H223323   2.745   6.551   3.409
 7794TIP3   OH223324   2.361   2.490   2.660
 7794TIP3    H123325   2.399   2.403   2.674
 7794TIP3    H223326   2.432   2.550   2.679
 7795TIP3   OH223327   6.293   7.443   5.861
 7795TIP3    H123328   6.359   7.381   5.892
 7795TIP3    H223329   6.298   7.438   5.766
 7796TIP3   OH223330   1.311   2.949   4.591
 7796TIP3    H123331   1.306   3.036   4.629
 7796TIP3    H223332   1.405   2.933   4.580
 7797TIP3   OH223333   6.128   3.810   0.074
 7797TIP3    H123334   6.179   3.869   0.129
 7797TIP3    H223335   6.044   3.801   0.119
 7798TIP3   OH223336   4.636   4.165   5.967
 7798TIP3    H123337   4.707   4.174   5.904
 7798TIP3    H223338   4.662   4.220   6.041
 7799TIP3   OH223339   5.328   3.328   2.445
 7799TIP3    H123340   5.257   3.386   2.473
 7799TIP3    H223341   5.290   3.280   2.371
 7800TIP3   OH223342   0.649   0.509   0.309
 7800TIP3    H123343   0.644   0.489   0.216
 7800TIP3    H223344   0.619   0.428   0.352
 7801TIP3   OH223345   4.163   0.248   3.612
 7801TIP3    H123346   4.090   0.281   3.664
 7801TIP3    H223347   4.153   0.290   3.526
 7802TIP3   OH223348   0.706   2.135   2.114
 7802TIP3    H123349   0.700   2.231   2.114
 7802TIP3    H223350   0.787   2.115   2.067
 7803TIP3   OH223351   4.665   5.570   5.114
 7803TIP3    H123352   4.739   5.517   5.084
 7803TIP3    H223353   4.656   5.638   5.049
 7804TIP3   OH223354   5.606   4.759   4.818
 7804TIP3    H123355   5.633   4.679   4.862
 7804TIP3    H223356   5.513   4.769   4.840
 7805TIP3   OH223357   4.948   1.802   4.961
 7805TIP3    H123358   5.042   1.798   4.976
 7805TIP3    H223359   4.935   1.760   4.876
 7806TIP3   OH223360   4.954   3.019   3.864
 7806TIP3    H123361   4.945   2.957   3.791
 7806TIP3    H223362   4.951   3.105   3.822
 7807TIP3   OH223363   0.252   2.944   2.480
 7807TIP3    H123364   0.248   2.924   2.386
 7807TIP3    H223365   0.197   2.878   2.521
 7808TIP3   OH223366   7.448   4.770   5.308
 7808TIP3    H123367   7.473   4.720   5.230
 7808TIP3    H223368   7.489   4.855   5.296
 7809TIP3   OH223369   7.217   3.794   1.499
 7809TIP3    H123370   7.268   3.780   1.579
 7809TIP3    H223371   7.141   3.737   1.509
 7810TIP3   OH223372   1.891   6.709   0.043
 7810TIP3    H123373   1.890   6.802   0.068
 7810TIP3    H223374   1.922   6.709  -0.048
 7811TIP3   OH223375   6.740   1.201   2.310
 7811TIP3    H123376   6.777   1.165   2.390
 7811TIP3    H223377   6.679   1.134   2.279
 7812TIP3   OH223378   8.024   4.962   1.922
 7812TIP3    H123379   8.032   4.960   1.826
 7812TIP3    H223380   7.950   5.020   1.938
 7813TIP3   OH223381   5.948   3.617   4.654
 7813TIP3    H123382   5.962   3.544   4.594
 7813TIP3    H223383   5.947   3.694   4.598
 7814TIP3   OH223384   7.073   7.015   5.794
 7814TIP3    H123385   7.163   7.048   5.785
 7814TIP3    H223386   7.074   6.969   5.878
 7815TIP3   OH223387   6.645   5.929   1.395
 7815TIP3    H123388   6.595   5.972   1.464
 7815TIP3    H223389   6.587   5.932   1.318
 7816TIP3   OH223390   0.582   0.099   3.402
 7816TIP3    H123391   0.493   0.119   3.372
 7816TIP3    H223392   0.609   0.025   3.347
 7817TIP3   OH223393   2.669   5.901   3.825
 7817TIP3    H123394   2.750   5.896   3.774
 7817TIP3    H223395   2.634   5.988   3.807
 7818TIP3   OH223396   6.226   0.071   3.151
 7818TIP3    H123397   6.182   0.003   3.101
 7818TIP3    H223398   6.173   0.149   3.137
 7819TIP3   OH223399   4.178   0.336   4.330
 7819TIP3    H123400   4.117   0.298   4.266
 7819TIP3    H223401   4.137   0.320   4.415
 7820TIP3   OH223402   1.894   4.089   4.067
 7820TIP3    H123403   1.816   4.145   4.068
 7820TIP3    H223404   1.959   4.138   4.118
 7821TIP3   OH223405   3.192   5.405   6.505
 7821TIP3    H123406   3.165   5.497   6.513
 7821TIP3    H223407   3.179   5.369   6.593
 7822TIP3   OH223408   2.374   4.059   6.700
 7822TIP3    H123409   2.401   4.151   6.709
 7822TIP3    H223410   2.278   4.062   6.702
 7823TIP3   OH223411   5.656   6.644   3.490
 7823TIP3    H123412   5.730   6.596   3.452
 7823TIP3    H223413   5.583   6.626   3.431
 7824TIP3   OH223414   5.461   5.078   5.775
 7824TIP3    H123415   5.500   5.163   5.794
 7824TIP3    H223416   5.369   5.088   5.800
 7825TIP3   OH223417   2.253   5.583   4.462
 7825TIP3    H123418   2.203   5.625   4.532
 7825TIP3    H223419   2.344   5.609   4.479
 7826TIP3   OH223420   1.435   7.016   3.798
 7826TIP3    H123421   1.505   6.986   3.740
 7826TIP3    H223422   1.449   7.111   3.806
 7827TIP3   OH223423   1.482   2.745   2.388
 7827TIP3    H123424   1.418   2.730   2.457
 7827TIP3    H223425   1.559   2.778   2.434
 7828TIP3   OH223426   7.764   4.973   2.738
 7828TIP3    H123427   7.717   4.949   2.658
 7828TIP3    H223428   7.713   4.933   2.808
 7829TIP3   OH223429   3.796   3.048   4.068
 7829TIP3    H123430   3.772   3.134   4.034
 7829TIP3    H223431   3.719   3.019   4.116
 7830TIP3   OH223432   5.411   0.188   5.044
 7830TIP3    H123433   5.453   0.273   5.062
 7830TIP3    H223434   5.367   0.201   4.959
 7831TIP3   OH223435   3.020   3.587   2.051
 7831TIP3    H123436   3.010   3.638   2.131
 7831TIP3    H223437   3.009   3.652   1.981
 7832TIP3   OH223438   2.244   4.533   2.424
 7832TIP3    H123439   2.226   4.446   2.387
 7832TIP3    H223440   2.338   4.534   2.438
 7833TIP3   OH223441   7.821   5.709   3.654
 7833TIP3    H123442   7.891   5.644   3.656
 7833TIP3    H223443   7.801   5.721   3.561
 7834TIP3   OH223444   5.266   2.293   6.374
 7834TIP3    H123445   5.312   2.376   6.390
 7834TIP3    H223446   5.336   2.228   6.367
 7835TIP3   OH223447   6.277   2.842   5.169
 7835TIP3    H123448   6.313   2.815   5.253
 7835TIP3    H223449   6.331   2.798   5.103
 7836TIP3   OH223450   6.430   4.212   3.462
 7836TIP3    H123451   6.354   4.177   3.416
 7836TIP3    H223452   6.408   4.201   3.555
 7837TIP3   OH223453   0.947   1.231   6.255
 7837TIP3    H123454   1.027   1.191   6.291
 7837TIP3    H223455   0.977   1.313   6.216
 7838TIP3   OH223456   3.050   6.211   5.927
 7838TIP3    H123457   3.002   6.131   5.903
 7838TIP3    H223458   2.998   6.282   5.889
 7839TIP3   OH223459   0.150   5.883   3.359
 7839TIP3    H123460   0.194   5.826   3.422
 7839TIP3    H223461   0.123   5.959   3.411
 7840TIP3   OH223462   3.061   6.947   3.189
 7840TIP3    H123463   3.067   6.929   3.095
 7840TIP3    H223464   3.006   7.025   3.194
 7841TIP3   OH223465   3.212   3.225   2.895
 7841TIP3    H123466   3.136   3.237   2.952
 7841TIP3    H223467   3.218   3.131   2.882
 7842TIP3   OH223468   3.193   4.209   4.522
 7842TIP3    H123469   3.267   4.151   4.538
 7842TIP3    H223470   3.216   4.290   4.567
 7843TIP3   OH223471   1.939   2.381   5.886
 7843TIP3    H123472   1.852   2.395   5.850
 7843TIP3    H223473   1.998   2.419   5.822
 7844TIP3   OH223474   3.942   0.662   4.428
 7844TIP3    H123475   3.901   0.748   4.443
 7844TIP3    H223476   4.023   0.664   4.479
 7845TIP3   OH223477   4.176   7.120   0.954
 7845TIP3    H123478   4.252   7.116   1.012
 7845TIP3    H223479   4.102   7.096   1.010
 7846TIP3   OH223480   7.347   0.883   1.636
 7846TIP3    H123481   7.334   0.957   1.695
 7846TIP3    H223482   7.266   0.877   1.587
 7847TIP3   OH223483   4.708   6.554   0.570
 7847TIP3    H123484   4.743   6.471   0.602
 7847TIP3    H223485   4.741   6.561   0.480
 7848TIP3   OH223486   4.620   0.612   1.551
 7848TIP3    H123487   4.549   0.556   1.521
 7848TIP3    H223488   4.578   0.695   1.574
 7849TIP3   OH223489   7.590   0.163   2.044
 7849TIP3    H123490   7.515   0.168   1.984
 7849TIP3    H223491   7.634   0.081   2.019
 7850TIP3   OH223492   3.875   3.311   1.525
 7850TIP3    H123493   3.795   3.314   1.472
 7850TIP3    H223494   3.871   3.389   1.580
 7851TIP3   OH223495   2.429   0.778   4.177
 7851TIP3    H123496   2.353   0.729   4.144
 7851TIP3    H223497   2.505   0.731   4.143
 7852TIP3   OH223498   0.409   5.340   5.652
 7852TIP3    H123499   0.332   5.334   5.595
 7852TIP3    H223500   0.474   5.386   5.600
 7853TIP3   OH223501   0.662   7.347   4.542
 7853TIP3    H123502   0.747   7.375   4.509
 7853TIP3    H223503   0.676   7.259   4.574
 7854TIP3   OH223504   2.654   0.358   4.662
 7854TIP3    H123505   2.687   0.268   4.657
 7854TIP3    H223506   2.723   0.407   4.706
 7855TIP3   OH223507   0.407   5.594   2.849
 7855TIP3    H123508   0.367   5.558   2.770
 7855TIP3    H223509   0.447   5.676   2.821
 7856TIP3   OH223510   1.518   4.310   3.854
 7856TIP3    H123511   1.547   4.323   3.764
 7856TIP3    H223512   1.559   4.229   3.882
 7857TIP3   OH223513   6.273   2.742   3.125
 7857TIP3    H123514   6.296   2.835   3.119
 7857TIP3    H223515   6.357   2.697   3.117
 7858TIP3   OH223516   2.534   5.272   5.009
 7858TIP3    H123517   2.447   5.312   5.013
 7858TIP3    H223518   2.589   5.338   4.966
 7859TIP3   OH223519   5.686   6.497   3.021
 7859TIP3    H123520   5.675   6.418   2.969
 7859TIP3    H223521   5.628   6.486   3.096
 7860TIP3   OH223522   2.216   4.904   5.945
 7860TIP3    H123523   2.172   4.838   5.891
 7860TIP3    H223524   2.152   4.975   5.954
 7861TIP3   OH223525   3.823   5.441   4.170
 7861TIP3    H123526   3.757   5.507   4.193
 7861TIP3    H223527   3.772   5.370   4.132
 7862TIP3   OH223528   6.990   1.888   1.503
 7862TIP3    H123529   6.978   1.947   1.429
 7862TIP3    H223530   7.024   1.807   1.464
 7863TIP3   OH223531   6.915   6.545   4.718
 7863TIP3    H123532   6.962   6.475   4.673
 7863TIP3    H223533   6.961   6.625   4.692
 7864TIP3   OH223534   5.200   6.118   1.339
 7864TIP3    H123535   5.145   6.071   1.276
 7864TIP3    H223536   5.267   6.056   1.364
 7865TIP3   OH223537   3.296   2.118   6.729
 7865TIP3    H123538   3.363   2.161   6.676
 7865TIP3    H223539   3.300   2.026   6.703
 7866TIP3   OH223540   1.318   3.261   6.336
 7866TIP3    H123541   1.358   3.302   6.412
 7866TIP3    H223542   1.276   3.182   6.371
 7867TIP3   OH223543   0.673   2.153   4.076
 7867TIP3    H123544   0.755   2.122   4.114
 7867TIP3    H223545   0.608   2.089   4.105
 7868TIP3   OH223546   3.077   3.386   4.727
 7868TIP3    H123547   3.116   3.300   4.738
 7868TIP3    H223548   3.150   3.447   4.731
 7869TIP3   OH223549   3.047   7.391   3.594
 7869TIP3    H123550   3.060   7.312   3.647
 7869TIP3    H223551   3.004   7.452   3.654
 7870TIP3   OH223552   1.865   5.050   3.530
 7870TIP3    H123553   1.818   5.118   3.482
 7870TIP3    H223554   1.928   5.097   3.584
 7871TIP3   OH223555   7.684   4.874   5.507
 7871TIP3    H123556   7.732   4.877   5.424
 7871TIP3    H223557   7.717   4.796   5.552
 7872TIP3   OH223558   1.462   1.788   3.569
 7872TIP3    H123559   1.531   1.770   3.504
 7872TIP3    H223560   1.385   1.811   3.516
 7873TIP3   OH223561   0.841   5.208   0.148
 7873TIP3    H123562   0.861   5.127   0.101
 7873TIP3    H223563   0.909   5.269   0.121
 7874TIP3   OH223564   3.636   2.090   6.614
 7874TIP3    H123565   3.655   2.182   6.633
 7874TIP3    H223566   3.632   2.086   6.518
 7875TIP3   OH223567   6.354   1.913   1.245
 7875TIP3    H123568   6.309   1.981   1.296
 7875TIP3    H223569   6.352   1.945   1.155
 7876TIP3   OH223570   1.716   2.501   5.195
 7876TIP3    H123571   1.680   2.431   5.249
 7876TIP3    H223572   1.809   2.480   5.188
 7877TIP3   OH223573   4.525   6.918   2.800
 7877TIP3    H123574   4.551   6.828   2.818
 7877TIP3    H223575   4.588   6.972   2.847
 7878TIP3   OH223576   6.401   3.790   5.341
 7878TIP3    H123577   6.471   3.790   5.406
 7878TIP3    H223578   6.397   3.700   5.309
 7879TIP3   OH223579   6.292   2.291   3.748
 7879TIP3    H123580   6.289   2.341   3.830
 7879TIP3    H223581   6.380   2.306   3.714
 7880TIP3   OH223582   3.789   5.423   1.144
 7880TIP3    H123583   3.754   5.503   1.183
 7880TIP3    H223584   3.834   5.379   1.217
 7881TIP3   OH223585   6.938   4.138   6.070
 7881TIP3    H123586   7.006   4.157   6.135
 7881TIP3    H223587   6.964   4.054   6.032
 7882TIP3   OH223588   4.330   6.479   5.685
 7882TIP3    H123589   4.417   6.440   5.691
 7882TIP3    H223590   4.323   6.507   5.593
 7883TIP3   OH223591   0.175   5.557   5.155
 7883TIP3    H123592   0.125   5.516   5.084
 7883TIP3    H223593   0.109   5.592   5.214
 7884TIP3   OH223594   6.375   6.610   6.097
 7884TIP3    H123595   6.467   6.631   6.087
 7884TIP3    H223596   6.353   6.637   6.186
 7885TIP3   OH223597   4.184   1.364   1.814
 7885TIP3    H123598   4.273   1.331   1.827
 7885TIP3    H223599   4.169   1.422   1.888
 7886TIP3   OH223600   3.368   7.492   5.600
 7886TIP3    H123601   3.331   7.406   5.581
 7886TIP3    H223602   3.366   7.538   5.516
 7887TIP3   OH223603   6.135   4.213   1.821
 7887TIP3    H123604   6.176   4.300   1.825
 7887TIP3    H223605   6.194   4.156   1.869
 7888TIP3   OH223606   8.113   5.479   2.392
 7888TIP3    H123607   8.170   5.457   2.319
 7888TIP3    H223608   8.060   5.401   2.406
 7889TIP3   OH223609   6.329   1.384   4.086
 7889TIP3    H123610   6.280   1.319   4.036
 7889TIP3    H223611   6.345   1.342   4.170
 7890TIP3   OH223612   7.739   1.924   3.888
 7890TIP3    H123613   7.694   1.994   3.841
 7890TIP3    H223614   7.676   1.894   3.953
 7891TIP3   OH223615   0.027   1.366   0.049
 7891TIP3    H123616  -0.009   1.452   0.027
 7891TIP3    H223617   0.056   1.374   0.140
 7892TIP3   OH223618   3.077   1.808   1.398
 7892TIP3    H123619   3.026   1.837   1.322
 7892TIP3    H223620   3.073   1.713   1.395
 7893TIP3   OH223621   3.221   6.618   4.993
 7893TIP3    H123622   3.194   6.645   5.081
 7893TIP3    H223623   3.286   6.683   4.968
 7894TIP3   OH223624   3.270   0.265   0.263
 7894TIP3    H123625   3.279   0.178   0.226
 7894TIP3    H223626   3.318   0.322   0.202
 7895TIP3   OH223627   2.014   6.103   2.456
 7895TIP3    H123628   2.075   6.119   2.384
 7895TIP3    H223629   2.000   6.189   2.495
 7896TIP3   OH223630   7.727   1.633   0.305
 7896TIP3    H123631   7.743   1.683   0.225
 7896TIP3    H223632   7.811   1.637   0.352
 7897TIP3   OH223633   2.926   4.720   6.252
 7897TIP3    H123634   2.877   4.724   6.335
 7897TIP3    H223635   2.877   4.776   6.193
 7898TIP3   OH223636   8.275   3.433   3.942
 7898TIP3    H123637   8.357   3.390   3.921
 7898TIP3    H223638   8.241   3.385   4.018
 7899TIP3   OH223639   7.429   0.495   4.215
 7899TIP3    H123640   7.381   0.568   4.177
 7899TIP3    H223641   7.476   0.534   4.289
 7900TIP3   OH223642   5.038   4.354   4.496
 7900TIP3    H123643   5.131   4.330   4.501
 7900TIP3    H223644   5.037   4.449   4.506
 7901TIP3   OH223645   1.229   0.476   4.774
 7901TIP3    H123646   1.156   0.439   4.824
 7901TIP3    H223647   1.197   0.561   4.744
 7902TIP3   OH223648   0.390   0.740   1.556
 7902TIP3    H123649   0.391   0.649   1.584
 7902TIP3    H223650   0.375   0.736   1.462
 7903TIP3   OH223651   6.221   2.912   1.625
 7903TIP3    H123652   6.311   2.886   1.610
 7903TIP3    H223653   6.169   2.834   1.604
 7904TIP3   OH223654   4.322   4.374   2.328
 7904TIP3    H123655   4.314   4.458   2.283
 7904TIP3    H223656   4.232   4.348   2.347
 7905TIP3   OH223657   1.483   1.296   2.253
 7905TIP3    H123658   1.573   1.263   2.249
 7905TIP3    H223659   1.491   1.379   2.301
 7906TIP3   OH223660   2.258   3.405   2.309
 7906TIP3    H123661   2.297   3.484   2.347
 7906TIP3    H223662   2.204   3.437   2.237
 7907TIP3   OH223663   6.135   5.249   1.639
 7907TIP3    H123664   6.051   5.206   1.624
 7907TIP3    H223665   6.148   5.303   1.561
 7908TIP3   OH223666   3.306   0.083   4.832
 7908TIP3    H123667   3.318   0.133   4.751
 7908TIP3    H223668   3.215   0.100   4.858
 7909TIP3   OH223669   5.744   4.917   2.676
 7909TIP3    H123670   5.704   5.000   2.652
 7909TIP3    H223671   5.738   4.914   2.772
 7910TIP3   OH223672   7.836   3.196   5.765
 7910TIP3    H123673   7.819   3.158   5.851
 7910TIP3    H223674   7.788   3.279   5.765
 7911TIP3   OH223675   3.856   2.485   0.547
 7911TIP3    H123676   3.770   2.511   0.578
 7911TIP3    H223677   3.916   2.549   0.585
 7912TIP3   OH223678   4.322   1.528   0.953
 7912TIP3    H123679   4.384   1.587   0.909
 7912TIP3    H223680   4.351   1.440   0.929
 7913TIP3   OH223681   3.173   2.577   3.047
 7913TIP3    H123682   3.122   2.541   2.975
 7913TIP3    H223683   3.256   2.603   3.007
 7914TIP3   OH223684   1.828   0.482   5.222
 7914TIP3    H123685   1.810   0.463   5.130
 7914TIP3    H223686   1.923   0.480   5.229
 7915TIP3   OH223687   5.817   1.222   0.144
 7915TIP3    H123688   5.793   1.301   0.097
 7915TIP3    H223689   5.784   1.236   0.233
 7916TIP3   OH223690   6.536   3.306   1.918
 7916TIP3    H123691   6.540   3.212   1.933
 7916TIP3    H223692   6.453   3.334   1.958
 7917TIP3   OH223693   0.598   6.054   3.776
 7917TIP3    H123694   0.531   6.109   3.736
 7917TIP3    H223695   0.654   6.115   3.823
 7918TIP3   OH223696   3.561   0.232   0.476
 7918TIP3    H123697   3.548   0.139   0.454
 7918TIP3    H223698   3.604   0.230   0.562
 7919TIP3   OH223699   6.715   7.341   1.120
 7919TIP3    H123700   6.766   7.369   1.044
 7919TIP3    H223701   6.650   7.280   1.084
 7920TIP3   OH223702   6.707   4.293   3.615
 7920TIP3    H123703   6.643   4.275   3.685
 7920TIP3    H223704   6.762   4.215   3.613
 7921TIP3   OH223705   1.666   7.674   0.184
 7921TIP3    H123706   1.655   7.766   0.205
 7921TIP3    H223707   1.590   7.653   0.129
 7922TIP3   OH223708   1.674   4.671   4.938
 7922TIP3    H123709   1.718   4.751   4.909
 7922TIP3    H223710   1.597   4.702   4.986
 7923TIP3   OH223711   0.942   0.496   1.981
 7923TIP3    H123712   0.894   0.527   2.058
 7923TIP3    H223713   0.991   0.420   2.013
 7924TIP3   OH223714   5.277   1.143   2.229
 7924TIP3    H123715   5.335   1.133   2.154
 7924TIP3    H223716   5.336   1.141   2.305
 7925TIP3   OH223717   7.570   1.556   5.590
 7925TIP3    H123718   7.664   1.568   5.577
 7925TIP3    H223719   7.540   1.642   5.621
 7926TIP3   OH223720   5.380   4.479   2.040
 7926TIP3    H123721   5.376   4.396   1.992
 7926TIP3    H223722   5.389   4.453   2.131
 7927TIP3   OH223723   4.038   7.087   3.866
 7927TIP3    H123724   4.055   7.135   3.947
 7927TIP3    H223725   3.968   7.026   3.887
 7928TIP3   OH223726   2.820   2.955   4.811
 7928TIP3    H123727   2.726   2.971   4.805
 7928TIP3    H223728   2.828   2.886   4.878
 7929TIP3   OH223729   7.024   1.888   2.168
 7929TIP3    H123730   7.077   1.830   2.113
 7929TIP3    H223731   7.006   1.964   2.113
 7930TIP3   OH223732   5.890   2.096   0.604
 7930TIP3    H123733   5.898   2.006   0.636
 7930TIP3    H223734   5.955   2.102   0.534
 7931TIP3   OH223735   4.024   7.185   5.596
 7931TIP3    H123736   4.060   7.135   5.523
 7931TIP3    H223737   3.955   7.239   5.557
 7932TIP3   OH223738   2.002   4.017   3.401
 7932TIP3    H123739   2.031   3.956   3.469
 7932TIP3    H223740   1.927   4.062   3.439
 7933TIP3   OH223741   3.101   5.801   4.112
 7933TIP3    H123742   3.152   5.790   4.032
 7933TIP3    H223743   3.151   5.756   4.179
 7934TIP3   OH223744   2.557   7.258   0.421
 7934TIP3    H123745   2.552   7.217   0.335
 7934TIP3    H223746   2.617   7.202   0.471
 7935TIP3   OH223747   6.613   6.476   3.632
 7935TIP3    H123748   6.642   6.567   3.642
 7935TIP3    H223749   6.685   6.433   3.586
 7936TIP3   OH223750   3.309   7.215   5.179
 7936TIP3    H123751   3.215   7.215   5.197
 7936TIP3    H223752   3.333   7.123   5.178
 7937TIP3   OH223753   6.805   6.863   2.187
 7937TIP3    H123754   6.834   6.903   2.269
 7937TIP3    H223755   6.879   6.873   2.128
 7938TIP3   OH223756   1.343   0.717   1.127
 7938TIP3    H123757   1.296   0.682   1.202
 7938TIP3    H223758   1.434   0.688   1.140
 7939TIP3   OH223759   2.600   3.812   4.732
 7939TIP3    H123760   2.619   3.903   4.710
 7939TIP3    H223761   2.671   3.787   4.792
 7940TIP3   OH223762   0.332   2.566   2.224
 7940TIP3    H123763   0.247   2.545   2.263
 7940TIP3    H223764   0.346   2.498   2.158
 7941TIP3   OH223765   0.523   6.740   2.524
 7941TIP3    H123766   0.455   6.692   2.476
 7941TIP3    H223767   0.548   6.812   2.466
 7942TIP3   OH223768   5.390   2.169   4.387
 7942TIP3    H123769   5.352   2.081   4.386
 7942TIP3    H223770   5.479   2.157   4.421
 7943TIP3   OH223771   3.707   5.693   0.974
 7943TIP3    H123772   3.661   5.693   1.058
 7943TIP3    H223773   3.671   5.768   0.927
 7944TIP3   OH223774   5.997   3.096   0.851
 7944TIP3    H123775   6.025   3.160   0.916
 7944TIP3    H223776   6.077   3.075   0.802
 7945TIP3   OH223777   3.581   5.726   3.362
 7945TIP3    H123778   3.530   5.704   3.440
 7945TIP3    H223779   3.541   5.806   3.330
 7946TIP3   OH223780   8.047   4.783   1.240
 7946TIP3    H123781   8.084   4.749   1.322
 7946TIP3    H223782   8.077   4.722   1.173
 7947TIP3   OH223783   6.811   5.121   6.037
 7947TIP3    H123784   6.877   5.085   6.096
 7947TIP3    H223785   6.855   5.129   5.953
 7948TIP3   OH223786   0.909   0.826   3.483
 7948TIP3    H123787   0.882   0.917   3.471
 7948TIP3    H223788   0.867   0.798   3.564
 7949TIP3   OH223789   3.137   7.601   4.888
 7949TIP3    H123790   3.177   7.518   4.862
 7949TIP3    H223791   3.112   7.643   4.805
 7950TIP3   OH223792   0.388   2.434   3.885
 7950TIP3    H123793   0.464   2.381   3.909
 7950TIP3    H223794   0.317   2.399   3.938
 7951TIP3   OH223795   0.576   3.895   3.278
 7951TIP3    H123796   0.611   3.818   3.233
 7951TIP3    H223797   0.491   3.867   3.311
 7952TIP3   OH223798   7.112   1.862   4.637
 7952TIP3    H123799   7.085   1.950   4.664
 7952TIP3    H223800   7.042   1.832   4.580
 7953TIP3   OH223801   3.980   6.058   4.086
 7953TIP3    H123802   3.992   5.980   4.032
 7953TIP3    H223803   4.049   6.053   4.153
 7954TIP3   OH223804   2.718   7.204   1.703
 7954TIP3    H123805   2.712   7.112   1.729
 7954TIP3    H223806   2.811   7.219   1.686
 7955TIP3   OH223807   7.973   3.778   4.246
 7955TIP3    H123808   7.928   3.862   4.257
 7955TIP3    H223809   8.022   3.787   4.164
 7956TIP3   OH223810   3.585   4.366   1.015
 7956TIP3    H123811   3.556   4.315   0.940
 7956TIP3    H223812   3.517   4.352   1.081
 7957TIP3   OH223813   4.023   2.606   4.718
 7957TIP3    H123814   4.097   2.665   4.701
 7957TIP3    H223815   3.963   2.622   4.645
 7958TIP3   OH223816   3.019   1.177   5.215
 7958TIP3    H123817   2.991   1.216   5.298
 7958TIP3    H223818   3.101   1.132   5.237
 7959TIP3   OH223819   6.167   1.189   3.368
 7959TIP3    H123820   6.134   1.246   3.437
 7959TIP3    H223821   6.159   1.101   3.403
 7960TIP3   OH223822   6.960   7.404   0.658
 7960TIP3    H123823   6.888   7.464   0.641
 7960TIP3    H223824   6.967   7.400   0.753
 7961TIP3   OH223825   6.025   2.806   3.693
 7961TIP3    H123826   6.112   2.816   3.653
 7961TIP3    H223827   6.005   2.713   3.683
 7962TIP3   OH223828   6.994   7.613   3.673
 7962TIP3    H123829   7.002   7.570   3.758
 7962TIP3    H223830   6.901   7.630   3.662
 7963TIP3   OH223831   5.156   7.225   5.360
 7963TIP3    H123832   5.152   7.136   5.325
 7963TIP3    H223833   5.174   7.281   5.285
 7964TIP3   OH223834   7.356   5.700   5.516
 7964TIP3    H123835   7.330   5.781   5.562
 7964TIP3    H223836   7.431   5.668   5.566
 7965TIP3   OH223837   4.923   6.994   2.851
 7965TIP3    H123838   4.920   6.903   2.821
 7965TIP3    H223839   5.015   7.008   2.874
 7966TIP3   OH223840   0.641   5.493   2.987
 7966TIP3    H123841   0.708   5.518   2.923
 7966TIP3    H223842   0.559   5.526   2.951
 7967TIP3   OH223843   2.613   1.453   0.493
 7967TIP3    H123844   2.598   1.547   0.484
 7967TIP3    H223845   2.528   1.417   0.518
 7968TIP3   OH223846   1.698   2.432   3.458
 7968TIP3    H123847   1.695   2.339   3.437
 7968TIP3    H223848   1.679   2.437   3.552
 7969TIP3   OH223849   7.759   0.141   4.427
 7969TIP3    H123850   7.747   0.091   4.347
 7969TIP3    H223851   7.689   0.112   4.485
 7970TIP3   OH223852   6.254   4.336   0.435
 7970TIP3    H123853   6.239   4.309   0.526
 7970TIP3    H223854   6.190   4.288   0.384
 7971TIP3   OH223855   0.702   2.508   5.309
 7971TIP3    H123856   0.666   2.521   5.397
 7971TIP3    H223857   0.657   2.574   5.256
 7972TIP3   OH223858   7.009   2.411   5.621
 7972TIP3    H123859   7.003   2.352   5.546
 7972TIP3    H223860   6.923   2.454   5.624
 7973TIP3   OH223861   3.873   0.927   0.832
 7973TIP3    H123862   3.835   0.907   0.746
 7973TIP3    H223863   3.857   1.020   0.844
 7974TIP3   OH223864   1.438   2.360   4.179
 7974TIP3    H123865   1.492   2.337   4.254
 7974TIP3    H223866   1.401   2.446   4.202
 7975TIP3   OH223867   5.354   2.762   6.147
 7975TIP3    H123868   5.267   2.743   6.182
 7975TIP3    H223869   5.341   2.837   6.089
 7976TIP3   OH223870   1.953   1.157   0.673
 7976TIP3    H123871   1.944   1.149   0.767
 7976TIP3    H223872   1.864   1.148   0.639
 7977TIP3   OH223873   7.551   5.500   5.586
 7977TIP3    H123874   7.618   5.439   5.556
 7977TIP3    H223875   7.468   5.458   5.563
 7978TIP3   OH223876   4.779   5.837   0.566
 7978TIP3    H123877   4.874   5.849   0.566
 7978TIP3    H223878   4.755   5.831   0.474
 7979TIP3   OH223879   4.821   6.243   0.293
 7979TIP3    H123880   4.814   6.322   0.239
 7979TIP3    H223881   4.751   6.253   0.358
 7980TIP3   OH223882   5.830   3.602   0.564
 7980TIP3    H123883   5.768   3.671   0.541
 7980TIP3    H223884   5.883   3.590   0.485
 7981TIP3   OH223885   8.129   7.265   0.592
 7981TIP3    H123886   8.079   7.264   0.511
 7981TIP3    H223887   8.092   7.193   0.643
 7982TIP3   OH223888   4.879   7.410   2.899
 7982TIP3    H123889   4.951   7.449   2.850
 7982TIP3    H223890   4.904   7.420   2.991
 7983TIP3   OH223891   7.228   6.044   3.104
 7983TIP3    H123892   7.251   6.097   3.180
 7983TIP3    H223893   7.200   5.960   3.140
 7984TIP3   OH223894   2.347   3.733   1.768
 7984TIP3    H123895   2.435   3.707   1.741
 7984TIP3    H223896   2.360   3.783   1.848
 7985TIP3   OH223897   6.880   7.120   1.183
 7985TIP3    H123898   6.856   7.210   1.160
 7985TIP3    H223899   6.970   7.111   1.154
 7986TIP3   OH223900   1.845   5.664   2.993
 7986TIP3    H123901   1.750   5.655   2.990
 7986TIP3    H223902   1.878   5.578   2.967
 7987TIP3   OH223903   6.918   3.698   3.096
 7987TIP3    H123904   7.001   3.687   3.142
 7987TIP3    H223905   6.854   3.709   3.165
 7988TIP3   OH223906   6.057   4.197   2.793
 7988TIP3    H123907   5.989   4.136   2.764
 7988TIP3    H223908   6.012   4.254   2.855
 7989TIP3   OH223909   3.385   7.228   4.916
 7989TIP3    H123910   3.314   7.276   4.872
 7989TIP3    H223911   3.358   7.226   5.008
 7990TIP3   OH223912   7.954   2.780   3.327
 7990TIP3    H123913   7.950   2.693   3.367
 7990TIP3    H223914   7.992   2.766   3.241
 7991TIP3   OH223915   0.012   3.109   1.894
 7991TIP3    H123916   0.001   3.014   1.892
 7991TIP3    H223917   0.095   3.122   1.941
 7992TIP3   OH223918   5.668   4.658   4.563
 7992TIP3    H123919   5.620   4.575   4.569
 7992TIP3    H223920   5.644   4.705   4.643
 7993TIP3   OH223921   2.020   0.665   1.373
 7993TIP3    H123922   2.059   0.696   1.291
 7993TIP3    H223923   1.948   0.609   1.344
 7994TIP3   OH223924   7.960   7.616   5.487
 7994TIP3    H123925   7.919   7.586   5.568
 7994TIP3    H223926   7.892   7.606   5.420
 7995TIP3   OH223927   7.913   1.996   2.956
 7995TIP3    H123928   7.994   1.945   2.953
 7995TIP3    H223929   7.877   1.989   2.867
 7996TIP3   OH223930   3.275   0.299   1.388
 7996TIP3    H123931   3.260   0.302   1.293
 7996TIP3    H223932   3.286   0.390   1.414
 7997TIP3   OH223933   6.577   0.217   2.413
 7997TIP3    H123934   6.528   0.205   2.495
 7997TIP3    H223935   6.564   0.136   2.364
 7998TIP3   OH223936   7.593   0.263   2.993
 7998TIP3    H123937   7.576   0.277   3.086
 7998TIP3    H223938   7.507   0.265   2.952
 7999TIP3   OH223939   2.863   5.115   1.676
 7999TIP3    H123940   2.779   5.108   1.632
 7999TIP3    H223941   2.844   5.161   1.758
 8000TIP3   OH223942   6.557   0.793   3.025
 8000TIP3    H123943   6.556   0.851   2.949
 8000TIP3    H223944   6.519   0.711   2.993
 8001TIP3   OH223945   3.886   7.410   3.088
 8001TIP3    H123946   3.845   7.342   3.141
 8001TIP3    H223947   3.979   7.387   3.088
 8002TIP3   OH223948   1.551   2.455   0.517
 8002TIP3    H123949   1.602   2.413   0.448
 8002TIP3    H223950   1.485   2.390   0.541
 8003TIP3   OH223951   3.099   6.578   5.475
 8003TIP3    H123952   3.079   6.636   5.548
 8003TIP3    H223953   3.154   6.509   5.513
 8004TIP3   OH223954   5.161   4.237   3.597
 8004TIP3    H123955   5.154   4.142   3.586
 8004TIP3    H223956   5.077   4.271   3.566
 8005TIP3   OH223957   6.067   4.621   5.062
 8005TIP3    H123958   6.014   4.700   5.073
 8005TIP3    H223959   6.017   4.553   5.108
 8006TIP3   OH223960   6.446   7.200   2.160
 8006TIP3    H123961   6.441   7.112   2.197
 8006TIP3    H223962   6.475   7.255   2.233
 8007TIP3   OH223963   7.782   1.333   4.634
 8007TIP3    H123964   7.841   1.399   4.599
 8007TIP3    H223965   7.697   1.353   4.595
 8008TIP3   OH223966   5.708   6.373   4.620
 8008TIP3    H123967   5.791   6.359   4.575
 8008TIP3    H223968   5.686   6.287   4.657
 8009TIP3   OH223969   4.003   1.233   5.063
 8009TIP3    H123970   3.996   1.189   4.978
 8009TIP3    H223971   4.089   1.207   5.097
 8010TIP3   OH223972   7.658   0.514   4.577
 8010TIP3    H123973   7.652   0.435   4.630
 8010TIP3    H223974   7.700   0.486   4.495
 8011TIP3   OH223975   4.664   3.255   2.350
 8011TIP3    H123976   4.680   3.330   2.407
 8011TIP3    H223977   4.750   3.229   2.318
 8012TIP3   OH223978   4.135   1.102   1.605
 8012TIP3    H123979   4.220   1.083   1.645
 8012TIP3    H223980   4.075   1.040   1.647
 8013TIP3   OH223981   1.445   0.410   4.936
 8013TIP3    H123982   1.458   0.340   4.871
 8013TIP3    H223983   1.382   0.469   4.894
 8014TIP3   OH223984   2.709   2.327   5.587
 8014TIP3    H123985   2.632   2.336   5.530
 8014TIP3    H223986   2.683   2.372   5.668
 8015TIP3   OH223987   5.714   0.937   4.437
 8015TIP3    H123988   5.652   1.009   4.453
 8015TIP3    H223989   5.661   0.858   4.446
 8016TIP3   OH223990   7.426   0.155   3.244
 8016TIP3    H123991   7.375   0.121   3.171
 8016TIP3    H223992   7.396   0.245   3.256
 8017TIP3   OH223993   5.350   7.433   1.713
 8017TIP3    H123994   5.360   7.479   1.796
 8017TIP3    H223995   5.275   7.475   1.671
 8018TIP3   OH223996   2.390   7.683   5.558
 8018TIP3    H123997   2.376   7.773   5.587
 8018TIP3    H223998   2.320   7.668   5.494
 8019TIP3   OH223999   5.833   0.641   4.857
 8019TIP3    H124000   5.786   0.707   4.909
 8019TIP3    H224001   5.814   0.558   4.902
 8020TIP3   OH224002   6.741   5.973   3.205
 8020TIP3    H124003   6.738   6.027   3.126
 8020TIP3    H224004   6.760   5.885   3.173
 8021TIP3   OH224005   2.818   7.522   1.022
 8021TIP3    H124006   2.849   7.439   0.986
 8021TIP3    H224007   2.885   7.586   0.996
 8022TIP3   OH224008   7.685   3.119   0.453
 8022TIP3    H124009   7.707   3.091   0.364
 8022TIP3    H224010   7.770   3.131   0.496
 8023TIP3   OH224011   5.092   0.443   4.209
 8023TIP3    H124012   5.105   0.351   4.185
 8023TIP3    H224013   5.047   0.481   4.133
 8024TIP3   OH224014   5.767   0.609   0.028
 8024TIP3    H124015   5.848   0.580  -0.015
 8024TIP3    H224016   5.737   0.534   0.079
 8025TIP3   OH224017   3.693   2.666   5.480
 8025TIP3    H124018   3.639   2.739   5.452
 8025TIP3    H224019   3.745   2.643   5.403
 8026TIP3   OH224020   2.399   0.141   1.397
 8026TIP3    H124021   2.339   0.207   1.432
 8026TIP3    H224022   2.468   0.133   1.462
 8027TIP3   OH224023   0.851   4.733   5.561
 8027TIP3    H124024   0.792   4.725   5.636
 8027TIP3    H224025   0.804   4.790   5.500
 8028TIP3   OH224026   3.722   2.336   4.726
 8028TIP3    H124027   3.675   2.412   4.691
 8028TIP3    H224028   3.690   2.328   4.816
 8029TIP3   OH224029   2.192   2.813   4.954
 8029TIP3    H124030   2.140   2.741   4.919
 8029TIP3    H224031   2.281   2.794   4.924
 8030TIP3   OH224032   1.515   0.211   3.285
 8030TIP3    H124033   1.545   0.128   3.322
 8030TIP3    H224034   1.451   0.185   3.218
 8031TIP3   OH224035   2.291   4.212   3.005
 8031TIP3    H124036   2.232   4.229   2.932
 8031TIP3    H224037   2.234   4.205   3.082
 8032TIP3   OH224038   7.895   7.431   4.315
 8032TIP3    H124039   7.811   7.475   4.300
 8032TIP3    H224040   7.952   7.463   4.246
 8033TIP3   OH224041   4.623   3.952   6.748
 8033TIP3    H124042   4.535   3.917   6.765
 8033TIP3    H224043   4.680   3.875   6.753
 8034TIP3   OH224044   5.282   0.920   5.871
 8034TIP3    H124045   5.314   0.830   5.867
 8034TIP3    H224046   5.187   0.911   5.878
 8035TIP3   OH224047   5.562   0.978   0.245
 8035TIP3    H124048   5.579   1.060   0.198
 8035TIP3    H224049   5.645   0.930   0.241
 8036TIP3   OH224050   6.105   6.667   6.496
 8036TIP3    H124051   6.073   6.645   6.409
 8036TIP3    H224052   6.100   6.585   6.545
 8037TIP3   OH224053   4.690   5.048   1.408
 8037TIP3    H124054   4.726   5.063   1.495
 8037TIP3    H224055   4.627   5.119   1.395
 8038TIP3   OH224056   1.965   6.104   3.864
 8038TIP3    H124057   2.030   6.173   3.876
 8038TIP3    H224058   1.931   6.088   3.952
 8039TIP3   OH224059   4.525   6.240   1.758
 8039TIP3    H124060   4.495   6.308   1.818
 8039TIP3    H224061   4.570   6.287   1.688
 8040TIP3   OH224062   5.099   2.961   4.106
 8040TIP3    H124063   5.178   2.930   4.062
 8040TIP3    H224064   5.042   2.990   4.034
 8041TIP3   OH224065   7.917   6.156   2.970
 8041TIP3    H124066   7.986   6.206   3.014
 8041TIP3    H224067   7.836   6.195   3.002
 8042TIP3   OH224068   6.187   3.514   2.883
 8042TIP3    H124069   6.134   3.531   2.961
 8042TIP3    H224070   6.174   3.590   2.827
 8043TIP3   OH224071   1.470   5.228   5.824
 8043TIP3    H124072   1.434   5.298   5.769
 8043TIP3    H224073   1.565   5.236   5.812
 8044TIP3   OH224074   1.508   6.311   4.089
 8044TIP3    H124075   1.568   6.310   4.164
 8044TIP3    H224076   1.509   6.402   4.059
 8045TIP3   OH224077   1.989   3.651   3.887
 8045TIP3    H124078   1.988   3.560   3.857
 8045TIP3    H224079   2.081   3.677   3.883
 8046TIP3   OH224080   2.817   3.853   6.506
 8046TIP3    H124081   2.841   3.775   6.457
 8046TIP3    H224082   2.735   3.882   6.466
 8047TIP3   OH224083   5.067   5.087   5.242
 8047TIP3    H124084   5.102   5.094   5.153
 8047TIP3    H224085   4.994   5.150   5.243
 8048TIP3   OH224086   7.304   3.773   3.667
 8048TIP3    H124087   7.275   3.804   3.581
 8048TIP3    H224088   7.387   3.730   3.650
 8049TIP3   OH224089   4.543   2.317   5.692
 8049TIP3    H124090   4.635   2.298   5.710
 8049TIP3    H224091   4.534   2.304   5.598
 8050TIP3   OH224092   0.577   5.475   6.376
 8050TIP3    H124093   0.644   5.541   6.359
 8050TIP3    H224094   0.509   5.493   6.311
 8051TIP3   OH224095   4.706   1.600   5.869
 8051TIP3    H124096   4.635   1.538   5.854
 8051TIP3    H224097   4.710   1.652   5.789
 8052TIP3   OH224098   3.318   3.609   5.614
 8052TIP3    H124099   3.234   3.644   5.642
 8052TIP3    H224100   3.330   3.529   5.665
 8053TIP3   OH224101   4.012   5.326   6.509
 8053TIP3    H124102   4.029   5.233   6.526
 8053TIP3    H224103   3.926   5.342   6.547
 8054TIP3   OH224104   2.515   2.867   0.303
 8054TIP3    H124105   2.582   2.926   0.339
 8054TIP3    H224106   2.433   2.913   0.315
 8055TIP3   OH224107   2.121   6.846   6.577
 8055TIP3    H124108   2.087   6.762   6.609
 8055TIP3    H224109   2.200   6.861   6.628
 8056TIP3   OH224110   3.612   6.922   5.235
 8056TIP3    H124111   3.641   6.928   5.144
 8056TIP3    H224112   3.693   6.929   5.286
 8057TIP3   OH224113   1.243   4.420   5.104
 8057TIP3    H124114   1.182   4.465   5.046
 8057TIP3    H224115   1.325   4.417   5.055
 8058TIP3   OH224116   4.744   0.073   5.647
 8058TIP3    H124117   4.767   0.126   5.571
 8058TIP3    H224118   4.746  -0.017   5.616
 8059TIP3   OH224119   2.824   2.918   3.316
 8059TIP3    H124120   2.784   2.831   3.323
 8059TIP3    H224121   2.763   2.976   3.362
 8060TIP3   OH224122   0.946   3.622   1.448
 8060TIP3    H124123   0.962   3.598   1.539
 8060TIP3    H224124   1.022   3.590   1.400
 8061TIP3   OH224125   6.430   1.110   5.763
 8061TIP3    H124126   6.462   1.085   5.676
 8061TIP3    H224127   6.380   1.190   5.748
 8062TIP3   OH224128   6.524   3.653   5.809
 8062TIP3    H124129   6.525   3.569   5.855
 8062TIP3    H224130   6.544   3.717   5.876
 8063TIP3   OH224131   2.377   0.637   2.708
 8063TIP3    H124132   2.293   0.595   2.690
 8063TIP3    H224133   2.363   0.729   2.690
 8064TIP3   OH224134   8.285   5.458   4.979
 8064TIP3    H124135   8.253   5.548   4.973
 8064TIP3    H224136   8.233   5.409   4.916
 8065TIP3   OH224137   5.201   2.511   5.269
 8065TIP3    H124138   5.156   2.494   5.186
 8065TIP3    H224139   5.133   2.546   5.327
 8066TIP3   OH224140   5.001   5.506   6.383
 8066TIP3    H124141   5.048   5.571   6.331
 8066TIP3    H224142   5.014   5.534   6.473
 8067TIP3   OH224143   6.234   1.634   0.459
 8067TIP3    H124144   6.198   1.620   0.371
 8067TIP3    H224145   6.163   1.675   0.508
 8068TIP3   OH224146   0.593   4.002   5.851
 8068TIP3    H124147   0.683   4.024   5.827
 8068TIP3    H224148   0.541   4.075   5.817
 8069TIP3   OH224149   7.006   7.417   6.199
 8069TIP3    H124150   6.979   7.500   6.238
 8069TIP3    H224151   7.097   7.430   6.174
 8070TIP3   OH224152   1.342   1.340   5.186
 8070TIP3    H124153   1.408   1.370   5.248
 8070TIP3    H224154   1.350   1.245   5.185
 8071TIP3   OH224155   3.410   6.836   2.727
 8071TIP3    H124156   3.498   6.808   2.702
 8071TIP3    H224157   3.365   6.755   2.752
 8072TIP3   OH224158   7.691   3.564   2.256
 8072TIP3    H124159   7.670   3.612   2.336
 8072TIP3    H224160   7.613   3.511   2.238
 8073TIP3   OH224161   7.445   6.941   3.786
 8073TIP3    H124162   7.369   6.969   3.735
 8073TIP3    H224163   7.428   6.849   3.805
 8074TIP3   OH224164   0.317   5.772   2.538
 8074TIP3    H124165   0.347   5.687   2.570
 8074TIP3    H224166   0.397   5.824   2.528
 8075TIP3   OH224167   5.977   3.706   0.796
 8075TIP3    H124168   5.881   3.700   0.794
 8075TIP3    H224169   6.004   3.696   0.705
 8076TIP3   OH224170   3.236   3.585   3.340
 8076TIP3    H124171   3.255   3.506   3.288
 8076TIP3    H224172   3.321   3.610   3.376
 8077TIP3   OH224173   3.639   5.609   6.270
 8077TIP3    H124174   3.719   5.573   6.306
 8077TIP3    H224175   3.647   5.704   6.281
 8078TIP3   OH224176   4.036   3.100   1.431
 8078TIP3    H124177   4.125   3.106   1.465
 8078TIP3    H224178   3.994   3.181   1.460
 8079TIP3   OH224179   3.326   0.306   1.704
 8079TIP3    H124180   3.302   0.399   1.704
 8079TIP3    H224181   3.286   0.271   1.783
 8080TIP3   OH224182   2.737   6.448   0.753
 8080TIP3    H124183   2.725   6.542   0.745
 8080TIP3    H224184   2.651   6.411   0.735
 8081TIP3   OH224185   7.773   4.371   6.707
 8081TIP3    H124186   7.731   4.361   6.792
 8081TIP3    H224187   7.725   4.311   6.649
 8082TIP3   OH224188   7.925   5.567   3.361
 8082TIP3    H124189   7.980   5.512   3.305
 8082TIP3    H224190   7.850   5.511   3.383
 8083TIP3   OH224191   7.609   3.247   5.534
 8083TIP3    H124192   7.602   3.341   5.549
 8083TIP3    H224193   7.551   3.230   5.459
 8084TIP3   OH224194   6.220   0.739   0.181
 8084TIP3    H124195   6.229   0.682   0.105
 8084TIP3    H224196   6.302   0.787   0.185
 8085TIP3   OH224197   8.261   7.355   5.377
 8085TIP3    H124198   8.240   7.404   5.456
 8085TIP3    H224199   8.209   7.274   5.384
 8086TIP3   OH224200   2.105   4.438   5.990
 8086TIP3    H124201   2.172   4.416   5.925
 8086TIP3    H224202   2.059   4.355   6.006
 8087TIP3   OH224203   8.081   1.185   0.073
 8087TIP3    H124204   8.151   1.173   0.137
 8087TIP3    H224205   8.121   1.158  -0.010
 8088TIP3   OH224206   3.146   6.264   0.279
 8088TIP3    H124207   3.111   6.175   0.277
 8088TIP3    H224208   3.236   6.255   0.249
 8089TIP3   OH224209   3.318   4.205   4.924
 8089TIP3    H124210   3.244   4.144   4.920
 8089TIP3    H224211   3.364   4.182   5.005
 8090TIP3   OH224212   3.390   6.360   4.469
 8090TIP3    H124213   3.345   6.427   4.417
 8090TIP3    H224214   3.469   6.339   4.419
 8091TIP3   OH224215   7.052   0.597   0.597
 8091TIP3    H124216   7.014   0.519   0.636
 8091TIP3    H224217   7.068   0.656   0.671
 8092TIP3   OH224218   4.453   5.196   2.249
 8092TIP3    H124219   4.389   5.266   2.250
 8092TIP3    H224220   4.538   5.241   2.250
 8093TIP3   OH224221   0.615   4.563   5.337
 8093TIP3    H124222   0.592   4.627   5.404
 8093TIP3    H224223   0.610   4.613   5.255
 8094TIP3   OH224224   6.504   3.397   5.947
 8094TIP3    H124225   6.582   3.415   5.998
 8094TIP3    H224226   6.533   3.337   5.879
 8095TIP3   OH224227   7.237   2.556   3.597
 8095TIP3    H124228   7.215   2.646   3.574
 8095TIP3    H224229   7.166   2.503   3.560
 8096TIP3   OH224230   2.416   7.752   0.840
 8096TIP3    H124231   2.488   7.797   0.795
 8096TIP3    H224232   2.386   7.686   0.777
 8097TIP3   OH224233   1.844   2.281   4.718
 8097TIP3    H124234   1.839   2.264   4.624
 8097TIP3    H224235   1.892   2.207   4.754
 8098TIP3   OH224236   7.729   7.594   5.355
 8098TIP3    H124237   7.706   7.681   5.386
 8098TIP3    H224238   7.692   7.590   5.267
 8099TIP3   OH224239   6.934   5.355   5.248
 8099TIP3    H124240   7.009   5.360   5.308
 8099TIP3    H224241   6.897   5.268   5.264
 8100TIP3   OH224242   3.265   1.894   4.941
 8100TIP3    H124243   3.258   1.804   4.972
 8100TIP3    H224244   3.238   1.948   5.015
 8101TIP3   OH224245   5.881   2.214   1.132
 8101TIP3    H124246   5.930   2.145   1.177
 8101TIP3    H224247   5.845   2.172   1.054
 8102TIP3   OH224248   3.554   1.374   2.367
 8102TIP3    H124249   3.500   1.296   2.350
 8102TIP3    H224250   3.579   1.406   2.280
 8103TIP3   OH224251   6.049   6.030   4.057
 8103TIP3    H124252   6.069   5.936   4.053
 8103TIP3    H224253   6.128   6.070   4.091
 8104TIP3   OH224254   3.740   0.917   0.195
 8104TIP3    H124255   3.689   0.901   0.116
 8104TIP3    H224256   3.725   0.839   0.249
 8105TIP3   OH224257   3.214   6.878   2.462
 8105TIP3    H124258   3.210   6.840   2.550
 8105TIP3    H224259   3.207   6.804   2.403
 8106TIP3   OH224260   6.524   6.189   3.811
 8106TIP3    H124261   6.619   6.191   3.804
 8106TIP3    H224262   6.497   6.118   3.753
 8107TIP3   OH224263   5.608   5.961   3.254
 8107TIP3    H124264   5.603   5.866   3.245
 8107TIP3    H224265   5.701   5.980   3.260
 8108TIP3   OH224266   4.411   4.379   1.894
 8108TIP3    H124267   4.420   4.449   1.830
 8108TIP3    H224268   4.449   4.415   1.974
 8109TIP3   OH224269   3.577   2.588   4.710
 8109TIP3    H124270   3.636   2.653   4.670
 8109TIP3    H224271   3.500   2.639   4.736
 8110TIP3   OH224272   7.254   6.692   1.929
 8110TIP3    H124273   7.345   6.669   1.912
 8110TIP3    H224274   7.217   6.713   1.844
 8111TIP3   OH224275   5.917   3.785   0.235
 8111TIP3    H124276   5.964   3.835   0.302
 8111TIP3    H224277   5.907   3.698   0.273
 8112TIP3   OH224278   5.835   3.279   4.213
 8112TIP3    H124279   5.835   3.240   4.300
 8112TIP3    H224280   5.849   3.206   4.154
 8113TIP3   OH224281   7.753   1.085   2.958
 8113TIP3    H124282   7.775   1.178   2.968
 8113TIP3    H224283   7.832   1.046   2.920
 8114TIP3   OH224284   6.366   5.374   6.406
 8114TIP3    H124285   6.291   5.328   6.443
 8114TIP3    H224286   6.424   5.305   6.374
 8115TIP3   OH224287   0.108   3.487   3.272
 8115TIP3    H124288   0.044   3.441   3.218
 8115TIP3    H224289   0.058   3.558   3.313
 8116TIP3   OH224290   6.339   6.244   5.288
 8116TIP3    H124291   6.383   6.285   5.362
 8116TIP3    H224292   6.289   6.172   5.326
 8117TIP3   OH224293   4.781   2.085   6.639
 8117TIP3    H124294   4.742   2.167   6.668
 8117TIP3    H224295   4.710   2.021   6.644
 8118TIP3   OH224296   3.110   6.928   4.320
 8118TIP3    H124297   3.039   6.882   4.364
 8118TIP3    H224298   3.122   7.008   4.371
 8119TIP3   OH224299   2.615   2.050   5.937
 8119TIP3    H124300   2.587   2.005   5.857
 8119TIP3    H224301   2.533   2.077   5.979
 8120TIP3   OH224302   3.454   5.488   6.096
 8120TIP3    H124303   3.510   5.547   6.146
 8120TIP3    H224304   3.431   5.538   6.018
 8121TIP3   OH224305   0.409   0.570   6.319
 8121TIP3    H124306   0.391   0.496   6.261
 8121TIP3    H224307   0.406   0.646   6.262
 8122TIP3   OH224308   3.499   1.403   1.057
 8122TIP3    H124309   3.543   1.487   1.044
 8122TIP3    H224310   3.475   1.376   0.968
 8123TIP3   OH224311   1.014   6.512   6.169
 8123TIP3    H124312   1.056   6.496   6.084
 8123TIP3    H224313   1.067   6.580   6.210
 8124TIP3   OH224314   4.163   7.396   5.347
 8124TIP3    H124315   4.183   7.438   5.264
 8124TIP3    H224316   4.069   7.412   5.360
 8125TIP3   OH224317   4.751   3.992   6.325
 8125TIP3    H124318   4.741   4.083   6.351
 8125TIP3    H224319   4.788   3.949   6.402
 8126TIP3   OH224320   6.946   4.212   1.881
 8126TIP3    H124321   6.981   4.289   1.925
 8126TIP3    H224322   6.854   4.208   1.909
 8127TIP3   OH224323   3.906   0.826   0.524
 8127TIP3    H124324   3.987   0.777   0.538
 8127TIP3    H224325   3.852   0.767   0.471
 8128TIP3   OH224326   2.863   6.294   0.105
 8128TIP3    H124327   2.808   6.216   0.108
 8128TIP3    H224328   2.944   6.268   0.148
 8129TIP3   OH224329   3.854   0.688   4.722
 8129TIP3    H124330   3.833   0.708   4.631
 8129TIP3    H224331   3.777   0.719   4.771
 8130TIP3   OH224332   2.682   3.790   0.144
 8130TIP3    H124333   2.633   3.841   0.209
 8130TIP3    H224334   2.668   3.836   0.062
 8131TIP3   OH224335   0.723   2.318   5.623
 8131TIP3    H124336   0.642   2.361   5.649
 8131TIP3    H224337   0.719   2.232   5.664
 8132TIP3   OH224338   4.383   6.752   6.785
 8132TIP3    H124339   4.407   6.744   6.693
 8132TIP3    H224340   4.323   6.827   6.788
 8133TIP3   OH224341   1.955   5.813   5.391
 8133TIP3    H124342   1.924   5.733   5.350
 8133TIP3    H224343   1.916   5.811   5.479
 8134TIP3   OH224344   5.325   6.419   1.706
 8134TIP3    H124345   5.349   6.508   1.679
 8134TIP3    H224346   5.409   6.375   1.720
 8135TIP3   OH224347   0.180   0.958   2.958
 8135TIP3    H124348   0.134   0.966   2.874
 8135TIP3    H224349   0.270   0.984   2.939
 8136TIP3   OH224350   3.878   4.229   0.108
 8136TIP3    H124351   3.949   4.168   0.125
 8136TIP3    H224352   3.836   4.242   0.193
 8137TIP3   OH224353   7.660   3.539   3.133
 8137TIP3    H124354   7.582   3.558   3.185
 8137TIP3    H224355   7.698   3.625   3.115
 8138TIP3   OH224356   2.382   4.662   4.267
 8138TIP3    H124357   2.412   4.735   4.213
 8138TIP3    H224358   2.287   4.661   4.256
 8139TIP3   OH224359   6.163   6.427   6.677
 8139TIP3    H124360   6.220   6.492   6.718
 8139TIP3    H224361   6.221   6.371   6.627
 8140TIP3   OH224362   0.519   6.067   3.273
 8140TIP3    H124363   0.448   6.012   3.241
 8140TIP3    H224364   0.518   6.143   3.214
 8141TIP3   OH224365   1.212   3.852   0.938
 8141TIP3    H124366   1.204   3.942   0.906
 8141TIP3    H224367   1.160   3.850   1.018
 8142TIP3   OH224368   3.385   1.078   3.863
 8142TIP3    H124369   3.449   1.138   3.824
 8142TIP3    H224370   3.368   1.014   3.794
 8143TIP3   OH224371   3.104   3.119   2.011
 8143TIP3    H124372   3.119   3.210   2.038
 8143TIP3    H224373   3.166   3.105   1.939
 8144TIP3   OH224374   6.298   7.459   5.587
 8144TIP3    H124375   6.240   7.518   5.539
 8144TIP3    H224376   6.354   7.420   5.520
 8145TIP3   OH224377   5.972   2.230   4.958
 8145TIP3    H124378   5.995   2.142   4.928
 8145TIP3    H224379   5.878   2.225   4.977
 8146TIP3   OH224380   1.397   3.931   0.319
 8146TIP3    H124381   1.402   3.976   0.235
 8146TIP3    H224382   1.359   3.997   0.378
 8147TIP3   OH224383   5.315   4.805   4.576
 8147TIP3    H124384   5.247   4.853   4.623
 8147TIP3    H224385   5.364   4.873   4.529
 8148TIP3   OH224386   0.752   7.204   3.157
 8148TIP3    H124387   0.701   7.225   3.078
 8148TIP3    H224388   0.687   7.173   3.220
 8149TIP3   OH224389   0.293   5.167   3.631
 8149TIP3    H124390   0.319   5.101   3.567
 8149TIP3    H224391   0.364   5.168   3.695
 8150TIP3   OH224392   5.689   2.435   6.335
 8150TIP3    H124393   5.599   2.426   6.303
 8150TIP3    H224394   5.704   2.529   6.340
 8151TIP3   OH224395   5.548   1.604   2.977
 8151TIP3    H124396   5.495   1.558   3.042
 8151TIP3    H224397   5.531   1.697   2.993
 8152TIP3   OH224398   4.688   5.979   6.371
 8152TIP3    H124399   4.742   5.922   6.316
 8152TIP3    H224400   4.643   5.919   6.431
 8153TIP3   OH224401   6.777   6.143   3.880
 8153TIP3    H124402   6.856   6.189   3.908
 8153TIP3    H224403   6.730   6.126   3.962
 8154TIP3   OH224404   6.883   2.726   1.345
 8154TIP3    H124405   6.830   2.693   1.417
 8154TIP3    H224406   6.845   2.811   1.324
 8155TIP3   OH224407   5.966   2.126   5.717
 8155TIP3    H124408   5.888   2.183   5.717
 8155TIP3    H224409   5.951   2.066   5.790
 8156TIP3   OH224410   2.881   5.621   4.055
 8156TIP3    H124411   2.895   5.553   4.120
 8156TIP3    H224412   2.945   5.689   4.078
 8157TIP3   OH224413   3.914   4.709   5.525
 8157TIP3    H124414   3.995   4.759   5.513
 8157TIP3    H224415   3.847   4.776   5.542
 8158TIP3   OH224416   3.267   1.850   2.677
 8158TIP3    H124417   3.192   1.893   2.634
 8158TIP3    H224418   3.314   1.922   2.719
 8159TIP3   OH224419   4.399   0.383   4.479
 8159TIP3    H124420   4.374   0.427   4.561
 8159TIP3    H224421   4.321   0.392   4.424
 8160TIP3   OH224422   2.240   6.181   2.235
 8160TIP3    H124423   2.281   6.124   2.170
 8160TIP3    H224424   2.314   6.216   2.285
 8161TIP3   OH224425   6.430   4.228   3.774
 8161TIP3    H124426   6.416   4.309   3.823
 8161TIP3    H224427   6.348   4.180   3.783
 8162TIP3   OH224428   5.520   0.526   2.723
 8162TIP3    H124429   5.445   0.582   2.738
 8162TIP3    H224430   5.596   0.579   2.748
 8163TIP3   OH224431   4.548   7.445   4.049
 8163TIP3    H124432   4.461   7.426   4.014
 8163TIP3    H224433   4.604   7.452   3.971
 8164TIP3   OH224434   5.671   1.671   6.574
 8164TIP3    H124435   5.708   1.586   6.600
 8164TIP3    H224436   5.747   1.724   6.552
 8165TIP3   OH224437   0.840   1.306   3.202
 8165TIP3    H124438   0.782   1.322   3.277
 8165TIP3    H224439   0.780   1.291   3.129
 8166TIP3   OH224440   1.106   7.114   1.006
 8166TIP3    H124441   1.171   7.077   0.947
 8166TIP3    H224442   1.130   7.206   1.015
 8167TIP3   OH224443   7.999   0.517   5.151
 8167TIP3    H124444   7.973   0.592   5.204
 8167TIP3    H224445   8.093   0.507   5.167
 8168TIP3   OH224446   4.970   1.034   4.462
 8168TIP3    H124447   4.909   1.055   4.392
 8168TIP3    H224448   5.039   0.983   4.420
 8169TIP3   OH224449   3.565   2.479   0.580
 8169TIP3    H124450   3.511   2.411   0.540
 8169TIP3    H224451   3.506   2.553   0.591
 8170TIP3   OH224452   4.378   5.997   3.452
 8170TIP3    H124453   4.295   5.966   3.489
 8170TIP3    H224454   4.418   6.049   3.522
 8171TIP3   OH224455   8.217   2.299   1.457
 8171TIP3    H124456   8.188   2.340   1.539
 8171TIP3    H224457   8.246   2.372   1.403
 8172TIP3   OH224458   7.330   6.326   6.615
 8172TIP3    H124459   7.413   6.284   6.637
 8172TIP3    H224460   7.296   6.357   6.699
 8173TIP3   OH224461   7.511   1.533   3.247
 8173TIP3    H124462   7.596   1.538   3.204
 8173TIP3    H224463   7.482   1.443   3.233
 8174TIP3   OH224464   7.535   0.396   0.763
 8174TIP3    H124465   7.460   0.400   0.822
 8174TIP3    H224466   7.603   0.351   0.813
 8175TIP3   OH224467   3.188   2.193   0.631
 8175TIP3    H124468   3.275   2.155   0.640
 8175TIP3    H224469   3.201   2.269   0.574
 8176TIP3   OH224470   7.227   4.640   6.331
 8176TIP3    H124471   7.202   4.614   6.242
 8176TIP3    H224472   7.263   4.560   6.370
 8177TIP3   OH224473   2.518   0.376   3.423
 8177TIP3    H124474   2.455   0.312   3.456
 8177TIP3    H224475   2.595   0.324   3.400
 8178TIP3   OH224476   3.453   6.724   2.277
 8178TIP3    H124477   3.477   6.718   2.184
 8178TIP3    H224478   3.369   6.680   2.283
 8179TIP3   OH224479   3.605   0.492  -0.005
 8179TIP3    H124480   3.599   0.429   0.067
 8179TIP3    H224481   3.515   0.521  -0.020
 8180TIP3   OH224482   7.845   7.355   0.068
 8180TIP3    H124483   7.778   7.310   0.016
 8180TIP3    H224484   7.800   7.380   0.148
 8181TIP3   OH224485   5.284   1.793   2.918
 8181TIP3    H124486   5.216   1.853   2.889
 8181TIP3    H224487   5.293   1.730   2.845
 8182TIP3   OH224488   1.940   0.746   0.795
 8182TIP3    H124489   1.868   0.685   0.810
 8182TIP3    H224490   1.945   0.753   0.699
 8183TIP3   OH224491   0.675   2.926   1.100
 8183TIP3    H124492   0.738   2.914   1.171
 8183TIP3    H224493   0.590   2.909   1.141
 8184TIP3   OH224494   4.552   3.323   6.333
 8184TIP3    H124495   4.556   3.339   6.239
 8184TIP3    H224496   4.545   3.227   6.341
 8185TIP3   OH224497   3.805   0.606   5.671
 8185TIP3    H124498   3.749   0.682   5.655
 8185TIP3    H224499   3.806   0.595   5.766
 8186TIP3   OH224500   4.649   5.893   0.797
 8186TIP3    H124501   4.711   5.938   0.855
 8186TIP3    H224502   4.694   5.891   0.713
 8187TIP3   OH224503   5.736   1.904   1.262
 8187TIP3    H124504   5.826   1.911   1.232
 8187TIP3    H224505   5.739   1.843   1.335
 8188TIP3   OH224506   2.074   6.860   3.359
 8188TIP3    H124507   2.093   6.931   3.298
 8188TIP3    H224508   2.058   6.784   3.304
 8189TIP3   OH224509   1.368   7.610   5.174
 8189TIP3    H124510   1.458   7.633   5.197
 8189TIP3    H224511   1.319   7.693   5.182
 8190TIP3   OH224512   6.324   0.969   2.343
 8190TIP3    H124513   6.339   0.987   2.436
 8190TIP3    H224514   6.367   1.042   2.298
 8191TIP3   OH224515   5.725   3.118   0.057
 8191TIP3    H124516   5.754   3.032   0.086
 8191TIP3    H224517   5.782   3.139  -0.017
 8192TIP3   OH224518   6.597   2.533   4.667
 8192TIP3    H124519   6.627   2.478   4.740
 8192TIP3    H224520   6.670   2.534   4.606
 8193TIP3   OH224521   0.809   5.080   4.731
 8193TIP3    H124522   0.851   5.148   4.677
 8193TIP3    H224523   0.724   5.067   4.690
 8194TIP3   OH224524   0.526   5.298   6.606
 8194TIP3    H124525   0.565   5.344   6.532
 8194TIP3    H224526   0.432   5.304   6.591
 8195TIP3   OH224527   5.187   6.823   6.545
 8195TIP3    H124528   5.171   6.833   6.639
 8195TIP3    H224529   5.119   6.876   6.503
 8196TIP3   OH224530   2.434   3.484   3.835
 8196TIP3    H124531   2.444   3.553   3.769
 8196TIP3    H224532   2.464   3.524   3.917
 8197TIP3   OH224533   4.522   3.214   0.257
 8197TIP3    H124534   4.562   3.139   0.301
 8197TIP3    H224535   4.525   3.191   0.164
 8198TIP3   OH224536   0.852   5.489   1.759
 8198TIP3    H124537   0.906   5.423   1.801
 8198TIP3    H224538   0.906   5.568   1.757
 8199TIP3   OH224539   2.502   3.813   4.469
 8199TIP3    H124540   2.533   3.820   4.559
 8199TIP3    H224541   2.408   3.834   4.475
 8200TIP3   OH224542   2.103   6.666   2.498
 8200TIP3    H124543   2.131   6.575   2.508
 8200TIP3    H224544   2.063   6.689   2.582
 8201TIP3   OH224545   1.657   6.065   1.439
 8201TIP3    H124546   1.563   6.058   1.460
 8201TIP3    H224547   1.695   6.104   1.517
 8202TIP3   OH224548   6.006   1.535   5.554
 8202TIP3    H124549   5.959   1.503   5.477
 8202TIP3    H224550   5.997   1.466   5.619
 8203TIP3   OH224551   0.875   4.003   6.152
 8203TIP3    H124552   0.877   4.083   6.205
 8203TIP3    H224553   0.831   4.030   6.071
 8204TIP3   OH224554   5.188   6.397   1.314
 8204TIP3    H124555   5.280   6.418   1.299
 8204TIP3    H224556   5.186   6.302   1.321
 8205TIP3   OH224557   3.820   2.991   1.764
 8205TIP3    H124558   3.798   3.084   1.769
 8205TIP3    H224559   3.915   2.988   1.770
 8206TIP3   OH224560   3.999   7.565   2.875
 8206TIP3    H124561   3.937   7.531   2.940
 8206TIP3    H224562   4.018   7.655   2.905
 8207TIP3   OH224563   0.628   2.945   4.457
 8207TIP3    H124564   0.675   2.872   4.497
 8207TIP3    H224565   0.630   2.926   4.363
 8208TIP3   OH224566   7.992   1.244   5.836
 8208TIP3    H124567   8.059   1.312   5.837
 8208TIP3    H224568   7.910   1.291   5.848
 8209TIP3   OH224569   7.489   3.712   0.190
 8209TIP3    H124570   7.491   3.673   0.277
 8209TIP3    H224571   7.557   3.666   0.141
 8210TIP3   OH224572   1.388   0.437   1.823
 8210TIP3    H124573   1.340   0.455   1.742
 8210TIP3    H224574   1.477   0.466   1.806
 8211TIP3   OH224575   3.423   5.752   6.515
 8211TIP3    H124576   3.468   5.737   6.432
 8211TIP3    H224577   3.492   5.783   6.574
 8212TIP3   OH224578   5.211   5.221   2.908
 8212TIP3    H124579   5.277   5.247   2.972
 8212TIP3    H224580   5.228   5.276   2.832
 8213TIP3   OH224581   5.786   7.445   0.322
 8213TIP3    H124582   5.697   7.466   0.294
 8213TIP3    H224583   5.775   7.405   0.409
 8214TIP3   OH224584   6.721   0.149   3.412
 8214TIP3    H124585   6.785   0.086   3.380
 8214TIP3    H224586   6.641   0.130   3.364
 8215TIP3   OH224587   7.789   4.813   3.354
 8215TIP3    H124588   7.760   4.773   3.436
 8215TIP3    H224589   7.773   4.747   3.288
 8216TIP3   OH224590   5.510   6.666   5.266
 8216TIP3    H124591   5.439   6.631   5.212
 8216TIP3    H224592   5.467   6.714   5.336
 8217TIP3   OH224593   3.548   1.330   4.070
 8217TIP3    H124594   3.513   1.414   4.099
 8217TIP3    H224595   3.643   1.343   4.066
 8218TIP3   OH224596   2.018   5.746   3.231
 8218TIP3    H124597   2.105   5.735   3.193
 8218TIP3    H224598   1.960   5.750   3.155
 8219TIP3   OH224599   6.307   3.000   0.432
 8219TIP3    H124600   6.265   3.086   0.434
 8219TIP3    H224601   6.244   2.943   0.388
 8220TIP3   OH224602   1.168   5.157   1.273
 8220TIP3    H124603   1.130   5.145   1.186
 8220TIP3    H224604   1.106   5.215   1.318
 8221TIP3   OH224605   6.024   4.656   6.229
 8221TIP3    H124606   6.027   4.751   6.237
 8221TIP3    H224607   5.938   4.631   6.264
 8222TIP3   OH224608   7.794   3.827   2.201
 8222TIP3    H124609   7.705   3.863   2.197
 8222TIP3    H224610   7.781   3.732   2.204
 8223TIP3   OH224611   1.824   1.308   5.354
 8223TIP3    H124612   1.806   1.400   5.372
 8223TIP3    H224613   1.799   1.296   5.262
 8224TIP3   OH224614   0.050   6.243   2.949
 8224TIP3    H124615  -0.021   6.179   2.961
 8224TIP3    H224616   0.128   6.199   2.983
 8225TIP3   OH224617   1.165   0.768   4.780
 8225TIP3    H124618   1.189   0.806   4.864
 8225TIP3    H224619   1.151   0.843   4.722
 8226TIP3   OH224620   2.367   2.616   0.173
 8226TIP3    H124621   2.280   2.654   0.187
 8226TIP3    H224622   2.391   2.643   0.084
 8227TIP3   OH224623   0.047   1.947   2.148
 8227TIP3    H124624   0.086   1.860   2.152
 8227TIP3    H224625  -0.045   1.931   2.130
 8228TIP3   OH224626   0.723   0.081   6.336
 8228TIP3    H124627   0.722   0.176   6.338
 8228TIP3    H224628   0.814   0.057   6.318
 8229TIP3   OH224629   0.125   6.107   6.206
 8229TIP3    H124630   0.206   6.158   6.210
 8229TIP3    H224631   0.117   6.069   6.294
 8230TIP3   OH224632   4.961   6.758   5.132
 8230TIP3    H124633   4.882   6.715   5.165
 8230TIP3    H224634   4.930   6.815   5.061
 8231TIP3   OH224635   2.071   0.341   4.732
 8231TIP3    H124636   2.093   0.425   4.692
 8231TIP3    H224637   1.977   0.346   4.749
 8232TIP3   OH224638   1.923   2.653   3.881
 8232TIP3    H124639   2.012   2.620   3.869
 8232TIP3    H224640   1.930   2.747   3.863
 8233TIP3   OH224641   7.867   0.948   0.670
 8233TIP3    H124642   7.806   0.894   0.619
 8233TIP3    H224643   7.945   0.954   0.615
 8234TIP3   OH224644   3.514   2.342   2.667
 8234TIP3    H124645   3.533   2.276   2.600
 8234TIP3    H224646   3.589   2.402   2.664
 8235TIP3   OH224647   0.104   1.599   5.747
 8235TIP3    H124648   0.131   1.589   5.838
 8235TIP3    H224649   0.104   1.694   5.731
 8236TIP3   OH224650   5.453   0.246   2.994
 8236TIP3    H124651   5.418   0.334   2.981
 8236TIP3    H224652   5.483   0.219   2.907
 8237TIP3   OH224653   0.704   1.356   4.561
 8237TIP3    H124654   0.610   1.371   4.563
 8237TIP3    H224655   0.723   1.313   4.645
 8238TIP3   OH224656   8.006   5.416   3.152
 8238TIP3    H124657   8.074   5.454   3.096
 8238TIP3    H224658   7.963   5.351   3.096
 8239TIP3   OH224659   5.529   4.149   1.500
 8239TIP3    H124660   5.566   4.152   1.412
 8239TIP3    H224661   5.434   4.160   1.488
 8240TIP3   OH224662   6.424   5.015   0.601
 8240TIP3    H124663   6.391   5.102   0.578
 8240TIP3    H224664   6.513   5.030   0.631
 8241TIP3   OH224665   4.691   5.518   5.951
 8241TIP3    H124666   4.737   5.484   5.875
 8241TIP3    H224667   4.723   5.467   6.025
 8242TIP3   OH224668   0.788   0.317   2.480
 8242TIP3    H124669   0.742   0.269   2.549
 8242TIP3    H224670   0.734   0.304   2.402
 8243TIP3   OH224671   4.264   5.540   1.466
 8243TIP3    H124672   4.273   5.460   1.518
 8243TIP3    H224673   4.354   5.565   1.445
 8244TIP3   OH224674   1.823   2.526   1.404
 8244TIP3    H124675   1.728   2.533   1.407
 8244TIP3    H224676   1.852   2.566   1.485
 8245TIP3   OH224677   0.119   6.501   1.751
 8245TIP3    H124678   0.121   6.597   1.752
 8245TIP3    H224679   0.027   6.479   1.737
 8246TIP3   OH224680   1.361   5.853   6.234
 8246TIP3    H124681   1.429   5.905   6.276
 8246TIP3    H224682   1.283   5.909   6.236
 8247TIP3   OH224683   1.129   4.664   2.454
 8247TIP3    H124684   1.170   4.685   2.371
 8247TIP3    H224685   1.110   4.749   2.494
 8248TIP3   OH224686   4.795   1.871   0.966
 8248TIP3    H124687   4.886   1.895   0.982
 8248TIP3    H224688   4.790   1.778   0.986
 8249TIP3   OH224689   7.398   7.549   4.917
 8249TIP3    H124690   7.308   7.528   4.890
 8249TIP3    H224691   7.433   7.466   4.948
 8250TIP3   OH224692   7.324   7.812   4.386
 8250TIP3    H124693   7.416   7.786   4.397
 8250TIP3    H224694   7.321   7.850   4.298
 8251TIP3   OH224695   2.275   1.326   4.454
 8251TIP3    H124696   2.203   1.276   4.492
 8251TIP3    H224697   2.353   1.275   4.473
 8252TIP3   OH224698   4.474   3.789   0.735
 8252TIP3    H124699   4.465   3.880   0.765
 8252TIP3    H224700   4.440   3.790   0.645
 8253TIP3   OH224701   1.317   6.269   6.282
 8253TIP3    H124702   1.358   6.237   6.202
 8253TIP3    H224703   1.383   6.326   6.322
 8254TIP3   OH224704   7.420   6.845   3.196
 8254TIP3    H124705   7.476   6.862   3.272
 8254TIP3    H224706   7.480   6.813   3.128
 8255TIP3   OH224707   6.120   1.552   0.070
 8255TIP3    H124708   6.193   1.523   0.125
 8255TIP3    H224709   6.097   1.475   0.018
 8256TIP3   OH224710   3.186   0.997   0.071
 8256TIP3    H124711   3.173   1.031  -0.017
 8256TIP3    H224712   3.239   1.064   0.115
 8257TIP3   OH224713   6.821   6.231   4.836
 8257TIP3    H124714   6.823   6.286   4.758
 8257TIP3    H224715   6.728   6.209   4.847
 8258TIP3   OH224716   2.866   4.283   4.920
 8258TIP3    H124717   2.779   4.248   4.898
 8258TIP3    H224718   2.900   4.317   4.837
 8259TIP3   OH224719   3.425   6.979   5.949
 8259TIP3    H124720   3.357   6.962   6.015
 8259TIP3    H224721   3.395   7.058   5.904
 8260TIP3   OH224722   1.747   1.886   1.933
 8260TIP3    H124723   1.772   1.803   1.975
 8260TIP3    H224724   1.829   1.934   1.923
 8261TIP3   OH224725   4.930   6.166   1.580
 8261TIP3    H124726   4.899   6.140   1.667
 8261TIP3    H224727   5.010   6.216   1.597
 8262TIP3   OH224728   6.080   5.537   0.528
 8262TIP3    H124729   5.996   5.498   0.553
 8262TIP3    H224730   6.145   5.488   0.577
 8263TIP3   OH224731   3.469   3.677   4.346
 8263TIP3    H124732   3.467   3.771   4.329
 8263TIP3    H224733   3.554   3.661   4.388
 8264TIP3   OH224734   3.491   7.524   4.958
 8264TIP3    H124735   3.442   7.510   4.878
 8264TIP3    H224736   3.438   7.588   5.007
 8265TIP3   OH224737   3.626   2.712   5.928
 8265TIP3    H124738   3.567   2.680   5.997
 8265TIP3    H224739   3.616   2.648   5.857
 8266TIP3   OH224740   2.849   1.589   6.073
 8266TIP3    H124741   2.824   1.502   6.105
 8266TIP3    H224742   2.835   1.647   6.148
 8267TIP3   OH224743   7.548   1.301   0.825
 8267TIP3    H124744   7.482   1.234   0.843
 8267TIP3    H224745   7.559   1.347   0.909
 8268TIP3   OH224746   7.067   0.416   2.361
 8268TIP3    H124747   7.057   0.504   2.324
 8268TIP3    H224748   6.977   0.388   2.379
 8269TIP3   OH224749   2.229   5.728   0.906
 8269TIP3    H124750   2.280   5.670   0.850
 8269TIP3    H224751   2.144   5.685   0.916
 8270TIP3   OH224752   4.703   5.382   4.600
 8270TIP3    H124753   4.647   5.414   4.529
 8270TIP3    H224754   4.781   5.349   4.556
 8271TIP3   OH224755   1.210   0.704   6.111
 8271TIP3    H124756   1.244   0.617   6.131
 8271TIP3    H224757   1.246   0.760   6.180
 8272TIP3   OH224758   2.597   0.365   6.016
 8272TIP3    H124759   2.656   0.421   5.966
 8272TIP3    H224760   2.651   0.328   6.086
 8273TIP3   OH224761   6.574   1.102   1.172
 8273TIP3    H124762   6.613   1.177   1.217
 8273TIP3    H224763   6.643   1.072   1.112
 8274TIP3   OH224764   6.978   7.407   3.473
 8274TIP3    H124765   6.994   7.470   3.543
 8274TIP3    H224766   6.926   7.338   3.514
 8275TIP3   OH224767   1.301   0.843   5.021
 8275TIP3    H124768   1.321   0.936   5.034
 8275TIP3    H224769   1.346   0.799   5.093
 8276TIP3   OH224770   3.659   2.157   5.830
 8276TIP3    H124771   3.655   2.177   5.736
 8276TIP3    H224772   3.714   2.079   5.836
 8277TIP3   OH224773   2.439   0.608   6.286
 8277TIP3    H124774   2.531   0.625   6.266
 8277TIP3    H224775   2.439   0.523   6.330
 8278TIP3   OH224776   8.063   5.688   2.597
 8278TIP3    H124777   8.146   5.734   2.612
 8278TIP3    H224778   8.073   5.606   2.645
 8279TIP3   OH224779   5.047   4.636   6.113
 8279TIP3    H124780   5.127   4.678   6.082
 8279TIP3    H224781   5.075   4.581   6.186
 8280TIP3   OH224782   4.299   6.996   2.653
 8280TIP3    H124783   4.373   6.943   2.682
 8280TIP3    H224784   4.335   7.052   2.585
 8281TIP3   OH224785   3.252   7.350   1.621
 8281TIP3    H124786   3.321   7.288   1.642
 8281TIP3    H224787   3.291   7.436   1.638
 8282TIP3   OH224788   4.864   3.901   4.136
 8282TIP3    H124789   4.782   3.946   4.115
 8282TIP3    H224790   4.914   3.903   4.054
 8283TIP3   OH224791   6.000   4.605   1.805
 8283TIP3    H124792   5.969   4.562   1.725
 8283TIP3    H224793   6.084   4.562   1.825
 8284TIP3   OH224794   2.869   7.294   2.529
 8284TIP3    H124795   2.827   7.215   2.563
 8284TIP3    H224796   2.904   7.268   2.443
 8285TIP3   OH224797   4.887   1.195   1.131
 8285TIP3    H124798   4.823   1.143   1.083
 8285TIP3    H224799   4.970   1.180   1.085
 8286TIP3   OH224800   0.340   1.000   0.116
 8286TIP3    H124801   0.267   1.045   0.073
 8286TIP3    H224802   0.305   0.977   0.203
 8287TIP3   OH224803   2.443   5.009   1.367
 8287TIP3    H124804   2.354   4.986   1.342
 8287TIP3    H224805   2.494   4.930   1.351
 8288TIP3   OH224806   6.536   3.909   3.394
 8288TIP3    H124807   6.556   3.946   3.479
 8288TIP3    H224808   6.557   3.979   3.332
 8289TIP3   OH224809   4.884   4.816   1.634
 8289TIP3    H124810   4.931   4.776   1.561
 8289TIP3    H224811   4.950   4.866   1.681
 8290TIP3   OH224812   7.764   6.042   4.976
 8290TIP3    H124813   7.748   6.036   4.881
 8290TIP3    H224814   7.856   6.065   4.983
 8291TIP3   OH224815   0.382   5.450   5.291
 8291TIP3    H124816   0.318   5.490   5.231
 8291TIP3    H224817   0.418   5.377   5.240
 8292TIP3   OH224818   0.034   3.104  -0.024
 8292TIP3    H124819   0.039   3.020   0.023
 8292TIP3    H224820   0.097   3.095  -0.095
 8293TIP3   OH224821   5.110   1.153   2.846
 8293TIP3    H124822   5.059   1.228   2.814
 8293TIP3    H224823   5.117   1.167   2.940
 8294TIP3   OH224824   1.584   3.356   2.765
 8294TIP3    H124825   1.547   3.443   2.783
 8294TIP3    H224826   1.517   3.313   2.711
 8295TIP3   OH224827   0.107   3.473   2.525
 8295TIP3    H124828   0.116   3.378   2.521
 8295TIP3    H224829   0.192   3.504   2.557
 8296TIP3   OH224830   0.282   0.902   0.370
 8296TIP3    H124831   0.320   0.982   0.408
 8296TIP3    H224832   0.346   0.834   0.390
 8297TIP3   OH224833   2.380   3.639   2.363
 8297TIP3    H124834   2.456   3.600   2.406
 8297TIP3    H224835   2.406   3.729   2.346
 8298TIP3   OH224836   2.811   3.623   5.553
 8298TIP3    H124837   2.763   3.689   5.604
 8298TIP3    H224838   2.743   3.568   5.515
 8299TIP3   OH224839   0.478   4.592   1.377
 8299TIP3    H124840   0.455   4.672   1.330
 8299TIP3    H224841   0.499   4.621   1.466
 8300TIP3   OH224842   2.847   7.397   3.392
 8300TIP3    H124843   2.753   7.379   3.390
 8300TIP3    H224844   2.878   7.352   3.470
 8301TIP3   OH224845   5.792   3.489   6.589
 8301TIP3    H124846   5.843   3.534   6.522
 8301TIP3    H224847   5.701   3.496   6.558
 8302TIP3   OH224848   4.751   5.930   1.605
 8302TIP3    H124849   4.811   5.995   1.568
 8302TIP3    H224850   4.805   5.853   1.621
 8303TIP3   OH224851   8.106   0.763   5.840
 8303TIP3    H124852   8.160   0.819   5.895
 8303TIP3    H224853   8.144   0.770   5.752
 8304TIP3   OH224854   7.581   5.293   1.356
 8304TIP3    H124855   7.614   5.319   1.270
 8304TIP3    H224856   7.510   5.355   1.374
 8305TIP3   OH224857   5.709   0.694   2.767
 8305TIP3    H124858   5.782   0.648   2.808
 8305TIP3    H224859   5.678   0.755   2.835
 8306TIP3   OH224860   6.892   1.409   6.161
 8306TIP3    H124861   6.813   1.363   6.187
 8306TIP3    H224862   6.934   1.351   6.098
 8307TIP3   OH224863   6.316   3.337   2.668
 8307TIP3    H124864   6.351   3.253   2.639
 8307TIP3    H224865   6.263   3.315   2.745
 8308TIP3   OH224866   1.239   3.623   5.682
 8308TIP3    H124867   1.324   3.654   5.714
 8308TIP3    H224868   1.220   3.546   5.736
 8309TIP3   OH224869   7.137   3.329   2.645
 8309TIP3    H124870   7.180   3.249   2.614
 8309TIP3    H224871   7.060   3.297   2.694
 8310TIP3   OH224872   2.079   2.151   0.589
 8310TIP3    H124873   2.153   2.211   0.582
 8310TIP3    H224874   2.064   2.121   0.500
 8311TIP3   OH224875   4.820   5.003   1.163
 8311TIP3    H124876   4.780   5.001   1.250
 8311TIP3    H224877   4.786   5.083   1.122
 8312TIP3   OH224878   5.257   0.526   3.863
 8312TIP3    H124879   5.330   0.465   3.875
 8312TIP3    H224880   5.292   0.611   3.887
 8313TIP3   OH224881   3.575   0.027   2.237
 8313TIP3    H124882   3.534   0.113   2.223
 8313TIP3    H224883   3.639   0.019   2.167
 8314TIP3   OH224884   5.833   2.176   4.524
 8314TIP3    H124885   5.781   2.229   4.585
 8314TIP3    H224886   5.923   2.196   4.546
 8315TIP3   OH224887   0.050   1.077   3.220
 8315TIP3    H124888   0.141   1.049   3.212
 8315TIP3    H224889   0.034   1.133   3.144
 8316TIP3   OH224890   5.365   1.676   6.332
 8316TIP3    H124891   5.281   1.718   6.313
 8316TIP3    H224892   5.380   1.696   6.425
 8317TIP3   OH224893   7.800   2.639   6.793
 8317TIP3    H124894   7.755   2.715   6.757
 8317TIP3    H224895   7.764   2.564   6.745
 8318TIP3   OH224896   1.660   0.578   6.267
 8318TIP3    H124897   1.582   0.539   6.305
 8318TIP3    H224898   1.702   0.624   6.339
 8319TIP3   OH224899   8.100   3.110   4.992
 8319TIP3    H124900   8.114   3.190   4.942
 8319TIP3    H224901   8.079   3.140   5.080
 8320TIP3   OH224902   4.353   2.467   3.169
 8320TIP3    H124903   4.281   2.505   3.119
 8320TIP3    H224904   4.339   2.373   3.164
 8321TIP3   OH224905   6.834   2.164   3.533
 8321TIP3    H124906   6.846   2.258   3.545
 8321TIP3    H224907   6.740   2.150   3.545
 8322TIP3   OH224908   6.334   5.279   3.271
 8322TIP3    H124909   6.418   5.318   3.294
 8322TIP3    H224910   6.297   5.339   3.206
 8323TIP3   OH224911   6.517   7.567   1.171
 8323TIP3    H124912   6.508   7.487   1.223
 8323TIP3    H224913   6.481   7.544   1.085
 8324TIP3   OH224914   3.410   4.354   2.879
 8324TIP3    H124915   3.432   4.435   2.924
 8324TIP3    H224916   3.383   4.381   2.791
 8325TIP3   OH224917   7.687   5.617   3.102
 8325TIP3    H124918   7.757   5.556   3.123
 8325TIP3    H224919   7.627   5.567   3.046
 8326TIP3   OH224920   4.692   1.453   6.528
 8326TIP3    H124921   4.642   1.533   6.510
 8326TIP3    H224922   4.714   1.418   6.441
 8327TIP3   OH224923   1.535   7.018   1.268
 8327TIP3    H124924   1.472   7.089   1.256
 8327TIP3    H224925   1.484   6.938   1.258
 8328TIP3   OH224926   3.469   7.319   6.023
 8328TIP3    H124927   3.504   7.407   6.031
 8328TIP3    H224928   3.451   7.308   5.930
 8329TIP3   OH224929   6.098   3.707   2.625
 8329TIP3    H124930   6.006   3.712   2.601
 8329TIP3    H224931   6.135   3.642   2.566
 8330TIP3   OH224932   4.341   6.858   5.610
 8330TIP3    H124933   4.313   6.877   5.520
 8330TIP3    H224934   4.407   6.925   5.629
 8331TIP3   OH224935   1.737   6.789   6.192
 8331TIP3    H124936   1.700   6.868   6.231
 8331TIP3    H224937   1.661   6.738   6.165
 8332TIP3   OH224938   5.324   7.096   0.938
 8332TIP3    H124939   5.313   7.019   0.882
 8332TIP3    H224940   5.417   7.098   0.959
 8333TIP3   OH224941   1.348  -0.032   4.476
 8333TIP3    H124942   1.334   0.061   4.457
 8333TIP3    H224943   1.266  -0.062   4.515
 8334TIP3   OH224944   5.950   2.909   0.367
 8334TIP3    H124945   5.867   2.901   0.320
 8334TIP3    H224946   5.939   2.987   0.422
 8335TIP3   OH224947   4.765   2.926   3.401
 8335TIP3    H124948   4.763   3.006   3.453
 8335TIP3    H224949   4.843   2.880   3.430
 8336TIP3   OH224950   6.266   1.349   2.325
 8336TIP3    H124951   6.339   1.299   2.289
 8336TIP3    H224952   6.261   1.322   2.416
 8337TIP3   OH224953   5.045   0.364   5.045
 8337TIP3    H124954   5.092   0.298   5.096
 8337TIP3    H224955   5.109   0.393   4.980
 8338TIP3   OH224956   7.238   2.676   1.940
 8338TIP3    H124957   7.240   2.607   2.006
 8338TIP3    H224958   7.187   2.638   1.868
 8339TIP3   OH224959   5.036   2.259   2.326
 8339TIP3    H124960   5.122   2.253   2.369
 8339TIP3    H224961   4.977   2.214   2.386
 8340TIP3   OH224962   5.727   3.129   6.351
 8340TIP3    H124963   5.774   3.138   6.433
 8340TIP3    H224964   5.659   3.065   6.369
 8341TIP3   OH224965   0.598   2.625   2.654
 8341TIP3    H124966   0.578   2.679   2.578
 8341TIP3    H224967   0.579   2.535   2.626
 8342TIP3   OH224968   2.753   5.662   3.146
 8342TIP3    H124969   2.834   5.688   3.101
 8342TIP3    H224970   2.768   5.686   3.237
 8343TIP3   OH224971   1.195   4.678   1.867
 8343TIP3    H124972   1.139   4.602   1.876
 8343TIP3    H224973   1.150   4.734   1.804
 8344TIP3   OH224974   4.501   4.057   3.770
 8344TIP3    H124975   4.467   4.144   3.750
 8344TIP3    H224976   4.487   4.007   3.689
 8345TIP3   OH224977   1.430   2.755   6.344
 8345TIP3    H124978   1.419   2.783   6.435
 8345TIP3    H224979   1.514   2.792   6.318
 8346TIP3   OH224980   1.228   4.142   5.120
 8346TIP3    H124981   1.277   4.224   5.128
 8346TIP3    H224982   1.190   4.128   5.206
 8347TIP3   OH224983   2.662   6.860   0.494
 8347TIP3    H124984   2.751   6.830   0.473
 8347TIP3    H224985   2.627   6.791   0.551
 8348TIP3   OH224986   6.181   5.455   6.110
 8348TIP3    H124987   6.116   5.428   6.175
 8348TIP3    H224988   6.188   5.549   6.121
 8349TIP3   OH224989   7.860   1.042   3.721
 8349TIP3    H124990   7.787   1.014   3.777
 8349TIP3    H224991   7.893   1.121   3.763
 8350TIP3   OH224992   7.976   5.219   2.241
 8350TIP3    H124993   7.995   5.269   2.162
 8350TIP3    H224994   7.903   5.265   2.283
 8351TIP3   OH224995   6.954   5.192   0.733
 8351TIP3    H124996   6.972   5.285   0.745
 8351TIP3    H224997   7.037   5.155   0.701
 8352TIP3   OH224998   5.534   1.228   4.987
 8352TIP3    H124999   5.582   1.196   5.063
 8352TIP3    H225000   5.484   1.303   5.019
 8353TIP3   OH225001   7.059   4.648   4.297
 8353TIP3    H125002   7.004   4.573   4.319
 8353TIP3    H225003   7.039   4.667   4.206
 8354TIP3   OH225004   7.024   5.116   1.787
 8354TIP3    H125005   6.999   5.122   1.695
 8354TIP3    H225006   6.945   5.137   1.835
 8355TIP3   OH225007   6.780   0.473   1.630
 8355TIP3    H125008   6.688   0.492   1.646
 8355TIP3    H225009   6.822   0.486   1.715
 8356TIP3   OH225010   0.492   3.510   3.739
 8356TIP3    H125011   0.445   3.536   3.819
 8356TIP3    H225012   0.423   3.499   3.674
 8357TIP3   OH225013   7.473   5.040   6.547
 8357TIP3    H125014   7.482   4.954   6.589
 8357TIP3    H225015   7.492   5.023   6.454
 8358TIP3   OH225016   0.577   5.466   3.858
 8358TIP3    H125017   0.617   5.427   3.936
 8358TIP3    H225018   0.490   5.492   3.886
 8359TIP3   OH225019   7.596   7.750   2.820
 8359TIP3    H125020   7.541   7.726   2.745
 8359TIP3    H225021   7.642   7.829   2.792
 8360TIP3   OH225022   0.759   6.012   6.266
 8360TIP3    H125023   0.823   6.050   6.207
 8360TIP3    H225024   0.714   6.087   6.305
 8361TIP3   OH225025   7.102   6.499   1.327
 8361TIP3    H125026   7.069   6.469   1.242
 8361TIP3    H225027   7.161   6.428   1.355
 8362TIP3   OH225028   3.518   3.748   4.674
 8362TIP3    H125029   3.605   3.773   4.641
 8362TIP3    H225030   3.530   3.735   4.768
 8363TIP3   OH225031   4.494   1.471   5.692
 8363TIP3    H125032   4.428   1.492   5.757
 8363TIP3    H225033   4.459   1.505   5.609
 8364TIP3   OH225034   7.540   1.110   5.010
 8364TIP3    H125035   7.608   1.077   5.068
 8364TIP3    H225036   7.587   1.150   4.937
 8365TIP3   OH225037   0.350   4.512   5.487
 8365TIP3    H125038   0.382   4.572   5.555
 8365TIP3    H225039   0.321   4.569   5.416
 8366TIP3   OH225040   1.062   4.408   6.682
 8366TIP3    H125041   1.029   4.435   6.767
 8366TIP3    H225042   0.987   4.369   6.638
 8367TIP3   OH225043   3.162   5.598   3.483
 8367TIP3    H125044   3.168   5.674   3.425
 8367TIP3    H225045   3.167   5.635   3.571
 8368TIP3   OH225046   0.125   7.491   3.361
 8368TIP3    H125047   0.035   7.470   3.382
 8368TIP3    H225048   0.123   7.515   3.268
 8369TIP3   OH225049   8.199   0.902   1.090
 8369TIP3    H125050   8.127   0.927   1.149
 8369TIP3    H225051   8.172   0.936   1.005
 8370TIP3   OH225052   7.295   0.492   4.746
 8370TIP3    H125053   7.347   0.568   4.773
 8370TIP3    H225054   7.358   0.420   4.744
 8371TIP3   OH225055   5.519   1.009   6.218
 8371TIP3    H125056   5.475   0.963   6.289
 8371TIP3    H225057   5.448   1.055   6.172
 8372TIP3   OH225058   6.151   0.393   5.704
 8372TIP3    H125059   6.222   0.328   5.705
 8372TIP3    H225060   6.071   0.340   5.701
 8373TIP3   OH225061   0.208   7.574   4.732
 8373TIP3    H125062   0.195   7.518   4.655
 8373TIP3    H225063   0.145   7.540   4.796
 8374TIP3   OH225064   3.627   5.373   0.757
 8374TIP3    H125065   3.689   5.430   0.711
 8374TIP3    H225066   3.586   5.321   0.688
 8375TIP3   OH225067   4.291   6.113   1.582
 8375TIP3    H125068   4.341   6.188   1.614
 8375TIP3    H225069   4.200   6.135   1.601
 8376TIP3   OH225070   4.756   6.333   1.997
 8376TIP3    H125071   4.664   6.314   2.017
 8376TIP3    H225072   4.784   6.261   1.941
 8377TIP3   OH225073   1.364   7.331   2.447
 8377TIP3    H125074   1.339   7.423   2.438
 8377TIP3    H225075   1.318   7.288   2.375
 8378TIP3   OH225076   3.540   1.327   1.892
 8378TIP3    H125077   3.542   1.392   1.963
 8378TIP3    H225078   3.513   1.245   1.936
 8379TIP3   OH225079   1.991   6.126   2.116
 8379TIP3    H125080   2.070   6.116   2.170
 8379TIP3    H225081   1.997   6.214   2.080
 8380TIP3   OH225082   0.122   0.773   2.079
 8380TIP3    H125083   0.168   0.744   2.000
 8380TIP3    H225084   0.167   0.729   2.151
 8381TIP3   OH225085   4.765   6.622   5.956
 8381TIP3    H125086   4.764   6.647   6.048
 8381TIP3    H225087   4.735   6.700   5.909
 8382TIP3   OH225088   5.956   7.548   4.860
 8382TIP3    H125089   5.973   7.545   4.766
 8382TIP3    H225090   6.017   7.615   4.893
 8383TIP3   OH225091   7.317   6.959   2.524
 8383TIP3    H125092   7.312   6.866   2.501
 8383TIP3    H225093   7.358   6.960   2.610
 8384TIP3   OH225094   2.194   3.552   3.468
 8384TIP3    H125095   2.287   3.562   3.489
 8384TIP3    H225096   2.193   3.538   3.373
 8385TIP3   OH225097   5.351   6.240   6.684
 8385TIP3    H125098   5.357   6.308   6.751
 8385TIP3    H225099   5.425   6.182   6.701
 8386TIP3   OH225100   5.578   7.109   5.012
 8386TIP3    H125101   5.516   7.181   4.998
 8386TIP3    H225102   5.565   7.085   5.104
 8387TIP3   OH225103   0.995   1.364   0.316
 8387TIP3    H125104   1.046   1.283   0.315
 8387TIP3    H225105   0.926   1.349   0.251
 8388TIP3   OH225106   0.567   3.306   4.149
 8388TIP3    H125107   0.599   3.255   4.074
 8388TIP3    H225108   0.618   3.387   4.147
 8389TIP3   OH225109   4.659   5.249   4.841
 8389TIP3    H125110   4.680   5.273   4.751
 8389TIP3    H225111   4.600   5.318   4.872
 8390TIP3   OH225112   4.364   4.090   4.476
 8390TIP3    H125113   4.295   4.149   4.445
 8390TIP3    H225114   4.372   4.024   4.407
 8391TIP3   OH225115   7.901   7.267   4.813
 8391TIP3    H125116   7.838   7.271   4.741
 8391TIP3    H225117   7.891   7.349   4.860
 8392TIP3   OH225118   4.633   5.536   0.288
 8392TIP3    H125119   4.671   5.582   0.362
 8392TIP3    H225120   4.675   5.450   0.288
 8393TIP3   OH225121   4.484   7.348   6.112
 8393TIP3    H125122   4.423   7.317   6.044
 8393TIP3    H225123   4.558   7.383   6.063
 8394TIP3   OH225124   2.109   2.749   0.577
 8394TIP3    H125125   2.112   2.707   0.663
 8394TIP3    H225126   2.058   2.690   0.522
 8395TIP3   OH225127   1.584   6.095   5.592
 8395TIP3    H125128   1.636   6.117   5.669
 8395TIP3    H225129   1.556   6.179   5.557
 8396TIP3   OH225130   5.765   1.880   4.376
 8396TIP3    H125131   5.767   1.910   4.286
 8396TIP3    H225132   5.792   1.788   4.371
 8397TIP3   OH225133   0.891   5.076   3.318
 8397TIP3    H125134   0.902   5.097   3.225
 8397TIP3    H225135   0.796   5.069   3.329
 8398TIP3   OH225136   3.997   1.978   3.633
 8398TIP3    H125137   3.967   2.020   3.552
 8398TIP3    H225138   4.084   2.014   3.648
 8399TIP3   OH225139   7.337   1.779   4.769
 8399TIP3    H125140   7.257   1.774   4.716
 8399TIP3    H225141   7.370   1.867   4.755
 8400TIP3   OH225142   1.382   4.377   3.276
 8400TIP3    H125143   1.308   4.322   3.250
 8400TIP3    H225144   1.442   4.375   3.201
 8401TIP3   OH225145   5.334   6.455   0.330
 8401TIP3    H125146   5.397   6.382   0.326
 8401TIP3    H225147   5.250   6.412   0.343
 8402TIP3   OH225148   5.717   2.825   1.084
 8402TIP3    H125149   5.624   2.819   1.105
 8402TIP3    H225150   5.724   2.789   0.995
 8403TIP3   OH225151   1.571   3.601   0.775
 8403TIP3    H125152   1.507   3.672   0.780
 8403TIP3    H225153   1.587   3.577   0.866
 8404TIP3   OH225154   5.007   0.536   5.382
 8404TIP3    H125155   5.048   0.613   5.421
 8404TIP3    H225156   4.943   0.571   5.320
 8405TIP3   OH225157   6.068   4.032   4.701
 8405TIP3    H125158   6.135   3.979   4.658
 8405TIP3    H225159   6.080   4.014   4.794
 8406TIP3   OH225160   2.787   6.726   1.121
 8406TIP3    H125161   2.849   6.665   1.082
 8406TIP3    H225162   2.827   6.812   1.110
 8407TIP3   OH225163   4.997   3.245   2.622
 8407TIP3    H125164   5.090   3.248   2.646
 8407TIP3    H225165   4.956   3.196   2.692
 8408TIP3   OH225166   2.177   6.097   4.805
 8408TIP3    H125167   2.257   6.143   4.830
 8408TIP3    H225168   2.194   6.065   4.716
 8409TIP3   OH225169   0.076   5.891   0.473
 8409TIP3    H125170   0.152   5.947   0.466
 8409TIP3    H225171   0.004   5.943   0.437
 8410TIP3   OH225172   8.207   7.681   5.994
 8410TIP3    H125173   8.262   7.744   6.041
 8410TIP3    H225174   8.195   7.719   5.907
 8411TIP3   OH225175   5.449   1.192   6.463
 8411TIP3    H125176   5.418   1.274   6.425
 8411TIP3    H225177   5.543   1.206   6.476
 8412TIP3   OH225178   7.400   0.789   6.160
 8412TIP3    H125179   7.447   0.707   6.142
 8412TIP3    H225180   7.312   0.774   6.128
 8413TIP3   OH225181   0.652   3.211   1.106
 8413TIP3    H125182   0.562   3.215   1.136
 8413TIP3    H225183   0.681   3.122   1.123
 8414TIP3   OH225184   2.084   3.837   3.653
 8414TIP3    H125185   2.085   3.742   3.647
 8414TIP3    H225186   2.022   3.856   3.723
 8415TIP3   OH225187   5.558   1.569   0.253
 8415TIP3    H125188   5.589   1.659   0.258
 8415TIP3    H225189   5.493   1.562   0.323
 8416TIP3   OH225190   4.400   7.547   2.086
 8416TIP3    H125191   4.430   7.612   2.151
 8416TIP3    H225192   4.428   7.463   2.122
 8417TIP3   OH225193   7.377   3.308   3.254
 8417TIP3    H125194   7.337   3.355   3.181
 8417TIP3    H225195   7.386   3.218   3.221
 8418TIP3   OH225196   7.431   6.133   5.091
 8418TIP3    H125197   7.378   6.141   5.171
 8418TIP3    H225198   7.370   6.151   5.020
 8419TIP3   OH225199   7.506   0.434   3.793
 8419TIP3    H125200   7.572   0.444   3.725
 8419TIP3    H225201   7.427   0.472   3.755
 8420TIP3   OH225202   3.359   6.662   1.383
 8420TIP3    H125203   3.422   6.734   1.377
 8420TIP3    H225204   3.397   6.602   1.448
 8421TIP3   OH225205   5.199   6.845   4.187
 8421TIP3    H125206   5.274   6.847   4.246
 8421TIP3    H225207   5.235   6.817   4.103
 8422TIP3   OH225208   0.197   4.622   4.643
 8422TIP3    H125209   0.225   4.612   4.733
 8422TIP3    H225210   0.205   4.535   4.604
 8423TIP3   OH225211   6.129   1.539   1.591
 8423TIP3    H125212   6.038   1.521   1.566
 8423TIP3    H225213   6.123   1.567   1.682
 8424TIP3   OH225214   7.746   1.770   0.037
 8424TIP3    H125215   7.774   1.832  -0.030
 8424TIP3    H225216   7.656   1.750   0.015
 8425TIP3   OH225217   4.784   2.037   4.969
 8425TIP3    H125218   4.788   2.063   4.877
 8425TIP3    H225219   4.830   1.953   4.972
 8426TIP3   OH225220   2.456   5.620   5.760
 8426TIP3    H125221   2.375   5.619   5.708
 8426TIP3    H225222   2.457   5.707   5.800
 8427TIP3   OH225223   3.017   5.848   2.154
 8427TIP3    H125224   2.948   5.816   2.097
 8427TIP3    H225225   2.981   5.929   2.192
 8428TIP3   OH225226   0.524   6.836   2.108
 8428TIP3    H125227   0.499   6.913   2.057
 8428TIP3    H225228   0.473   6.842   2.188
 8429TIP3   OH225229   3.554   6.906   0.544
 8429TIP3    H125230   3.578   6.929   0.454
 8429TIP3    H225231   3.534   6.813   0.540
 8430TIP3   OH225232   1.686   7.076   4.234
 8430TIP3    H125233   1.673   6.983   4.252
 8430TIP3    H225234   1.781   7.087   4.234
 8431TIP3   OH225235   0.502   1.802   5.322
 8431TIP3    H125236   0.427   1.858   5.345
 8431TIP3    H225237   0.483   1.718   5.363
 8432TIP3   OH225238   7.519   6.082   6.336
 8432TIP3    H125239   7.549   6.076   6.246
 8432TIP3    H225240   7.428   6.112   6.330
 8433TIP3   OH225241   6.559   5.788   2.855
 8433TIP3    H125242   6.599   5.872   2.832
 8433TIP3    H225243   6.627   5.742   2.904
 8434TIP3   OH225244   5.170   1.827   2.102
 8434TIP3    H125245   5.108   1.754   2.105
 8434TIP3    H225246   5.115   1.904   2.083
 8435TIP3   OH225247   3.048   1.363   3.382
 8435TIP3    H125248   3.112   1.314   3.330
 8435TIP3    H225249   3.061   1.454   3.358
 8436TIP3   OH225250   6.249   5.467   4.021
 8436TIP3    H125251   6.174   5.409   4.033
 8436TIP3    H225252   6.316   5.432   4.079
 8437TIP3   OH225253   2.564   7.406   3.068
 8437TIP3    H125254   2.622   7.363   3.006
 8437TIP3    H225255   2.511   7.465   3.015
 8438TIP3   OH225256   0.664   3.384   4.678
 8438TIP3    H125257   0.629   3.464   4.640
 8438TIP3    H225258   0.730   3.413   4.740
 8439TIP3   OH225259   5.340   2.611   0.878
 8439TIP3    H125260   5.330   2.522   0.912
 8439TIP3    H225261   5.346   2.600   0.783
 8440TIP3   OH225262   4.223   0.472   5.391
 8440TIP3    H125263   4.193   0.394   5.438
 8440TIP3    H225264   4.153   0.536   5.404
 8441TIP3   OH225265   2.767   0.942   5.516
 8441TIP3    H125266   2.860   0.956   5.501
 8441TIP3    H225267   2.738   1.020   5.565
 8442TIP3   OH225268   2.849   4.518   4.103
 8442TIP3    H125269   2.819   4.438   4.059
 8442TIP3    H225270   2.815   4.511   4.192
 8443TIP3   OH225271   4.537   6.232   2.303
 8443TIP3    H125272   4.525   6.273   2.217
 8443TIP3    H225273   4.610   6.172   2.292
 8444TIP3   OH225274   4.919   2.311   4.763
 8444TIP3    H125275   4.901   2.386   4.706
 8444TIP3    H225276   4.894   2.235   4.711
 8445TIP3   OH225277   7.548   5.645   2.696
 8445TIP3    H125278   7.620   5.667   2.636
 8445TIP3    H225279   7.552   5.712   2.763
 8446TIP3   OH225280   6.551   3.401   3.303
 8446TIP3    H125281   6.626   3.418   3.359
 8446TIP3    H225282   6.505   3.486   3.297
 8447TIP3   OH225283   5.984   7.775   6.712
 8447TIP3    H125284   6.050   7.775   6.643
 8447TIP3    H225285   5.900   7.769   6.666
 8448TIP3   OH225286   0.268   5.885   5.206
 8448TIP3    H125287   0.181   5.844   5.209
 8448TIP3    H225288   0.320   5.834   5.268
 8449TIP3   OH225289   2.723   6.060   0.136
 8449TIP3    H125290   2.686   6.032   0.052
 8449TIP3    H225291   2.783   5.990   0.161
 8450TIP3   OH225292   4.643   7.240   2.356
 8450TIP3    H125293   4.697   7.172   2.398
 8450TIP3    H225294   4.625   7.303   2.426
 8451TIP3   OH225295   6.204   4.748   6.026
 8451TIP3    H125296   6.141   4.698   6.078
 8451TIP3    H225297   6.151   4.809   5.976
 8452TIP3   OH225298   3.706   1.525   6.559
 8452TIP3    H125299   3.743   1.609   6.531
 8452TIP3    H225300   3.627   1.515   6.506
 8453TIP3   OH225301   7.901   5.173   0.865
 8453TIP3    H125302   7.919   5.100   0.924
 8453TIP3    H225303   7.920   5.251   0.917
 8454TIP3   OH225304   5.456   2.643   3.280
 8454TIP3    H125305   5.447   2.579   3.350
 8454TIP3    H225306   5.367   2.666   3.256
 8455TIP3   OH225307   0.164   0.620   0.322
 8455TIP3    H125308   0.150   0.694   0.262
 8455TIP3    H225309   0.256   0.628   0.349
 8456TIP3   OH225310   3.119   3.410   1.750
 8456TIP3    H125311   3.041   3.412   1.806
 8456TIP3    H225312   3.191   3.437   1.807
 8457TIP3   OH225313   6.575   6.448   4.160
 8457TIP3    H125314   6.577   6.460   4.065
 8457TIP3    H225315   6.613   6.361   4.174
 8458TIP3   OH225316   2.269   4.782   3.287
 8458TIP3    H125317   2.297   4.785   3.378
 8458TIP3    H225318   2.183   4.741   3.290
 8459TIP3   OH225319   0.707   3.029   0.854
 8459TIP3    H125320   0.688   3.122   0.846
 8459TIP3    H225321   0.698   3.011   0.948
 8460TIP3   OH225322   6.501   3.163   5.341
 8460TIP3    H125323   6.453   3.157   5.258
 8460TIP3    H225324   6.447   3.219   5.397
 8461TIP3   OH225325   0.030   5.042   2.725
 8461TIP3    H125326   0.096   5.045   2.656
 8461TIP3    H225327  -0.049   5.010   2.681
 8462TIP3   OH225328   1.595   6.541   4.620
 8462TIP3    H125329   1.531   6.472   4.636
 8462TIP3    H225330   1.556   6.620   4.658
 8463TIP3   OH225331   7.143   2.197   4.843
 8463TIP3    H125332   7.144   2.293   4.844
 8463TIP3    H225333   7.102   2.174   4.759
 8464TIP3   OH225334   0.177   6.314   1.393
 8464TIP3    H125335   0.270   6.294   1.410
 8464TIP3    H225336   0.179   6.398   1.347
 8465TIP3   OH225337   7.941   4.844   3.825
 8465TIP3    H125338   7.999   4.920   3.821
 8465TIP3    H225339   7.861   4.876   3.865
 8466TIP3   OH225340   8.001   7.802   6.436
 8466TIP3    H125341   8.006   7.740   6.364
 8466TIP3    H225342   7.940   7.762   6.498
 8467TIP3   OH225343   7.661   6.235   5.208
 8467TIP3    H125344   7.737   6.200   5.163
 8467TIP3    H225345   7.586   6.193   5.166
 8468TIP3   OH225346   2.014   4.983   4.875
 8468TIP3    H125347   1.965   5.064   4.886
 8468TIP3    H225348   2.106   5.011   4.869
 8469TIP3   OH225349   7.126   4.579   2.000
 8469TIP3    H125350   7.181   4.550   1.928
 8469TIP3    H225351   7.113   4.673   1.985
 8470TIP3   OH225352   4.681   6.299   2.628
 8470TIP3    H125353   4.712   6.317   2.717
 8470TIP3    H225354   4.593   6.263   2.640
 8471TIP3   OH225355   1.664   6.075   0.237
 8471TIP3    H125356   1.726   6.140   0.270
 8471TIP3    H225357   1.704   6.043   0.156
 8472TIP3   OH225358   4.178   6.804   0.675
 8472TIP3    H125359   4.233   6.780   0.600
 8472TIP3    H225360   4.200   6.739   0.742
 8473TIP3   OH225361   4.616   0.635   5.318
 8473TIP3    H125362   4.677   0.601   5.253
 8473TIP3    H225363   4.634   0.729   5.322
 8474TIP3   OH225364   0.931   5.476   0.663
 8474TIP3    H125365   1.017   5.439   0.644
 8474TIP3    H225366   0.911   5.447   0.752
 8475TIP3   OH225367   2.262   6.181   3.420
 8475TIP3    H125368   2.316   6.156   3.495
 8475TIP3    H225369   2.235   6.098   3.381
 8476TIP3   OH225370   7.992   0.211   4.523
 8476TIP3    H125371   7.906   0.190   4.486
 8476TIP3    H225372   8.053   0.155   4.475
 8477TIP3   OH225373   5.911   2.580   5.319
 8477TIP3    H125374   5.831   2.565   5.370
 8477TIP3    H225375   5.895   2.663   5.273
 8478TIP3   OH225376   4.664   7.150   4.123
 8478TIP3    H125377   4.672   7.169   4.029
 8478TIP3    H225378   4.576   7.182   4.146
 8479TIP3   OH225379   4.692   1.674   0.590
 8479TIP3    H125380   4.752   1.731   0.541
 8479TIP3    H225381   4.726   1.586   0.575
 8480TIP3   OH225382   3.691   4.414   4.804
 8480TIP3    H125383   3.611   4.455   4.839
 8480TIP3    H225384   3.761   4.475   4.827
 8481TIP3   OH225385   1.448   5.980   2.826
 8481TIP3    H125386   1.493   6.023   2.753
 8481TIP3    H225387   1.445   6.045   2.895
 8482TIP3   OH225388   5.786   1.531   3.836
 8482TIP3    H125389   5.819   1.444   3.856
 8482TIP3    H225390   5.692   1.520   3.824
 8483TIP3   OH225391   1.082   0.079   4.150
 8483TIP3    H125392   1.002   0.078   4.201
 8483TIP3    H225393   1.130   0.156   4.182
 8484TIP3   OH225394   1.719   5.931   4.691
 8484TIP3    H125395   1.662   5.908   4.765
 8484TIP3    H225396   1.791   5.979   4.731
 8485TIP3   OH225397   8.079   2.758   3.081
 8485TIP3    H125398   8.076   2.850   3.055
 8485TIP3    H225399   8.171   2.733   3.070
 8486TIP3   OH225400   6.595   1.506   1.634
 8486TIP3    H125401   6.504   1.523   1.610
 8486TIP3    H225402   6.611   1.416   1.606
 8487TIP3   OH225403   2.942   4.777   3.734
 8487TIP3    H125404   2.981   4.695   3.764
 8487TIP3    H225405   2.987   4.797   3.652
 8488TIP3   OH225406   4.031   3.847   6.147
 8488TIP3    H125407   3.961   3.782   6.153
 8488TIP3    H225408   4.089   3.812   6.079
 8489TIP3   OH225409   5.722   7.047   0.066
 8489TIP3    H125410   5.801   6.993   0.075
 8489TIP3    H225411   5.717   7.095   0.149
 8490TIP3   OH225412   4.624   5.687   3.548
 8490TIP3    H125413   4.677   5.680   3.469
 8490TIP3    H225414   4.573   5.606   3.549
 8491TIP3   OH225415   0.703   2.616   1.181
 8491TIP3    H125416   0.732   2.707   1.181
 8491TIP3    H225417   0.783   2.564   1.191
 8492TIP3   OH225418   1.295   6.680   0.303
 8492TIP3    H125419   1.337   6.596   0.319
 8492TIP3    H225420   1.201   6.662   0.310
 8493TIP3   OH225421   5.612   7.501   3.876
 8493TIP3    H125422   5.580   7.483   3.964
 8493TIP3    H225423   5.707   7.495   3.882
 8494TIP3   OH225424   4.279   1.535   2.032
 8494TIP3    H125425   4.346   1.495   2.087
 8494TIP3    H225426   4.232   1.594   2.091
 8495TIP3   OH225427   0.317   3.757   3.343
 8495TIP3    H125428   0.270   3.677   3.318
 8495TIP3    H225429   0.278   3.825   3.288
 8496TIP3   OH225430   7.436   3.897   0.719
 8496TIP3    H125431   7.453   3.867   0.808
 8496TIP3    H225432   7.345   3.925   0.719
 8497TIP3   OH225433   3.632   0.960   2.870
 8497TIP3    H125434   3.561   0.967   2.806
 8497TIP3    H225435   3.601   0.893   2.932
 8498TIP3   OH225436   7.276   4.040   0.200
 8498TIP3    H125437   7.248   4.131   0.189
 8498TIP3    H225438   7.235   4.012   0.282
 8499TIP3   OH225439   3.513   4.091   2.024
 8499TIP3    H125440   3.450   4.048   2.081
 8499TIP3    H225441   3.587   4.031   2.019
 8500TIP3   OH225442   6.802   2.876   3.786
 8500TIP3    H125443   6.866   2.917   3.844
 8500TIP3    H225444   6.834   2.894   3.698
 8501TIP3   OH225445   1.576   7.711   5.358
 8501TIP3    H125446   1.626   7.790   5.378
 8501TIP3    H225447   1.522   7.696   5.435
 8502TIP3   OH225448   5.238   0.548   1.373
 8502TIP3    H125449   5.298   0.618   1.400
 8502TIP3    H225450   5.266   0.472   1.424
 8503TIP3   OH225451   6.955   2.594   3.032
 8503TIP3    H125452   6.936   2.664   2.970
 8503TIP3    H225453   7.040   2.560   3.004
 8504TIP3   OH225454   6.695   4.028   4.960
 8504TIP3    H125455   6.662   4.108   4.999
 8504TIP3    H225456   6.648   4.020   4.877
 8505TIP3   OH225457   3.878   5.945   1.267
 8505TIP3    H125458   3.907   5.934   1.358
 8505TIP3    H225459   3.896   6.037   1.247
 8506TIP3   OH225460   6.747   5.348   6.223
 8506TIP3    H125461   6.805   5.275   6.244
 8506TIP3    H225462   6.700   5.319   6.145
 8507TIP3   OH225463   1.176   2.809   0.817
 8507TIP3    H125464   1.094   2.805   0.769
 8507TIP3    H225465   1.230   2.739   0.779
 8508TIP3   OH225466   2.670   5.347   2.286
 8508TIP3    H125467   2.602   5.280   2.284
 8508TIP3    H225468   2.748   5.301   2.317
 8509TIP3   OH225469   1.291   1.355   5.819
 8509TIP3    H125470   1.239   1.297   5.875
 8509TIP3    H225471   1.371   1.305   5.800
 8510TIP3   OH225472   2.431   7.676   5.842
 8510TIP3    H125473   2.457   7.656   5.752
 8510TIP3    H225474   2.510   7.659   5.893
 8511TIP3   OH225475   3.388   1.585   5.474
 8511TIP3    H125476   3.467   1.552   5.517
 8511TIP3    H225477   3.319   1.575   5.540
 8512TIP3   OH225478   0.374   5.048   3.301
 8512TIP3    H125479   0.416   5.055   3.215
 8512TIP3    H225480   0.281   5.038   3.282
 8513TIP3   OH225481   6.861   2.085   0.304
 8513TIP3    H125482   6.939   2.070   0.250
 8513TIP3    H225483   6.791   2.100   0.241
 8514TIP3   OH225484   1.699   4.388   1.205
 8514TIP3    H125485   1.681   4.331   1.280
 8514TIP3    H225486   1.751   4.460   1.241
 8515TIP3   OH225487   7.626   3.307   1.097
 8515TIP3    H125488   7.645   3.348   1.013
 8515TIP3    H225489   7.659   3.369   1.162
 8516TIP3   OH225490   6.614   4.616   3.394
 8516TIP3    H125491   6.535   4.623   3.341
 8516TIP3    H225492   6.644   4.706   3.405
 8517TIP3   OH225493   8.007   4.266   5.216
 8517TIP3    H125494   7.988   4.357   5.194
 8517TIP3    H225495   7.982   4.217   5.138
 8518TIP3   OH225496   8.052   3.110   1.242
 8518TIP3    H125497   7.965   3.070   1.237
 8518TIP3    H225498   8.040   3.187   1.298
 8519TIP3   OH225499   1.390   2.457   1.286
 8519TIP3    H125500   1.310   2.496   1.252
 8519TIP3    H225501   1.372   2.363   1.286
 8520TIP3   OH225502   0.057   3.576   1.045
 8520TIP3    H125503   0.106   3.610   1.121
 8520TIP3    H225504   0.124   3.556   0.980
 8521TIP3   OH225505   5.098   4.966   4.747
 8521TIP3    H125506   5.052   4.883   4.753
 8521TIP3    H225507   5.029   5.031   4.731
 8522TIP3   OH225508   3.637   2.651   3.694
 8522TIP3    H125509   3.713   2.708   3.677
 8522TIP3    H225510   3.563   2.699   3.658
 8523TIP3   OH225511   1.240   5.277   2.317
 8523TIP3    H125512   1.193   5.207   2.272
 8523TIP3    H225513   1.256   5.342   2.250
 8524TIP3   OH225514   1.605   4.914   5.926
 8524TIP3    H125515   1.675   4.866   5.970
 8524TIP3    H225516   1.615   5.004   5.956
 8525TIP3   OH225517   6.790   3.821   1.912
 8525TIP3    H125518   6.765   3.731   1.892
 8525TIP3    H225519   6.864   3.839   1.854
 8526TIP3   OH225520   4.164   5.357   3.338
 8526TIP3    H125521   4.162   5.371   3.243
 8526TIP3    H225522   4.198   5.269   3.349
 8527TIP3   OH225523   5.192   3.779   5.276
 8527TIP3    H125524   5.225   3.713   5.215
 8527TIP3    H225525   5.139   3.837   5.221
 8528TIP3   OH225526   1.819   1.014   3.579
 8528TIP3    H125527   1.746   0.995   3.639
 8528TIP3    H225528   1.823   1.110   3.577
 8529TIP3   OH225529   5.853   7.724   0.817
 8529TIP3    H125530   5.769   7.684   0.793
 8529TIP3    H225531   5.903   7.653   0.857
 8530TIP3   OH225532   3.951   3.569   5.381
 8530TIP3    H125533   3.878   3.558   5.441
 8530TIP3    H225534   3.928   3.517   5.305
 8531TIP3   OH225535   4.806   1.081   0.875
 8531TIP3    H125536   4.764   1.041   0.799
 8531TIP3    H225537   4.889   1.114   0.842
 8532TIP3   OH225538   6.993   5.720   5.950
 8532TIP3    H125539   6.923   5.658   5.932
 8532TIP3    H225540   7.001   5.721   6.045
 8533TIP3   OH225541   3.634   5.175   3.673
 8533TIP3    H125542   3.629   5.186   3.768
 8533TIP3    H225543   3.672   5.256   3.641
 8534TIP3   OH225544   1.893   1.084   4.793
 8534TIP3    H125545   1.882   1.147   4.864
 8534TIP3    H225546   1.830   1.015   4.813
 8535TIP3   OH225547   0.543   7.822   0.149
 8535TIP3    H125548   0.625   7.832   0.102
 8535TIP3    H225549   0.475   7.833   0.082
 8536TIP3   OH225550   6.807   5.356   0.577
 8536TIP3    H125551   6.777   5.423   0.638
 8536TIP3    H225552   6.816   5.278   0.630
 8537TIP3   OH225553   2.882   4.365   3.829
 8537TIP3    H125554   2.806   4.414   3.796
 8537TIP3    H225555   2.866   4.275   3.802
 8538TIP3   OH225556   4.698   6.098   0.084
 8538TIP3    H125557   4.713   6.152   0.162
 8538TIP3    H225558   4.750   6.141   0.016
 8539TIP3   OH225559   2.503   0.692   0.977
 8539TIP3    H125560   2.464   0.692   1.064
 8539TIP3    H225561   2.596   0.679   0.992
 8540TIP3   OH225562   7.224   0.118   0.150
 8540TIP3    H125563   7.215   0.027   0.123
 8540TIP3    H225564   7.318   0.135   0.145
 8541TIP3   OH225565   4.043   5.049   5.355
 8541TIP3    H125566   4.110   4.986   5.328
 8541TIP3    H225567   3.969   5.030   5.297
 8542TIP3   OH225568   2.834   2.206   3.561
 8542TIP3    H125569   2.882   2.123   3.569
 8542TIP3    H225570   2.749   2.189   3.602
 8543TIP3   OH225571   6.547   2.967   6.732
 8543TIP3    H125572   6.628   2.997   6.690
 8543TIP3    H225573   6.483   2.963   6.660
 8544TIP3   OH225574   2.156   6.023   2.740
 8544TIP3    H125575   2.106   5.943   2.758
 8544TIP3    H225576   2.107   6.066   2.670
 8545TIP3   OH225577   2.358   5.225   2.685
 8545TIP3    H125578   2.383   5.317   2.687
 8545TIP3    H225579   2.439   5.177   2.705
 8546TIP3   OH225580   0.488   0.914   5.212
 8546TIP3    H125581   0.548   0.985   5.236
 8546TIP3    H225582   0.503   0.901   5.119
 8547TIP3   OH225583   2.285   6.560   5.831
 8547TIP3    H125584   2.285   6.623   5.903
 8547TIP3    H225585   2.293   6.475   5.874
 8548TIP3   OH225586   5.489   1.113   0.505
 8548TIP3    H125587   5.486   1.077   0.417
 8548TIP3    H225588   5.422   1.181   0.506
 8549TIP3   OH225589   3.623   7.747   6.424
 8549TIP3    H125590   3.537   7.783   6.445
 8549TIP3    H225591   3.605   7.657   6.396
 8550TIP3   OH225592   5.737   5.954   1.885
 8550TIP3    H125593   5.790   5.956   1.965
 8550TIP3    H225594   5.799   5.929   1.816
 8551TIP3   OH225595   0.773   6.455   2.764
 8551TIP3    H125596   0.818   6.522   2.714
 8551TIP3    H225597   0.683   6.488   2.774
 8552TIP3   OH225598   5.352   5.825   5.089
 8552TIP3    H125599   5.270   5.868   5.115
 8552TIP3    H225600   5.377   5.772   5.165
 8553TIP3   OH225601   1.706   6.856   3.309
 8553TIP3    H125602   1.704   6.839   3.215
 8553TIP3    H225603   1.773   6.923   3.320
 8554TIP3   OH225604   0.757   4.052   2.758
 8554TIP3    H125605   0.768   4.003   2.676
 8554TIP3    H225606   0.813   4.007   2.820
 8555TIP3   OH225607   2.301   5.676   5.058
 8555TIP3    H125608   2.229   5.685   4.995
 8555TIP3    H225609   2.362   5.746   5.036
 8556TIP3   OH225610   6.416   0.292   5.791
 8556TIP3    H125611   6.461   0.216   5.754
 8556TIP3    H225612   6.444   0.296   5.882
 8557TIP3   OH225613   0.318   5.574   4.329
 8557TIP3    H125614   0.326   5.661   4.290
 8557TIP3    H225615   0.252   5.530   4.276
 8558TIP3   OH225616   5.747   3.936   0.068
 8558TIP3    H125617   5.789   3.969  -0.011
 8558TIP3    H225618   5.816   3.885   0.112
 8559TIP3   OH225619   7.953   6.793   2.302
 8559TIP3    H125620   8.027   6.820   2.357
 8559TIP3    H225621   7.989   6.727   2.244
 8560TIP3   OH225622   4.701   1.059   4.571
 8560TIP3    H125623   4.782   1.057   4.520
 8560TIP3    H225624   4.636   1.015   4.517
 8561TIP3   OH225625   0.750   2.712   2.916
 8561TIP3    H125626   0.705   2.675   2.840
 8561TIP3    H225627   0.696   2.686   2.991
 8562TIP3   OH225628   6.529   7.396   1.652
 8562TIP3    H125629   6.603   7.340   1.673
 8562TIP3    H225630   6.504   7.371   1.563
 8563TIP3   OH225631   7.188   2.658   4.197
 8563TIP3    H125632   7.110   2.609   4.222
 8563TIP3    H225633   7.241   2.664   4.277
 8564TIP3   OH225634   0.166   6.526   2.181
 8564TIP3    H125635   0.157   6.611   2.138
 8564TIP3    H225636   0.260   6.508   2.181
 8565TIP3   OH225637   3.014   7.756   1.047
 8565TIP3    H125638   2.956   7.754   1.123
 8565TIP3    H225639   3.011   7.847   1.016
 8566TIP3   OH225640   5.659   4.253   6.424
 8566TIP3    H125641   5.723   4.324   6.411
 8566TIP3    H225642   5.693   4.205   6.500
 8567TIP3   OH225643   7.944   5.180   4.833
 8567TIP3    H125644   7.995   5.102   4.856
 8567TIP3    H225645   7.987   5.252   4.880
 8568TIP3   OH225646   2.078   4.555   6.228
 8568TIP3    H125647   2.064   4.547   6.133
 8568TIP3    H225648   2.161   4.510   6.244
 8569TIP3   OH225649   0.715   1.326   4.861
 8569TIP3    H125650   0.693   1.242   4.900
 8569TIP3    H225651   0.632   1.363   4.833
 8570TIP3   OH225652   2.293   4.466   1.487
 8570TIP3    H125653   2.253   4.416   1.558
 8570TIP3    H225654   2.221   4.483   1.426
 8571TIP3   OH225655   4.415   1.639   5.456
 8571TIP3    H125656   4.415   1.725   5.499
 8571TIP3    H225657   4.459   1.654   5.372
 8572TIP3   OH225658   6.985   4.593   3.771
 8572TIP3    H125659   6.963   4.532   3.701
 8572TIP3    H225660   6.908   4.647   3.782
 8573TIP3   OH225661   1.495   2.910   5.765
 8573TIP3    H125662   1.454   2.823   5.763
 8573TIP3    H225663   1.523   2.926   5.675
 8574TIP3   OH225664   4.441   1.736   2.515
 8574TIP3    H125665   4.524   1.689   2.520
 8574TIP3    H225666   4.425   1.747   2.422
 8575TIP3   OH225667   5.888   7.021   5.763
 8575TIP3    H125668   5.956   7.056   5.705
 8575TIP3    H225669   5.810   7.017   5.707
 8576TIP3   OH225670   5.783   5.664   4.437
 8576TIP3    H125671   5.818   5.589   4.485
 8576TIP3    H225672   5.853   5.729   4.438
 8577TIP3   OH225673   0.074   1.779   3.805
 8577TIP3    H125674   0.164   1.785   3.772
 8577TIP3    H225675   0.079   1.712   3.873
 8578TIP3   OH225676   0.912   0.731   5.356
 8578TIP3    H125677   0.848   0.710   5.288
 8578TIP3    H225678   0.981   0.666   5.345
 8579TIP3   OH225679   4.737   7.137   6.447
 8579TIP3    H125680   4.778   7.209   6.496
 8579TIP3    H225681   4.678   7.096   6.510
 8580TIP3   OH225682   3.674   2.684   5.198
 8580TIP3    H125683   3.656   2.771   5.232
 8580TIP3    H225684   3.606   2.669   5.132
 8581TIP3   OH225685   2.949   1.843   4.565
 8581TIP3    H125686   2.972   1.804   4.481
 8581TIP3    H225687   3.032   1.849   4.613
 8582TIP3   OH225688   1.442   5.626   5.222
 8582TIP3    H125689   1.491   5.607   5.142
 8582TIP3    H225690   1.405   5.713   5.207
 8583TIP3   OH225691   8.272   7.536   1.429
 8583TIP3    H125692   8.224   7.471   1.479
 8583TIP3    H225693   8.332   7.576   1.493
 8584TIP3   OH225694   5.898   1.764   5.674
 8584TIP3    H125695   5.940   1.688   5.633
 8584TIP3    H225696   5.847   1.728   5.746
 8585TIP3   OH225697   2.540   5.719   6.669
 8585TIP3    H125698   2.504   5.786   6.610
 8585TIP3    H225699   2.500   5.737   6.754
 8586TIP3   OH225700   6.128   4.575   0.506
 8586TIP3    H125701   6.158   4.494   0.463
 8586TIP3    H225702   6.072   4.545   0.578
 8587TIP3   OH225703   0.550   1.128   5.368
 8587TIP3    H125704   0.554   1.221   5.346
 8587TIP3    H225705   0.565   1.126   5.463
 8588TIP3   OH225706   4.503   6.930   1.799
 8588TIP3    H125707   4.536   6.987   1.730
 8588TIP3    H225708   4.546   6.962   1.879
 8589TIP3   OH225709   0.446   2.135   0.055
 8589TIP3    H125710   0.395   2.182   0.121
 8589TIP3    H225711   0.381   2.084   0.006
 8590TIP3   OH225712   2.594   7.251   5.328
 8590TIP3    H125713   2.565   7.318   5.389
 8590TIP3    H225714   2.599   7.295   5.243
 8591TIP3   OH225715   2.734   2.659   3.317
 8591TIP3    H125716   2.662   2.619   3.269
 8591TIP3    H225717   2.812   2.614   3.283
 8592TIP3   OH225718   1.902   3.651   5.994
 8592TIP3    H125719   1.996   3.669   5.996
 8592TIP3    H225720   1.864   3.731   5.958
 8593TIP3   OH225721   4.663   5.656   4.707
 8593TIP3    H125722   4.678   5.562   4.711
 8593TIP3    H225723   4.734   5.694   4.759
 8594TIP3   OH225724   6.705   6.771   5.661
 8594TIP3    H125725   6.765   6.706   5.698
 8594TIP3    H225726   6.657   6.806   5.736
 8595TIP3   OH225727   6.998   5.520   2.252
 8595TIP3    H125728   7.035   5.605   2.229
 8595TIP3    H225729   6.976   5.527   2.344
 8596TIP3   OH225730   5.158   7.505   1.212
 8596TIP3    H125731   5.175   7.427   1.160
 8596TIP3    H225732   5.107   7.474   1.287
 8597TIP3   OH225733   5.489   6.857   2.452
 8597TIP3    H125734   5.568   6.805   2.438
 8597TIP3    H225735   5.513   6.945   2.422
 8598TIP3   OH225736   5.492   1.384   1.477
 8598TIP3    H125737   5.487   1.478   1.493
 8598TIP3    H225738   5.435   1.345   1.543
 8599TIP3   OH225739   6.968   1.610   4.215
 8599TIP3    H125740   6.911   1.685   4.195
 8599TIP3    H225741   6.935   1.576   4.298
 8600TIP3   OH225742   6.276   6.621   5.669
 8600TIP3    H125743   6.257   6.711   5.695
 8600TIP3    H225744   6.278   6.571   5.750
 8601TIP3   OH225745   2.173   1.009   3.742
 8601TIP3    H125746   2.119   1.084   3.765
 8601TIP3    H225747   2.261   1.045   3.732
 8602TIP3   OH225748   5.242   4.408   0.237
 8602TIP3    H125749   5.174   4.383   0.300
 8602TIP3    H225750   5.195   4.417   0.154
 8603TIP3   OH225751   8.081   2.105   5.884
 8603TIP3    H125752   8.034   2.183   5.856
 8603TIP3    H225753   8.059   2.038   5.819
 8604TIP3   OH225754   4.958   6.278   6.348
 8604TIP3    H125755   4.874   6.253   6.387
 8604TIP3    H225756   4.952   6.249   6.257
 8605TIP3   OH225757   1.344   5.656   5.503
 8605TIP3    H125758   1.368   5.639   5.412
 8605TIP3    H225759   1.302   5.743   5.501
 8606TIP3   OH225760   7.198   5.916   0.365
 8606TIP3    H125761   7.116   5.874   0.390
 8606TIP3    H225762   7.176   6.009   0.355
 8607TIP3   OH225763   2.421   3.463   0.169
 8607TIP3    H125764   2.464   3.397   0.114
 8607TIP3    H225765   2.363   3.412   0.226
 8608TIP3   OH225766   7.529   0.558   2.080
 8608TIP3    H125767   7.493   0.478   2.118
 8608TIP3    H225768   7.564   0.607   2.154
 8609TIP3   OH225769   6.507   2.529   0.727
 8609TIP3    H125770   6.546   2.448   0.693
 8609TIP3    H225771   6.416   2.504   0.748
 8610TIP3   OH225772   5.920   6.774   3.762
 8610TIP3    H125773   5.922   6.838   3.833
 8610TIP3    H225774   6.009   6.740   3.758
 8611TIP3   OH225775   3.916   0.933   6.308
 8611TIP3    H125776   3.947   0.951   6.220
 8611TIP3    H225777   3.821   0.942   6.303
 8612TIP3   OH225778   3.590   3.908   3.666
 8612TIP3    H125779   3.661   3.954   3.621
 8612TIP3    H225780   3.633   3.851   3.729
 8613TIP3   OH225781   6.158   4.043   3.061
 8613TIP3    H125782   6.071   4.062   3.028
 8613TIP3    H225783   6.206   4.126   3.051
 8614TIP3   OH225784   1.328   0.834   6.376
 8614TIP3    H125785   1.375   0.761   6.418
 8614TIP3    H225786   1.296   0.887   6.449
 8615TIP3   OH225787   4.220   1.608   6.173
 8615TIP3    H125788   4.312   1.631   6.160
 8615TIP3    H225789   4.201   1.635   6.263
 8616TIP3   OH225790   4.207   6.595   0.848
 8616TIP3    H125791   4.223   6.609   0.941
 8616TIP3    H225792   4.277   6.536   0.820
 8617TIP3   OH225793   5.553   0.897   1.282
 8617TIP3    H125794   5.504   0.979   1.282
 8617TIP3    H225795   5.560   0.873   1.189
 8618TIP3   OH225796   5.482   1.753   4.000
 8618TIP3    H125797   5.495   1.777   3.909
 8618TIP3    H225798   5.401   1.796   4.025
 8619TIP3   OH225799   8.034   3.630   6.366
 8619TIP3    H125800   8.011   3.545   6.329
 8619TIP3    H225801   7.958   3.655   6.418
 8620TIP3   OH225802   4.443   0.090   0.441
 8620TIP3    H125803   4.446   0.173   0.487
 8620TIP3    H225804   4.361   0.050   0.469
 8621TIP3   OH225805   3.592   0.517   6.438
 8621TIP3    H125806   3.677   0.497   6.477
 8621TIP3    H225807   3.610   0.522   6.344
 8622TIP3   OH225808   5.252   0.809   3.575
 8622TIP3    H125809   5.196   0.737   3.603
 8622TIP3    H225810   5.216   0.836   3.491
 8623TIP3   OH225811   5.328   2.096   3.664
 8623TIP3    H125812   5.368   2.178   3.694
 8623TIP3    H225813   5.276   2.121   3.588
 8624TIP3   OH225814   3.718   4.346   3.444
 8624TIP3    H125815   3.788   4.367   3.505
 8624TIP3    H225816   3.759   4.350   3.358
 8625TIP3   OH225817   3.871   1.146   6.071
 8625TIP3    H125818   3.960   1.153   6.038
 8625TIP3    H225819   3.841   1.060   6.042
 8626TIP3   OH225820   2.211   2.982   3.206
 8626TIP3    H125821   2.293   3.009   3.165
 8626TIP3    H225822   2.144   3.001   3.141
 8627TIP3   OH225823   6.842   3.157   0.150
 8627TIP3    H125824   6.823   3.067   0.174
 8627TIP3    H225825   6.762   3.205   0.168
 8628TIP3   OH225826   7.528   0.097   4.834
 8628TIP3    H125827   7.511   0.021   4.891
 8628TIP3    H225828   7.526   0.172   4.894
 8629TIP3   OH225829   2.102   3.780   2.485
 8629TIP3    H125830   2.021   3.794   2.536
 8629TIP3    H225831   2.077   3.719   2.416
 8630TIP3   OH225832   8.294   0.501   6.495
 8630TIP3    H125833   8.286   0.406   6.483
 8630TIP3    H225834   8.206   0.535   6.475
 8631TIP3   OH225835   7.747   4.498   4.319
 8631TIP3    H125836   7.836   4.486   4.289
 8631TIP3    H225837   7.745   4.588   4.353
 8632TIP3   OH225838   2.017   4.797   3.426
 8632TIP3    H125839   1.973   4.877   3.456
 8632TIP3    H225840   2.101   4.796   3.471
 8633TIP3   OH225841   6.644   4.538   1.711
 8633TIP3    H125842   6.565   4.484   1.705
 8633TIP3    H225843   6.619   4.622   1.674
 8634TIP3   OH225844   2.751   2.957   4.198
 8634TIP3    H125845   2.824   2.896   4.203
 8634TIP3    H225846   2.729   2.975   4.290
 8635TIP3   OH225847   4.275   1.936   0.296
 8635TIP3    H125848   4.330   1.869   0.336
 8635TIP3    H225849   4.189   1.923   0.335
 8636TIP3   OH225850   3.853   1.406   4.363
 8636TIP3    H125851   3.886   1.353   4.435
 8636TIP3    H225852   3.918   1.475   4.351
 8637TIP3   OH225853   2.406   7.074   2.786
 8637TIP3    H125854   2.369   7.123   2.860
 8637TIP3    H225855   2.335   7.069   2.723
 8638TIP3   OH225856   6.285   3.855   3.486
 8638TIP3    H125857   6.228   3.895   3.420
 8638TIP3    H225858   6.372   3.854   3.446
 8639TIP3   OH225859   8.047   3.879   5.272
 8639TIP3    H125860   8.113   3.926   5.321
 8639TIP3    H225861   7.964   3.922   5.294
 8640TIP3   OH225862   4.291   6.427   4.560
 8640TIP3    H125863   4.255   6.486   4.626
 8640TIP3    H225864   4.215   6.383   4.522
 8641TIP3   OH225865   6.023   5.214   4.393
 8641TIP3    H125866   5.940   5.235   4.351
 8641TIP3    H225867   6.063   5.299   4.412
 8642TIP3   OH225868   2.251   1.490   5.875
 8642TIP3    H125869   2.211   1.436   5.943
 8642TIP3    H225870   2.177   1.528   5.828
 8643TIP3   OH225871   4.672   4.677   1.864
 8643TIP3    H125872   4.603   4.649   1.805
 8643TIP3    H225873   4.664   4.618   1.940
 8644TIP3   OH225874   2.468   7.560   6.559
 8644TIP3    H125875   2.382   7.553   6.519
 8644TIP3    H225876   2.523   7.602   6.493
 8645TIP3   OH225877   5.204   5.101   5.512
 8645TIP3    H125878   5.291   5.134   5.489
 8645TIP3    H225879   5.169   5.065   5.431
 8646TIP3   OH225880   0.493   1.147   6.671
 8646TIP3    H125881   0.584   1.125   6.692
 8646TIP3    H225882   0.481   1.235   6.708
 8647TIP3   OH225883   0.659   2.002   1.532
 8647TIP3    H125884   0.617   2.034   1.612
 8647TIP3    H225885   0.719   2.072   1.507
 8648TIP3   OH225886   6.557   0.732   1.190
 8648TIP3    H125887   6.602   0.776   1.262
 8648TIP3    H225888   6.608   0.755   1.113
 8649TIP3   OH225889   7.370   4.193   2.892
 8649TIP3    H125890   7.413   4.258   2.948
 8649TIP3    H225891   7.277   4.203   2.910
 8650TIP3   OH225892   4.083   6.805   2.680
 8650TIP3    H125893   4.140   6.731   2.697
 8650TIP3    H225894   4.142   6.881   2.680
 8651TIP3   OH225895   5.455   1.045   3.064
 8651TIP3    H125896   5.361   1.043   3.051
 8651TIP3    H225897   5.475   0.967   3.116
 8652TIP3   OH225898   6.929   4.706   5.178
 8652TIP3    H125899   6.967   4.768   5.240
 8652TIP3    H225900   6.856   4.753   5.139
 8653TIP3   OH225901   3.288   7.377   4.009
 8653TIP3    H125902   3.298   7.427   3.928
 8653TIP3    H225903   3.217   7.421   4.056
 8654TIP3   OH225904   5.803   5.384   1.680
 8654TIP3    H125905   5.831   5.317   1.617
 8654TIP3    H225906   5.821   5.346   1.766
 8655TIP3   OH225907   7.012   1.090   3.382
 8655TIP3    H125908   6.954   1.160   3.352
 8655TIP3    H225909   7.088   1.096   3.325
 8656TIP3   OH225910   8.102   6.685   2.059
 8656TIP3    H125911   8.084   6.705   1.967
 8656TIP3    H225912   8.177   6.741   2.081
 8657TIP3   OH225913   6.203   6.802   1.609
 8657TIP3    H125914   6.145   6.851   1.551
 8657TIP3    H225915   6.288   6.845   1.600
 8658TIP3   OH225916   4.825   4.624   2.188
 8658TIP3    H125917   4.863   4.545   2.151
 8658TIP3    H225918   4.836   4.690   2.119
 8659TIP3   OH225919   2.359   7.449   0.375
 8659TIP3    H125920   2.426   7.391   0.413
 8659TIP3    H225921   2.405   7.495   0.305
 8660TIP3   OH225922   3.758   2.716   1.157
 8660TIP3    H125923   3.738   2.644   1.098
 8660TIP3    H225924   3.674   2.739   1.196
 8661TIP3   OH225925   6.496   4.156   2.225
 8661TIP3    H125926   6.496   4.099   2.302
 8661TIP3    H225927   6.505   4.095   2.151
 8662TIP3   OH225928   7.965   6.036   5.515
 8662TIP3    H125929   7.928   5.949   5.530
 8662TIP3    H225930   7.891   6.089   5.487
 8663TIP3   OH225931   0.888   2.195   4.664
 8663TIP3    H125932   0.874   2.136   4.738
 8663TIP3    H225933   0.944   2.265   4.700
 8664TIP3   OH225934   0.730   3.245   2.182
 8664TIP3    H125935   0.643   3.231   2.221
 8664TIP3    H225936   0.728   3.336   2.154
 8665TIP3   OH225937   2.080   3.205   5.666
 8665TIP3    H125938   2.092   3.122   5.620
 8665TIP3    H225939   2.017   3.186   5.736
 8666TIP3   OH225940   6.525   1.696   6.197
 8666TIP3    H125941   6.554   1.727   6.111
 8666TIP3    H225942   6.600   1.714   6.255
 8667TIP3   OH225943   5.164   1.249   4.932
 8667TIP3    H125944   5.214   1.330   4.944
 8667TIP3    H225945   5.158   1.239   4.837
 8668TIP3   OH225946   2.761   7.290   3.777
 8668TIP3    H125947   2.738   7.210   3.824
 8668TIP3    H225948   2.856   7.297   3.788
 8669TIP3   OH225949   3.458   3.191   6.573
 8669TIP3    H125950   3.468   3.142   6.492
 8669TIP3    H225951   3.391   3.256   6.554
 8670TIP3   OH225952   8.140   3.137   2.450
 8670TIP3    H125953   8.235   3.128   2.461
 8670TIP3    H225954   8.108   3.160   2.537
 8671TIP3   OH225955   8.130   6.965   2.493
 8671TIP3    H125956   8.186   7.019   2.438
 8671TIP3    H225957   8.058   7.022   2.519
 8672TIP3   OH225958   2.551   6.422   5.238
 8672TIP3    H125959   2.625   6.379   5.279
 8672TIP3    H225960   2.585   6.455   5.155
 8673TIP3   OH225961   5.905   3.516   0.306
 8673TIP3    H125962   5.930   3.520   0.214
 8673TIP3    H225963   5.860   3.432   0.315
 8674TIP3   OH225964   2.006   5.198   3.139
 8674TIP3    H125965   2.050   5.138   3.078
 8674TIP3    H225966   2.077   5.232   3.193
 8675TIP3   OH225967   6.337   6.501   5.001
 8675TIP3    H125968   6.367   6.560   5.070
 8675TIP3    H225969   6.243   6.495   5.012
 8676TIP3   OH225970   1.188   2.605   5.261
 8676TIP3    H125971   1.202   2.567   5.174
 8676TIP3    H225972   1.127   2.545   5.304
 8677TIP3   OH225973   2.875   3.410   5.114
 8677TIP3    H125974   2.863   3.369   5.028
 8677TIP3    H225975   2.837   3.498   5.104
 8678TIP3   OH225976   5.371   0.672   5.214
 8678TIP3    H125977   5.302   0.663   5.148
 8678TIP3    H225978   5.405   0.761   5.200
 8679TIP3   OH225979   1.694   0.235   1.167
 8679TIP3    H125980   1.603   0.265   1.167
 8679TIP3    H225981   1.745   0.314   1.149
 8680TIP3   OH225982   1.631   4.618   5.865
 8680TIP3    H125983   1.578   4.698   5.868
 8680TIP3    H225984   1.587   4.563   5.800
 8681TIP3   OH225985   5.702   1.385   1.947
 8681TIP3    H125986   5.748   1.336   2.015
 8681TIP3    H225987   5.733   1.348   1.865
 8682TIP3   OH225988   2.179   7.223   4.256
 8682TIP3    H125989   2.249   7.198   4.196
 8682TIP3    H225990   2.222   7.233   4.341
 8683TIP3   OH225991   0.479   0.632   0.951
 8683TIP3    H125992   0.398   0.584   0.967
 8683TIP3    H225993   0.547   0.565   0.955
 8684TIP3   OH225994   7.446   7.068   2.307
 8684TIP3    H125995   7.386   7.035   2.374
 8684TIP3    H225996   7.525   7.092   2.355
 8685TIP3   OH225997   7.208   2.829   1.104
 8685TIP3    H125998   7.181   2.738   1.089
 8685TIP3    H225999   7.126   2.878   1.106
 8686TIP3   OH226000   6.528   5.046   1.974
 8686TIP3    H126001   6.470   5.018   1.904
 8686TIP3    H226002   6.470   5.081   2.042
 8687TIP3   OH226003   1.185   2.688   1.502
 8687TIP3    H126004   1.097   2.711   1.472
 8687TIP3    H226005   1.195   2.595   1.480
 8688TIP3   OH226006   0.922   3.085   6.066
 8688TIP3    H126007   0.960   3.123   6.145
 8688TIP3    H226008   0.996   3.073   6.007
 8689TIP3   OH226009   0.692   1.260   2.679
 8689TIP3    H126010   0.756   1.331   2.667
 8689TIP3    H226011   0.645   1.256   2.596
 8690TIP3   OH226012   1.437   4.610   3.425
 8690TIP3    H126013   1.420   4.529   3.377
 8690TIP3    H226014   1.453   4.675   3.356
 8691TIP3   OH226015   3.275   2.610   4.035
 8691TIP3    H126016   3.277   2.661   4.116
 8691TIP3    H226017   3.341   2.652   3.980
 8692TIP3   OH226018   1.085   4.518   3.388
 8692TIP3    H126019   1.132   4.494   3.468
 8692TIP3    H226020   1.116   4.454   3.323
 8693TIP3   OH226021   5.022   6.759   5.974
 8693TIP3    H126022   4.931   6.786   5.958
 8693TIP3    H226023   5.029   6.672   5.935
 8694TIP3   OH226024   2.288   1.491   3.792
 8694TIP3    H126025   2.361   1.433   3.770
 8694TIP3    H226026   2.328   1.561   3.843
 8695TIP3   OH226027   1.435   4.269   2.632
 8695TIP3    H126028   1.416   4.248   2.723
 8695TIP3    H226029   1.390   4.353   2.617
 8696TIP3   OH226030   4.608   7.635   6.567
 8696TIP3    H126031   4.583   7.585   6.645
 8696TIP3    H226032   4.580   7.580   6.494
 8697TIP3   OH226033   4.309   4.916   4.648
 8697TIP3    H126034   4.335   4.846   4.588
 8697TIP3    H226035   4.282   4.871   4.728
 8698TIP3   OH226036   5.497   6.371   1.116
 8698TIP3    H126037   5.426   6.371   1.053
 8698TIP3    H226038   5.520   6.279   1.127
 8699TIP3   OH226039   5.813   3.830   2.516
 8699TIP3    H126040   5.869   3.900   2.483
 8699TIP3    H226041   5.850   3.750   2.480
 8700TIP3   OH226042   2.536   1.466   0.971
 8700TIP3    H126043   2.530   1.529   0.900
 8700TIP3    H226044   2.627   1.436   0.969
 8701TIP3   OH226045   7.098   5.403   5.944
 8701TIP3    H126046   7.081   5.314   5.974
 8701TIP3    H226047   7.032   5.457   5.988
 8702TIP3   OH226048   7.401   4.787   2.008
 8702TIP3    H126049   7.464   4.833   2.064
 8702TIP3    H226050   7.454   4.751   1.937
 8703TIP3   OH226051   0.128   5.290   2.442
 8703TIP3    H126052   0.089   5.361   2.494
 8703TIP3    H226053   0.161   5.334   2.364
 8704TIP3   OH226054   7.041   6.343   4.562
 8704TIP3    H126055   7.079   6.403   4.498
 8704TIP3    H226056   7.113   6.287   4.590
 8705TIP3   OH226057   2.621   0.636   1.265
 8705TIP3    H126058   2.618   0.550   1.223
 8705TIP3    H226059   2.704   0.637   1.312
 8706TIP3   OH226060   3.224   6.288   3.070
 8706TIP3    H126061   3.170   6.211   3.089
 8706TIP3    H226062   3.192   6.355   3.130
 8707TIP3   OH226063   7.160   3.983   0.747
 8707TIP3    H126064   7.077   4.023   0.774
 8707TIP3    H226065   7.147   3.889   0.762
 8708TIP3   OH226066   2.502   3.549   4.356
 8708TIP3    H126067   2.428   3.593   4.314
 8708TIP3    H226068   2.550   3.620   4.400
 8709TIP3   OH226069   3.148   4.259   2.690
 8709TIP3    H126070   3.182   4.208   2.616
 8709TIP3    H226071   3.170   4.350   2.668
 8710TIP3   OH226072   3.485   6.126   5.324
 8710TIP3    H126073   3.568   6.081   5.339
 8710TIP3    H226074   3.504   6.218   5.343
 8711TIP3   OH226075  -0.005   3.207   1.412
 8711TIP3    H126076   0.086   3.183   1.425
 8711TIP3    H226077  -0.054   3.152   1.473
 8712TIP3   OH226078   3.089   0.227   4.948
 8712TIP3    H126079   3.173   0.204   4.987
 8712TIP3    H226080   3.033   0.151   4.964
 8713TIP3   OH226081   5.281   3.655   5.834
 8713TIP3    H126082   5.214   3.589   5.847
 8713TIP3    H226083   5.293   3.659   5.739
 8714TIP3   OH226084   5.213   1.745   3.556
 8714TIP3    H126085   5.142   1.713   3.499
 8714TIP3    H226086   5.263   1.804   3.500
 8715TIP3   OH226087   4.206   3.690   6.322
 8715TIP3    H126088   4.130   3.679   6.265
 8715TIP3    H226089   4.271   3.630   6.286
 8716TIP3   OH226090   2.450   6.171   5.085
 8716TIP3    H126091   2.471   6.241   5.147
 8716TIP3    H226092   2.390   6.211   5.023
 8717TIP3   OH226093   3.617   0.932   6.264
 8717TIP3    H126094   3.573   1.011   6.296
 8717TIP3    H226095   3.586   0.862   6.322
 8718TIP3   OH226096   0.348   1.009   3.274
 8718TIP3    H126097   0.380   1.052   3.194
 8718TIP3    H226098   0.416   0.947   3.297
 8719TIP3   OH226099   2.478   4.197   3.982
 8719TIP3    H126100   2.439   4.169   4.065
 8719TIP3    H226101   2.409   4.182   3.917
 8720TIP3   OH226102   7.618   7.806   3.458
 8720TIP3    H126103   7.661   7.756   3.388
 8720TIP3    H226104   7.554   7.861   3.411
 8721TIP3   OH226105   5.985   7.015   2.877
 8721TIP3    H126106   5.903   7.034   2.922
 8721TIP3    H226107   5.971   6.928   2.840
 8722TIP3   OH226108   6.368   2.218   5.547
 8722TIP3    H126109   6.310   2.224   5.623
 8722TIP3    H226110   6.345   2.295   5.494
 8723TIP3   OH226111   5.335   3.010   2.799
 8723TIP3    H126112   5.310   2.918   2.788
 8723TIP3    H226113   5.420   3.017   2.757
 8724TIP3   OH226114   0.435   6.710   3.317
 8724TIP3    H126115   0.447   6.654   3.240
 8724TIP3    H226116   0.508   6.686   3.375
 8725TIP3   OH226117   3.549   2.197   2.450
 8725TIP3    H126118   3.642   2.182   2.432
 8725TIP3    H226119   3.504   2.130   2.398
 8726TIP3   OH226120   0.315   3.889   3.584
 8726TIP3    H126121   0.331   3.821   3.519
 8726TIP3    H226122   0.375   3.869   3.656
 8727TIP3   OH226123   4.736   1.379   6.783
 8727TIP3    H126124   4.796   1.441   6.825
 8727TIP3    H226125   4.728   1.411   6.693
 8728TIP3   OH226126   2.215   0.627   0.253
 8728TIP3    H126127   2.299   0.657   0.220
 8728TIP3    H226128   2.235   0.548   0.304
 8729TIP3   OH226129   0.637   6.972   3.447
 8729TIP3    H126130   0.704   7.033   3.478
 8729TIP3    H226131   0.665   6.887   3.479
 8730TIP3   OH226132   3.842   3.199   2.760
 8730TIP3    H126133   3.865   3.146   2.683
 8730TIP3    H226134   3.751   3.174   2.778
 8731TIP3   OH226135   2.450   6.115   4.681
 8731TIP3    H126136   2.430   6.151   4.595
 8731TIP3    H226137   2.535   6.154   4.705
 8732TIP3   OH226138   5.859   7.622   3.338
 8732TIP3    H126139   5.860   7.541   3.389
 8732TIP3    H226140   5.899   7.599   3.255
 8733TIP3   OH226141   6.020   2.288   0.758
 8733TIP3    H126142   5.983   2.214   0.709
 8733TIP3    H226143   5.948   2.318   0.813
 8734TIP3   OH226144   6.986   7.319   2.655
 8734TIP3    H126145   7.019   7.299   2.567
 8734TIP3    H226146   6.957   7.235   2.690
 8735TIP3   OH226147   5.904   0.613   3.725
 8735TIP3    H126148   5.868   0.540   3.776
 8735TIP3    H226149   5.915   0.577   3.636
 8736TIP3   OH226150   2.083   0.305   0.191
 8736TIP3    H126151   2.123   0.218   0.185
 8736TIP3    H226152   2.029   0.301   0.270
 8737TIP3   OH226153   5.818   5.668   5.179
 8737TIP3    H126154   5.845   5.584   5.141
 8737TIP3    H226155   5.878   5.682   5.252
 8738TIP3   OH226156   5.695   0.656   3.095
 8738TIP3    H126157   5.677   0.608   3.176
 8738TIP3    H226158   5.637   0.732   3.098
 8739TIP3   OH226159   6.232   3.545   4.461
 8739TIP3    H126160   6.158   3.597   4.430
 8739TIP3    H226161   6.306   3.573   4.407
 8740TIP3   OH226162   6.362   1.414   3.640
 8740TIP3    H126163   6.291   1.357   3.610
 8740TIP3    H226164   6.433   1.355   3.663
 8741TIP3   OH226165   6.012   6.684   1.888
 8741TIP3    H126166   6.029   6.770   1.850
 8741TIP3    H226167   5.985   6.629   1.814
 8742TIP3   OH226168   4.354   3.138   6.096
 8742TIP3    H126169   4.259   3.139   6.107
 8742TIP3    H226170   4.368   3.165   6.005
 8743TIP3   OH226171   4.645   6.065   4.857
 8743TIP3    H126172   4.555   6.049   4.829
 8743TIP3    H226173   4.646   6.158   4.881
 8744TIP3   OH226174   5.268   5.976   1.797
 8744TIP3    H126175   5.236   6.044   1.738
 8744TIP3    H226176   5.217   5.989   1.877
 8745TIP3   OH226177   7.252   7.557   5.340
 8745TIP3    H126178   7.184   7.552   5.272
 8745TIP3    H226179   7.334   7.570   5.291
 8746TIP3   OH226180   3.475   2.039   2.226
 8746TIP3    H126181   3.541   2.056   2.158
 8746TIP3    H226182   3.501   1.954   2.263
 8747TIP3   OH226183   8.089   5.952   1.789
 8747TIP3    H126184   8.071   5.858   1.790
 8747TIP3    H226185   8.125   5.968   1.702
 8748TIP3   OH226186   7.389   1.410   6.704
 8748TIP3    H126187   7.480   1.427   6.730
 8748TIP3    H226188   7.337   1.468   6.760
 8749TIP3   OH226189   4.132   7.327   0.762
 8749TIP3    H126190   4.117   7.261   0.829
 8749TIP3    H226191   4.103   7.286   0.680
 8750TIP3   OH226192   3.826   2.378   0.294
 8750TIP3    H126193   3.872   2.298   0.271
 8750TIP3    H226194   3.873   2.412   0.370
 8751TIP3   OH226195   1.345   1.776   4.117
 8751TIP3    H126196   1.257   1.740   4.129
 8751TIP3    H226197   1.396   1.703   4.083
 8752TIP3   OH226198   4.909   2.055   2.497
 8752TIP3    H126199   4.899   1.994   2.570
 8752TIP3    H226200   4.820   2.069   2.464
 8753TIP3   OH226201   6.749   5.677   3.121
 8753TIP3    H126202   6.705   5.609   3.071
 8753TIP3    H226203   6.843   5.661   3.106
 8754TIP3   OH226204   4.971   1.858   1.700
 8754TIP3    H126205   4.935   1.878   1.614
 8754TIP3    H226206   5.048   1.804   1.682
 8755TIP3   OH226207   0.836   5.208   6.651
 8755TIP3    H126208   0.758   5.217   6.706
 8755TIP3    H226209   0.813   5.254   6.570
 8756TIP3   OH226210   1.042   7.215   4.664
 8756TIP3    H126211   1.025   7.126   4.632
 8756TIP3    H226212   1.089   7.202   4.746
 8757TIP3   OH226213   5.289   4.040   4.073
 8757TIP3    H126214   5.278   4.106   4.004
 8757TIP3    H226215   5.280   3.956   4.027
 8758TIP3   OH226216   0.510   3.755   4.150
 8758TIP3    H126217   0.481   3.671   4.114
 8758TIP3    H226218   0.549   3.733   4.235
 8759TIP3   OH226219   6.576   3.231   4.095
 8759TIP3    H126220   6.655   3.274   4.061
 8759TIP3    H226221   6.505   3.293   4.077
 8760TIP3   OH226222   0.788   0.364   3.586
 8760TIP3    H126223   0.720   0.427   3.564
 8760TIP3    H226224   0.855   0.377   3.518
 8761TIP3   OH226225   7.718   5.425   3.399
 8761TIP3    H126226   7.760   5.382   3.473
 8761TIP3    H226227   7.686   5.353   3.344
 8762TIP3   OH226228   4.631   3.107   6.669
 8762TIP3    H126229   4.576   3.059   6.607
 8762TIP3    H226230   4.721   3.083   6.647
 8763TIP3   OH226231   1.151   6.837   5.656
 8763TIP3    H126232   1.136   6.913   5.712
 8763TIP3    H226233   1.067   6.823   5.612
 8764TIP3   OH226234   3.220   0.626   5.154
 8764TIP3    H126235   3.312   0.599   5.159
 8764TIP3    H226236   3.171   0.543   5.157
 8765TIP3   OH226237   6.069   1.408   3.491
 8765TIP3    H126238   6.014   1.479   3.524
 8765TIP3    H226239   6.083   1.430   3.399
 8766TIP3   OH226240   6.823   6.287   5.630
 8766TIP3    H126241   6.902   6.332   5.601
 8766TIP3    H226242   6.755   6.354   5.625
 8767TIP3   OH226243   3.375   5.285   2.648
 8767TIP3    H126244   3.463   5.249   2.647
 8767TIP3    H226245   3.374   5.347   2.575
 8768TIP3   OH226246   0.183   6.644   3.680
 8768TIP3    H126247   0.196   6.552   3.658
 8768TIP3    H226248   0.105   6.645   3.735
 8769TIP3   OH226249   5.545   4.176   4.873
 8769TIP3    H126250   5.613   4.149   4.811
 8769TIP3    H226251   5.515   4.095   4.913
 8770TIP3   OH226252   8.189   5.603   3.003
 8770TIP3    H126253   8.121   5.639   3.060
 8770TIP3    H226254   8.255   5.672   2.999
 8771TIP3   OH226255   4.220   5.747   6.442
 8771TIP3    H126256   4.269   5.827   6.461
 8771TIP3    H226257   4.134   5.778   6.414
 8772TIP3   OH226258   6.607   7.406   6.637
 8772TIP3    H126259   6.608   7.380   6.729
 8772TIP3    H226260   6.699   7.408   6.612
 8773TIP3   OH226261   5.941   6.780   3.332
 8773TIP3    H126262   5.976   6.851   3.386
 8773TIP3    H226263   5.872   6.741   3.385
 8774TIP3   OH226264   3.688   5.896   4.876
 8774TIP3    H126265   3.692   5.801   4.862
 8774TIP3    H226266   3.652   5.906   4.965
 8775TIP3   OH226267   4.060   2.268   0.492
 8775TIP3    H126268   3.999   2.321   0.544
 8775TIP3    H226269   4.132   2.249   0.553
 8776TIP3   OH226270   0.840   0.158   2.763
 8776TIP3    H126271   0.868   0.242   2.800
 8776TIP3    H226272   0.915   0.100   2.773
 8777TIP3   OH226273   0.363   3.685   6.150
 8777TIP3    H126274   0.320   3.768   6.174
 8777TIP3    H226275   0.444   3.712   6.107
 8778TIP3   OH226276   2.142   7.247   0.389
 8778TIP3    H126277   2.210   7.314   0.399
 8778TIP3    H226278   2.114   7.255   0.297
 8779TIP3   OH226279   3.782   7.277   1.515
 8779TIP3    H126280   3.837   7.203   1.490
 8779TIP3    H226281   3.774   7.269   1.610
 8780TIP3   OH226282   4.748   7.192   1.002
 8780TIP3    H126283   4.803   7.138   0.945
 8780TIP3    H226284   4.724   7.134   1.074
 8781TIP3   OH226285   3.506   1.941   1.177
 8781TIP3    H126286   3.582   1.942   1.234
 8781TIP3    H226287   3.447   2.008   1.212
 8782TIP3   OH226288   3.227   7.279   6.229
 8782TIP3    H126289   3.140   7.240   6.219
 8782TIP3    H226290   3.257   7.295   6.140
 8783TIP3   OH226291   5.339   6.118   2.227
 8783TIP3    H126292   5.281   6.147   2.298
 8783TIP3    H226293   5.400   6.058   2.269
 8784TIP3   OH226294   7.087   4.499   5.399
 8784TIP3    H126295   7.081   4.415   5.445
 8784TIP3    H226296   7.067   4.564   5.467
 8785TIP3   OH226297   4.079   4.715   6.198
 8785TIP3    H126298   4.076   4.750   6.109
 8785TIP3    H226299   3.992   4.679   6.213
 8786TIP3   OH226300   0.084   1.861   5.328
 8786TIP3    H126301   0.073   1.909   5.410
 8786TIP3    H226302   0.015   1.894   5.271
 8787TIP3   OH226303   0.561   7.164   6.408
 8787TIP3    H126304   0.559   7.071   6.430
 8787TIP3    H226305   0.492   7.176   6.342
 8788TIP3   OH226306   7.172   0.068   1.406
 8788TIP3    H126307   7.096   0.012   1.392
 8788TIP3    H226308   7.238   0.035   1.344
 8789TIP3   OH226309   6.180   7.745   4.228
 8789TIP3    H126310   6.099   7.764   4.274
 8789TIP3    H226311   6.153   7.725   4.138
 8790TIP3   OH226312   3.885   2.002   4.090
 8790TIP3    H126313   3.817   2.062   4.059
 8790TIP3    H226314   3.952   2.005   4.023
 8791TIP3   OH226315   6.451   0.396   3.429
 8791TIP3    H126316   6.473   0.317   3.381
 8791TIP3    H226317   6.511   0.397   3.504
 8792TIP3   OH226318   7.034   7.209   3.748
 8792TIP3    H126319   7.007   7.156   3.673
 8792TIP3    H226320   7.069   7.145   3.811
 8793TIP3   OH226321   6.351   5.337   1.301
 8793TIP3    H126322   6.356   5.432   1.291
 8793TIP3    H226323   6.433   5.313   1.343
 8794TIP3   OH226324   0.225   4.736   5.357
 8794TIP3    H126325   0.144   4.780   5.378
 8794TIP3    H226326   0.290   4.774   5.416
 8795TIP3   OH226327   3.070   1.307   6.046
 8795TIP3    H126328   2.978   1.283   6.050
 8795TIP3    H226329   3.113   1.232   6.006
 8796TIP3   OH226330   0.114   1.597   0.404
 8796TIP3    H126331   0.121   1.507   0.371
 8796TIP3    H226332   0.172   1.598   0.481
 8797TIP3   OH226333   3.281   6.937   4.955
 8797TIP3    H126334   3.321   6.934   5.042
 8797TIP3    H226335   3.267   7.030   4.938
 8798TIP3   OH226336   5.782   7.510   2.807
 8798TIP3    H126337   5.787   7.439   2.872
 8798TIP3    H226338   5.764   7.589   2.860
 8799TIP3   OH226339   0.689   5.511   2.245
 8799TIP3    H126340   0.673   5.458   2.322
 8799TIP3    H226341   0.771   5.477   2.208
 8800TIP3   OH226342   4.474   3.572   3.396
 8800TIP3    H126343   4.551   3.627   3.409
 8800TIP3    H226344   4.510   3.484   3.384
 8801TIP3   OH226345   1.515   3.165   3.296
 8801TIP3    H126346   1.609   3.152   3.286
 8801TIP3    H226347   1.491   3.114   3.373
 8802TIP3   OH226348   4.106   7.398   1.840
 8802TIP3    H126349   4.110   7.318   1.892
 8802TIP3    H226350   4.014   7.425   1.846
 8803TIP3   OH226351   0.849   0.151   5.678
 8803TIP3    H126352   0.777   0.180   5.735
 8803TIP3    H226353   0.868   0.227   5.623
 8804TIP3   OH226354   5.336   3.347   6.574
 8804TIP3    H126355   5.397   3.287   6.614
 8804TIP3    H226356   5.250   3.320   6.607
 8805TIP3   OH226357   2.356   6.996   0.082
 8805TIP3    H126358   2.380   6.992   0.175
 8805TIP3    H226359   2.432   6.963   0.036
 8806TIP3   OH226360   6.098   1.376   2.093
 8806TIP3    H126361   6.133   1.290   2.069
 8806TIP3    H226362   6.019   1.356   2.144
 8807TIP3   OH226363   4.328   7.704   4.010
 8807TIP3    H126364   4.382   7.706   3.931
 8807TIP3    H226365   4.373   7.642   4.068
 8808TIP3   OH226366   1.972   5.662   6.720
 8808TIP3    H126367   1.964   5.697   6.632
 8808TIP3    H226368   1.919   5.582   6.720
 8809TIP3   OH226369   5.077   6.371   0.726
 8809TIP3    H126370   4.987   6.350   0.704
 8809TIP3    H226371   5.110   6.419   0.651
 8810TIP3   OH226372   7.169   5.829   4.030
 8810TIP3    H126373   7.091   5.807   3.979
 8810TIP3    H226374   7.241   5.789   3.982
 8811TIP3   OH226375   5.174   0.976   6.337
 8811TIP3    H126376   5.132   0.892   6.322
 8811TIP3    H226377   5.173   1.019   6.251
 8812TIP3   OH226378   7.999   5.429   4.970
 8812TIP3    H126379   8.051   5.465   5.042
 8812TIP3    H226380   7.926   5.490   4.961
 8813TIP3   OH226381   0.083   0.594   6.197
 8813TIP3    H126382   0.139   0.619   6.123
 8813TIP3    H226383   0.130   0.524   6.241
 8814TIP3   OH226384   6.491   3.483   4.688
 8814TIP3    H126385   6.572   3.433   4.699
 8814TIP3    H226386   6.425   3.433   4.736
 8815TIP3   OH226387   5.231   1.680   5.121
 8815TIP3    H126388   5.161   1.615   5.119
 8815TIP3    H226389   5.296   1.645   5.183
 8816TIP3   OH226390   6.591   5.138   5.796
 8816TIP3    H126391   6.670   5.169   5.841
 8816TIP3    H226392   6.559   5.215   5.749
 8817TIP3   OH226393   1.214   6.057   4.549
 8817TIP3    H126394   1.180   5.975   4.584
 8817TIP3    H226395   1.169   6.125   4.598
 8818TIP3   OH226396   1.767   0.230   6.672
 8818TIP3    H126397   1.737   0.216   6.582
 8818TIP3    H226398   1.809   0.316   6.671
 8819TIP3   OH226399   6.171   2.142   6.593
 8819TIP3    H126400   6.183   2.220   6.647
 8819TIP3    H226401   6.077   2.122   6.599
 8820TIP3   OH226402   2.676   7.524   0.231
 8820TIP3    H126403   2.631   7.515   0.148
 8820TIP3    H226404   2.714   7.438   0.247
 8821TIP3   OH226405   6.595   5.005   6.163
 8821TIP3    H126406   6.636   5.075   6.112
 8821TIP3    H226407   6.647   4.927   6.143
 8822TIP3   OH226408   4.364   2.119   3.862
 8822TIP3    H126409   4.402   2.061   3.927
 8822TIP3    H226410   4.412   2.201   3.872
 8823TIP3   OH226411   6.094   3.049   1.944
 8823TIP3    H126412   6.099   3.010   1.857
 8823TIP3    H226413   6.027   2.997   1.990
 8824TIP3   OH226414   0.218   0.194   0.431
 8824TIP3    H126415   0.147   0.250   0.402
 8824TIP3    H226416   0.209   0.115   0.378
 8825TIP3   OH226417   0.888   6.615   4.781
 8825TIP3    H126418   0.865   6.560   4.856
 8825TIP3    H226419   0.825   6.589   4.713
 8826TIP3   OH226420   4.457   4.155   4.165
 8826TIP3    H126421   4.416   4.074   4.197
 8826TIP3    H226422   4.524   4.125   4.104
 8827TIP3   OH226423   7.610   3.677   5.243
 8827TIP3    H126424   7.536   3.738   5.244
 8827TIP3    H226425   7.600   3.628   5.161
 8828TIP3   OH226426   1.596   6.071   1.822
 8828TIP3    H126427   1.559   6.104   1.904
 8828TIP3    H226428   1.674   6.124   1.807
 8829TIP3   OH226429   6.060   6.636   0.588
 8829TIP3    H126430   6.118   6.707   0.614
 8829TIP3    H226431   6.007   6.619   0.667
 8830TIP3   OH226432   0.336   7.337   5.840
 8830TIP3    H126433   0.312   7.378   5.757
 8830TIP3    H226434   0.312   7.403   5.906
 8831TIP3   OH226435   7.008   0.300   5.825
 8831TIP3    H126436   7.084   0.308   5.768
 8831TIP3    H226437   7.038   0.246   5.898
 8832TIP3   OH226438   7.154   5.123   5.986
 8832TIP3    H126439   7.243   5.124   6.019
 8832TIP3    H226440   7.163   5.144   5.893
 8833TIP3   OH226441   5.520   5.241   6.400
 8833TIP3    H126442   5.497   5.334   6.397
 8833TIP3    H226443   5.436   5.195   6.393
 8834TIP3   OH226444   8.080   3.379   4.161
 8834TIP3    H126445   8.105   3.444   4.226
 8834TIP3    H226446   7.986   3.388   4.152
 8835TIP3   OH226447   7.691   0.761   3.613
 8835TIP3    H126448   7.635   0.838   3.618
 8835TIP3    H226449   7.745   0.775   3.535
 8836TIP3   OH226450   4.099   5.456   4.313
 8836TIP3    H126451   4.016   5.432   4.272
 8836TIP3    H226452   4.076   5.525   4.376
 8837TIP3   OH226453   3.044   2.680   0.930
 8837TIP3    H126454   2.998   2.735   0.993
 8837TIP3    H226455   3.057   2.597   0.976
 8838TIP3   OH226456   0.108   4.105   4.291
 8838TIP3    H126457   0.176   4.065   4.346
 8838TIP3    H226458   0.030   4.107   4.347
 8839TIP3   OH226459   5.463   5.381   2.876
 8839TIP3    H126460   5.415   5.444   2.821
 8839TIP3    H226461   5.498   5.433   2.948
 8840TIP3   OH226462   3.677   2.562   0.851
 8840TIP3    H126463   3.640   2.532   0.768
 8840TIP3    H226464   3.664   2.657   0.851
 8841TIP3   OH226465   5.390   0.216   2.360
 8841TIP3    H126466   5.467   0.187   2.310
 8841TIP3    H226467   5.427   0.252   2.441
 8842TIP3   OH226468   6.577   1.158   1.775
 8842TIP3    H126469   6.529   1.241   1.770
 8842TIP3    H226470   6.617   1.148   1.688
 8843TIP3   OH226471   7.691   7.461   6.459
 8843TIP3    H126472   7.724   7.527   6.519
 8843TIP3    H226473   7.598   7.452   6.481
 8844TIP3   OH226474   6.041   0.566   6.145
 8844TIP3    H126475   6.028   0.654   6.108
 8844TIP3    H226476   6.106   0.526   6.088
 8845TIP3   OH226477   3.941   2.404   6.415
 8845TIP3    H126478   3.921   2.346   6.342
 8845TIP3    H226479   3.929   2.492   6.379
 8846TIP3   OH226480   3.246   3.369   6.495
 8846TIP3    H126481   3.162   3.340   6.460
 8846TIP3    H226482   3.282   3.426   6.427
 8847TIP3   OH226483   1.146   5.400   5.900
 8847TIP3    H126484   1.089   5.452   5.843
 8847TIP3    H226485   1.231   5.401   5.855
 8848TIP3   OH226486   6.310   2.505   0.103
 8848TIP3    H126487   6.219   2.479   0.112
 8848TIP3    H226488   6.360   2.428   0.130
 8849TIP3   OH226489   7.747   0.801   0.051
 8849TIP3    H126490   7.746   0.776   0.144
 8849TIP3    H226491   7.833   0.841   0.038
 8850TIP3   OH226492   6.459   7.444   5.367
 8850TIP3    H126493   6.501   7.443   5.281
 8850TIP3    H226494   6.422   7.532   5.375
 8851TIP3   OH226495   0.964   4.984   5.633
 8851TIP3    H126496   0.873   4.990   5.605
 8851TIP3    H226497   0.992   4.897   5.605
 8852TIP3   OH226498   1.875   5.492   1.470
 8852TIP3    H126499   1.812   5.438   1.517
 8852TIP3    H226500   1.922   5.540   1.538
 8853TIP3   OH226501   8.033   4.219   0.691
 8853TIP3    H126502   8.048   4.264   0.608
 8853TIP3    H226503   7.962   4.268   0.732
 8854TIP3   OH226504   3.834   2.722   4.166
 8854TIP3    H126505   3.866   2.680   4.085
 8854TIP3    H226506   3.911   2.726   4.222
 8855TIP3   OH226507   2.654   7.545   1.249
 8855TIP3    H126508   2.591   7.506   1.189
 8855TIP3    H226509   2.738   7.507   1.225
 8856TIP3   OH226510   1.922   5.617   2.138
 8856TIP3    H126511   1.902   5.658   2.222
 8856TIP3    H226512   1.914   5.688   2.074
 8857TIP3   OH226513   0.580   6.834   1.503
 8857TIP3    H126514   0.560   6.741   1.516
 8857TIP3    H226515   0.643   6.854   1.572
 8858TIP3   OH226516   4.582   2.649   1.604
 8858TIP3    H126517   4.640   2.722   1.623
 8858TIP3    H226518   4.494   2.685   1.618
 8859TIP3   OH226519   1.884   5.734   6.472
 8859TIP3    H126520   1.868   5.802   6.407
 8859TIP3    H226521   1.926   5.663   6.422
 8860TIP3   OH226522   1.021   1.859   1.677
 8860TIP3    H126523   1.079   1.922   1.633
 8860TIP3    H226524   1.058   1.774   1.655
 8861TIP3   OH226525   3.925   4.458   3.622
 8861TIP3    H126526   3.924   4.485   3.714
 8861TIP3    H226527   3.973   4.528   3.577
 8862TIP3   OH226528   4.157   4.901   2.701
 8862TIP3    H126529   4.231   4.927   2.757
 8862TIP3    H226530   4.089   4.966   2.719
 8863TIP3   OH226531   1.995   6.073   3.589
 8863TIP3    H126532   1.940   6.127   3.533
 8863TIP3    H226533   1.986   6.111   3.676
 8864TIP3   OH226534   4.751   4.295   0.251
 8864TIP3    H126535   4.673   4.298   0.306
 8864TIP3    H226536   4.768   4.386   0.228
 8865TIP3   OH226537   4.755   1.719   3.399
 8865TIP3    H126538   4.667   1.695   3.426
 8865TIP3    H226539   4.759   1.695   3.306
 8866TIP3   OH226540   6.750   4.934   5.146
 8866TIP3    H126541   6.731   5.007   5.205
 8866TIP3    H226542   6.718   4.963   5.061
 8867TIP3   OH226543   2.021   1.355   3.023
 8867TIP3    H126544   1.976   1.330   2.942
 8867TIP3    H226545   2.112   1.368   2.998
 8868TIP3   OH226546   7.792   3.567   1.679
 8868TIP3    H126547   7.831   3.538   1.762
 8868TIP3    H226548   7.744   3.646   1.701
 8869TIP3   OH226549   4.105   3.195   2.479
 8869TIP3    H126550   4.015   3.225   2.471
 8869TIP3    H226551   4.158   3.275   2.474
 8870TIP3   OH226552   2.683   1.388   5.367
 8870TIP3    H126553   2.655   1.382   5.276
 8870TIP3    H226554   2.601   1.395   5.417
 8871TIP3   OH226555   2.406   7.606   5.126
 8871TIP3    H126556   2.328   7.579   5.174
 8871TIP3    H226557   2.425   7.694   5.159
 8872TIP3   OH226558   6.519   2.699   2.830
 8872TIP3    H126559   6.574   2.629   2.795
 8872TIP3    H226560   6.508   2.677   2.922
 8873TIP3   OH226561   4.723   4.708   2.468
 8873TIP3    H126562   4.776   4.680   2.542
 8873TIP3    H226563   4.781   4.700   2.392
 8874TIP3   OH226564   3.045   2.513   6.225
 8874TIP3    H126565   3.115   2.566   6.261
 8874TIP3    H226566   3.027   2.552   6.139
 8875TIP3   OH226567   1.742   5.943   2.258
 8875TIP3    H126568   1.789   5.951   2.175
 8875TIP3    H226569   1.762   5.854   2.288
 8876TIP3   OH226570   3.726   6.291   0.177
 8876TIP3    H126571   3.728   6.198   0.199
 8876TIP3    H226572   3.691   6.295   0.088
 8877TIP3   OH226573   1.521   1.627   5.517
 8877TIP3    H126574   1.532   1.691   5.587
 8877TIP3    H226575   1.539   1.543   5.558
 8878TIP3   OH226576   6.335   3.477   1.724
 8878TIP3    H126577   6.343   3.461   1.818
 8878TIP3    H226578   6.278   3.406   1.693
 8879TIP3   OH226579   3.825   7.692   4.693
 8879TIP3    H126580   3.744   7.674   4.646
 8879TIP3    H226581   3.893   7.651   4.641
 8880TIP3   OH226582   2.855   3.558   6.376
 8880TIP3    H126583   2.820   3.472   6.352
 8880TIP3    H226584   2.837   3.566   6.470
 8881TIP3   OH226585   5.428   7.106   3.254
 8881TIP3    H126586   5.448   7.112   3.161
 8881TIP3    H226587   5.461   7.020   3.281
 8882TIP3   OH226588   4.746   1.019   3.491
 8882TIP3    H126589   4.655   1.047   3.481
 8882TIP3    H226590   4.797   1.099   3.479
 8883TIP3   OH226591   6.660   4.686   1.969
 8883TIP3    H126592   6.675   4.678   1.875
 8883TIP3    H226593   6.580   4.636   1.986
 8884TIP3   OH226594   6.797   1.164   4.605
 8884TIP3    H126595   6.775   1.102   4.675
 8884TIP3    H226596   6.830   1.109   4.534
 8885TIP3   OH226597   8.145   6.528   2.770
 8885TIP3    H126598   8.136   6.624   2.771
 8885TIP3    H226599   8.112   6.501   2.685
 8886TIP3   OH226600   2.892   5.867   1.479
 8886TIP3    H126601   2.862   5.875   1.389
 8886TIP3    H226602   2.972   5.816   1.474
 8887TIP3   OH226603   8.274   7.373   4.014
 8887TIP3    H126604   8.218   7.380   3.936
 8887TIP3    H226605   8.363   7.367   3.979
 8888TIP3   OH226606   2.822   6.204   4.477
 8888TIP3    H126607   2.872   6.249   4.408
 8888TIP3    H226608   2.764   6.145   4.429
 8889TIP3   OH226609   6.651   7.189   6.136
 8889TIP3    H126610   6.665   7.095   6.125
 8889TIP3    H226611   6.739   7.226   6.141
 8890TIP3   OH226612   0.152   4.958   2.996
 8890TIP3    H126613   0.077   4.962   2.937
 8890TIP3    H226614   0.177   5.050   3.010
 8891TIP3   OH226615   4.350   2.904   3.922
 8891TIP3    H126616   4.337   2.815   3.890
 8891TIP3    H226617   4.263   2.943   3.922
 8892TIP3   OH226618   3.565   7.541   3.093
 8892TIP3    H126619   3.607   7.473   3.041
 8892TIP3    H226620   3.521   7.597   3.029
 8893TIP3   OH226621   5.539   6.255   4.143
 8893TIP3    H126622   5.466   6.299   4.187
 8893TIP3    H226623   5.616   6.304   4.170
 8894TIP3   OH226624   7.542   0.951   4.196
 8894TIP3    H126625   7.480   1.006   4.150
 8894TIP3    H226626   7.564   1.000   4.275
 8895TIP3   OH226627   0.173   5.681   6.145
 8895TIP3    H126628   0.089   5.640   6.163
 8895TIP3    H226629   0.154   5.745   6.076
 8896TIP3   OH226630   0.528   0.374   2.787
 8896TIP3    H126631   0.533   0.326   2.704
 8896TIP3    H226632   0.618   0.380   2.817
 8897TIP3   OH226633   2.807   6.724   1.656
 8897TIP3    H126634   2.848   6.653   1.607
 8897TIP3    H226635   2.783   6.685   1.740
 8898TIP3   OH226636   0.294   5.933   1.383
 8898TIP3    H126637   0.342   6.015   1.380
 8898TIP3    H226638   0.265   5.926   1.474
 8899TIP3   OH226639   4.381   3.694   4.441
 8899TIP3    H126640   4.440   3.655   4.505
 8899TIP3    H226641   4.384   3.636   4.365
 8900TIP3   OH226642   2.884   0.188   0.192
 8900TIP3    H126643   2.935   0.267   0.212
 8900TIP3    H226644   2.927   0.119   0.242
 8901TIP3   OH226645   3.317   0.283   2.462
 8901TIP3    H126646   3.348   0.353   2.519
 8901TIP3    H226647   3.264   0.227   2.519
 8902TIP3   OH226648   3.309   1.607   2.089
 8902TIP3    H126649   3.396   1.584   2.057
 8902TIP3    H226650   3.294   1.695   2.056
 8903TIP3   OH226651   1.391   0.755   3.295
 8903TIP3    H126652   1.330   0.829   3.288
 8903TIP3    H226653   1.466   0.781   3.243
 8904TIP3   OH226654   1.981   2.908   3.832
 8904TIP3    H126655   1.957   2.994   3.798
 8904TIP3    H226656   2.059   2.923   3.885
 8905TIP3   OH226657   3.895   7.178  -0.007
 8905TIP3    H126658   3.870   7.198   0.083
 8905TIP3    H226659   3.944   7.255  -0.037
 8906TIP3   OH226660   5.904   6.800   4.820
 8906TIP3    H126661   5.981   6.856   4.810
 8906TIP3    H226662   5.857   6.808   4.737
 8907TIP3   OH226663   2.947   3.604   4.577
 8907TIP3    H126664   3.027   3.554   4.595
 8907TIP3    H226665   2.903   3.553   4.509
 8908TIP3   OH226666   5.804   1.512   1.024
 8908TIP3    H126667   5.751   1.468   0.958
 8908TIP3    H226668   5.856   1.576   0.974
 8909TIP3   OH226669   6.336   0.422   3.047
 8909TIP3    H126670   6.278   0.352   3.077
 8909TIP3    H226671   6.354   0.474   3.125
 8910TIP3   OH226672   0.881   7.690   4.214
 8910TIP3    H126673   0.845   7.611   4.174
 8910TIP3    H226674   0.921   7.738   4.141
 8911TIP3   OH226675   5.597   3.976   5.837
 8911TIP3    H126676   5.504   3.957   5.839
 8911TIP3    H226677   5.608   4.033   5.760
 8912TIP3   OH226678   1.669   2.178   5.761
 8912TIP3    H126679   1.724   2.103   5.738
 8912TIP3    H226680   1.627   2.153   5.843
 8913TIP3   OH226681   1.854   7.269   2.603
 8913TIP3    H126682   1.817   7.268   2.691
 8913TIP3    H226683   1.807   7.200   2.556
 8914TIP3   OH226684   1.191   4.616   3.126
 8914TIP3    H126685   1.202   4.703   3.087
 8914TIP3    H226686   1.229   4.625   3.214
 8915TIP3   OH226687   2.467   5.473   5.385
 8915TIP3    H126688   2.419   5.390   5.387
 8915TIP3    H226689   2.400   5.539   5.366
 8916TIP3   OH226690   7.265   6.160   0.665
 8916TIP3    H126691   7.213   6.224   0.617
 8916TIP3    H226692   7.230   6.161   0.754
 8917TIP3   OH226693   6.873   6.123   6.123
 8917TIP3    H126694   6.967   6.138   6.125
 8917TIP3    H226695   6.849   6.106   6.214
 8918TIP3   OH226696   8.004   4.520   5.593
 8918TIP3    H126697   8.052   4.602   5.592
 8918TIP3    H226698   7.930   4.534   5.534
 8919TIP3   OH226699   0.160   5.057   2.072
 8919TIP3    H126700   0.184   4.975   2.116
 8919TIP3    H226701   0.132   5.115   2.143
 8920TIP3   OH226702   1.347   1.469   3.756
 8920TIP3    H126703   1.359   1.375   3.762
 8920TIP3    H226704   1.427   1.500   3.712
 8921TIP3   OH226705   6.163   3.550   4.838
 8921TIP3    H126706   6.124   3.620   4.890
 8921TIP3    H226707   6.099   3.531   4.770
 8922TIP3   OH226708   3.503   6.328   3.953
 8922TIP3    H126709   3.523   6.412   3.995
 8922TIP3    H226710   3.518   6.263   4.022
 8923TIP3   OH226711   0.790   6.778   2.962
 8923TIP3    H126712   0.838   6.821   3.032
 8923TIP3    H226713   0.739   6.848   2.921
 8924TIP3   OH226714   2.886   6.983   2.611
 8924TIP3    H126715   2.792   6.990   2.629
 8924TIP3    H226716   2.891   6.953   2.520
 8925TIP3   OH226717   0.408   1.177   1.426
 8925TIP3    H126718   0.357   1.113   1.377
 8925TIP3    H226719   0.347   1.248   1.444
 8926TIP3   OH226720   6.846   3.220   5.000
 8926TIP3    H126721   6.823   3.153   5.064
 8926TIP3    H226722   6.941   3.222   5.000
 8927TIP3   OH226723   5.058   4.792   0.374
 8927TIP3    H126724   5.030   4.723   0.314
 8927TIP3    H226725   4.987   4.798   0.438
 8928TIP3   OH226726   3.020   4.728   2.021
 8928TIP3    H126727   2.978   4.747   2.105
 8928TIP3    H226728   2.974   4.784   1.958
 8929TIP3   OH226729   6.506   2.975   4.164
 8929TIP3    H126730   6.601   2.968   4.168
 8929TIP3    H226731   6.490   3.067   4.144
 8930TIP3   OH226732   1.630   4.568   1.832
 8930TIP3    H126733   1.651   4.644   1.778
 8930TIP3    H226734   1.715   4.526   1.849
 8931TIP3   OH226735   4.888   3.769   4.441
 8931TIP3    H126736   4.941   3.722   4.505
 8931TIP3    H226737   4.815   3.805   4.492
 8932TIP3   OH226738   3.996   2.649   1.242
 8932TIP3    H126739   4.039   2.729   1.271
 8932TIP3    H226740   3.930   2.678   1.179
 8933TIP3   OH226741   6.405   4.268   5.588
 8933TIP3    H126742   6.439   4.343   5.539
 8933TIP3    H226743   6.378   4.206   5.520
 8934TIP3   OH226744   6.477   4.384   0.762
 8934TIP3    H126745   6.468   4.417   0.851
 8934TIP3    H226746   6.534   4.308   0.771
 8935TIP3   OH226747   7.434   3.516   1.965
 8935TIP3    H126748   7.442   3.463   1.886
 8935TIP3    H226749   7.375   3.587   1.940
 8936TIP3   OH226750   0.591   2.214   0.642
 8936TIP3    H126751   0.593   2.193   0.548
 8936TIP3    H226752   0.619   2.134   0.685
 8937TIP3   OH226753   0.477   6.449   5.094
 8937TIP3    H126754   0.542   6.420   5.158
 8937TIP3    H226755   0.393   6.429   5.135
 8938TIP3   OH226756   7.361   0.579   0.942
 8938TIP3    H126757   7.301   0.590   1.016
 8938TIP3    H226758   7.444   0.613   0.974
 8939TIP3   OH226759   5.121   2.786   0.991
 8939TIP3    H126760   5.145   2.821   1.076
 8939TIP3    H226761   5.204   2.766   0.948
 8940TIP3   OH226762   1.229   2.748   5.610
 8940TIP3    H126763   1.242   2.746   5.705
 8940TIP3    H226764   1.307   2.705   5.575
 8941TIP3   OH226765   2.812   0.820   4.853
 8941TIP3    H126766   2.895   0.789   4.818
 8941TIP3    H226767   2.786   0.891   4.794
 8942TIP3   OH226768   3.196   1.845   2.008
 8942TIP3    H126769   3.103   1.820   2.009
 8942TIP3    H226770   3.195   1.939   1.991
 8943TIP3   OH226771   2.500   6.222   5.459
 8943TIP3    H126772   2.427   6.255   5.511
 8943TIP3    H226773   2.520   6.292   5.397
 8944TIP3   OH226774   3.974   4.252   1.409
 8944TIP3    H126775   3.914   4.178   1.412
 8944TIP3    H226776   3.971   4.289   1.497
 8945TIP3   OH226777   3.980   1.535   6.006
 8945TIP3    H126778   3.896   1.530   6.051
 8945TIP3    H226779   4.035   1.589   6.063
 8946TIP3   OH226780   0.893   5.021   0.679
 8946TIP3    H126781   0.966   5.005   0.620
 8946TIP3    H226782   0.934   5.056   0.758
 8947TIP3   OH226783   5.892   5.671   1.953
 8947TIP3    H126784   5.938   5.661   1.870
 8947TIP3    H226785   5.924   5.754   1.988
 8948TIP3   OH226786   1.868   3.328   4.264
 8948TIP3    H126787   1.796   3.329   4.327
 8948TIP3    H226788   1.901   3.418   4.265
 8949TIP3   OH226789   4.864   0.211   2.368
 8949TIP3    H126790   4.906   0.165   2.441
 8949TIP3    H226791   4.816   0.143   2.321
 8950TIP3   OH226792   7.033   0.857   3.173
 8950TIP3    H126793   7.010   0.868   3.080
 8950TIP3    H226794   6.952   0.877   3.220
 8951TIP3   OH226795   5.911   1.278   3.899
 8951TIP3    H126796   5.903   1.185   3.920
 8951TIP3    H226797   5.982   1.281   3.834
 8952TIP3   OH226798   5.905   2.951   2.099
 8952TIP3    H126799   5.817   2.955   2.063
 8952TIP3    H226800   5.904   2.876   2.159
 8953TIP3   OH226801   7.067   2.363   3.411
 8953TIP3    H126802   7.037   2.287   3.361
 8953TIP3    H226803   7.133   2.328   3.470
 8954TIP3   OH226804   2.065   4.795   3.836
 8954TIP3    H126805   2.132   4.796   3.768
 8954TIP3    H226806   2.031   4.705   3.833
 8955TIP3   OH226807   8.061   4.734   3.208
 8955TIP3    H126808   8.116   4.812   3.211
 8955TIP3    H226809   8.023   4.735   3.120
 8956TIP3   OH226810   2.210   0.342   1.963
 8956TIP3    H126811   2.299   0.328   1.996
 8956TIP3    H226812   2.160   0.268   1.995
 8957TIP3   OH226813   0.841   6.641   6.538
 8957TIP3    H126814   0.896   6.707   6.580
 8957TIP3    H226815   0.894   6.609   6.465
 8958TIP3   OH226816   8.049   7.653   1.891
 8958TIP3    H126817   8.013   7.599   1.961
 8958TIP3    H226818   8.026   7.742   1.915
 8959TIP3   OH226819   6.183   5.158   0.846
 8959TIP3    H126820   6.135   5.076   0.849
 8959TIP3    H226821   6.146   5.210   0.917
 8960TIP3   OH226822   3.426   2.685   2.394
 8960TIP3    H126823   3.379   2.755   2.349
 8960TIP3    H226824   3.433   2.615   2.328
 8961TIP3   OH226825   4.861   4.414   1.636
 8961TIP3    H126826   4.788   4.458   1.592
 8961TIP3    H226827   4.879   4.337   1.583
 8962TIP3   OH226828   4.699   2.351   1.134
 8962TIP3    H126829   4.654   2.433   1.114
 8962TIP3    H226830   4.638   2.283   1.104
 8963TIP3   OH226831   7.661   2.502   6.201
 8963TIP3    H126832   7.582   2.552   6.183
 8963TIP3    H226833   7.696   2.540   6.282
 8964TIP3   OH226834   1.917   4.064   2.349
 8964TIP3    H126835   1.866   4.008   2.407
 8964TIP3    H226836   1.998   4.014   2.333
 8965TIP3   OH226837   5.630   0.384   1.662
 8965TIP3    H126838   5.698   0.339   1.712
 8965TIP3    H226839   5.585   0.438   1.726
 8966TIP3   OH226840   1.007   4.671   3.960
 8966TIP3    H126841   0.915   4.648   3.977
 8966TIP3    H226842   1.055   4.627   4.030
 8967TIP3   OH226843   5.204   1.712   5.886
 8967TIP3    H126844   5.227   1.766   5.810
 8967TIP3    H226845   5.112   1.729   5.902
 8968TIP3   OH226846   6.311   6.734   3.232
 8968TIP3    H126847   6.389   6.779   3.201
 8968TIP3    H226848   6.241   6.764   3.174
 8969TIP3   OH226849   8.158   0.448   6.156
 8969TIP3    H126850   8.230   0.510   6.170
 8969TIP3    H226851   8.082   0.491   6.194
 8970TIP3   OH226852   6.774   5.000   4.787
 8970TIP3    H126853   6.718   4.990   4.864
 8970TIP3    H226854   6.773   5.094   4.768
 8971TIP3   OH226855   8.163   7.043   2.955
 8971TIP3    H126856   8.237   7.074   3.007
 8971TIP3    H226857   8.121   7.123   2.923
 8972TIP3   OH226858   6.604   5.358   4.395
 8972TIP3    H126859   6.605   5.333   4.487
 8972TIP3    H226860   6.694   5.387   4.377
 8973TIP3   OH226861   0.850   6.901   0.166
 8973TIP3    H126862   0.762   6.911   0.129
 8973TIP3    H226863   0.906   6.891   0.089
 8974TIP3   OH226864   4.508   5.083   3.881
 8974TIP3    H126865   4.412   5.082   3.891
 8974TIP3    H226866   4.522   5.119   3.794
 8975TIP3   OH226867   1.395   1.301   2.609
 8975TIP3    H126868   1.432   1.355   2.539
 8975TIP3    H226869   1.301   1.302   2.593
 8976TIP3   OH226870   3.347   2.645   0.568
 8976TIP3    H126871   3.378   2.690   0.489
 8976TIP3    H226872   3.325   2.715   0.629
 8977TIP3   OH226873   7.506   4.989   4.080
 8977TIP3    H126874   7.505   5.080   4.108
 8977TIP3    H226875   7.498   4.939   4.162
 8978TIP3   OH226876   3.481   1.201   1.670
 8978TIP3    H126877   3.386   1.206   1.679
 8978TIP3    H226878   3.515   1.256   1.740
 8979TIP3   OH226879   2.871   6.373   1.791
 8979TIP3    H126880   2.959   6.394   1.759
 8979TIP3    H226881   2.822   6.351   1.712
 8980TIP3   OH226882   1.324   2.258   0.934
 8980TIP3    H126883   1.375   2.226   1.008
 8980TIP3    H226884   1.385   2.313   0.885
 8981TIP3   OH226885   5.990   1.946   1.221
 8981TIP3    H126886   6.065   1.992   1.184
 8981TIP3    H226887   6.022   1.913   1.305
 8982TIP3   OH226888   0.225   5.818   0.231
 8982TIP3    H126889   0.310   5.857   0.210
 8982TIP3    H226890   0.233   5.794   0.323
 8983TIP3   OH226891   7.171   0.906   3.564
 8983TIP3    H126892   7.096   0.851   3.586
 8983TIP3    H226893   7.140   0.961   3.492
 8984TIP3   OH226894   8.149   3.529   0.710
 8984TIP3    H126895   8.123   3.456   0.766
 8984TIP3    H226896   8.119   3.607   0.757
 8985TIP3   OH226897   2.720   3.290   6.393
 8985TIP3    H126898   2.628   3.264   6.395
 8985TIP3    H226899   2.760   3.243   6.466
 8986TIP3   OH226900   4.254   1.666   1.488
 8986TIP3    H126901   4.292   1.642   1.572
 8986TIP3    H226902   4.289   1.602   1.426
 8987TIP3   OH226903   5.298   0.535   0.451
 8987TIP3    H126904   5.377   0.548   0.398
 8987TIP3    H226905   5.278   0.623   0.485
 8988TIP3   OH226906   7.161   3.717   4.694
 8988TIP3    H126907   7.181   3.796   4.744
 8988TIP3    H226908   7.094   3.745   4.631
 8989TIP3   OH226909   2.745   2.802   5.606
 8989TIP3    H126910   2.735   2.724   5.659
 8989TIP3    H226911   2.668   2.855   5.626
 8990TIP3   OH226912   5.127   1.086   5.478
 8990TIP3    H126913   5.152   1.119   5.392
 8990TIP3    H226914   5.197   1.117   5.536
 8991TIP3   OH226915   4.750   5.183   0.583
 8991TIP3    H126916   4.728   5.153   0.672
 8991TIP3    H226917   4.804   5.112   0.547
 8992TIP3   OH226918   0.002   4.101   2.243
 8992TIP3    H126919   0.061   4.109   2.168
 8992TIP3    H226920   0.031   4.022   2.288
 8993TIP3   OH226921   7.236   7.548   4.566
 8993TIP3    H126922   7.161   7.575   4.513
 8993TIP3    H226923   7.243   7.615   4.634
 8994TIP3   OH226924   5.477   3.831   6.506
 8994TIP3    H126925   5.510   3.815   6.417
 8994TIP3    H226926   5.462   3.926   6.508
 8995TIP3   OH226927   1.351   1.143   3.082
 8995TIP3    H126928   1.377   1.086   3.010
 8995TIP3    H226929   1.370   1.231   3.051
 8996TIP3   OH226930   3.354   4.355   6.479
 8996TIP3    H126931   3.418   4.315   6.420
 8996TIP3    H226932   3.272   4.310   6.460
 8997TIP3   OH226933   2.558   4.676   6.285
 8997TIP3    H126934   2.579   4.767   6.265
 8997TIP3    H226935   2.470   4.680   6.323
 8998TIP3   OH226936   1.063   2.810   6.380
 8998TIP3    H126937   1.023   2.745   6.437
 8998TIP3    H226938   1.098   2.759   6.307
 8999TIP3   OH226939   6.814   1.921   6.547
 8999TIP3    H126940   6.747   1.949   6.609
 8999TIP3    H226941   6.897   1.951   6.586
 9000TIP3   OH226942   0.523   1.861   5.030
 9000TIP3    H126943   0.583   1.851   5.104
 9000TIP3    H226944   0.436   1.848   5.068
 9001TIP3   OH226945   7.110   1.829   6.415
 9001TIP3    H126946   7.047   1.896   6.438
 9001TIP3    H226947   7.140   1.852   6.327
 9002TIP3   OH226948   0.761   3.016   5.084
 9002TIP3    H126949   0.838   2.996   5.137
 9002TIP3    H226950   0.721   3.091   5.127
 9003TIP3   OH226951   1.386   4.770   6.052
 9003TIP3    H126952   1.397   4.779   6.146
 9003TIP3    H226953   1.443   4.838   6.015
 9004TIP3   OH226954   1.256   7.279   0.523
 9004TIP3    H126955   1.208   7.318   0.450
 9004TIP3    H226956   1.217   7.192   0.534
 9005TIP3   OH226957   6.855   2.073   0.578
 9005TIP3    H126958   6.838   2.092   0.486
 9005TIP3    H226959   6.768   2.068   0.618
 9006TIP3   OH226960   7.481   0.316   4.027
 9006TIP3    H126961   7.469   0.376   4.101
 9006TIP3    H226962   7.490   0.373   3.951
 9007TIP3   OH226963   6.991   5.778   0.496
 9007TIP3    H126964   6.945   5.765   0.413
 9007TIP3    H226965   7.026   5.691   0.518
 9008TIP3   OH226966   2.118   2.636   5.985
 9008TIP3    H126967   2.138   2.695   5.913
 9008TIP3    H226968   2.032   2.664   6.016
 9009TIP3   OH226969   6.563   7.304   0.061
 9009TIP3    H126970   6.584   7.330   0.151
 9009TIP3    H226971   6.645   7.315   0.014
 9010TIP3   OH226972   6.630   0.783   0.626
 9010TIP3    H126973   6.593   0.794   0.714
 9010TIP3    H226974   6.670   0.868   0.606
 9011TIP3   OH226975   1.029   7.283   1.259
 9011TIP3    H126976   0.944   7.264   1.298
 9011TIP3    H226977   1.018   7.261   1.166
 9012TIP3   OH226978   2.678   6.330   2.316
 9012TIP3    H126979   2.593   6.287   2.326
 9012TIP3    H226980   2.659   6.423   2.328
 9013TIP3   OH226981   3.495   6.247   2.697
 9013TIP3    H126982   3.576   6.197   2.704
 9013TIP3    H226983   3.428   6.182   2.674
 9014TIP3   OH226984   7.910   1.845   3.364
 9014TIP3    H126985   7.863   1.775   3.408
 9014TIP3    H226986   7.856   1.866   3.287
 9015TIP3   OH226987   4.610   0.970   5.000
 9015TIP3    H126988   4.622   1.062   4.977
 9015TIP3    H226989   4.595   0.970   5.094
 9016TIP3   OH226990   1.243   2.932   6.175
 9016TIP3    H126991   1.265   2.885   6.255
 9016TIP3    H226992   1.315   2.994   6.163
 9017TIP3   OH226993   4.593   7.788   1.243
 9017TIP3    H126994   4.679   7.760   1.211
 9017TIP3    H226995   4.533   7.765   1.172
 9018TIP3   OH226996   5.225   7.355   6.596
 9018TIP3    H126997   5.179   7.439   6.593
 9018TIP3    H226998   5.155   7.289   6.590
 9019TIP3   OH226999   2.185   7.657   2.283
 9019TIP3    H127000   2.266   7.684   2.326
 9019TIP3    H227001   2.198   7.565   2.261
 9020TIP3   OH227002   4.188   4.675   1.634
 9020TIP3    H127003   4.092   4.674   1.629
 9020TIP3    H227004   4.212   4.762   1.603
 9021TIP3   OH227005   7.876   4.055   4.297
 9021TIP3    H127006   7.802   4.006   4.334
 9021TIP3    H227007   7.835   4.120   4.239
 9022TIP3   OH227008   3.770   7.310   1.146
 9022TIP3    H127009   3.781   7.305   1.051
 9022TIP3    H227010   3.690   7.360   1.159
 9023TIP3   OH227011   6.200   1.106   4.679
 9023TIP3    H127012   6.196   1.029   4.737
 9023TIP3    H227013   6.260   1.080   4.610
 9024TIP3   OH227014   4.609   6.622   2.042
 9024TIP3    H127015   4.516   6.628   2.064
 9024TIP3    H227016   4.635   6.535   2.073
 9025TIP3   OH227017   2.478   4.448   1.869
 9025TIP3    H127018   2.506   4.472   1.781
 9025TIP3    H227019   2.441   4.529   1.906
 9026TIP3   OH227020   4.958   6.548   4.865
 9026TIP3    H127021   4.887   6.566   4.804
 9026TIP3    H227022   4.964   6.626   4.920
 9027TIP3   OH227023   3.606   0.867   5.160
 9027TIP3    H127024   3.679   0.928   5.167
 9027TIP3    H227025   3.550   0.888   5.234
 9028TIP3   OH227026   5.664   4.379   0.540
 9028TIP3    H127027   5.584   4.345   0.579
 9028TIP3    H227028   5.634   4.434   0.468
 9029TIP3   OH227029   2.976   4.677   1.251
 9029TIP3    H127030   2.881   4.681   1.243
 9029TIP3    H227031   2.997   4.584   1.244
 9030TIP3   OH227032   6.676   3.565   1.863
 9030TIP3    H127033   6.634   3.488   1.901
 9030TIP3    H227034   6.606   3.611   1.817
 9031TIP3   OH227035   0.890   4.499   3.696
 9031TIP3    H127036   0.980   4.470   3.684
 9031TIP3    H227037   0.856   4.445   3.768
 9032TIP3   OH227038   4.483   4.699   5.382
 9032TIP3    H127039   4.451   4.688   5.471
 9032TIP3    H227040   4.578   4.713   5.392
 9033TIP3   OH227041   1.307   7.602   2.912
 9033TIP3    H127042   1.324   7.651   2.832
 9033TIP3    H227043   1.235   7.544   2.890
 9034TIP3   OH227044   3.820   2.421   1.203
 9034TIP3    H127045   3.810   2.405   1.297
 9034TIP3    H227046   3.897   2.478   1.197
 9035TIP3   OH227047   2.540   1.324   4.009
 9035TIP3    H127048   2.520   1.324   3.916
 9035TIP3    H227049   2.574   1.236   4.026
 9036TIP3   OH227050   1.310   1.067   5.181
 9036TIP3    H127051   1.222   1.045   5.213
 9036TIP3    H227052   1.368   1.049   5.255
 9037TIP3   OH227053   0.900   5.891   0.532
 9037TIP3    H127054   0.874   5.936   0.612
 9037TIP3    H227055   0.867   5.947   0.461
 9038TIP3   OH227056   4.273   1.643   4.846
 9038TIP3    H127057   4.360   1.673   4.870
 9038TIP3    H227058   4.234   1.612   4.928
 9039TIP3   OH227059   2.713   3.104   3.497
 9039TIP3    H127060   2.709   3.197   3.476
 9039TIP3    H227061   2.771   3.100   3.574
 9040TIP3   OH227062   6.792   5.979   6.350
 9040TIP3    H127063   6.819   5.942   6.434
 9040TIP3    H227064   6.697   5.967   6.348
 9041TIP3   OH227065   7.157   3.923   0.421
 9041TIP3    H127066   7.075   3.960   0.453
 9041TIP3    H227067   7.166   3.840   0.467
 9042TIP3   OH227068   5.830   5.621   1.539
 9042TIP3    H127069   5.825   5.534   1.580
 9042TIP3    H227070   5.887   5.671   1.597
 9043TIP3   OH227071   7.323   5.026   2.299
 9043TIP3    H127072   7.412   5.014   2.267
 9043TIP3    H227073   7.290   4.937   2.312
 9044TIP3   OH227074   1.180   3.016   2.350
 9044TIP3    H127075   1.206   3.047   2.437
 9044TIP3    H227076   1.087   3.038   2.344
 9045TIP3   OH227077   2.096   6.967   1.715
 9045TIP3    H127078   2.142   6.919   1.646
 9045TIP3    H227079   2.112   7.059   1.694
 9046TIP3   OH227080   5.162   3.298   4.791
 9046TIP3    H127081   5.158   3.219   4.844
 9046TIP3    H227082   5.114   3.364   4.841
 9047TIP3   OH227083   4.419   6.390   6.162
 9047TIP3    H127084   4.513   6.375   6.149
 9047TIP3    H227085   4.381   6.381   6.074
 9048TIP3   OH227086   3.695   1.920   4.677
 9048TIP3    H127087   3.770   1.878   4.720
 9048TIP3    H227088   3.629   1.928   4.746
 9049TIP3   OH227089   4.740   1.449   1.974
 9049TIP3    H127090   4.700   1.533   1.995
 9049TIP3    H227091   4.833   1.461   1.996
 9050TIP3   OH227092   5.208   6.327   5.711
 9050TIP3    H127093   5.210   6.345   5.617
 9050TIP3    H227094   5.283   6.269   5.727
 9051TIP3   OH227095   2.540   4.639   5.542
 9051TIP3    H127096   2.462   4.688   5.570
 9051TIP3    H227097   2.535   4.640   5.446
 9052TIP3   OH227098   6.350   2.943   0.985
 9052TIP3    H127099   6.440   2.910   0.988
 9052TIP3    H227100   6.350   3.007   0.914
 9053TIP3   OH227101   7.112   6.515   6.413
 9053TIP3    H127102   7.037   6.456   6.414
 9053TIP3    H227103   7.095   6.578   6.484
 9054TIP3   OH227104   4.547   0.195   0.751
 9054TIP3    H127105   4.490   0.131   0.794
 9054TIP3    H227106   4.620   0.207   0.812
 9055TIP3   OH227107   4.501   6.667   1.724
 9055TIP3    H127108   4.521   6.756   1.752
 9055TIP3    H227109   4.466   6.677   1.635
 9056TIP3   OH227110   3.960   6.800   5.859
 9056TIP3    H127111   3.965   6.893   5.836
 9056TIP3    H227112   4.021   6.757   5.799
 9057TIP3   OH227113   7.986   1.070   4.590
 9057TIP3    H127114   8.014   1.154   4.554
 9057TIP3    H227115   8.051   1.050   4.658
 9058TIP3   OH227116   6.569   7.724   5.628
 9058TIP3    H127117   6.611   7.735   5.713
 9058TIP3    H227118   6.476   7.739   5.645
 9059TIP3   OH227119   1.368   2.503   6.531
 9059TIP3    H127120   1.365   2.411   6.560
 9059TIP3    H227121   1.383   2.498   6.437
 9060TIP3   OH227122   5.352   5.611   4.915
 9060TIP3    H127123   5.332   5.704   4.899
 9060TIP3    H227124   5.333   5.599   5.008
 9061TIP3   OH227125   4.371   6.163   0.044
 9061TIP3    H127126   4.398   6.254   0.055
 9061TIP3    H227127   4.382   6.147  -0.050
 9062TIP3   OH227128   5.196   4.308   0.773
 9062TIP3    H127129   5.225   4.361   0.699
 9062TIP3    H227130   5.180   4.221   0.736
 9063TIP3   OH227131   1.352   6.943   3.117
 9063TIP3    H127132   1.331   6.878   3.050
 9063TIP3    H227133   1.409   6.898   3.178
 9064TIP3   OH227134   0.935   5.792   0.830
 9064TIP3    H127135   1.007   5.766   0.773
 9064TIP3    H227136   0.975   5.804   0.916
 9065TIP3   OH227137   3.676   0.840   5.557
 9065TIP3    H127138   3.702   0.874   5.643
 9065TIP3    H227139   3.735   0.884   5.496
 9066TIP3   OH227140   2.495   7.139   0.971
 9066TIP3    H127141   2.537   7.178   0.895
 9066TIP3    H227142   2.514   7.200   1.043
 9067TIP3   OH227143   3.431   6.332   6.747
 9067TIP3    H127144   3.340   6.302   6.749
 9067TIP3    H227145   3.442   6.380   6.829
 9068TIP3   OH227146   7.067   7.161   5.326
 9068TIP3    H127147   7.087   7.155   5.232
 9068TIP3    H227148   6.996   7.098   5.339
 9069TIP3   OH227149   3.556   4.403   3.973
 9069TIP3    H127150   3.543   4.412   3.879
 9069TIP3    H227151   3.617   4.473   3.996
 9070TIP3   OH227152   3.828   1.961   2.592
 9070TIP3    H127153   3.824   1.955   2.497
 9070TIP3    H227154   3.739   1.940   2.621
 9071TIP3   OH227155   7.231   3.085   4.554
 9071TIP3    H127156   7.163   3.038   4.507
 9071TIP3    H227157   7.223   3.055   4.645
 9072TIP3   OH227158   3.118   3.192   5.564
 9072TIP3    H127159   3.053   3.121   5.557
 9072TIP3    H227160   3.066   3.272   5.553
 9073TIP3   OH227161   5.642   0.499   3.327
 9073TIP3    H127162   5.547   0.489   3.333
 9073TIP3    H227163   5.676   0.410   3.321
 9074TIP3   OH227164   6.998   3.296   6.678
 9074TIP3    H127165   6.995   3.240   6.756
 9074TIP3    H227166   7.051   3.247   6.615
 9075TIP3   OH227167   1.081   2.975   5.876
 9075TIP3    H127168   1.099   3.020   5.794
 9075TIP3    H227169   1.125   2.890   5.867
 9076TIP3   OH227170   1.378   6.109   0.286
 9076TIP3    H127171   1.470   6.109   0.314
 9076TIP3    H227172   1.341   6.029   0.324
 9077TIP3   OH227173   3.250   5.430   0.312
 9077TIP3    H127174   3.246   5.388   0.226
 9077TIP3    H227175   3.328   5.485   0.309
 9078TIP3   OH227176   4.801   4.272   3.826
 9078TIP3    H127177   4.817   4.200   3.764
 9078TIP3    H227178   4.829   4.351   3.779
 9079TIP3   OH227179   1.216   5.852   3.225
 9079TIP3    H127180   1.196   5.843   3.318
 9079TIP3    H227181   1.308   5.879   3.222
 9080TIP3   OH227182   7.529   7.605   0.021
 9080TIP3    H127183   7.536   7.534  -0.042
 9080TIP3    H227184   7.613   7.607   0.065
 9081TIP3   OH227185   0.254   6.138   5.156
 9081TIP3    H127186   0.274   6.046   5.174
 9081TIP3    H227187   0.213   6.137   5.069
 9082TIP3   OH227188   1.410   5.049   2.790
 9082TIP3    H127189   1.331   5.088   2.826
 9082TIP3    H227190   1.473   5.051   2.862
 9083TIP3   OH227191   6.305   1.932   6.689
 9083TIP3    H127192   6.239   2.000   6.670
 9083TIP3    H227193   6.336   1.905   6.602
 9084TIP3   OH227194   5.410   1.657   0.533
 9084TIP3    H127195   5.489   1.702   0.565
 9084TIP3    H227196   5.346   1.727   0.522
 9085TIP3   OH227197   3.077   0.422   2.105
 9085TIP3    H127198   3.165   0.439   2.141
 9085TIP3    H227199   3.046   0.508   2.078
 9086TIP3   OH227200   0.661   4.998   1.269
 9086TIP3    H127201   0.597   5.043   1.323
 9086TIP3    H227202   0.609   4.950   1.205
 9087TIP3   OH227203   1.440   6.994   6.091
 9087TIP3    H127204   1.526   7.010   6.053
 9087TIP3    H227205   1.421   7.073   6.141
 9088TIP3   OH227206   1.898   4.560   6.442
 9088TIP3    H127207   1.923   4.539   6.532
 9088TIP3    H227208   1.976   4.542   6.390
 9089TIP3   OH227209   3.062   7.073   5.139
 9089TIP3    H127210   3.088   6.991   5.097
 9089TIP3    H227211   2.971   7.085   5.112
 9090TIP3   OH227212   0.610   0.692   2.268
 9090TIP3    H127213   0.586   0.778   2.303
 9090TIP3    H227214   0.602   0.633   2.343
 9091TIP3   OH227215   1.981   3.599   2.854
 9091TIP3    H127216   1.931   3.551   2.921
 9091TIP3    H227217   1.964   3.550   2.773
 9092TIP3   OH227218   4.834   7.463   0.335
 9092TIP3    H127219   4.902   7.396   0.327
 9092TIP3    H227220   4.863   7.517   0.409
 9093TIP3   OH227221   5.914   4.673   6.653
 9093TIP3    H127222   5.908   4.718   6.737
 9093TIP3    H227223   5.824   4.671   6.620
 9094TIP3   OH227224   0.281   1.008   5.007
 9094TIP3    H127225   0.233   0.937   4.964
 9094TIP3    H227226   0.325   0.965   5.080
 9095TIP3   OH227227   5.190   6.187   1.614
 9095TIP3    H127228   5.215   6.149   1.530
 9095TIP3    H227229   5.239   6.269   1.618
 9096TIP3   OH227230   3.471   1.492   3.757
 9096TIP3    H127231   3.380   1.498   3.729
 9096TIP3    H227232   3.469   1.507   3.851
 9097TIP3   OH227233   4.925   7.739   2.888
 9097TIP3    H127234   4.979   7.664   2.862
 9097TIP3    H227235   4.953   7.810   2.830
 9098TIP3   OH227236   5.519   5.797   1.809
 9098TIP3    H127237   5.595   5.854   1.822
 9098TIP3    H227238   5.445   5.847   1.843
 9099TIP3   OH227239   7.575   2.150   4.960
 9099TIP3    H127240   7.613   2.228   5.002
 9099TIP3    H227241   7.637   2.080   4.981
 9100TIP3   OH227242   2.431   7.309   2.591
 9100TIP3    H127243   2.423   7.307   2.496
 9100TIP3    H227244   2.468   7.224   2.614
 9101TIP3   OH227245   2.955   2.978   1.479
 9101TIP3    H127246   2.977   3.071   1.476
 9101TIP3    H227247   3.038   2.933   1.465
 9102TIP3   OH227248   1.677   7.079   0.847
 9102TIP3    H127249   1.761   7.060   0.805
 9102TIP3    H227250   1.695   7.155   0.903
 9103TIP3   OH227251   7.178   0.074   2.626
 9103TIP3    H127252   7.120   0.007   2.663
 9103TIP3    H227253   7.160   0.152   2.679
 9104TIP3   OH227254   0.040   5.816   3.127
 9104TIP3    H127255   0.055   5.849   3.216
 9104TIP3    H227256   0.101   5.743   3.118
 9105TIP3   OH227257   4.643   4.364   4.787
 9105TIP3    H127258   4.670   4.291   4.732
 9105TIP3    H227259   4.642   4.328   4.876
 9106TIP3   OH227260   0.463   4.215   3.489
 9106TIP3    H127261   0.468   4.302   3.528
 9106TIP3    H227262   0.504   4.225   3.403
 9107TIP3   OH227263   4.870   1.487   5.643
 9107TIP3    H127264   4.829   1.559   5.690
 9107TIP3    H227265   4.836   1.493   5.554
 9108TIP3   OH227266   0.270   6.091   0.548
 9108TIP3    H127267   0.191   6.129   0.586
 9108TIP3    H227268   0.342   6.132   0.596
 9109TIP3   OH227269   4.382   7.161   2.008
 9109TIP3    H127270   4.466   7.119   2.027
 9109TIP3    H227271   4.375   7.158   1.913
 9110TIP3   OH227272   5.737   0.178   5.827
 9110TIP3    H127273   5.828   0.198   5.802
 9110TIP3    H227274   5.742   0.157   5.920
 9111TIP3   OH227275   0.324   7.155   6.643
 9111TIP3    H127276   0.380   7.232   6.630
 9111TIP3    H227277   0.235   7.190   6.638
 9112TIP3   OH227278   2.063   2.653   4.183
 9112TIP3    H127279   2.056   2.695   4.097
 9112TIP3    H227280   2.158   2.642   4.197
 9113TIP3   OH227281   1.344   7.772   6.681
 9113TIP3    H127282   1.432   7.804   6.702
 9113TIP3    H227283   1.344   7.681   6.710
 9114TIP3   OH227284   6.792   1.871   2.368
 9114TIP3    H127285   6.709   1.869   2.321
 9114TIP3    H227286   6.856   1.900   2.303
 9115TIP3   OH227287   4.207   2.014   0.888
 9115TIP3    H127288   4.176   2.093   0.933
 9115TIP3    H227289   4.221   1.951   0.958
 9116TIP3   OH227290   4.390   7.062   2.361
 9116TIP3    H127291   4.460   7.128   2.365
 9116TIP3    H227292   4.435   6.979   2.380
 9117TIP3   OH227293   3.268   7.626   0.612
 9117TIP3    H127294   3.211   7.661   0.681
 9117TIP3    H227295   3.303   7.545   0.648
 9118TIP3   OH227296   2.560   1.374   3.169
 9118TIP3    H127297   2.567   1.445   3.105
 9118TIP3    H227298   2.649   1.342   3.179
 9119TIP3   OH227299   0.342   5.472   5.902
 9119TIP3    H127300   0.376   5.419   5.830
 9119TIP3    H227301   0.258   5.432   5.924
 9120TIP3   OH227302   7.730   5.760   3.382
 9120TIP3    H127303   7.824   5.777   3.374
 9120TIP3    H227304   7.714   5.685   3.324
 9121TIP3   OH227305   1.017   1.605   4.481
 9121TIP3    H127306   0.985   1.680   4.531
 9121TIP3    H227307   0.943   1.580   4.425
 9122TIP3   OH227308   2.137   0.467  -0.018
 9122TIP3    H127309   2.103   0.392   0.030
 9122TIP3    H227310   2.122   0.541   0.040
 9123TIP3   OH227311   1.225   6.201   6.654
 9123TIP3    H127312   1.223   6.274   6.716
 9123TIP3    H227313   1.309   6.158   6.672
 9124TIP3   OH227314   2.254   2.430   3.311
 9124TIP3    H127315   2.347   2.423   3.288
 9124TIP3    H227316   2.209   2.385   3.239
 9125TIP3   OH227317   7.519   6.542   1.916
 9125TIP3    H127318   7.525   6.447   1.911
 9125TIP3    H227319   7.599   6.570   1.960
 9126TIP3   OH227320   8.240   7.333   3.627
 9126TIP3    H127321   8.204   7.291   3.548
 9126TIP3    H227322   8.271   7.260   3.680
 9127TIP3   OH227323   1.121   1.634   4.856
 9127TIP3    H127324   1.150   1.549   4.889
 9127TIP3    H227325   1.029   1.621   4.831
 9128TIP3   OH227326   1.906   4.475   4.430
 9128TIP3    H127327   1.907   4.381   4.445
 9128TIP3    H227328   1.857   4.511   4.504
 9129TIP3   OH227329   7.716   4.315   3.717
 9129TIP3    H127330   7.701   4.406   3.692
 9129TIP3    H227331   7.677   4.264   3.647
 9130TIP3   OH227332   0.997   1.808   6.659
 9130TIP3    H127333   1.043   1.779   6.580
 9130TIP3    H227334   0.907   1.778   6.648
 9131TIP3   OH227335   7.599   6.754   6.571
 9131TIP3    H127336   7.584   6.670   6.614
 9131TIP3    H227337   7.686   6.746   6.532
 9132TIP3   OH227338   1.912   7.635   5.557
 9132TIP3    H127339   1.988   7.593   5.517
 9132TIP3    H227340   1.881   7.573   5.623
 9133TIP3   OH227341   1.408   0.055   6.616
 9133TIP3    H127342   1.375   0.132   6.570
 9133TIP3    H227343   1.331   0.000   6.630
 9134TIP3   OH227344   1.900   3.430   5.854
 9134TIP3    H127345   1.812   3.418   5.817
 9134TIP3    H227346   1.890   3.502   5.915
 9135TIP3   OH227347   5.638   6.905   6.086
 9135TIP3    H127348   5.610   6.991   6.055
 9135TIP3    H227349   5.562   6.871   6.134
 9136TIP3   OH227350  -0.008   7.311   5.779
 9136TIP3    H127351  -0.009   7.229   5.730
 9136TIP3    H227352   0.004   7.379   5.712
 9137TIP3   OH227353   6.940   3.669   2.819
 9137TIP3    H127354   6.963   3.689   2.909
 9137TIP3    H227355   6.873   3.601   2.825
 9138TIP3   OH227356   1.426   4.261   5.559
 9138TIP3    H127357   1.360   4.307   5.508
 9138TIP3    H227358   1.464   4.198   5.499
 9139TIP3   OH227359   4.150   0.605   3.367
 9139TIP3    H127360   4.180   0.517   3.345
 9139TIP3    H227361   4.231   0.655   3.380
 9140TIP3   OH227362   1.258   6.115   2.520
 9140TIP3    H127363   1.324   6.125   2.589
 9140TIP3    H227364   1.265   6.194   2.468
 9141TIP3   OH227365   7.676   3.131   2.066
 9141TIP3    H127366   7.748   3.072   2.091
 9141TIP3    H227367   7.674   3.127   1.970
 9142TIP3   OH227368   6.357   2.329   1.912
 9142TIP3    H127369   6.427   2.264   1.904
 9142TIP3    H227370   6.363   2.381   1.832
 9143TIP3   OH227371   8.201   4.383   2.521
 9143TIP3    H127372   8.111   4.353   2.535
 9143TIP3    H227373   8.225   4.427   2.603
 9144TIP3   OH227374   0.080   5.119   0.481
 9144TIP3    H127375   0.035   5.203   0.483
 9144TIP3    H227376   0.012   5.055   0.461
 9145TIP3   OH227377   7.326   1.118   1.804
 9145TIP3    H127378   7.259   1.152   1.745
 9145TIP3    H227379   7.370   1.196   1.838
 9146TIP3   OH227380   4.228   4.213   6.788
 9146TIP3    H127381   4.283   4.200   6.711
 9146TIP3    H227382   4.148   4.164   6.770
 9147TIP3   OH227383   5.265   4.312   1.284
 9147TIP3    H127384   5.318   4.390   1.304
 9147TIP3    H227385   5.186   4.347   1.244
 9148TIP3   OH227386   0.117   0.617   0.641
 9148TIP3    H127387   0.133   0.635   0.549
 9148TIP3    H227388   0.194   0.653   0.686
 9149TIP3   OH227389   4.109   3.260   3.972
 9149TIP3    H127390   4.067   3.214   4.045
 9149TIP3    H227391   4.191   3.292   4.009
 9150TIP3   OH227392   0.552   2.152   6.009
 9150TIP3    H127393   0.575   2.141   5.917
 9150TIP3    H227394   0.460   2.126   6.014
 9151TIP3   OH227395   5.533   4.449   1.130
 9151TIP3    H127396   5.465   4.458   1.196
 9151TIP3    H227397   5.491   4.402   1.058
 9152TIP3   OH227398   1.725   4.936   5.112
 9152TIP3    H127399   1.690   4.907   5.197
 9152TIP3    H227400   1.703   5.029   5.109
 9153TIP3   OH227401   5.554   3.991   0.920
 9153TIP3    H127402   5.464   4.002   0.948
 9153TIP3    H227403   5.564   3.896   0.907
 9154TIP3   OH227404   7.421   3.642   1.594
 9154TIP3    H127405   7.409   3.557   1.635
 9154TIP3    H227406   7.516   3.650   1.583
 9155TIP3   OH227407   3.889   4.299   6.594
 9155TIP3    H127408   3.929   4.322   6.510
 9155TIP3    H227409   3.910   4.373   6.652
 9156TIP3   OH227410   7.556   5.292   4.862
 9156TIP3    H127411   7.538   5.322   4.951
 9156TIP3    H227412   7.577   5.372   4.814
 9157TIP3   OH227413   4.504   7.683   5.879
 9157TIP3    H127414   4.538   7.773   5.879
 9157TIP3    H227415   4.554   7.638   5.946
 9158TIP3   OH227416   7.137   0.870   6.049
 9158TIP3    H127417   7.098   0.904   6.130
 9158TIP3    H227418   7.142   0.945   5.991
 9159TIP3   OH227419   8.244   3.113   0.816
 9159TIP3    H127420   8.185   3.185   0.793
 9159TIP3    H227421   8.258   3.122   0.911
 9160TIP3   OH227422   3.704   4.600   4.080
 9160TIP3    H127423   3.701   4.595   4.176
 9160TIP3    H227424   3.769   4.667   4.061
 9161TIP3   OH227425   5.132   2.979   3.436
 9161TIP3    H127426   5.088   2.915   3.380
 9161TIP3    H227427   5.190   2.927   3.491
 9162TIP3   OH227428   4.955   0.751   4.678
 9162TIP3    H127429   4.947   0.751   4.583
 9162TIP3    H227430   5.049   0.757   4.694
 9163TIP3   OH227431   0.246   7.085   5.741
 9163TIP3    H127432   0.278   7.101   5.652
 9163TIP3    H227433   0.267   7.165   5.789
 9164TIP3   OH227434   0.676   0.243   2.239
 9164TIP3    H127435   0.729   0.169   2.207
 9164TIP3    H227436   0.592   0.232   2.195
 9165TIP3   OH227437   0.781   0.727   0.580
 9165TIP3    H127438   0.740   0.792   0.522
 9165TIP3    H227439   0.708   0.677   0.616
 9166TIP3   OH227440   0.538   5.357   1.299
 9166TIP3    H127441   0.568   5.392   1.383
 9166TIP3    H227442   0.499   5.433   1.255
 9167TIP3   OH227443   7.853   5.394   4.669
 9167TIP3    H127444   7.885   5.326   4.729
 9167TIP3    H227445   7.924   5.458   4.665
 9168TIP3   OH227446   3.033   0.754   4.713
 9168TIP3    H127447   3.019   0.752   4.618
 9168TIP3    H227448   3.127   0.769   4.723
 9169TIP3   OH227449   0.646   5.778   6.644
 9169TIP3    H127450   0.705   5.852   6.659
 9169TIP3    H227451   0.574   5.815   6.592
 9170TIP3   OH227452   2.092   1.229   1.955
 9170TIP3    H127453   2.050   1.152   1.917
 9170TIP3    H227454   2.166   1.194   2.004
 9171TIP3   OH227455   1.140   2.895   1.307
 9171TIP3    H127456   1.112   2.907   1.216
 9171TIP3    H227457   1.225   2.851   1.300
 9172TIP3   OH227458   6.359   4.237   0.039
 9172TIP3    H127459   6.297   4.296   0.080
 9172TIP3    H227460   6.439   4.289   0.030
 9173TIP3   OH227461   7.760   5.533   6.722
 9173TIP3    H127462   7.677   5.509   6.680
 9173TIP3    H227463   7.794   5.605   6.668
 9174TIP3   OH227464   0.194   0.468   4.965
 9174TIP3    H127465   0.172   0.481   4.872
 9174TIP3    H227466   0.148   0.388   4.990
 9175TIP3   OH227467   2.619   3.251   4.921
 9175TIP3    H127468   2.558   3.303   4.869
 9175TIP3    H227469   2.705   3.272   4.885
 9176TIP3   OH227470   7.889   0.056   5.643
 9176TIP3    H127471   7.879   0.068   5.737
 9176TIP3    H227472   7.950   0.123   5.615
 9177TIP3   OH227473   1.305   7.513   5.843
 9177TIP3    H127474   1.259   7.559   5.773
 9177TIP3    H227475   1.246   7.443   5.869
 9178TIP3   OH227476   0.301   2.175   1.053
 9178TIP3    H127477   0.210   2.145   1.047
 9178TIP3    H227478   0.318   2.181   1.147
 9179TIP3   OH227479   2.372   4.306   6.501
 9179TIP3    H127480   2.346   4.352   6.421
 9179TIP3    H227481   2.320   4.225   6.499
 9180TIP3   OH227482   4.460   2.573   2.515
 9180TIP3    H127483   4.442   2.493   2.466
 9180TIP3    H227484   4.505   2.543   2.594
 9181TIP3   OH227485   5.828   6.434   3.451
 9181TIP3    H127486   5.832   6.378   3.528
 9181TIP3    H227487   5.795   6.376   3.382
 9182TIP3   OH227488   4.860   5.497   1.091
 9182TIP3    H127489   4.873   5.588   1.062
 9182TIP3    H227490   4.945   5.472   1.128
 9183TIP3   OH227491   5.465   4.000   2.296
 9183TIP3    H127492   5.406   3.965   2.363
 9183TIP3    H227493   5.552   3.993   2.334
 9184TIP3   OH227494   2.287   4.115   0.028
 9184TIP3    H127495   2.314   4.123  -0.063
 9184TIP3    H227496   2.209   4.060   0.025
 9185TIP3   OH227497   3.398   3.493   4.136
 9185TIP3    H127498   3.476   3.508   4.082
 9185TIP3    H227499   3.412   3.548   4.213
 9186TIP3   OH227500   7.655   7.696   1.495
 9186TIP3    H127501   7.734   7.645   1.475
 9186TIP3    H227502   7.600   7.637   1.547
 9187TIP3   OH227503   6.775   6.318   5.941
 9187TIP3    H127504   6.834   6.309   5.866
 9187TIP3    H227505   6.817   6.267   6.011
 9188TIP3   OH227506   5.980   7.325   2.044
 9188TIP3    H127507   5.888   7.338   2.020
 9188TIP3    H227508   6.007   7.248   1.994
 9189TIP3   OH227509   2.844   1.764   5.208
 9189TIP3    H127510   2.926   1.809   5.187
 9189TIP3    H227511   2.776   1.819   5.169
 9190TIP3   OH227512   7.218   0.121   5.969
 9190TIP3    H127513   7.157   0.096   6.038
 9190TIP3    H227514   7.250   0.208   5.994
 9191TIP3   OH227515   5.025   5.923   0.174
 9191TIP3    H127516   5.022   5.867   0.096
 9191TIP3    H227517   4.946   5.977   0.167
 9192TIP3   OH227518   2.351   2.934   4.579
 9192TIP3    H127519   2.279   2.995   4.596
 9192TIP3    H227520   2.353   2.926   4.483
 9193TIP3   OH227521   6.620   5.623   2.060
 9193TIP3    H127522   6.585   5.553   2.115
 9193TIP3    H227523   6.634   5.696   2.120
 9194TIP3   OH227524   6.456   5.974   5.032
 9194TIP3    H127525   6.397   5.898   5.034
 9194TIP3    H227526   6.399   6.049   5.045
 9195TIP3   OH227527   2.015   2.645   3.171
 9195TIP3    H127528   2.039   2.593   3.094
 9195TIP3    H227529   2.089   2.703   3.185
 9196TIP3   OH227530   5.928   6.206   4.929
 9196TIP3    H127531   5.999   6.203   4.865
 9196TIP3    H227532   5.851   6.178   4.880
 9197TIP3   OH227533   5.698   5.439   3.464
 9197TIP3    H127534   5.688   5.473   3.552
 9197TIP3    H227535   5.793   5.439   3.448
 9198TIP3   OH227536   3.760   7.540   4.907
 9198TIP3    H127537   3.809   7.594   4.844
 9198TIP3    H227538   3.669   7.547   4.878
 9199TIP3   OH227539   1.249   1.004   2.635
 9199TIP3    H127540   1.314   1.030   2.701
 9199TIP3    H227541   1.185   0.952   2.685
 9200TIP3   OH227542   1.106   0.512   5.295
 9200TIP3    H127543   1.061   0.430   5.311
 9200TIP3    H227544   1.171   0.491   5.227
 9201TIP3   OH227545   7.388   3.447   6.602
 9201TIP3    H127546   7.347   3.494   6.674
 9201TIP3    H227547   7.395   3.356   6.633
 9202TIP3   OH227548   7.912   6.977   3.560
 9202TIP3    H127549   7.844   7.019   3.612
 9202TIP3    H227550   7.903   6.884   3.579
 9203TIP3   OH227551   1.201   0.049   5.180
 9203TIP3    H127552   1.198   0.021   5.088
 9203TIP3    H227553   1.119   0.016   5.217
 9204TIP3   OH227554   2.959   4.739   0.959
 9204TIP3    H127555   2.973   4.652   0.995
 9204TIP3    H227556   3.047   4.775   0.946
 9205TIP3   OH227557   3.816   4.411   4.326
 9205TIP3    H127558   3.837   4.349   4.256
 9205TIP3    H227559   3.751   4.365   4.380
 9206TIP3   OH227560   2.269   3.670   0.105
 9206TIP3    H127561   2.242   3.679   0.196
 9206TIP3    H227562   2.347   3.614   0.108
 9207TIP3   OH227563   7.714   2.667   3.874
 9207TIP3    H127564   7.799   2.698   3.843
 9207TIP3    H227565   7.708   2.698   3.964
 9208TIP3   OH227566   1.073   6.086   5.390
 9208TIP3    H127567   0.994   6.078   5.444
 9208TIP3    H227568   1.044   6.059   5.302
 9209TIP3   OH227569   5.383   5.334   4.306
 9209TIP3    H127570   5.287   5.341   4.309
 9209TIP3    H227571   5.407   5.372   4.221
 9210TIP3   OH227572   6.077   2.240   4.122
 9210TIP3    H127573   6.147   2.282   4.073
 9210TIP3    H227574   6.071   2.291   4.203
 9211TIP3   OH227575   6.379   5.305   3.819
 9211TIP3    H127576   6.299   5.345   3.853
 9211TIP3    H227577   6.441   5.309   3.892
 9212TIP3   OH227578   4.375   7.713   1.073
 9212TIP3    H127579   4.330   7.647   1.021
 9212TIP3    H227580   4.324   7.719   1.154
 9213TIP3   OH227581   5.915   2.983   1.726
 9213TIP3    H127582   5.946   2.987   1.635
 9213TIP3    H227583   5.868   3.065   1.738
 9214TIP3   OH227584   6.057   1.628   2.710
 9214TIP3    H127585   5.969   1.644   2.742
 9214TIP3    H227586   6.046   1.568   2.637
 9215TIP3   OH227587   6.297   6.585   0.491
 9215TIP3    H127588   6.203   6.576   0.507
 9215TIP3    H227589   6.308   6.567   0.398
 9216TIP3   OH227590   2.121   7.799   2.930
 9216TIP3    H127591   2.037   7.759   2.905
 9216TIP3    H227592   2.184   7.762   2.869
 9217TIP3   OH227593   0.551   2.122   2.336
 9217TIP3    H127594   0.606   2.127   2.258
 9217TIP3    H227595   0.469   2.083   2.306
 9218TIP3   OH227596   4.569   5.419   6.300
 9218TIP3    H127597   4.495   5.360   6.311
 9218TIP3    H227598   4.531   5.505   6.284
 9219TIP3   OH227599   0.456   6.204   0.322
 9219TIP3    H127600   0.524   6.138   0.330
 9219TIP3    H227601   0.390   6.179   0.387
 9220TIP3   OH227602   1.037   0.617   6.351
 9220TIP3    H127603   0.990   0.700   6.345
 9220TIP3    H227604   1.068   0.600   6.262
 9221TIP3   OH227605   1.848   5.117   6.598
 9221TIP3    H127606   1.932   5.085   6.633
 9221TIP3    H227607   1.868   5.144   6.508
 9222TIP3   OH227608   4.316   1.193   5.862
 9222TIP3    H127609   4.286   1.171   5.774
 9222TIP3    H227610   4.236   1.211   5.911
 9223TIP3   OH227611   0.857   1.591   4.850
 9223TIP3    H127612   0.852   1.504   4.810
 9223TIP3    H227613   0.778   1.635   4.820
 9224TIP3   OH227614   0.737   5.179   5.409
 9224TIP3    H127615   0.746   5.263   5.455
 9224TIP3    H227616   0.662   5.191   5.351
 9225TIP3   OH227617   6.912   2.271   1.113
 9225TIP3    H127618   6.850   2.232   1.051
 9225TIP3    H227619   6.945   2.349   1.067
 9226TIP3   OH227620   2.350   4.077   5.086
 9226TIP3    H127621   2.399   4.125   5.152
 9226TIP3    H227622   2.418   4.035   5.032
 9227TIP3   OH227623   0.891   2.422   0.901
 9227TIP3    H127624   0.910   2.495   0.960
 9227TIP3    H227625   0.817   2.452   0.849
 9228TIP3   OH227626   3.864   4.129   0.407
 9228TIP3    H127627   3.812   4.050   0.415
 9228TIP3    H227628   3.945   4.109   0.454
 9229TIP3   OH227629   0.474   2.391   2.525
 9229TIP3    H127630   0.512   2.351   2.447
 9229TIP3    H227631   0.460   2.317   2.585
 9230TIP3   OH227632   4.449   2.062   5.511
 9230TIP3    H127633   4.527   2.065   5.456
 9230TIP3    H227634   4.376   2.069   5.448
 9231TIP3   OH227635   7.050   2.376   5.170
 9231TIP3    H127636   7.063   2.470   5.168
 9231TIP3    H227637   7.138   2.339   5.164
 9232TIP3   OH227638   7.873   7.220   4.473
 9232TIP3    H127639   7.953   7.173   4.496
 9232TIP3    H227640   7.904   7.306   4.443
 9233TIP3   OH227641   4.123   4.395   2.507
 9233TIP3    H127642   4.140   4.488   2.523
 9233TIP3    H227643   4.056   4.371   2.571
 9234TIP3   OH227644   5.064   0.307   1.091
 9234TIP3    H127645   5.158   0.324   1.088
 9234TIP3    H227646   5.056   0.212   1.076
 9235TIP3   OH227647   7.487   3.927   2.246
 9235TIP3    H127648   7.555   3.975   2.295
 9235TIP3    H227649   7.429   3.995   2.212
 9236TIP3   OH227650   2.462   3.519   5.596
 9236TIP3    H127651   2.528   3.489   5.658
 9236TIP3    H227652   2.390   3.456   5.607
 9237TIP3   OH227653   7.409   2.884   0.082
 9237TIP3    H127654   7.349   2.937   0.030
 9237TIP3    H227655   7.490   2.935   0.086
 9238TIP3   OH227656   2.068   1.053   3.258
 9238TIP3    H127657   1.993   1.102   3.224
 9238TIP3    H227658   2.105   1.110   3.326
 9239TIP3   OH227659   0.394   5.569   0.934
 9239TIP3    H127660   0.441   5.580   1.017
 9239TIP3    H227661   0.421   5.482   0.903
 9240TIP3   OH227662   7.514   0.982   2.857
 9240TIP3    H127663   7.586   1.027   2.901
 9240TIP3    H227664   7.552   0.901   2.823
 9241TIP3   OH227665   0.872   3.735   3.428
 9241TIP3    H127666   0.777   3.725   3.426
 9241TIP3    H227667   0.905   3.646   3.413
 9242TIP3   OH227668   1.841   3.170   0.039
 9242TIP3    H127669   1.828   3.265   0.045
 9242TIP3    H227670   1.790   3.144  -0.037
 9243TIP3   OH227671   2.374   6.244   5.701
 9243TIP3    H127672   2.399   6.235   5.792
 9243TIP3    H227673   2.329   6.163   5.679
 9244TIP3   OH227674   3.175   6.426   2.426
 9244TIP3    H127675   3.081   6.421   2.445
 9244TIP3    H227676   3.217   6.388   2.503
 9245TIP3   OH227677   7.883   3.766   4.525
 9245TIP3    H127678   7.794   3.801   4.523
 9245TIP3    H227679   7.905   3.750   4.433
 9246TIP3   OH227680   3.988   5.225   4.080
 9246TIP3    H127681   3.969   5.312   4.115
 9246TIP3    H227682   4.028   5.178   4.153
 9247TIP3   OH227683   3.017   6.402   6.464
 9247TIP3    H127684   3.059   6.488   6.472
 9247TIP3    H227685   3.023   6.380   6.371
 9248TIP3   OH227686   0.138   3.830   0.676
 9248TIP3    H127687   0.122   3.887   0.600
 9248TIP3    H227688   0.098   3.876   0.749
 9249TIP3   OH227689   2.488   0.433   6.493
 9249TIP3    H127690   2.525   0.345   6.501
 9249TIP3    H227691   2.563   0.491   6.503
 9250TIP3   OH227692   5.248   1.724   5.429
 9250TIP3    H127693   5.309   1.791   5.461
 9250TIP3    H227694   5.162   1.755   5.456
 9251TIP3   OH227695   0.085   5.906   5.982
 9251TIP3    H127696   0.099   5.997   6.007
 9251TIP3    H227697   0.152   5.888   5.916
 9252TIP3   OH227698   1.031   6.266   2.246
 9252TIP3    H127699   1.070   6.280   2.333
 9252TIP3    H227700   1.037   6.351   2.203
 9253TIP3   OH227701   3.168   4.865   5.954
 9253TIP3    H127702   3.183   4.840   6.046
 9253TIP3    H227703   3.239   4.822   5.906
 9254TIP3   OH227704   4.323   7.549   1.388
 9254TIP3    H127705   4.270   7.480   1.427
 9254TIP3    H227706   4.261   7.598   1.333
 9255TIP3   OH227707   1.136   3.053   0.709
 9255TIP3    H127708   1.156   2.974   0.760
 9255TIP3    H227709   1.052   3.083   0.743
 9256TIP3   OH227710   5.987   0.612   2.441
 9256TIP3    H127711   5.989   0.672   2.515
 9256TIP3    H227712   6.029   0.660   2.369
 9257TIP3   OH227713   4.499   4.873   3.623
 9257TIP3    H127714   4.561   4.945   3.607
 9257TIP3    H227715   4.421   4.916   3.657
 9258TIP3   OH227716   0.484   7.802   0.569
 9258TIP3    H127717   0.518   7.834   0.653
 9258TIP3    H227718   0.411   7.745   0.593
 9259TIP3   OH227719   7.451   7.527   1.555
 9259TIP3    H127720   7.479   7.437   1.545
 9259TIP3    H227721   7.395   7.544   1.479
 9260TIP3   OH227722   4.613   3.458   5.799
 9260TIP3    H127723   4.635   3.544   5.834
 9260TIP3    H227724   4.560   3.476   5.721
 9261TIP3   OH227725   1.874   3.912   4.868
 9261TIP3    H127726   1.787   3.938   4.897
 9261TIP3    H227727   1.859   3.852   4.795
 9262TIP3   OH227728   2.575   2.103   0.468
 9262TIP3    H127729   2.554   2.075   0.557
 9262TIP3    H227730   2.581   2.022   0.418
 9263TIP3   OH227731   1.148   3.834   2.656
 9263TIP3    H127732   1.158   3.914   2.606
 9263TIP3    H227733   1.206   3.844   2.731
 9264TIP3   OH227734   8.013   3.326   6.044
 9264TIP3    H127735   8.044   3.365   5.962
 9264TIP3    H227736   8.086   3.337   6.105
 9265TIP3   OH227737   0.794   5.905   2.434
 9265TIP3    H127738   0.842   5.832   2.395
 9265TIP3    H227739   0.855   5.942   2.498
 9266TIP3   OH227740   0.572   1.685   0.198
 9266TIP3    H127741   0.644   1.637   0.157
 9266TIP3    H227742   0.583   1.776   0.168
 9267TIP3   OH227743   1.822   2.049   4.227
 9267TIP3    H127744   1.737   2.008   4.210
 9267TIP3    H227745   1.813   2.139   4.195
 9268TIP3   OH227746   5.098   5.665   6.635
 9268TIP3    H127747   5.136   5.750   6.660
 9268TIP3    H227748   5.067   5.628   6.718
 9269TIP3   OH227749   7.183   1.682   6.014
 9269TIP3    H127750   7.218   1.685   5.925
 9269TIP3    H227751   7.224   1.605   6.054
 9270TIP3   OH227752   5.156   1.807   4.588
 9270TIP3    H127753   5.186   1.733   4.641
 9270TIP3    H227754   5.061   1.809   4.600
 9271TIP3   OH227755   6.535   6.561   0.278
 9271TIP3    H127756   6.562   6.647   0.309
 9271TIP3    H227757   6.525   6.571   0.183
 9272TIP3   OH227758   7.595   7.799   1.231
 9272TIP3    H127759   7.687   7.826   1.233
 9272TIP3    H227760   7.587   7.734   1.301
 9273TIP3   OH227761   5.363   7.515   0.898
 9273TIP3    H127762   5.392   7.599   0.933
 9273TIP3    H227763   5.356   7.458   0.975
 9274TIP3   OH227764   1.018   5.699   4.369
 9274TIP3    H127765   1.035   5.715   4.462
 9274TIP3    H227766   0.922   5.698   4.362
 9275TIP3   OH227767   4.401   7.594   4.272
 9275TIP3    H127768   4.441   7.628   4.352
 9275TIP3    H227769   4.469   7.540   4.233
 9276TIP3   OH227770   3.448   1.714   0.895
 9276TIP3    H127771   3.510   1.682   0.960
 9276TIP3    H227772   3.503   1.754   0.827
 9277TIP3   OH227773   1.927   5.736   4.845
 9277TIP3    H127774   1.834   5.720   4.825
 9277TIP3    H227775   1.932   5.831   4.857
 9278TIP3   OH227776   5.681   3.366   2.265
 9278TIP3    H127777   5.643   3.278   2.266
 9278TIP3    H227778   5.767   3.355   2.305
 9279TIP3   OH227779   4.551   3.758   1.304
 9279TIP3    H127780   4.526   3.667   1.292
 9279TIP3    H227781   4.489   3.807   1.249
 9280TIP3   OH227782   0.137   2.060   4.796
 9280TIP3    H127783   0.106   1.984   4.746
 9280TIP3    H227784   0.058   2.096   4.836
 9281TIP3   OH227785   6.418   0.525   5.582
 9281TIP3    H127786   6.423   0.465   5.656
 9281TIP3    H227787   6.393   0.469   5.508
 9282TIP3   OH227788   0.645   0.876   4.398
 9282TIP3    H127789   0.694   0.880   4.479
 9282TIP3    H227790   0.596   0.959   4.395
 9283TIP3   OH227791   6.315   4.763   4.614
 9283TIP3    H127792   6.382   4.748   4.680
 9283TIP3    H227793   6.234   4.770   4.664
 9284TIP3   OH227794   0.068   2.625   6.718
 9284TIP3    H127795   0.065   2.549   6.776
 9284TIP3    H227796   0.009   2.602   6.646
 9285TIP3   OH227797   4.195   3.244   0.813
 9285TIP3    H127798   4.248   3.234   0.892
 9285TIP3    H227799   4.106   3.224   0.842
 9286TIP3   OH227800   7.148   7.106   1.178
 9286TIP3    H127801   7.212   7.112   1.248
 9286TIP3    H227802   7.190   7.052   1.111
 9287TIP3   OH227803   4.813   1.556   3.181
 9287TIP3    H127804   4.728   1.516   3.164
 9287TIP3    H227805   4.875   1.483   3.176
 9288TIP3   OH227806   4.058   4.735   1.032
 9288TIP3    H127807   4.037   4.792   0.958
 9288TIP3    H227808   4.045   4.790   1.109
 9289TIP3   OH227809   2.885   3.574   0.443
 9289TIP3    H127810   2.915   3.663   0.422
 9289TIP3    H227811   2.849   3.541   0.361
 9290TIP3   OH227812   8.213   7.099   5.597
 9290TIP3    H127813   8.205   7.083   5.503
 9290TIP3    H227814   8.287   7.044   5.624
 9291TIP3   OH227815   4.060   6.150   0.341
 9291TIP3    H127816   4.105   6.091   0.281
 9291TIP3    H227817   4.105   6.234   0.330
 9292TIP3   OH227818   0.774   0.737   3.721
 9292TIP3    H127819   0.712   0.809   3.729
 9292TIP3    H227820   0.812   0.729   3.809
 9293TIP3   OH227821   4.924   0.390   3.469
 9293TIP3    H127822   4.875   0.311   3.491
 9293TIP3    H227823   4.888   0.458   3.526
 9294TIP3   OH227824   4.554   1.963   2.101
 9294TIP3    H127825   4.545   2.014   2.181
 9294TIP3    H227826   4.558   2.028   2.031
 9295TIP3   OH227827   1.882   1.307   3.255
 9295TIP3    H127828   1.815   1.249   3.218
 9295TIP3    H227829   1.932   1.337   3.180
 9296TIP3   OH227830   2.187   6.602   6.271
 9296TIP3    H127831   2.151   6.551   6.343
 9296TIP3    H227832   2.135   6.577   6.195
 9297TIP3   OH227833   5.830   6.285   2.476
 9297TIP3    H127834   5.902   6.235   2.516
 9297TIP3    H227835   5.789   6.330   2.550
 9298TIP3   OH227836   2.267   4.180   0.420
 9298TIP3    H127837   2.204   4.252   0.417
 9298TIP3    H227838   2.321   4.191   0.342
 9299TIP3   OH227839   2.736   1.824   5.642
 9299TIP3    H127840   2.741   1.789   5.731
 9299TIP3    H227841   2.807   1.888   5.638
 9300TIP3   OH227842   0.652   6.244   6.400
 9300TIP3    H127843   0.620   6.329   6.371
 9300TIP3    H227844   0.713   6.265   6.471
 9301TIP3   OH227845   8.167   1.310   4.530
 9301TIP3    H127846   8.117   1.341   4.454
 9301TIP3    H227847   8.244   1.367   4.534
 9302TIP3   OH227848   1.899   6.958   0.203
 9302TIP3    H127849   1.949   7.038   0.220
 9302TIP3    H227850   1.888   6.918   0.289
 9303TIP3   OH227851   5.193   2.356   4.491
 9303TIP3    H127852   5.187   2.416   4.417
 9303TIP3    H227853   5.258   2.291   4.464
 9304TIP3   OH227854   6.776   5.168   1.907
 9304TIP3    H127855   6.709   5.131   1.965
 9304TIP3    H227856   6.783   5.259   1.934
 9305TIP3   OH227857   1.891   7.509   4.785
 9305TIP3    H127858   1.820   7.568   4.760
 9305TIP3    H227859   1.963   7.567   4.810
 9306TIP3   OH227860   0.944   5.348   0.945
 9306TIP3    H127861   0.856   5.341   0.980
 9306TIP3    H227862   0.994   5.393   1.013
 9307TIP3   OH227863   2.544   0.304   1.898
 9307TIP3    H127864   2.615   0.368   1.888
 9307TIP3    H227865   2.575   0.244   1.965
 9308TIP3   OH227866   1.595   6.630   5.118
 9308TIP3    H127867   1.641   6.713   5.107
 9308TIP3    H227868   1.529   6.629   5.049
 9309TIP3   OH227869   1.860   4.193   4.379
 9309TIP3    H127870   1.933   4.186   4.318
 9309TIP3    H227871   1.883   4.135   4.452
 9310TIP3   OH227872   2.019   7.554   4.308
 9310TIP3    H127873   2.057   7.492   4.371
 9310TIP3    H227874   2.094   7.599   4.270
 9311TIP3   OH227875   6.978   4.406   4.867
 9311TIP3    H127876   7.016   4.343   4.806
 9311TIP3    H227877   7.025   4.391   4.949
 9312TIP3   OH227878   1.853   2.043   4.886
 9312TIP3    H127879   1.770   2.071   4.924
 9312TIP3    H227880   1.920   2.083   4.942
 9313TIP3   OH227881   7.908   6.201   6.192
 9313TIP3    H127882   7.842   6.143   6.153
 9313TIP3    H227883   7.943   6.250   6.118
 9314TIP3   OH227884   8.199   1.074   0.313
 9314TIP3    H127885   8.289   1.070   0.281
 9314TIP3    H227886   8.160   0.991   0.286
 9315TIP3   OH227887   6.988   1.250   4.997
 9315TIP3    H127888   6.967   1.168   5.042
 9315TIP3    H227889   6.995   1.225   4.905
 9316TIP3   OH227890   1.026   2.255   5.246
 9316TIP3    H127891   0.987   2.227   5.163
 9316TIP3    H227892   1.098   2.312   5.220
 9317TIP3   OH227893   5.083   4.612   5.452
 9317TIP3    H127894   5.116   4.668   5.522
 9317TIP3    H227895   5.125   4.645   5.373
 9318TIP3   OH227896   6.490   4.923   3.944
 9318TIP3    H127897   6.476   4.829   3.953
 9318TIP3    H227898   6.437   4.948   3.868
 9319TIP3   OH227899   6.758   3.823   5.260
 9319TIP3    H127900   6.722   3.904   5.297
 9319TIP3    H227901   6.792   3.776   5.336
 9320TIP3   OH227902   0.379   1.624   2.693
 9320TIP3    H127903   0.417   1.710   2.677
 9320TIP3    H227904   0.446   1.578   2.745
 9321TIP3   OH227905   4.140   0.675   0.813
 9321TIP3    H127906   4.046   0.668   0.799
 9321TIP3    H227907   4.161   0.599   0.868
 9322TIP3   OH227908   4.862   0.739   4.349
 9322TIP3    H127909   4.801   0.810   4.332
 9322TIP3    H227910   4.924   0.742   4.276
 9323TIP3   OH227911   6.986   7.255   3.088
 9323TIP3    H127912   7.015   7.183   3.144
 9323TIP3    H227913   7.029   7.238   3.004
 9324TIP3   OH227914   6.697   6.765   6.309
 9324TIP3    H127915   6.635   6.727   6.372
 9324TIP3    H227916   6.723   6.691   6.254
 9325TIP3   OH227917   5.312   1.079   3.468
 9325TIP3    H127918   5.252   1.044   3.402
 9325TIP3    H227919   5.312   1.014   3.538
 9326TIP3   OH227920   7.651   2.408   5.634
 9326TIP3    H127921   7.591   2.412   5.559
 9326TIP3    H227922   7.694   2.493   5.634
 9327TIP3   OH227923   3.857   1.454   2.059
 9327TIP3    H127924   3.877   1.515   2.130
 9327TIP3    H227925   3.885   1.499   1.979
 9328TIP3   OH227926   2.728   7.605   5.631
 9328TIP3    H127927   2.729   7.696   5.661
 9328TIP3    H227928   2.734   7.610   5.536
 9329TIP3   OH227929   8.202   0.895   3.001
 9329TIP3    H127930   8.177   0.987   3.004
 9329TIP3    H227931   8.296   0.897   2.980
 9330TIP3   OH227932   2.227   0.671   0.835
 9330TIP3    H127933   2.295   0.669   0.903
 9330TIP3    H227934   2.151   0.709   0.878
 9331TIP3   OH227935   4.606   0.359   5.165
 9331TIP3    H127936   4.695   0.391   5.181
 9331TIP3    H227937   4.610   0.317   5.080
 9332TIP3   OH227938   4.674   2.382   3.831
 9332TIP3    H127939   4.658   2.426   3.915
 9332TIP3    H227940   4.692   2.454   3.770
 9333TIP3   OH227941   4.520   7.128   0.228
 9333TIP3    H127942   4.517   7.034   0.212
 9333TIP3    H227943   4.580   7.138   0.302
 9334TIP3   OH227944   6.771   1.048   0.955
 9334TIP3    H127945   6.784   1.140   0.932
 9334TIP3    H227946   6.714   1.014   0.886
 9335TIP3   OH227947   3.511   1.562   5.835
 9335TIP3    H127948   3.522   1.511   5.755
 9335TIP3    H227949   3.497   1.496   5.903
 9336TIP3   OH227950   7.347   6.172   3.342
 9336TIP3    H127951   7.359   6.262   3.311
 9336TIP3    H227952   7.430   6.150   3.383
 9337TIP3   OH227953   7.400   5.520   1.371
 9337TIP3    H127954   7.462   5.559   1.433
 9337TIP3    H227955   7.327   5.582   1.368
 9338TIP3   OH227956   0.942   4.777   5.162
 9338TIP3    H127957   0.944   4.728   5.080
 9338TIP3    H227958   0.921   4.867   5.136
 9339TIP3   OH227959   4.666   0.038   6.261
 9339TIP3    H127960   4.597   0.102   6.276
 9339TIP3    H227961   4.711   0.030   6.345
 9340TIP3   OH227962   5.499   0.031   6.143
 9340TIP3    H127963   5.582   0.010   6.187
 9340TIP3    H227964   5.512   0.119   6.108
 9341TIP3   OH227965   4.607   1.895   3.956
 9341TIP3    H127966   4.669   1.845   4.008
 9341TIP3    H227967   4.619   1.864   3.867
 9342TIP3   OH227968   6.703   0.371   2.691
 9342TIP3    H127969   6.712   0.450   2.744
 9342TIP3    H227970   6.751   0.304   2.739
 9343TIP3   OH227971   7.853   6.109   4.060
 9343TIP3    H127972   7.817   6.170   3.995
 9343TIP3    H227973   7.890   6.038   4.007
 9344TIP3   OH227974   6.369   3.452   6.543
 9344TIP3    H127975   6.455   3.445   6.501
 9344TIP3    H227976   6.358   3.545   6.562
 9345TIP3   OH227977   3.105   3.589   6.271
 9345TIP3    H127978   3.080   3.576   6.180
 9345TIP3    H227979   3.022   3.601   6.317
 9346TIP3   OH227980   5.242   0.374   4.533
 9346TIP3    H127981   5.197   0.431   4.472
 9346TIP3    H227982   5.332   0.371   4.501
 9347TIP3   OH227983   0.949   0.521   3.180
 9347TIP3    H127984   1.035   0.485   3.204
 9347TIP3    H227985   0.960   0.616   3.186
 9348TIP3   OH227986   7.222   7.553   1.338
 9348TIP3    H127987   7.183   7.536   1.424
 9348TIP3    H227988   7.241   7.647   1.338
 9349TIP3   OH227989   4.338   5.734   6.771
 9349TIP3    H127990   4.298   5.711   6.688
 9349TIP3    H227991   4.273   5.787   6.816
 9350TIP3   OH227992   5.823   6.907   2.514
 9350TIP3    H127993   5.832   6.863   2.598
 9350TIP3    H227994   5.785   6.841   2.456
 9351TIP3   OH227995   0.184   7.406   4.506
 9351TIP3    H127996   0.185   7.359   4.422
 9351TIP3    H227997   0.275   7.402   4.536
 9352TIP3   OH227998   6.598   0.340   3.111
 9352TIP3    H127999   6.526   0.364   3.053
 9352TIP3    H228000   6.579   0.250   3.137
 9353TIP3   OH228001   7.346   6.469   0.718
 9353TIP3    H128002   7.282   6.407   0.753
 9353TIP3    H228003   7.306   6.503   0.638
 9354TIP3   OH228004   3.995   0.374   5.764
 9354TIP3    H128005   4.068   0.327   5.723
 9354TIP3    H228006   3.917   0.332   5.728
 9355TIP3   OH228007   7.275   7.359   4.764
 9355TIP3    H128008   7.282   7.270   4.728
 9355TIP3    H228009   7.246   7.412   4.690
 9356TIP3   OH228010   1.432   2.640   0.272
 9356TIP3    H128011   1.466   2.691   0.198
 9356TIP3    H228012   1.446   2.549   0.247
 9357TIP3   OH228013   3.041   4.623   2.410
 9357TIP3    H128014   3.102   4.565   2.364
 9357TIP3    H228015   2.993   4.667   2.340
 9358TIP3   OH228016   7.476   4.753   3.779
 9358TIP3    H128017   7.513   4.702   3.850
 9358TIP3    H228018   7.388   4.777   3.809
 9359TIP3   OH228019   4.420   1.805   5.921
 9359TIP3    H128020   4.358   1.876   5.933
 9359TIP3    H228021   4.440   1.806   5.827
 9360TIP3   OH228022   4.444   3.114   2.473
 9360TIP3    H128023   4.501   3.185   2.441
 9360TIP3    H228024   4.501   3.037   2.475
 9361TIP3   OH228025   0.135   4.145   5.723
 9361TIP3    H128026   0.170   4.125   5.637
 9361TIP3    H228027   0.091   4.065   5.751
 9362TIP3   OH228028   6.638   4.390   2.161
 9362TIP3    H128029   6.651   4.386   2.066
 9362TIP3    H228030   6.644   4.299   2.190
 9363TIP3   OH228031   3.198   2.077   3.436
 9363TIP3    H128032   3.130   2.064   3.370
 9363TIP3    H228033   3.173   2.018   3.507
 9364TIP3   OH228034   2.414   3.781   3.251
 9364TIP3    H128035   2.342   3.751   3.195
 9364TIP3    H228036   2.371   3.834   3.319
 9365TIP3   OH228037   4.362   4.745   1.370
 9365TIP3    H128038   4.437   4.774   1.422
 9365TIP3    H228039   4.290   4.801   1.399
 9366TIP3   OH228040   8.076   1.446   6.520
 9366TIP3    H128041   8.164   1.463   6.553
 9366TIP3    H228042   8.028   1.527   6.539
 9367TIP3   OH228043   6.098   3.804   3.868
 9367TIP3    H128044   6.046   3.786   3.790
 9367TIP3    H228045   6.112   3.718   3.908
 9368TIP3   OH228046   4.432   0.503   2.074
 9368TIP3    H128047   4.467   0.563   2.008
 9368TIP3    H228048   4.509   0.455   2.106
 9369TIP3   OH228049   4.610   6.359   1.538
 9369TIP3    H128050   4.612   6.453   1.517
 9369TIP3    H228051   4.648   6.316   1.462
 9370TIP3   OH228052   2.772   6.916   4.968
 9370TIP3    H128053   2.834   6.929   4.897
 9370TIP3    H228054   2.802   6.836   5.012
 9371TIP3   OH228055   4.454   0.842   4.798
 9371TIP3    H128056   4.507   0.869   4.873
 9371TIP3    H228057   4.503   0.770   4.759
 9372TIP3   OH228058   0.477   1.878   4.624
 9372TIP3    H128059   0.541   1.892   4.555
 9372TIP3    H228060   0.454   1.966   4.654
 9373TIP3   OH228061   0.695   3.662   2.507
 9373TIP3    H128062   0.647   3.712   2.440
 9373TIP3    H228063   0.767   3.721   2.533
 9374TIP3   OH228064   1.497   3.969   4.636
 9374TIP3    H128065   1.464   3.961   4.726
 9374TIP3    H228066   1.498   4.063   4.620
 9375TIP3   OH228067   4.044   5.820   3.806
 9375TIP3    H128068   4.122   5.871   3.784
 9375TIP3    H228069   4.075   5.730   3.812
 9376TIP3   OH228070   4.134   6.397   5.215
 9376TIP3    H128071   4.141   6.306   5.243
 9376TIP3    H228072   4.040   6.412   5.205
 9377TIP3   OH228073   2.616   5.333   1.813
 9377TIP3    H128074   2.576   5.274   1.750
 9377TIP3    H228075   2.620   5.418   1.768
 9378TIP3   OH228076   2.807   3.968   3.079
 9378TIP3    H128077   2.863   3.966   3.157
 9378TIP3    H228078   2.727   4.012   3.108
 9379TIP3   OH228079   6.904   4.870   2.418
 9379TIP3    H128080   6.866   4.819   2.346
 9379TIP3    H228081   6.988   4.826   2.436
 9380TIP3   OH228082   3.525   4.421   3.637
 9380TIP3    H128083   3.451   4.362   3.654
 9380TIP3    H228084   3.571   4.381   3.562
 9381TIP3   OH228085   0.140   2.611   1.455
 9381TIP3    H128086   0.102   2.582   1.538
 9381TIP3    H228087   0.170   2.700   1.472
 9382TIP3   OH228088   6.848   4.204   5.176
 9382TIP3    H128089   6.886   4.284   5.141
 9382TIP3    H228090   6.769   4.233   5.222
 9383TIP3   OH228091   3.508   0.476   1.329
 9383TIP3    H128092   3.521   0.407   1.263
 9383TIP3    H228093   3.572   0.543   1.306
 9384TIP3   OH228094   1.696   4.494   6.109
 9384TIP3    H128095   1.678   4.540   6.028
 9384TIP3    H228096   1.683   4.401   6.088
 9385TIP3   OH228097   7.344   0.506   5.154
 9385TIP3    H128098   7.284   0.572   5.120
 9385TIP3    H228099   7.424   0.554   5.174
 9386TIP3   OH228100   2.645   7.807   4.600
 9386TIP3    H128101   2.554   7.805   4.572
 9386TIP3    H228102   2.674   7.716   4.593
 9387TIP3   OH228103   1.306   3.485   2.546
 9387TIP3    H128104   1.253   3.513   2.621
 9387TIP3    H228105   1.332   3.395   2.568
 9388TIP3   OH228106   1.206   4.152   6.671
 9388TIP3    H128107   1.229   4.237   6.634
 9388TIP3    H228108   1.146   4.172   6.742
 9389TIP3   OH228109   0.869   2.928   0.216
 9389TIP3    H128110   0.916   2.966   0.142
 9389TIP3    H228111   0.889   2.985   0.290
 9390TIP3   OH228112   2.537   1.468   3.435
 9390TIP3    H128113   2.503   1.422   3.358
 9390TIP3    H228114   2.629   1.484   3.414
 9391TIP3   OH228115   1.256   2.101   2.842
 9391TIP3    H128116   1.247   2.195   2.857
 9391TIP3    H228117   1.338   2.078   2.884
 9392TIP3   OH228118   6.136   0.865   5.573
 9392TIP3    H128119   6.119   0.771   5.563
 9392TIP3    H228120   6.152   0.896   5.484
 9393TIP3   OH228121   4.100   4.061   0.104
 9393TIP3    H128122   4.053   3.988   0.145
 9393TIP3    H228123   4.132   4.025   0.022
 9394TIP3   OH228124   3.021   4.209   4.324
 9394TIP3    H128125   3.081   4.198   4.398
 9394TIP3    H228126   3.046   4.293   4.286
 9395TIP3   OH228127   7.520   5.736   3.566
 9395TIP3    H128128   7.611   5.731   3.539
 9395TIP3    H228129   7.500   5.648   3.600
 9396TIP3   OH228130   5.915   3.133   1.499
 9396TIP3    H128131   5.834   3.185   1.500
 9396TIP3    H228132   5.980   3.188   1.542
 9397TIP3   OH228133   4.142   4.807   3.383
 9397TIP3    H128134   4.175   4.718   3.370
 9397TIP3    H228135   4.074   4.797   3.450
 9398TIP3   OH228136   2.312   4.907   0.351
 9398TIP3    H128137   2.224   4.931   0.320
 9398TIP3    H228138   2.296   4.839   0.417
 9399TIP3   OH228139   4.834   2.712   4.052
 9399TIP3    H128140   4.878   2.671   3.978
 9399TIP3    H228141   4.900   2.715   4.121
 9400TIP3   OH228142   1.731   7.222   1.166
 9400TIP3    H128143   1.700   7.271   1.090
 9400TIP3    H228144   1.664   7.154   1.179
 9401TIP3   OH228145   5.640   0.120   3.844
 9401TIP3    H128146   5.619   0.094   3.755
 9401TIP3    H228147   5.600   0.053   3.900
 9402TIP3   OH228148   2.729   0.097   4.639
 9402TIP3    H128149   2.824   0.082   4.634
 9402TIP3    H228150   2.701   0.046   4.716
 9403TIP3   OH228151   4.440   4.511   1.232
 9403TIP3    H128152   4.395   4.584   1.274
 9403TIP3    H228153   4.382   4.436   1.246
 9404TIP3   OH228154   3.708   0.306   3.540
 9404TIP3    H128155   3.764   0.237   3.504
 9404TIP3    H228156   3.621   0.267   3.542
 9405TIP3   OH228157   5.329   3.043   5.646
 9405TIP3    H128158   5.321   3.105   5.718
 9405TIP3    H228159   5.390   3.084   5.585
 9406TIP3   OH228160   5.142   5.690   6.183
 9406TIP3    H128161   5.213   5.628   6.168
 9406TIP3    H228162   5.124   5.726   6.096
 9407TIP3   OH228163   2.385   1.312   2.220
 9407TIP3    H128164   2.291   1.324   2.227
 9407TIP3    H228165   2.410   1.270   2.302
 9408TIP3   OH228166   2.359   6.729   2.477
 9408TIP3    H128167   2.266   6.718   2.462
 9408TIP3    H228168   2.381   6.812   2.436
 9409TIP3   OH228169   0.721   4.614   3.996
 9409TIP3    H128170   0.736   4.555   3.922
 9409TIP3    H228171   0.640   4.582   4.036
 9410TIP3   OH228172   4.686   6.524   3.943
 9410TIP3    H128173   4.779   6.508   3.934
 9410TIP3    H228174   4.671   6.532   4.037
 9411TIP3   OH228175   4.919   0.293   5.930
 9411TIP3    H128176   4.828   0.300   5.901
 9411TIP3    H228177   4.967   0.354   5.874
 9412TIP3   OH228178   5.651   2.072   6.099
 9412TIP3    H128179   5.659   2.147   6.040
 9412TIP3    H228180   5.737   2.064   6.141
 9413TIP3   OH228181   0.290   3.896   0.444
 9413TIP3    H128182   0.349   3.971   0.450
 9413TIP3    H228183   0.330   3.839   0.378
 9414TIP3   OH228184   2.234   1.139   6.134
 9414TIP3    H128185   2.300   1.113   6.070
 9414TIP3    H228186   2.207   1.227   6.106
 9415TIP3   OH228187   0.544   0.606   0.663
 9415TIP3    H128188   0.522   0.514   0.649
 9415TIP3    H228189   0.492   0.631   0.740
 9416TIP3   OH228190   3.599   6.932   6.514
 9416TIP3    H128191   3.540   6.968   6.447
 9416TIP3    H228192   3.654   7.006   6.539
 9417TIP3   OH228193   2.276   0.478   3.614
 9417TIP3    H128194   2.198   0.531   3.601
 9417TIP3    H228195   2.271   0.410   3.547
 9418TIP3   OH228196   0.547   7.187   3.316
 9418TIP3    H128197   0.477   7.244   3.347
 9418TIP3    H228198   0.537   7.107   3.368
 9419TIP3   OH228199   3.106   4.016   0.214
 9419TIP3    H128200   3.052   4.074   0.267
 9419TIP3    H228201   3.070   4.022   0.126
 9420TIP3   OH228202   6.415   1.182   2.171
 9420TIP3    H128203   6.493   1.234   2.155
 9420TIP3    H228204   6.382   1.161   2.084
 9421TIP3   OH228205   5.402   1.353   5.466
 9421TIP3    H128206   5.444   1.376   5.549
 9421TIP3    H228207   5.472   1.314   5.414
 9422TIP3   OH228208   0.039   1.545   0.751
 9422TIP3    H128209   0.018   1.582   0.837
 9422TIP3    H228210   0.124   1.584   0.729
 9423TIP3   OH228211   5.499   4.628   3.194
 9423TIP3    H128212   5.512   4.572   3.271
 9423TIP3    H228213   5.427   4.686   3.218
 9424TIP3   OH228214   3.233   4.761   3.166
 9424TIP3    H128215   3.284   4.837   3.140
 9424TIP3    H228216   3.272   4.733   3.249
 9425TIP3   OH228217   0.957   0.251   1.558
 9425TIP3    H128218   0.925   0.329   1.603
 9425TIP3    H228219   1.006   0.285   1.483
 9426TIP3   OH228220   7.211   7.689   4.058
 9426TIP3    H128221   7.256   7.736   3.988
 9426TIP3    H228222   7.121   7.678   4.026
 9427TIP3   OH228223   0.119   3.587   1.368
 9427TIP3    H128224   0.191   3.632   1.324
 9427TIP3    H228225   0.085   3.650   1.431
 9428TIP3   OH228226   7.614   3.293   3.979
 9428TIP3    H128227   7.640   3.253   3.896
 9428TIP3    H228228   7.565   3.371   3.953
 9429TIP3   OH228229   4.552   5.761  -0.045
 9429TIP3    H128230   4.532   5.801   0.040
 9429TIP3    H228231   4.506   5.677  -0.043
 9430TIP3   OH228232   0.092   6.267   0.677
 9430TIP3    H128233   0.103   6.325   0.753
 9430TIP3    H228234   0.045   6.320   0.613
 9431TIP3   OH228235   1.320   2.360   1.849
 9431TIP3    H128236   1.361   2.401   1.773
 9431TIP3    H228237   1.363   2.401   1.924
 9432TIP3   OH228238   8.057   2.816   1.456
 9432TIP3    H128239   8.069   2.874   1.531
 9432TIP3    H228240   7.962   2.815   1.441
 9433TIP3   OH228241   4.389   5.948   6.519
 9433TIP3    H128242   4.369   6.012   6.452
 9433TIP3    H228243   4.441   5.996   6.584
 9434TIP3   OH228244   1.041   7.821   0.438
 9434TIP3    H128245   0.975   7.763   0.400
 9434TIP3    H228246   1.080   7.865   0.362
 9435TIP3   OH228247   4.117   3.333   0.463
 9435TIP3    H128248   4.060   3.408   0.479
 9435TIP3    H228249   4.057   3.262   0.438
 9436TIP3   OH228250   1.982   4.747   0.480
 9436TIP3    H128251   2.077   4.735   0.478
 9436TIP3    H228252   1.969   4.832   0.523
 9437TIP3   OH228253   3.961   1.673   1.884
 9437TIP3    H128254   3.965   1.676   1.789
 9437TIP3    H228255   3.889   1.733   1.907
 9438TIP3   OH228256   6.508   4.513   0.193
 9438TIP3    H128257   6.458   4.548   0.119
 9438TIP3    H228258   6.465   4.430   0.214
 9439TIP3   OH228259   6.011   2.844   3.049
 9439TIP3    H128260   6.052   2.758   3.044
 9439TIP3    H228261   6.081   2.903   3.076
 9440TIP3   OH228262   0.540   2.440   4.463
 9440TIP3    H128263   0.565   2.351   4.486
 9440TIP3    H228264   0.572   2.452   4.373
 9441TIP3   OH228265   4.851   0.090   0.761
 9441TIP3    H128266   4.848   0.093   0.665
 9441TIP3    H228267   4.888   0.175   0.786
 9442TIP3   OH228268   2.231   6.304   5.003
 9442TIP3    H128269   2.175   6.272   5.073
 9442TIP3    H228270   2.170   6.341   4.939
 9443TIP3   OH228271   3.326   0.283   3.815
 9443TIP3    H128272   3.241   0.269   3.857
 9443TIP3    H228273   3.387   0.229   3.865
 9444TIP3   OH228274   2.716   1.767   5.903
 9444TIP3    H128275   2.635   1.747   5.950
 9444TIP3    H228276   2.774   1.693   5.924
 9445TIP3   OH228277   3.276   3.824   4.051
 9445TIP3    H128278   3.299   3.898   4.108
 9445TIP3    H228279   3.240   3.758   4.111
 9446TIP3   OH228280   4.245   6.545   5.434
 9446TIP3    H128281   4.220   6.467   5.384
 9446TIP3    H228282   4.169   6.602   5.431
 9447TIP3   OH228283   8.015   6.623   6.061
 9447TIP3    H128284   7.927   6.605   6.093
 9447TIP3    H228285   8.051   6.686   6.124
 9448TIP3   OH228286   2.368   1.582   4.314
 9448TIP3    H128287   2.361   1.521   4.387
 9448TIP3    H228288   2.451   1.628   4.328
 9449TIP3   OH228289   7.965   0.988   6.441
 9449TIP3    H128290   8.040   1.026   6.395
 9449TIP3    H228291   7.952   1.047   6.516
 9450TIP3   OH228292   1.054   1.185   3.339
 9450TIP3    H128293   0.998   1.245   3.290
 9450TIP3    H228294   1.005   1.166   3.419
 9451TIP3   OH228295   1.501   5.207   2.376
 9451TIP3    H128296   1.410   5.235   2.369
 9451TIP3    H228297   1.552   5.287   2.365
 9452TIP3   OH228298   1.350   6.412   0.251
 9452TIP3    H128299   1.445   6.426   0.245
 9452TIP3    H228300   1.342   6.323   0.285
 9453TIP3   OH228301   6.288   3.980   3.741
 9453TIP3    H128302   6.220   3.931   3.786
 9453TIP3    H228303   6.296   3.937   3.655
 9454TIP3   OH228304   6.275   1.152   3.656
 9454TIP3    H128305   6.184   1.127   3.673
 9454TIP3    H228306   6.325   1.074   3.679
 9455TIP3   OH228307   1.921   1.715   2.124
 9455TIP3    H128308   1.843   1.677   2.165
 9455TIP3    H228309   1.973   1.747   2.197
 9456TIP3   OH228310   7.063   3.901   5.391
 9456TIP3    H128311   7.065   3.811   5.358
 9456TIP3    H228312   6.980   3.906   5.439
 9457TIP3   OH228313   3.253   5.072   4.260
 9457TIP3    H128314   3.297   5.035   4.337
 9457TIP3    H228315   3.242   4.998   4.200
 9458TIP3   OH228316   3.226   5.465   1.453
 9458TIP3    H128317   3.159   5.401   1.429
 9458TIP3    H228318   3.202   5.491   1.542
 9459TIP3   OH228319   4.447   1.738   2.237
 9459TIP3    H128320   4.451   1.805   2.169
 9459TIP3    H228321   4.529   1.689   2.228
 9460TIP3   OH228322   1.143   6.147   2.958
 9460TIP3    H128323   1.163   6.232   2.998
 9460TIP3    H228324   1.062   6.162   2.911
 9461TIP3   OH228325   6.862   4.157   2.195
 9461TIP3    H128326   6.914   4.230   2.161
 9461TIP3    H228327   6.865   4.168   2.290
 9462TIP3   OH228328   5.082   2.304   4.992
 9462TIP3    H128329   5.026   2.297   4.914
 9462TIP3    H228330   5.122   2.391   4.984
 9463TIP3   OH228331   3.072   1.068   2.205
 9463TIP3    H128332   3.065   0.975   2.225
 9463TIP3    H228333   3.152   1.096   2.249
 9464TIP3   OH228334   3.370   2.173   6.462
 9464TIP3    H128335   3.446   2.162   6.406
 9464TIP3    H228336   3.304   2.213   6.405
 9465TIP3   OH228337   3.471   2.390   1.419
 9465TIP3    H128338   3.396   2.406   1.477
 9465TIP3    H228339   3.526   2.468   1.430
 9466TIP3   OH228340   0.105   4.302   0.223
 9466TIP3    H128341   0.138   4.302   0.133
 9466TIP3    H228342   0.170   4.352   0.272
 9467TIP3   OH228343   8.175   5.896   1.516
 9467TIP3    H128344   8.225   5.963   1.469
 9467TIP3    H228345   8.204   5.813   1.478
 9468TIP3   OH228346   5.206   7.040   2.870
 9468TIP3    H128347   5.239   6.986   2.798
 9468TIP3    H228348   5.173   7.119   2.827
 9469TIP3   OH228349   1.492   1.578   3.151
 9469TIP3    H128350   1.581   1.614   3.149
 9469TIP3    H228351   1.487   1.531   3.234
 9470TIP3   OH228352   6.149   0.781   0.851
 9470TIP3    H128353   6.077   0.823   0.899
 9470TIP3    H228354   6.123   0.786   0.759
 9471TIP3   OH228355   0.968   3.548   0.061
 9471TIP3    H128356   1.035   3.614   0.043
 9471TIP3    H228357   0.885   3.597   0.060
 9472TIP3   OH228358   3.807   5.673   3.716
 9472TIP3    H128359   3.748   5.618   3.767
 9472TIP3    H228360   3.887   5.677   3.768
 9473TIP3   OH228361   8.225   7.138   4.853
 9473TIP3    H128362   8.157   7.204   4.866
 9473TIP3    H228363   8.247   7.143   4.760
 9474TIP3   OH228364   7.916   3.453   2.806
 9474TIP3    H128365   7.850   3.499   2.754
 9474TIP3    H228366   7.984   3.428   2.743
 9475TIP3   OH228367   0.826   3.724   1.919
 9475TIP3    H128368   0.782   3.805   1.946
 9475TIP3    H228369   0.755   3.667   1.890
 9476TIP3   OH228370   8.149   6.729   5.434
 9476TIP3    H128371   8.095   6.736   5.513
 9476TIP3    H228372   8.207   6.655   5.452
 9477TIP3   OH228373   3.557   1.261   5.117
 9477TIP3    H128374   3.530   1.192   5.056
 9477TIP3    H228375   3.475   1.302   5.144
 9478TIP3   OH228376   5.021   3.287   0.713
 9478TIP3    H128377   5.040   3.250   0.800
 9478TIP3    H228378   4.954   3.354   0.729
 9479TIP3   OH228379   2.889   4.944   4.072
 9479TIP3    H128380   2.875   4.988   3.988
 9479TIP3    H228381   2.834   4.866   4.068
 9480TIP3   OH228382   7.515   4.050   3.145
 9480TIP3    H128383   7.568   3.980   3.107
 9480TIP3    H228384   7.488   4.104   3.071
 9481TIP3   OH228385   6.575   2.630   0.038
 9481TIP3    H128386   6.555   2.701  -0.023
 9481TIP3    H228387   6.490   2.602   0.071
 9482TIP3   OH228388   3.901   6.796   4.427
 9482TIP3    H128389   3.846   6.815   4.351
 9482TIP3    H228390   3.906   6.701   4.429
 9483TIP3   OH228391   2.974   4.884   0.147
 9483TIP3    H128392   2.945   4.950   0.083
 9483TIP3    H228393   3.070   4.886   0.141
 9484TIP3   OH228394   0.361   4.786   4.474
 9484TIP3    H128395   0.338   4.730   4.548
 9484TIP3    H228396   0.277   4.817   4.441
 9485TIP3   OH228397   6.410   7.627   1.726
 9485TIP3    H128398   6.441   7.539   1.706
 9485TIP3    H228399   6.489   7.675   1.751
 9486TIP3   OH228400   3.325   5.322   4.363
 9486TIP3    H128401   3.304   5.230   4.350
 9486TIP3    H228402   3.392   5.341   4.297
 9487TIP3   OH228403   3.062   3.933   6.400
 9487TIP3    H128404   3.012   3.902   6.476
 9487TIP3    H228405   3.154   3.924   6.427
 9488TIP3   OH228406   7.228   4.333   6.464
 9488TIP3    H128407   7.252   4.383   6.542
 9488TIP3    H228408   7.154   4.279   6.493
 9489TIP3   OH228409   4.227   2.680   5.161
 9489TIP3    H128410   4.138   2.651   5.178
 9489TIP3    H228411   4.282   2.605   5.183
 9490TIP3   OH228412   7.564   0.566   6.003
 9490TIP3    H128413   7.623   0.491   5.990
 9490TIP3    H228414   7.589   0.628   5.934
 9491TIP3   OH228415   1.045   5.328   1.883
 9491TIP3    H128416   1.031   5.258   1.947
 9491TIP3    H228417   1.057   5.283   1.800
 9492TIP3   OH228418   1.094   4.157   2.796
 9492TIP3    H128419   1.057   4.160   2.884
 9492TIP3    H228420   1.187   4.175   2.809
 9493TIP3   OH228421   4.010   7.599   0.735
 9493TIP3    H128422   4.056   7.516   0.723
 9493TIP3    H228423   4.009   7.613   0.830
 9494TIP3   OH228424   1.217   2.606   1.104
 9494TIP3    H128425   1.251   2.692   1.129
 9494TIP3    H228426   1.277   2.575   1.036
 9495TIP3   OH228427   5.296   5.340   3.471
 9495TIP3    H128428   5.230   5.272   3.483
 9495TIP3    H228429   5.380   5.294   3.484
 9496TIP3   OH228430   0.951   3.112   6.644
 9496TIP3    H128431   0.977   3.022   6.664
 9496TIP3    H228432   1.023   3.166   6.679
 9497TIP3   OH228433   5.146   6.657   0.819
 9497TIP3    H128434   5.088   6.631   0.890
 9497TIP3    H228435   5.109   6.615   0.741
 9498TIP3   OH228436   1.558   0.407   2.635
 9498TIP3    H128437   1.468   0.412   2.601
 9498TIP3    H228438   1.548   0.374   2.725
 9499TIP3   OH228439   5.128   6.383   2.383
 9499TIP3    H128440   5.076   6.397   2.304
 9499TIP3    H228441   5.075   6.323   2.436
 9500TIP3   OH228442   0.259   2.517   0.395
 9500TIP3    H128443   0.325   2.492   0.330
 9500TIP3    H228444   0.239   2.436   0.441
 9501TIP3   OH228445   2.021   6.591   4.857
 9501TIP3    H128446   1.997   6.652   4.788
 9501TIP3    H228447   2.002   6.504   4.820
 9502TIP3   OH228448   6.666   3.584   4.141
 9502TIP3    H128449   6.576   3.587   4.107
 9502TIP3    H228450   6.656   3.560   4.232
 9503TIP3   OH228451   2.407   4.538   5.839
 9503TIP3    H128452   2.376   4.454   5.806
 9503TIP3    H228453   2.492   4.518   5.879
 9504TIP3   OH228454   2.893   5.889   3.660
 9504TIP3    H128455   2.944   5.920   3.585
 9504TIP3    H228456   2.927   5.801   3.677
 9505TIP3   OH228457   5.334   0.968   1.711
 9505TIP3    H128458   5.266   0.937   1.770
 9505TIP3    H228459   5.362   0.890   1.663
 9506TIP3   OH228460   7.270   4.474   5.723
 9506TIP3    H128461   7.197   4.477   5.785
 9506TIP3    H228462   7.254   4.548   5.664
 9507TIP3   OH228463   2.556   4.033   6.127
 9507TIP3    H128464   2.490   4.096   6.157
 9507TIP3    H228465   2.639   4.078   6.139
 9508TIP3   OH228466   5.616   6.783   5.818
 9508TIP3    H128467   5.707   6.756   5.810
 9508TIP3    H228468   5.603   6.799   5.911
 9509TIP3   OH228469   0.645   0.955   3.806
 9509TIP3    H128470   0.615   0.972   3.895
 9509TIP3    H228471   0.584   1.004   3.750
 9510TIP3   OH228472   2.439   3.881   6.318
 9510TIP3    H128473   2.464   3.946   6.253
 9510TIP3    H228474   2.493   3.902   6.394
 9511TIP3   OH228475   8.241   7.399   0.306
 9511TIP3    H128476   8.190   7.436   0.234
 9511TIP3    H228477   8.226   7.304   0.299
 9512TIP3   OH228478   1.919   6.012   4.854
 9512TIP3    H128479   1.903   6.078   4.921
 9512TIP3    H228480   2.007   6.031   4.821
 9513TIP3   OH228481   6.502   0.805   4.863
 9513TIP3    H128482   6.466   0.882   4.907
 9513TIP3    H228483   6.428   0.767   4.817
 9514TIP3   OH228484   4.937   1.347   2.741
 9514TIP3    H128485   4.957   1.441   2.745
 9514TIP3    H228486   4.843   1.343   2.723
 9515TIP3   OH228487   2.576   0.177   1.611
 9515TIP3    H128488   2.658   0.210   1.575
 9515TIP3    H228489   2.561   0.229   1.690
 9516TIP3   OH228490   3.486   4.691   1.148
 9516TIP3    H128491   3.501   4.754   1.218
 9516TIP3    H228492   3.573   4.669   1.115
 9517TIP3   OH228493   7.919   5.770   0.205
 9517TIP3    H128494   7.902   5.765   0.299
 9517TIP3    H228495   7.832   5.771   0.166
 9518TIP3   OH228496   1.053   6.583   2.996
 9518TIP3    H128497   1.012   6.643   3.058
 9518TIP3    H228498   0.999   6.505   2.999
 9519TIP3   OH228499   3.576   2.376   3.703
 9519TIP3    H128500   3.622   2.300   3.668
 9519TIP3    H228501   3.600   2.448   3.646
 9520TIP3   OH228502   7.624   6.300   6.443
 9520TIP3    H128503   7.605   6.210   6.418
 9520TIP3    H228504   7.544   6.349   6.421
 9521TIP3   OH228505   6.668   0.059   4.893
 9521TIP3    H128506   6.649  -0.010   4.829
 9521TIP3    H228507   6.764   0.063   4.894
 9522TIP3   OH228508   8.010   6.419   3.056
 9522TIP3    H128509   8.014   6.508   3.089
 9522TIP3    H228510   7.976   6.428   2.967
 9523TIP3   OH228511   7.828   4.059   1.995
 9523TIP3    H128512   7.830   3.988   2.059
 9523TIP3    H228513   7.900   4.039   1.935
 9524TIP3   OH228514   7.174   3.049   0.334
 9524TIP3    H128515   7.158   3.112   0.264
 9524TIP3    H228516   7.269   3.047   0.343
 9525TIP3   OH228517   3.045   6.061   4.582
 9525TIP3    H128518   3.000   6.137   4.545
 9525TIP3    H228519   3.022   5.988   4.524
 9526TIP3   OH228520   5.475   5.614   0.614
 9526TIP3    H128521   5.421   5.550   0.662
 9526TIP3    H228522   5.522   5.661   0.683
 9527TIP3   OH228523   6.715   3.383   6.152
 9527TIP3    H128524   6.791   3.410   6.100
 9527TIP3    H228525   6.718   3.288   6.151
 9528TIP3   OH228526   5.482   4.505   2.801
 9528TIP3    H128527   5.563   4.539   2.762
 9528TIP3    H228528   5.460   4.569   2.869
 9529TIP3   OH228529   2.358   3.358   5.223
 9529TIP3    H128530   2.332   3.318   5.306
 9529TIP3    H228531   2.354   3.452   5.240
 9530TIP3   OH228532   1.168   2.604   4.800
 9530TIP3    H128533   1.123   2.680   4.836
 9530TIP3    H228534   1.207   2.636   4.719
 9531TIP3   OH228535   0.165   3.447   6.140
 9531TIP3    H128536   0.240   3.505   6.125
 9531TIP3    H228537   0.173   3.379   6.073
 9532TIP3   OH228538   2.119   4.858   0.010
 9532TIP3    H128539   2.061   4.928  -0.020
 9532TIP3    H228540   2.060   4.791   0.045
 9533TIP3   OH228541   6.825   3.585   1.023
 9533TIP3    H128542   6.794   3.498   1.050
 9533TIP3    H228543   6.797   3.643   1.093
 9534TIP3   OH228544   3.802   1.974   2.059
 9534TIP3    H128545   3.786   2.068   2.064
 9534TIP3    H228546   3.872   1.958   2.123
 9535TIP3   OH228547   3.611   5.949   6.656
 9535TIP3    H128548   3.555   5.951   6.734
 9535TIP3    H228549   3.646   6.038   6.650
 9536TIP3   OH228550   7.497   3.834   4.683
 9536TIP3    H128551   7.527   3.839   4.593
 9536TIP3    H228552   7.429   3.900   4.690
 9537TIP3   OH228553   3.799   1.414   2.482
 9537TIP3    H128554   3.820   1.424   2.575
 9537TIP3    H228555   3.704   1.404   2.480
 9538TIP3   OH228556   6.777   0.514   0.853
 9538TIP3    H128557   6.781   0.600   0.896
 9538TIP3    H228558   6.715   0.526   0.781
 9539TIP3   OH228559   5.487   0.682   2.225
 9539TIP3    H128560   5.413   0.623   2.236
 9539TIP3    H228561   5.541   0.669   2.303
 9540TIP3   OH228562   4.073   0.765   5.171
 9540TIP3    H128563   4.153   0.804   5.135
 9540TIP3    H228564   4.059   0.686   5.118
 9541TIP3   OH228565   0.634   6.731   4.537
 9541TIP3    H128566   0.646   6.651   4.588
 9541TIP3    H228567   0.711   6.736   4.481
 9542TIP3   OH228568   5.321   7.392   3.888
 9542TIP3    H128569   5.395   7.336   3.866
 9542TIP3    H228570   5.256   7.332   3.924
 9543TIP3   OH228571   5.303   7.226   4.353
 9543TIP3    H128572   5.288   7.277   4.274
 9543TIP3    H228573   5.329   7.139   4.322
 9544TIP3   OH228574   5.813   6.766   2.758
 9544TIP3    H128575   5.766   6.700   2.708
 9544TIP3    H228576   5.857   6.717   2.827
 9545TIP3   OH228577   2.382   0.155   2.493
 9545TIP3    H128578   2.311   0.148   2.558
 9545TIP3    H228579   2.445   0.089   2.519
 9546TIP3   OH228580   2.428   4.963   2.456
 9546TIP3    H128581   2.365   4.902   2.419
 9546TIP3    H228582   2.397   5.049   2.428
 9547TIP3   OH228583   6.165   7.190   6.364
 9547TIP3    H128584   6.188   7.281   6.383
 9547TIP3    H228585   6.207   7.140   6.434
 9548TIP3   OH228586   1.544   5.183   4.817
 9548TIP3    H128587   1.506   5.102   4.851
 9548TIP3    H228588   1.611   5.154   4.755
 9549TIP3   OH228589   6.991   2.505   0.218
 9549TIP3    H128590   7.042   2.518   0.298
 9549TIP3    H228591   7.021   2.574   0.159
 9550TIP3   OH228592   1.595   1.965   4.504
 9550TIP3    H128593   1.511   1.988   4.466
 9550TIP3    H228594   1.612   1.876   4.471
 9551TIP3   OH228595   7.588   2.548   3.086
 9551TIP3    H128596   7.541   2.469   3.060
 9551TIP3    H228597   7.622   2.585   3.004
 9552TIP3   OH228598   4.362   0.504   5.162
 9552TIP3    H128599   4.313   0.481   5.241
 9552TIP3    H228600   4.439   0.448   5.164
 9553TIP3   OH228601   3.664   3.196   2.221
 9553TIP3    H128602   3.687   3.109   2.189
 9553TIP3    H228603   3.571   3.190   2.241
 9554TIP3   OH228604   4.364   6.419   3.033
 9554TIP3    H128605   4.400   6.392   2.948
 9554TIP3    H228606   4.338   6.338   3.075
 9555TIP3   OH228607   2.432   1.081   6.555
 9555TIP3    H128608   2.480   1.051   6.632
 9555TIP3    H228609   2.399   1.001   6.514
 9556TIP3   OH228610   2.008   2.202   6.101
 9556TIP3    H128611   1.980   2.271   6.041
 9556TIP3    H228612   2.085   2.239   6.145
 9557TIP3   OH228613   1.976   4.473   5.065
 9557TIP3    H128614   1.903   4.528   5.093
 9557TIP3    H228615   1.989   4.495   4.973
 9558TIP3   OH228616   3.318   0.962   5.725
 9558TIP3    H128617   3.409   0.979   5.749
 9558TIP3    H228618   3.304   0.871   5.751
 9559TIP3   OH228619   5.991   5.572   1.210
 9559TIP3    H128620   5.915   5.582   1.152
 9559TIP3    H228621   6.067   5.574   1.152
 9560TIP3   OH228622   0.584   7.527   0.432
 9560TIP3    H128623   0.519   7.506   0.499
 9560TIP3    H228624   0.638   7.596   0.471
 9561TIP3   OH228625   3.332   5.249   0.995
 9561TIP3    H128626   3.416   5.293   1.009
 9561TIP3    H228627   3.313   5.262   0.902
 9562TIP3   OH228628   5.976   7.377   5.373
 9562TIP3    H128629   5.979   7.300   5.316
 9562TIP3    H228630   5.934   7.347   5.453
 9563TIP3   OH228631   5.126   2.885   5.743
 9563TIP3    H128632   5.126   2.822   5.672
 9563TIP3    H228633   5.174   2.960   5.709
 9564TIP3   OH228634   6.170   0.654   3.526
 9564TIP3    H128635   6.236   0.620   3.466
 9564TIP3    H228636   6.135   0.732   3.482
 9565TIP3   OH228637   0.396   2.989   4.208
 9565TIP3    H128638   0.313   2.942   4.218
 9565TIP3    H228639   0.373   3.081   4.219
 9566TIP3   OH228640   5.628   1.969   0.547
 9566TIP3    H128641   5.629   2.060   0.575
 9566TIP3    H228642   5.577   1.924   0.615
 9567TIP3   OH228643   4.460   5.861   2.824
 9567TIP3    H128644   4.540   5.813   2.846
 9567TIP3    H228645   4.435   5.828   2.739
 9568TIP3   OH228646   1.584   1.171   6.052
 9568TIP3    H128647   1.544   1.237   6.109
 9568TIP3    H228648   1.623   1.222   5.981
 9569TIP3   OH228649   7.008   0.642   2.643
 9569TIP3    H128650   7.077   0.662   2.707
 9569TIP3    H228651   7.000   0.547   2.645
 9570TIP3   OH228652   6.400   0.955   0.507
 9570TIP3    H128653   6.436   1.041   0.526
 9570TIP3    H228654   6.474   0.895   0.522
 9571TIP3   OH228655   8.196   2.123   6.577
 9571TIP3    H128656   8.237   2.194   6.528
 9571TIP3    H228657   8.266   2.059   6.591
 9572TIP3   OH228658   2.588   3.217   5.189
 9572TIP3    H128659   2.503   3.258   5.204
 9572TIP3    H228660   2.616   3.250   5.103
 9573TIP3   OH228661   3.782   2.338   4.290
 9573TIP3    H128662   3.727   2.284   4.348
 9573TIP3    H228663   3.750   2.319   4.202
 9574TIP3   OH228664   7.385   2.151   0.141
 9574TIP3    H128665   7.395   2.111   0.054
 9574TIP3    H228666   7.474   2.176   0.166
 9575TIP3   OH228667   1.143   4.874   6.361
 9575TIP3    H128668   1.208   4.942   6.379
 9575TIP3    H228669   1.063   4.923   6.340
 9576TIP3   OH228670   5.825   0.892   3.703
 9576TIP3    H128671   5.811   0.929   3.790
 9576TIP3    H228672   5.853   0.801   3.720
 9577TIP3   OH228673   7.820   1.617   2.653
 9577TIP3    H128674   7.821   1.647   2.562
 9577TIP3    H228675   7.828   1.522   2.647
 9578TIP3   OH228676   7.533   4.352   6.490
 9578TIP3    H128677   7.469   4.308   6.434
 9578TIP3    H228678   7.569   4.421   6.434
 9579TIP3   OH228679   0.638   0.958   1.783
 9579TIP3    H128680   0.666   0.895   1.716
 9579TIP3    H228681   0.713   0.965   1.842
 9580TIP3   OH228682   5.395   4.718   5.455
 9580TIP3    H128683   5.311   4.734   5.498
 9580TIP3    H228684   5.454   4.695   5.526
 9581TIP3   OH228685   6.582   0.036   1.236
 9581TIP3    H128686   6.673   0.049   1.209
 9581TIP3    H228687   6.542  -0.011   1.163
 9582TIP3   OH228688   1.520   7.375   1.797
 9582TIP3    H128689   1.577   7.452   1.784
 9582TIP3    H228690   1.455   7.382   1.727
 9583TIP3   OH228691   4.608   2.180   0.248
 9583TIP3    H128692   4.688   2.214   0.289
 9583TIP3    H228693   4.633   2.096   0.211
 9584TIP3   OH228694   5.502   4.947   4.344
 9584TIP3    H128695   5.439   4.978   4.278
 9584TIP3    H228696   5.533   4.864   4.309
 9585TIP3   OH228697   0.597   0.041   5.103
 9585TIP3    H128698   0.516  -0.006   5.122
 9585TIP3    H228699   0.622   0.012   5.016
 9586TIP3   OH228700   3.646   3.571   1.068
 9586TIP3    H128701   3.651   3.562   1.163
 9586TIP3    H228702   3.700   3.648   1.049
 9587TIP3   OH228703   6.051   7.009   6.182
 9587TIP3    H128704   6.074   7.081   6.241
 9587TIP3    H228705   6.044   7.051   6.096
 9588TIP3   OH228706   2.390   4.079   3.347
 9588TIP3    H128707   2.462   4.133   3.378
 9588TIP3    H228708   2.339   4.138   3.291
 9589TIP3   OH228709   3.949   3.973   3.051
 9589TIP3    H128710   3.918   3.949   2.964
 9589TIP3    H228711   4.034   3.929   3.058
 9590TIP3   OH228712   2.808   4.567   2.563
 9590TIP3    H128713   2.887   4.597   2.518
 9590TIP3    H228714   2.785   4.640   2.622
 9591TIP3   OH228715   6.433   2.411   2.609
 9591TIP3    H128716   6.510   2.370   2.571
 9591TIP3    H228717   6.449   2.412   2.703
 9592TIP3   OH228718   0.477   6.317   3.137
 9592TIP3    H128719   0.512   6.278   3.057
 9592TIP3    H228720   0.468   6.410   3.116
 9593TIP3   OH228721   4.938   5.756   5.052
 9593TIP3    H128722   4.961   5.713   4.970
 9593TIP3    H228723   4.847   5.782   5.042
 9594TIP3   OH228724   7.170   7.324   6.428
 9594TIP3    H128725   7.116   7.340   6.505
 9594TIP3    H228726   7.126   7.252   6.382
 9595TIP3   OH228727   1.115   7.418   2.879
 9595TIP3    H128728   1.113   7.382   2.790
 9595TIP3    H228729   1.055   7.361   2.929
 9596TIP3   OH228730   5.295   5.812   3.089
 9596TIP3    H128731   5.346   5.733   3.105
 9596TIP3    H228732   5.288   5.818   2.994
 9597TIP3   OH228733   1.359   0.482   6.094
 9597TIP3    H128734   1.408   0.438   6.163
 9597TIP3    H228735   1.383   0.437   6.013
 9598TIP3   OH228736   1.194   7.662   4.090
 9598TIP3    H128737   1.217   7.604   4.163
 9598TIP3    H228738   1.201   7.750   4.126
 9599TIP3   OH228739   6.379   6.581   0.965
 9599TIP3    H128740   6.331   6.634   1.029
 9599TIP3    H228741   6.388   6.638   0.889
 9600TIP3   OH228742   4.860   7.779   1.033
 9600TIP3    H128743   4.934   7.727   1.002
 9600TIP3    H228744   4.783   7.741   0.990
 9601TIP3   OH228745   5.916   3.403   4.472
 9601TIP3    H128746   5.951   3.422   4.385
 9601TIP3    H228747   5.937   3.311   4.488
 9602TIP3   OH228748   4.184   6.864   4.570
 9602TIP3    H128749   4.211   6.933   4.630
 9602TIP3    H228750   4.143   6.798   4.626
 9603TIP3   OH228751   2.720   6.999   1.000
 9603TIP3    H128752   2.639   7.036   0.964
 9603TIP3    H228753   2.710   7.006   1.095
 9604TIP3   OH228754   8.101   6.520   4.756
 9604TIP3    H128755   8.157   6.575   4.702
 9604TIP3    H228756   8.026   6.576   4.779
 9605TIP3   OH228757   6.643   6.130   0.790
 9605TIP3    H128758   6.580   6.181   0.842
 9605TIP3    H228759   6.591   6.097   0.716
 9606TIP3   OH228760   3.022   2.304   1.398
 9606TIP3    H128761   2.993   2.233   1.455
 9606TIP3    H228762   3.102   2.337   1.439
 9607TIP3   OH228763   3.801   5.182   2.276
 9607TIP3    H128764   3.847   5.152   2.354
 9607TIP3    H228765   3.709   5.162   2.294
 9608TIP3   OH228766   1.393   0.670   5.219
 9608TIP3    H128767   1.379   0.577   5.235
 9608TIP3    H228768   1.401   0.708   5.307
 9609TIP3   OH228769   4.214   2.358   2.063
 9609TIP3    H128770   4.217   2.271   2.104
 9609TIP3    H228771   4.235   2.343   1.971
 9610TIP3   OH228772   7.786   1.206   4.222
 9610TIP3    H128773   7.847   1.138   4.192
 9610TIP3    H228774   7.758   1.250   4.142
 9611TIP3   OH228775   6.483   3.114   1.211
 9611TIP3    H128776   6.480   3.145   1.302
 9611TIP3    H228777   6.404   3.062   1.201
 9612TIP3   OH228778   4.225   0.134   4.724
 9612TIP3    H128779   4.307   0.174   4.750
 9612TIP3    H228780   4.166   0.151   4.798
 9613TIP3   OH228781   3.973   5.634   3.187
 9613TIP3    H128782   3.929   5.649   3.271
 9613TIP3    H228783   3.928   5.693   3.126
 9614TIP3   OH228784   1.519   5.348   5.338
 9614TIP3    H128785   1.613   5.345   5.320
 9614TIP3    H228786   1.492   5.437   5.314
 9615TIP3   OH228787   6.239   6.875   4.549
 9615TIP3    H128788   6.186   6.914   4.479
 9615TIP3    H228789   6.292   6.809   4.505
 9616TIP3   OH228790   0.310   7.523   6.355
 9616TIP3    H128791   0.232   7.578   6.350
 9616TIP3    H228792   0.382   7.582   6.330
 9617TIP3   OH228793   0.053   4.002   1.390
 9617TIP3    H128794   0.138   4.035   1.420
 9617TIP3    H228795   0.012   3.966   1.469
 9618TIP3   OH228796   0.251   4.578   3.165
 9618TIP3    H128797   0.162   4.585   3.201
 9618TIP3    H228798   0.270   4.484   3.166
 9619TIP3   OH228799   0.907   4.695   6.493
 9619TIP3    H128800   0.951   4.771   6.455
 9619TIP3    H228801   0.853   4.730   6.564
 9620TIP3   OH228802   6.503   0.139   1.738
 9620TIP3    H128803   6.508   0.195   1.660
 9620TIP3    H228804   6.538   0.193   1.808
 9621TIP3   OH228805   2.055   7.103   6.034
 9621TIP3    H128806   2.068   7.073   5.944
 9621TIP3    H228807   2.019   7.026   6.079
 9622TIP3   OH228808   2.201   7.683   1.933
 9622TIP3    H128809   2.122   7.731   1.905
 9622TIP3    H228810   2.271   7.748   1.929
 9623TIP3   OH228811   2.086   3.541   2.095
 9623TIP3    H128812   2.000   3.500   2.094
 9623TIP3    H228813   2.069   3.633   2.119
 9624TIP3   OH228814   4.108   3.372   4.518
 9624TIP3    H128815   4.147   3.396   4.602
 9624TIP3    H228816   4.087   3.455   4.476
 9625TIP3   OH228817   2.595   7.756   3.569
 9625TIP3    H128818   2.599   7.848   3.597
 9625TIP3    H228819   2.561   7.709   3.645
 9626TIP3   OH228820   7.076   4.192   3.171
 9626TIP3    H128821   7.018   4.268   3.173
 9626TIP3    H228822   7.101   4.178   3.262
 9627TIP3   OH228823   7.450   2.420   4.946
 9627TIP3    H128824   7.503   2.375   4.881
 9627TIP3    H228825   7.514   2.467   5.001
 9628TIP3   OH228826   5.067   4.247   4.236
 9628TIP3    H128827   5.118   4.172   4.265
 9628TIP3    H228828   5.029   4.283   4.317
 9629TIP3   OH228829   4.764   7.811   2.336
 9629TIP3    H128830   4.819   7.888   2.324
 9629TIP3    H228831   4.826   7.739   2.352
 9630TIP3   OH228832   3.456   6.505   6.367
 9630TIP3    H128833   3.537   6.463   6.398
 9630TIP3    H228834   3.482   6.594   6.345
 9631TIP3   OH228835   7.528   2.066   1.106
 9631TIP3    H128836   7.488   2.130   1.164
 9631TIP3    H228837   7.550   1.992   1.162
 9632TIP3   OH228838   1.530   5.870   4.505
 9632TIP3    H128839   1.505   5.780   4.481
 9632TIP3    H228840   1.608   5.859   4.559
 9633TIP3   OH228841   0.931   2.705   5.041
 9633TIP3    H128842   0.951   2.733   5.130
 9633TIP3    H228843   0.968   2.774   4.985
 9634TIP3   OH228844   6.866   2.624   0.492
 9634TIP3    H128845   6.959   2.617   0.512
 9634TIP3    H228846   6.861   2.616   0.396
 9635TIP3   OH228847   2.256   0.846   3.196
 9635TIP3    H128848   2.323   0.893   3.247
 9635TIP3    H228849   2.175   0.894   3.213
 9636TIP3   OH228850   4.085   4.453   0.111
 9636TIP3    H128851   4.015   4.389   0.103
 9636TIP3    H228852   4.107   4.477   0.021
 9637TIP3   OH228853   3.257   5.356   3.378
 9637TIP3    H128854   3.245   5.437   3.426
 9637TIP3    H228855   3.336   5.370   3.326
 9638TIP3   OH228856   3.636   7.049   0.310
 9638TIP3    H128857   3.728   7.064   0.332
 9638TIP3    H228858   3.597   7.136   0.310
 9639TIP3   OH228859   5.157   4.222   5.029
 9639TIP3    H128860   5.216   4.297   5.035
 9639TIP3    H228861   5.095   4.246   4.960
 9640TIP3   OH228862   5.774   1.676   2.744
 9640TIP3    H128863   5.716   1.696   2.671
 9640TIP3    H228864   5.716   1.639   2.811
 9641TIP3   OH228865   1.148   3.128   5.658
 9641TIP3    H128866   1.108   3.214   5.645
 9641TIP3    H228867   1.169   3.098   5.569
 9642TIP3   OH228868   2.870   2.821   6.725
 9642TIP3    H128869   2.877   2.795   6.817
 9642TIP3    H228870   2.776   2.836   6.712
 9643TIP3   OH228871   0.743   6.609   2.114
 9643TIP3    H128872   0.742   6.589   2.021
 9643TIP3    H228873   0.706   6.697   2.120
 9644TIP3   OH228874   1.995   5.432   2.417
 9644TIP3    H128875   1.953   5.419   2.502
 9644TIP3    H228876   2.032   5.520   2.421
 9645TIP3   OH228877   3.865   1.961   0.669
 9645TIP3    H128878   3.918   2.022   0.721
 9645TIP3    H228879   3.820   2.017   0.606
 9646TIP3   OH228880   6.762   0.313   3.836
 9646TIP3    H128881   6.839   0.310   3.892
 9646TIP3    H228882   6.715   0.392   3.863
 9647TIP3   OH228883   0.156   0.687   2.560
 9647TIP3    H128884   0.240   0.696   2.605
 9647TIP3    H228885   0.091   0.682   2.630
 9648TIP3   OH228886   1.184   5.811   4.902
 9648TIP3    H128887   1.168   5.900   4.933
 9648TIP3    H228888   1.254   5.819   4.838
 9649TIP3   OH228889   7.830   4.264   5.635
 9649TIP3    H128890   7.908   4.320   5.637
 9649TIP3    H228891   7.757   4.323   5.652
 9650TIP3   OH228892   4.868   2.402   1.834
 9650TIP3    H128893   4.876   2.307   1.828
 9650TIP3    H228894   4.930   2.435   1.769
 9651TIP3   OH228895   1.422   1.652   5.045
 9651TIP3    H128896   1.429   1.746   5.029
 9651TIP3    H228897   1.332   1.639   5.077
 9652TIP3   OH228898   0.272   3.447   0.891
 9652TIP3    H128899   0.254   3.488   0.807
 9652TIP3    H228900   0.337   3.379   0.872
 9653TIP3   OH228901   4.812   0.560   2.101
 9653TIP3    H128902   4.784   0.589   2.014
 9653TIP3    H228903   4.819   0.464   2.093
 9654TIP3   OH228904   3.535   4.731   3.934
 9654TIP3    H128905   3.550   4.807   3.991
 9654TIP3    H228906   3.575   4.658   3.981
 9655TIP3   OH228907   0.438   3.551   2.542
 9655TIP3    H128908   0.506   3.485   2.553
 9655TIP3    H228909   0.481   3.633   2.566
 9656TIP3   OH228910   1.583   0.735   0.628
 9656TIP3    H128911   1.676   0.758   0.629
 9656TIP3    H228912   1.540   0.807   0.582
 9657TIP3   OH228913   4.033   7.745   1.541
 9657TIP3    H128914   4.021   7.837   1.564
 9657TIP3    H228915   3.955   7.701   1.576
 9658TIP3   OH228916   2.276   7.747   6.224
 9658TIP3    H128917   2.341   7.802   6.267
 9658TIP3    H228918   2.217   7.808   6.180
 9659TIP3   OH228919   1.829   6.586   4.453
 9659TIP3    H128920   1.773   6.549   4.521
 9659TIP3    H228921   1.768   6.626   4.391
 9660TIP3   OH228922   7.950   0.318   4.906
 9660TIP3    H128923   7.983   0.361   4.827
 9660TIP3    H228924   7.978   0.375   4.978
 9661TIP3   OH228925   8.153   6.777   1.154
 9661TIP3    H128926   8.161   6.694   1.202
 9661TIP3    H228927   8.108   6.836   1.215
 9662TIP3   OH228928   6.112   7.588   3.974
 9662TIP3    H128929   6.206   7.574   3.983
 9662TIP3    H228930   6.103   7.679   3.948
 9663TIP3   OH228931   5.619   7.575   0.758
 9663TIP3    H128932   5.570   7.516   0.700
 9663TIP3    H228933   5.608   7.538   0.845
 9664TIP3   OH228934   4.058   2.657   1.890
 9664TIP3    H128935   4.134   2.716   1.894
 9664TIP3    H228936   4.083   2.592   1.824
 9665TIP3   OH228937   0.561   6.049   2.166
 9665TIP3    H128938   0.627   6.092   2.220
 9665TIP3    H228939   0.609   5.981   2.119
 9666TIP3   OH228940   1.217   5.059   0.363
 9666TIP3    H128941   1.168   5.140   0.351
 9666TIP3    H228942   1.163   5.006   0.422
 9667TIP3   OH228943   0.654   3.156   3.921
 9667TIP3    H128944   0.654   3.215   3.846
 9667TIP3    H228945   0.638   3.069   3.884
 9668TIP3   OH228946   0.133   2.642   4.089
 9668TIP3    H128947   0.209   2.590   4.114
 9668TIP3    H228948   0.058   2.593   4.125
 9669TIP3   OH228949   2.250   1.944   4.943
 9669TIP3    H128950   2.176   1.891   4.970
 9669TIP3    H228951   2.289   1.975   5.025
 9670TIP3   OH228952   0.992   1.551   3.197
 9670TIP3    H128953   0.940   1.470   3.197
 9670TIP3    H228954   1.082   1.522   3.190
 9671TIP3   OH228955   4.531   1.759   5.245
 9671TIP3    H128956   4.493   1.846   5.247
 9671TIP3    H228957   4.625   1.773   5.260
 9672TIP3   OH228958   7.581   2.108   2.229
 9672TIP3    H128959   7.582   2.051   2.151
 9672TIP3    H228960   7.561   2.049   2.301
 9673TIP3   OH228961   7.932   1.695   0.447
 9673TIP3    H128962   8.003   1.678   0.385
 9673TIP3    H228963   7.957   1.648   0.526
 9674TIP3   OH228964   7.399   6.429   3.385
 9674TIP3    H128965   7.349   6.492   3.437
 9674TIP3    H228966   7.489   6.439   3.414
 9675TIP3   OH228967   6.118   7.033   4.335
 9675TIP3    H128968   6.123   7.127   4.353
 9675TIP3    H228969   6.031   7.021   4.298
 9676TIP3   OH228970   2.961   3.389   4.223
 9676TIP3    H128971   3.043   3.438   4.221
 9676TIP3    H228972   2.940   3.381   4.316
 9677TIP3   OH228973   1.122   2.351   1.441
 9677TIP3    H128974   1.044   2.305   1.473
 9677TIP3    H228975   1.119   2.339   1.346
 9678TIP3   OH228976   6.707   2.358   6.642
 9678TIP3    H128977   6.741   2.376   6.555
 9678TIP3    H228978   6.757   2.282   6.672
 9679TIP3   OH228979   4.951   3.903   3.848
 9679TIP3    H128980   4.876   3.931   3.795
 9679TIP3    H228981   5.026   3.947   3.810
 9680TIP3   OH228982   4.432   7.297   5.270
 9680TIP3    H128983   4.482   7.344   5.336
 9680TIP3    H228984   4.348   7.279   5.311
 9681TIP3   OH228985   3.668   0.155   4.533
 9681TIP3    H128986   3.676   0.214   4.458
 9681TIP3    H228987   3.633   0.211   4.603
 9682TIP3   OH228988   7.025   1.298   4.729
 9682TIP3    H128989   7.019   1.393   4.725
 9682TIP3    H228990   6.942   1.267   4.694
 9683TIP3   OH228991   0.209   6.566   0.771
 9683TIP3    H128992   0.257   6.562   0.688
 9683TIP3    H228993   0.191   6.659   0.784
 9684TIP3   OH228994   0.204   4.779   6.062
 9684TIP3    H128995   0.222   4.845   5.994
 9684TIP3    H228996   0.288   4.770   6.109
 9685TIP3   OH228997   7.702   6.526   3.135
 9685TIP3    H128998   7.787   6.555   3.169
 9685TIP3    H228999   7.659   6.607   3.106
 9686TIP3   OH229000   8.038   4.200   4.942
 9686TIP3    H129001   8.064   4.292   4.931
 9686TIP3    H229002   8.120   4.152   4.954
 9687TIP3   OH229003   8.043   6.797   4.381
 9687TIP3    H129004   8.095   6.756   4.450
 9687TIP3    H229005   8.002   6.723   4.335
 9688TIP3   OH229006   5.836   6.541   3.895
 9688TIP3    H129007   5.843   6.600   3.820
 9688TIP3    H229008   5.877   6.459   3.866
 9689TIP3   OH229009   5.296   1.435   4.581
 9689TIP3    H129010   5.389   1.413   4.590
 9689TIP3    H229011   5.266   1.381   4.508
 9690TIP3   OH229012   2.079   5.205   5.907
 9690TIP3    H129013   2.044   5.293   5.919
 9690TIP3    H229014   2.098   5.174   5.995
 9691TIP3   OH229015   7.342   7.672   2.076
 9691TIP3    H129016   7.338   7.620   1.996
 9691TIP3    H229017   7.290   7.622   2.139
 9692TIP3   OH229018   6.522   4.313   6.216
 9692TIP3    H129019   6.587   4.332   6.284
 9692TIP3    H229020   6.510   4.397   6.171
 9693TIP3   OH229021   3.710   6.316   1.745
 9693TIP3    H129022   3.623   6.285   1.767
 9693TIP3    H229023   3.739   6.257   1.675
 9694TIP3   OH229024   3.890   6.808   4.689
 9694TIP3    H129025   3.801   6.844   4.695
 9694TIP3    H229026   3.902   6.790   4.596
 9695TIP3   OH229027   2.978   3.026   5.051
 9695TIP3    H129028   3.050   3.057   5.105
 9695TIP3    H229029   3.019   2.992   4.972
 9696TIP3   OH229030   2.362   6.969   6.003
 9696TIP3    H129031   2.312   7.004   5.929
 9696TIP3    H229032   2.375   7.044   6.061
 9697TIP3   OH229033   0.943   0.967   4.741
 9697TIP3    H129034   0.945   1.060   4.721
 9697TIP3    H229035   0.896   0.927   4.668
 9698TIP3   OH229036   3.394   5.192   5.025
 9698TIP3    H129037   3.336   5.267   5.013
 9698TIP3    H229038   3.456   5.220   5.092
 9699TIP3   OH229039   1.385   2.351   1.591
 9699TIP3    H129040   1.455   2.308   1.543
 9699TIP3    H229041   1.326   2.385   1.523
 9700TIP3   OH229042   0.340   4.027   4.475
 9700TIP3    H129043   0.359   4.120   4.463
 9700TIP3    H229044   0.423   3.989   4.504
 9701TIP3   OH229045   6.685   0.997   3.886
 9701TIP3    H129046   6.750   0.927   3.876
 9701TIP3    H229047   6.733   1.077   3.864
 9702TIP3   OH229048   5.741   6.794   4.179
 9702TIP3    H129049   5.653   6.757   4.169
 9702TIP3    H229050   5.799   6.723   4.150
 9703TIP3   OH229051   5.089   1.468   6.361
 9703TIP3    H129052   5.095   1.449   6.455
 9703TIP3    H229053   5.180   1.474   6.331
 9704TIP3   OH229054   3.149   3.247   5.863
 9704TIP3    H129055   3.148   3.234   5.768
 9704TIP3    H229056   3.220   3.190   5.894
 9705TIP3   OH229057   4.795   6.060   5.724
 9705TIP3    H129058   4.781   6.120   5.651
 9705TIP3    H229059   4.821   5.977   5.682
 9706TIP3   OH229060   0.817   6.217   5.246
 9706TIP3    H129061   0.830   6.128   5.213
 9706TIP3    H229062   0.727   6.239   5.222
 9707TIP3   OH229063   7.884   6.443   1.621
 9707TIP3    H129064   7.791   6.450   1.598
 9707TIP3    H229065   7.903   6.349   1.613
 9708TIP3   OH229066   2.671   0.267   6.754
 9708TIP3    H129067   2.645   0.199   6.692
 9708TIP3    H229068   2.599   0.271   6.818
 9709TIP3   OH229069   7.231   5.011   3.641
 9709TIP3    H129070   7.240   5.096   3.596
 9709TIP3    H229071   7.254   5.029   3.732
 9710TIP3   OH229072   6.226   5.889   0.218
 9710TIP3    H129073   6.142   5.933   0.208
 9710TIP3    H229074   6.212   5.824   0.287
 9711TIP3   OH229075   7.086   2.089   4.024
 9711TIP3    H129076   7.165   2.079   4.077
 9711TIP3    H229077   7.046   2.170   4.057
 9712TIP3   OH229078   0.614   0.268   1.722
 9712TIP3    H129079   0.646   0.225   1.801
 9712TIP3    H229080   0.519   0.254   1.724
 9713TIP3   OH229081   1.578   7.064   2.233
 9713TIP3    H129082   1.486   7.089   2.236
 9713TIP3    H229083   1.624   7.146   2.215
 9714TIP3   OH229084   0.538   2.477   0.925
 9714TIP3    H129085   0.574   2.556   0.965
 9714TIP3    H229086   0.593   2.463   0.848
 9715TIP3   OH229087   4.499   1.369   4.574
 9715TIP3    H129088   4.438   1.438   4.549
 9715TIP3    H229089   4.518   1.323   4.491
 9716TIP3   OH229090   2.336   1.983   0.583
 9716TIP3    H129091   2.247   1.964   0.613
 9716TIP3    H229092   2.366   2.053   0.641
 9717TIP3   OH229093   2.230   4.566   3.030
 9717TIP3    H129094   2.206   4.490   2.976
 9717TIP3    H229095   2.307   4.537   3.079
 9718TIP3   OH229096   2.806   1.474   3.410
 9718TIP3    H129097   2.806   1.522   3.327
 9718TIP3    H229098   2.893   1.435   3.416
 9719TIP3   OH229099   2.999   4.249   6.683
 9719TIP3    H129100   2.910   4.256   6.718
 9719TIP3    H229101   3.023   4.158   6.695
 9720TIP3   OH229102   8.105   1.474   3.324
 9720TIP3    H129103   8.142   1.560   3.343
 9720TIP3    H229104   8.179   1.414   3.331
 9721TIP3   OH229105   7.684   5.486   0.086
 9721TIP3    H129106   7.653   5.575   0.100
 9721TIP3    H229107   7.749   5.472   0.155
 9722TIP3   OH229108   6.535   6.713   4.209
 9722TIP3    H129109   6.540   6.618   4.218
 9722TIP3    H229110   6.568   6.731   4.121
 9723TIP3   OH229111   7.579   7.068   2.953
 9723TIP3    H129112   7.579   7.143   2.893
 9723TIP3    H229113   7.671   7.054   2.973
 9724TIP3   OH229114   4.738   2.945   5.587
 9724TIP3    H129115   4.736   2.988   5.501
 9724TIP3    H229116   4.685   3.000   5.643
 9725TIP3   OH229117   4.027   1.693   2.461
 9725TIP3    H129118   4.045   1.778   2.499
 9725TIP3    H229119   4.060   1.630   2.525
 9726TIP3   OH229120   4.899   5.704   1.709
 9726TIP3    H129121   4.971   5.670   1.761
 9726TIP3    H229122   4.826   5.643   1.726
 9727TIP3   OH229123   2.357   2.208   2.670
 9727TIP3    H129124   2.341   2.183   2.761
 9727TIP3    H229125   2.341   2.127   2.620
 9728TIP3   OH229126   7.998   4.256   3.465
 9728TIP3    H129127   7.919   4.210   3.494
 9728TIP3    H229128   8.007   4.329   3.526
 9729TIP3   OH229129   4.664   1.446   2.698
 9729TIP3    H129130   4.642   1.513   2.762
 9729TIP3    H229131   4.584   1.434   2.646
 9730TIP3   OH229132   1.978   1.723   1.843
 9730TIP3    H129133   1.976   1.702   1.937
 9730TIP3    H229134   2.054   1.676   1.810
 9731TIP3   OH229135   5.748   1.689   0.653
 9731TIP3    H129136   5.777   1.708   0.564
 9731TIP3    H229137   5.819   1.638   0.691
 9732TIP3   OH229138   1.211   3.381   5.543
 9732TIP3    H129139   1.137   3.434   5.573
 9732TIP3    H229140   1.181   3.342   5.461
 9733TIP3   OH229141   1.013   5.407   1.265
 9733TIP3    H129142   1.005   5.481   1.324
 9733TIP3    H229143   1.081   5.432   1.203
 9734TIP3   OH229144   1.783   1.221   1.175
 9734TIP3    H129145   1.771   1.237   1.269
 9734TIP3    H229146   1.701   1.181   1.147
 9735TIP3   OH229147   1.019   3.924   1.930
 9735TIP3    H129148   1.053   3.891   1.847
 9735TIP3    H229149   0.946   3.865   1.950
 9736TIP3   OH229150  -0.005   4.939   6.231
 9736TIP3    H129151   0.036   4.888   6.162
 9736TIP3    H229152   0.015   4.891   6.312
 9737TIP3   OH229153   5.167   0.914   1.386
 9737TIP3    H129154   5.124   0.962   1.457
 9737TIP3    H229155   5.106   0.844   1.364
 9738TIP3   OH229156   3.078   7.707   2.623
 9738TIP3    H129157   2.992   7.749   2.622
 9738TIP3    H229158   3.067   7.629   2.567
 9739TIP3   OH229159   0.185   6.577   4.640
 9739TIP3    H129160   0.243   6.507   4.672
 9739TIP3    H229161   0.206   6.586   4.547
 9740TIP3   OH229162   5.714   0.789   2.088
 9740TIP3    H129163   5.767   0.714   2.065
 9740TIP3    H229164   5.651   0.755   2.153
 9741TIP3   OH229165   3.953   0.767   1.449
 9741TIP3    H129166   3.954   0.784   1.543
 9741TIP3    H229167   3.882   0.822   1.415
 9742TIP3   OH229168   7.660   0.155   0.599
 9742TIP3    H129169   7.657   0.250   0.592
 9742TIP3    H229170   7.586   0.132   0.655
 9743TIP3   OH229171   5.874   7.326   1.321
 9743TIP3    H129172   5.955   7.282   1.298
 9743TIP3    H229173   5.831   7.267   1.383
 9744TIP3   OH229174   4.556   0.278   5.697
 9744TIP3    H129175   4.539   0.302   5.607
 9744TIP3    H229176   4.605   0.196   5.691
 9745TIP3   OH229177   0.251   0.541   5.410
 9745TIP3    H129178   0.198   0.620   5.407
 9745TIP3    H229179   0.324   0.559   5.351
 9746TIP3   OH229180   2.028   1.189   0.968
 9746TIP3    H129181   2.107   1.238   0.993
 9746TIP3    H229182   1.966   1.207   1.039
 9747TIP3   OH229183   3.199   5.326   6.087
 9747TIP3    H129184   3.265   5.382   6.127
 9747TIP3    H229185   3.155   5.383   6.023
 9748TIP3   OH229186   7.277   3.810   3.961
 9748TIP3    H129187   7.347   3.872   3.981
 9748TIP3    H229188   7.297   3.778   3.873
 9749TIP3   OH229189   3.725   0.951   3.172
 9749TIP3    H129190   3.673   0.880   3.134
 9749TIP3    H229191   3.810   0.911   3.192
 9750TIP3   OH229192   2.370   3.668   1.150
 9750TIP3    H129193   2.397   3.719   1.226
 9750TIP3    H229194   2.283   3.635   1.173
 9751TIP3   OH229195   0.768   6.935   1.658
 9751TIP3    H129196   0.738   6.940   1.749
 9751TIP3    H229197   0.864   6.935   1.665
 9752TIP3   OH229198   5.079   1.466   5.179
 9752TIP3    H129199   5.115   1.455   5.267
 9752TIP3    H229200   5.015   1.395   5.170
 9753TIP3   OH229201   2.560   5.519   6.467
 9753TIP3    H129202   2.573   5.429   6.498
 9753TIP3    H229203   2.580   5.574   6.543
 9754TIP3   OH229204   3.003   4.814   5.749
 9754TIP3    H129205   2.925   4.823   5.804
 9754TIP3    H229206   3.073   4.792   5.810
 9755TIP3   OH229207   1.548   1.488   5.265
 9755TIP3    H129208   1.525   1.537   5.186
 9755TIP3    H229209   1.557   1.554   5.333
 9756TIP3   OH229210   1.377   2.636   4.288
 9756TIP3    H129211   1.419   2.668   4.208
 9756TIP3    H229212   1.287   2.667   4.282
 9757TIP3   OH229213   5.912   4.038   5.498
 9757TIP3    H129214   5.829   3.990   5.492
 9757TIP3    H229215   5.979   3.970   5.492
 9758TIP3   OH229216   5.933   1.495   6.703
 9758TIP3    H129217   5.912   1.576   6.750
 9758TIP3    H229218   6.015   1.465   6.743
 9759TIP3   OH229219   3.632   6.291   5.657
 9759TIP3    H129220   3.590   6.209   5.684
 9759TIP3    H229221   3.635   6.287   5.562
 9760TIP3   OH229222   7.520   7.372   0.800
 9760TIP3    H129223   7.447   7.313   0.818
 9760TIP3    H229224   7.484   7.437   0.740
 9761TIP3   OH229225   4.877   6.649   6.705
 9761TIP3    H129226   4.812   6.580   6.716
 9761TIP3    H229227   4.903   6.673   6.794
 9762TIP3   OH229228   6.648   6.352   1.746
 9762TIP3    H129229   6.586   6.417   1.714
 9762TIP3    H229230   6.723   6.403   1.775
 9763TIP3   OH229231   1.266   4.505   6.516
 9763TIP3    H129232   1.202   4.485   6.584
 9763TIP3    H229233   1.323   4.428   6.514
 9764TIP3   OH229234   1.728   7.678   5.086
 9764TIP3    H129235   1.691   7.703   5.171
 9764TIP3    H229236   1.816   7.646   5.107
 9765TIP3   OH229237   5.978   6.031   0.229
 9765TIP3    H129238   5.915   5.961   0.214
 9765TIP3    H229239   6.012   6.052   0.142
 9766TIP3   OH229240   6.221   2.357   0.513
 9766TIP3    H129241   6.210   2.451   0.530
 9766TIP3    H229242   6.144   2.316   0.553
 9767TIP3   OH229243   5.750   0.025   4.157
 9767TIP3    H129244   5.764   0.118   4.172
 9767TIP3    H229245   5.671   0.004   4.206
 9768TIP3   OH229246   4.144   1.650   5.351
 9768TIP3    H129247   4.232   1.680   5.375
 9768TIP3    H229248   4.087   1.723   5.375
 9769TIP3   OH229249   4.526   6.241   0.414
 9769TIP3    H129250   4.460   6.187   0.371
 9769TIP3    H229251   4.517   6.221   0.507
 9770TIP3   OH229252   3.906   1.216   3.543
 9770TIP3    H129253   3.905   1.211   3.638
 9770TIP3    H229254   3.814   1.212   3.518
 9771TIP3   OH229255   6.538   0.088   5.646
 9771TIP3    H129256   6.535  -0.007   5.647
 9771TIP3    H229257   6.593   0.109   5.570
 9772TIP3   OH229258   2.473   2.066   4.214
 9772TIP3    H129259   2.424   2.012   4.152
 9772TIP3    H229260   2.456   2.026   4.299
 9773TIP3   OH229261   1.873   7.674   2.913
 9773TIP3    H129262   1.798   7.722   2.879
 9773TIP3    H229263   1.874   7.592   2.863
 9774TIP3   OH229264   3.394   6.697   0.499
 9774TIP3    H129265   3.327   6.646   0.544
 9774TIP3    H229266   3.420   6.642   0.425
 9775TIP3   OH229267   4.155   0.084   0.468
 9775TIP3    H129268   4.127   0.152   0.407
 9775TIP3    H229269   4.127   0.002   0.429
 9776TIP3   OH229270   6.816   5.731   3.633
 9776TIP3    H129271   6.762   5.810   3.625
 9776TIP3    H229272   6.820   5.695   3.545
 9777TIP3   OH229273   0.752   0.665   5.128
 9777TIP3    H129274   0.755   0.608   5.051
 9777TIP3    H229275   0.768   0.753   5.094
 9778TIP3   OH229276   2.454   1.685   3.951
 9778TIP3    H129277   2.536   1.734   3.941
 9778TIP3    H229278   2.465   1.634   4.031
 9779TIP3   OH229279   7.682   0.154   2.707
 9779TIP3    H129280   7.678   0.213   2.782
 9779TIP3    H229281   7.615   0.187   2.646
 9780TIP3   OH229282   5.333   4.699   2.657
 9780TIP3    H129283   5.350   4.779   2.607
 9780TIP3    H229284   5.377   4.714   2.740
 9781TIP3   OH229285   5.135   6.897   3.464
 9781TIP3    H129286   5.229   6.883   3.452
 9781TIP3    H229287   5.125   6.992   3.463
 9782TIP3   OH229288   0.343   6.292   6.197
 9782TIP3    H129289   0.434   6.294   6.167
 9782TIP3    H229290   0.300   6.361   6.146
 9783TIP3   OH229291   1.763   6.759   0.903
 9783TIP3    H129292   1.833   6.821   0.882
 9783TIP3    H229293   1.808   6.682   0.937
 9784TIP3   OH229294   2.381   2.222   1.428
 9784TIP3    H129295   2.389   2.169   1.507
 9784TIP3    H229296   2.446   2.185   1.368
 9785TIP3   OH229297   3.797   3.971   4.243
 9785TIP3    H129298   3.804   4.050   4.296
 9785TIP3    H229299   3.727   3.921   4.285
 9786TIP3   OH229300   0.198   6.853   5.848
 9786TIP3    H129301   0.108   6.876   5.872
 9786TIP3    H229302   0.233   6.934   5.810
 9787TIP3   OH229303   2.732   1.894   1.309
 9787TIP3    H129304   2.687   1.977   1.297
 9787TIP3    H229305   2.795   1.890   1.238
 9788TIP3   OH229306   1.165   2.658   0.168
 9788TIP3    H129307   1.256   2.658   0.199
 9788TIP3    H229308   1.115   2.623   0.241
 9789TIP3   OH229309   2.896   0.424   0.780
 9789TIP3    H129310   2.990   0.437   0.778
 9789TIP3    H229311   2.863   0.470   0.704
 9790TIP3   OH229312   6.693   1.609   0.720
 9790TIP3    H129313   6.755   1.665   0.766
 9790TIP3    H229314   6.612   1.616   0.771
 9791TIP3   OH229315   4.660   2.950   0.173
 9791TIP3    H129316   4.734   2.889   0.181
 9791TIP3    H229317   4.672   2.991   0.087
 9792TIP3   OH229318   3.413   3.694   3.865
 9792TIP3    H129319   3.368   3.746   3.931
 9792TIP3    H229320   3.349   3.684   3.795
 9793TIP3   OH229321   1.256   3.578   1.777
 9793TIP3    H129322   1.213   3.581   1.862
 9793TIP3    H229323   1.346   3.607   1.794
 9794TIP3   OH229324   6.069   6.490   2.721
 9794TIP3    H129325   6.077   6.557   2.653
 9794TIP3    H229326   6.038   6.538   2.798
 9795TIP3   OH229327   0.622   3.662   3.150
 9795TIP3    H129328   0.702   3.655   3.098
 9795TIP3    H229329   0.560   3.604   3.106
 9796TIP3   OH229330   2.490   7.561   2.509
 9796TIP3    H129331   2.463   7.478   2.550
 9796TIP3    H229332   2.585   7.553   2.498
 9797TIP3   OH229333   0.884   6.641   3.914
 9797TIP3    H129334   0.960   6.633   3.857
 9797TIP3    H229335   0.820   6.579   3.878
 9798TIP3   OH229336   6.309   2.211   6.364
 9798TIP3    H129337   6.379   2.151   6.339
 9798TIP3    H229338   6.271   2.173   6.443
 9799TIP3   OH229339   4.182   5.591   0.681
 9799TIP3    H129340   4.118   5.520   0.687
 9799TIP3    H229341   4.255   5.553   0.631
 9800TIP3   OH229342   0.403   1.726   3.992
 9800TIP3    H129343   0.369   1.637   3.999
 9800TIP3    H229344   0.396   1.747   3.899
 9801TIP3   OH229345   4.527   4.979   2.094
 9801TIP3    H129346   4.514   5.023   2.178
 9801TIP3    H229347   4.529   5.050   2.029
 9802TIP3   OH229348   5.347   4.348   4.756
 9802TIP3    H129349   5.377   4.282   4.818
 9802TIP3    H229350   5.287   4.300   4.698
 9803TIP3   OH229351   5.301   0.768   4.030
 9803TIP3    H129352   5.362   0.825   3.982
 9803TIP3    H229353   5.216   0.787   3.991
 9804TIP3   OH229354   6.614   7.406   5.136
 9804TIP3    H129355   6.688   7.421   5.195
 9804TIP3    H229356   6.628   7.467   5.064
 9805TIP3   OH229357   6.709   0.967   2.114
 9805TIP3    H129358   6.704   0.950   2.208
 9805TIP3    H229359   6.794   1.007   2.100
 9806TIP3   OH229360   2.324   0.484   1.759
 9806TIP3    H129361   2.415   0.456   1.768
 9806TIP3    H229362   2.275   0.425   1.815
 9807TIP3   OH229363   7.427   5.290   0.298
 9807TIP3    H129364   7.418   5.303   0.204
 9807TIP3    H229365   7.433   5.379   0.334
 9808TIP3   OH229366   1.633   5.724   3.742
 9808TIP3    H129367   1.586   5.807   3.752
 9808TIP3    H229368   1.722   5.743   3.770
 9809TIP3   OH229369   6.678   2.532   1.936
 9809TIP3    H129370   6.697   2.560   2.025
 9809TIP3    H229371   6.681   2.437   1.939
 9810TIP3   OH229372   2.580   2.788   2.901
 9810TIP3    H129373   2.594   2.880   2.881
 9810TIP3    H229374   2.566   2.785   2.996
 9811TIP3   OH229375   4.930   7.265   2.533
 9811TIP3    H129376   4.866   7.330   2.562
 9811TIP3    H229377   4.884   7.181   2.540
 9812TIP3   OH229378   6.890   3.420   4.567
 9812TIP3    H129379   6.931   3.465   4.640
 9812TIP3    H229380   6.896   3.327   4.589
 9813TIP3   OH229381   4.931   7.784   4.638
 9813TIP3    H129382   5.007   7.827   4.678
 9813TIP3    H229383   4.855   7.830   4.676
 9814TIP3   OH229384   4.107   6.743   1.285
 9814TIP3    H129385   4.038   6.784   1.234
 9814TIP3    H229386   4.074   6.743   1.375
 9815TIP3   OH229387   7.739   6.489   4.975
 9815TIP3    H129388   7.718   6.396   4.982
 9815TIP3    H229389   7.804   6.504   5.043
 9816TIP3   OH229390   2.359   1.908   2.431
 9816TIP3    H129391   2.335   1.900   2.523
 9816TIP3    H229392   2.427   1.841   2.418
 9817TIP3   OH229393   0.061   6.561   2.961
 9817TIP3    H129394  -0.028   6.594   2.977
 9817TIP3    H229395   0.117   6.619   3.014
 9818TIP3   OH229396   2.159   5.322   4.404
 9818TIP3    H129397   2.223   5.265   4.361
 9818TIP3    H229398   2.208   5.402   4.423
 9819TIP3   OH229399   4.458   5.756   1.900
 9819TIP3    H129400   4.463   5.849   1.923
 9819TIP3    H229401   4.366   5.741   1.880
 9820TIP3   OH229402   5.065   7.498   2.008
 9820TIP3    H129403   5.151   7.504   1.967
 9820TIP3    H229404   5.075   7.430   2.074
 9821TIP3   OH229405   4.689   2.533   2.678
 9821TIP3    H129406   4.778   2.540   2.645
 9821TIP3    H229407   4.683   2.597   2.749
 9822TIP3   OH229408   7.550   0.070   5.244
 9822TIP3    H129409   7.605   0.101   5.315
 9822TIP3    H229410   7.531   0.148   5.192
 9823TIP3   OH229411   5.857   0.547   0.459
 9823TIP3    H129412   5.786   0.551   0.524
 9823TIP3    H229413   5.884   0.455   0.459
 9824TIP3   OH229414   4.791   1.130   5.971
 9824TIP3    H129415   4.764   1.166   5.886
 9824TIP3    H229416   4.785   1.204   6.032
 9825TIP3   OH229417   4.397   4.192   6.212
 9825TIP3    H129418   4.373   4.284   6.218
 9825TIP3    H229419   4.332   4.154   6.153
 9826TIP3   OH229420   3.163   5.874   6.236
 9826TIP3    H129421   3.130   5.876   6.146
 9826TIP3    H229422   3.252   5.909   6.230
 9827TIP3   OH229423   3.505   6.713   6.690
 9827TIP3    H129424   3.450   6.781   6.728
 9827TIP3    H229425   3.555   6.757   6.621
 9828TIP3   OH229426   2.999   3.751   2.278
 9828TIP3    H129427   3.056   3.798   2.217
 9828TIP3    H229428   2.955   3.821   2.327
 9829TIP3   OH229429   7.987   2.634   5.834
 9829TIP3    H129430   7.937   2.700   5.882
 9829TIP3    H229431   8.057   2.609   5.895
 9830TIP3   OH229432   2.947   7.264   6.229
 9830TIP3    H129433   2.908   7.338   6.184
 9830TIP3    H229434   2.878   7.198   6.231
 9831TIP3   OH229435   1.687   4.716   0.982
 9831TIP3    H129436   1.647   4.802   0.996
 9831TIP3    H229437   1.761   4.734   0.924
 9832TIP3   OH229438   5.466   0.354   0.091
 9832TIP3    H129439   5.488   0.320   0.178
 9832TIP3    H229440   5.388   0.407   0.106
 9833TIP3   OH229441   1.034   7.813   3.647
 9833TIP3    H129442   1.062   7.856   3.567
 9833TIP3    H229443   1.043   7.719   3.628
 9834TIP3   OH229444   1.424   4.699   5.068
 9834TIP3    H129445   1.396   4.666   5.154
 9834TIP3    H229446   1.390   4.789   5.065
 9835TIP3   OH229447   0.440   5.895   5.590
 9835TIP3    H129448   0.392   5.972   5.558
 9835TIP3    H229449   0.525   5.930   5.617
 9836TIP3   OH229450   4.042   0.003   2.224
 9836TIP3    H129451   3.950   0.004   2.196
 9836TIP3    H229452   4.087   0.057   2.158
 9837TIP3   OH229453   7.218   0.344   2.942
 9837TIP3    H129454   7.241   0.428   2.901
 9837TIP3    H229455   7.126   0.354   2.966
 9838TIP3   OH229456   1.423   7.318   3.792
 9838TIP3    H129457   1.460   7.377   3.857
 9838TIP3    H229458   1.330   7.342   3.786
 9839TIP3   OH229459   5.631   4.356   3.701
 9839TIP3    H129460   5.544   4.389   3.679
 9839TIP3    H229461   5.660   4.410   3.774
 9840TIP3   OH229462   2.239   6.619   5.105
 9840TIP3    H129463   2.239   6.526   5.125
 9840TIP3    H229464   2.296   6.628   5.029
 9841TIP3   OH229465   5.564   1.012   0.778
 9841TIP3    H129466   5.548   1.101   0.747
 9841TIP3    H229467   5.561   0.958   0.699
 9842TIP3   OH229468   0.407   2.762   0.326
 9842TIP3    H129469   0.329   2.773   0.271
 9842TIP3    H229470   0.386   2.688   0.383
 9843TIP3   OH229471   4.849   6.377   3.653
 9843TIP3    H129472   4.835   6.358   3.560
 9843TIP3    H229473   4.944   6.369   3.665
 9844TIP3   OH229474   0.157   1.075   0.742
 9844TIP3    H129475   0.247   1.047   0.726
 9844TIP3    H229476   0.139   1.138   0.672
 9845TIP3   OH229477   7.565   5.768   0.849
 9845TIP3    H129478   7.643   5.736   0.804
 9845TIP3    H229479   7.561   5.717   0.930
 9846TIP3   OH229480   6.266   5.977   2.719
 9846TIP3    H129481   6.283   6.056   2.771
 9846TIP3    H229482   6.348   5.962   2.671
 9847TIP3   OH229483   6.232   1.361   6.660
 9847TIP3    H129484   6.213   1.452   6.685
 9847TIP3    H229485   6.222   1.311   6.741
 9848TIP3   OH229486   1.881   0.521   6.101
 9848TIP3    H129487   1.857   0.464   6.029
 9848TIP3    H229488   1.805   0.517   6.161
 9849TIP3   OH229489   2.090   4.583   1.291
 9849TIP3    H129490   2.084   4.500   1.243
 9849TIP3    H229491   2.057   4.648   1.229
 9850TIP3   OH229492   3.071   5.206   0.359
 9850TIP3    H129493   3.131   5.133   0.376
 9850TIP3    H229494   3.122   5.284   0.380
 9851TIP3   OH229495   4.183   2.936   5.225
 9851TIP3    H129496   4.214   2.848   5.201
 9851TIP3    H229497   4.101   2.946   5.177
 9852TIP3   OH229498   4.014   2.087   4.887
 9852TIP3    H129499   4.015   2.169   4.837
 9852TIP3    H229500   4.078   2.031   4.843
 9853TIP3   OH229501   2.607   4.873   1.708
 9853TIP3    H129502   2.566   4.839   1.628
 9853TIP3    H229503   2.614   4.797   1.766
 9854TIP3   OH229504   4.320   3.792   3.589
 9854TIP3    H129505   4.406   3.824   3.562
 9854TIP3    H229506   4.263   3.868   3.582
 9855TIP3   OH229507   2.526   5.952   3.257
 9855TIP3    H129508   2.530   5.923   3.166
 9855TIP3    H229509   2.433   5.966   3.275
 9856TIP3   OH229510   1.752   6.683   2.306
 9856TIP3    H129511   1.811   6.759   2.301
 9856TIP3    H229512   1.767   6.636   2.224
 9857TIP3   OH229513   3.929   1.675   4.019
 9857TIP3    H129514   4.008   1.728   4.009
 9857TIP3    H229515   3.873   1.702   3.946
 9858TIP3   OH229516   5.263   2.779   2.252
 9858TIP3    H129517   5.184   2.746   2.294
 9858TIP3    H229518   5.235   2.860   2.210
 9859TIP3   OH229519   4.452   2.940   5.356
 9859TIP3    H129520   4.510   2.869   5.326
 9859TIP3    H229521   4.366   2.916   5.321
 9860TIP3   OH229522   3.657   6.044   0.628
 9860TIP3    H129523   3.581   6.103   0.630
 9860TIP3    H229524   3.717   6.085   0.567
 9861TIP3   OH229525   3.752   1.888   2.320
 9861TIP3    H129526   3.775   1.818   2.258
 9861TIP3    H229527   3.683   1.850   2.374
 9862TIP3   OH229528   2.772   0.940   4.263
 9862TIP3    H129529   2.832   0.899   4.326
 9862TIP3    H229530   2.787   0.894   4.181
 9863TIP3   OH229531   3.821   2.266   3.244
 9863TIP3    H129532   3.868   2.246   3.163
 9863TIP3    H229533   3.831   2.188   3.298
 9864TIP3   OH229534   7.998   2.596   0.396
 9864TIP3    H129535   8.027   2.511   0.429
 9864TIP3    H229536   7.990   2.584   0.301
 9865TIP3   OH229537   7.911   0.260   1.109
 9865TIP3    H129538   7.933   0.234   1.199
 9865TIP3    H229539   7.888   0.353   1.117
 9866TIP3   OH229540   5.871   4.868   1.461
 9866TIP3    H129541   5.905   4.810   1.393
 9866TIP3    H229542   5.789   4.902   1.425
 9867TIP3   OH229543   7.781   1.721   2.396
 9867TIP3    H129544   7.796   1.686   2.308
 9867TIP3    H229545   7.804   1.813   2.389
 9868TIP3   OH229546   3.800   2.842   2.277
 9868TIP3    H129547   3.819   2.920   2.224
 9868TIP3    H229548   3.855   2.773   2.239
 9869TIP3   OH229549   0.281   7.372   0.813
 9869TIP3    H129550   0.265   7.393   0.905
 9869TIP3    H229551   0.215   7.306   0.792
 9870TIP3   OH229552   0.313   2.295   6.511
 9870TIP3    H129553   0.317   2.382   6.549
 9870TIP3    H229554   0.337   2.236   6.582
 9871TIP3   OH229555   6.461   0.177   6.278
 9871TIP3    H129556   6.409   0.096   6.277
 9871TIP3    H229557   6.463   0.202   6.370
 9872TIP3   OH229558   1.317   6.766   0.615
 9872TIP3    H129559   1.261   6.713   0.671
 9872TIP3    H229560   1.370   6.703   0.566
 9873TIP3   OH229561   5.170   7.696   4.372
 9873TIP3    H129562   5.225   7.773   4.357
 9873TIP3    H229563   5.086   7.732   4.401
 9874TIP3   OH229564   7.948   0.686   4.205
 9874TIP3    H129565   7.854   0.699   4.189
 9874TIP3    H229566   7.968   0.745   4.277
 9875TIP3   OH229567   5.945   5.393   0.742
 9875TIP3    H129568   5.940   5.344   0.824
 9875TIP3    H229569   5.949   5.325   0.674
 9876TIP3   OH229570   4.931   1.579   2.280
 9876TIP3    H129571   4.944   1.596   2.186
 9876TIP3    H229572   4.854   1.522   2.283
 9877TIP3   OH229573   5.909   2.763   1.886
 9877TIP3    H129574   5.911   2.808   1.801
 9877TIP3    H229575   5.851   2.817   1.940
 9878TIP3   OH229576   5.111   0.699  -0.019
 9878TIP3    H129577   5.114   0.699   0.077
 9878TIP3    H229578   5.081   0.611  -0.042
 9879TIP3   OH229579   4.065   3.095   0.172
 9879TIP3    H129580   4.022   3.087   0.257
 9879TIP3    H229581   4.131   3.164   0.184
 9880TIP3   OH229582   7.828   0.730   4.679
 9880TIP3    H129583   7.915   0.695   4.658
 9880TIP3    H229584   7.768   0.661   4.652
 9881TIP3   OH229585   6.471   5.334   1.569
 9881TIP3    H129586   6.563   5.358   1.566
 9881TIP3    H229587   6.431   5.395   1.631
 9882TIP3   OH229588   4.410   4.491   4.750
 9882TIP3    H129589   4.351   4.416   4.748
 9882TIP3    H229590   4.495   4.454   4.776
 9883TIP3   OH229591   2.646   6.312   2.634
 9883TIP3    H129592   2.602   6.390   2.668
 9883TIP3    H229593   2.640   6.320   2.539
 9884TIP3   OH229594   7.579   6.845   0.364
 9884TIP3    H129595   7.584   6.807   0.276
 9884TIP3    H229596   7.616   6.933   0.353
 9885TIP3   OH229597   6.310   5.193   6.707
 9885TIP3    H129598   6.384   5.138   6.680
 9885TIP3    H229599   6.351   5.269   6.749
 9886TIP3   OH229600   2.521   4.046   3.104
 9886TIP3    H129601   2.465   4.086   3.037
 9886TIP3    H229602   2.460   4.013   3.169
 9887TIP3   OH229603   1.177   5.797   1.382
 9887TIP3    H129604   1.171   5.791   1.477
 9887TIP3    H229605   1.258   5.845   1.366
 9888TIP3   OH229606   6.707   2.255   5.542
 9888TIP3    H129607   6.792   2.242   5.500
 9888TIP3    H229608   6.654   2.297   5.474
 9889TIP3   OH229609   7.368   1.443   1.436
 9889TIP3    H129610   7.383   1.360   1.482
 9889TIP3    H229611   7.342   1.504   1.505
 9890TIP3   OH229612   2.387   3.192   2.472
 9890TIP3    H129613   2.305   3.165   2.512
 9890TIP3    H229614   2.360   3.249   2.399
 9891TIP3   OH229615   7.450   2.324   5.319
 9891TIP3    H129616   7.510   2.250   5.306
 9891TIP3    H229617   7.377   2.307   5.259
 9892TIP3   OH229618   1.198   0.264   4.315
 9892TIP3    H129619   1.287   0.274   4.349
 9892TIP3    H229620   1.150   0.339   4.350
 9893TIP3   OH229621   1.578   7.378   0.245
 9893TIP3    H129622   1.651   7.394   0.305
 9893TIP3    H229623   1.542   7.294   0.272
 9894TIP3   OH229624   2.952   0.654   3.505
 9894TIP3    H129625   2.957   0.673   3.598
 9894TIP3    H229626   2.874   0.702   3.475
 9895TIP3   OH229627   4.095   5.177   1.086
 9895TIP3    H129628   4.102   5.146   0.995
 9895TIP3    H229629   4.185   5.199   1.111
 9896TIP3   OH229630   1.620   2.899   3.456
 9896TIP3    H129631   1.634   2.842   3.380
 9896TIP3    H229632   1.675   2.976   3.438
 9897TIP3   OH229633   7.360   0.193   4.647
 9897TIP3    H129634   7.278   0.199   4.696
 9897TIP3    H229635   7.424   0.164   4.712
 9898TIP3   OH229636   7.494   2.309   4.188
 9898TIP3    H129637   7.587   2.289   4.176
 9898TIP3    H229638   7.491   2.404   4.197
 9899TIP3   OH229639   7.129   3.606   1.183
 9899TIP3    H129640   7.217   3.578   1.210
 9899TIP3    H229641   7.083   3.622   1.265
 9900TIP3   OH229642   6.790   0.973   5.310
 9900TIP3    H129643   6.811   0.998   5.400
 9900TIP3    H229644   6.732   1.043   5.280
 9901TIP3   OH229645   5.437   0.629   1.744
 9901TIP3    H129646   5.504   0.679   1.790
 9901TIP3    H229647   5.413   0.683   1.669
 9902TIP3   OH229648   0.867   6.093   1.215
 9902TIP3    H129649   0.817   6.012   1.225
 9902TIP3    H229650   0.905   6.087   1.127
 9903TIP3   OH229651   1.646   5.872   4.947
 9903TIP3    H129652   1.701   5.883   5.025
 9903TIP3    H229653   1.581   5.943   4.953
 9904TIP3   OH229654   4.559   3.297   4.374
 9904TIP3    H129655   4.469   3.271   4.353
 9904TIP3    H229656   4.605   3.215   4.388
 9905TIP3   OH229657   1.354   7.247   1.304
 9905TIP3    H129658   1.377   7.339   1.311
 9905TIP3    H229659   1.258   7.247   1.299
 9906TIP3   OH229660   7.627   1.704   5.000
 9906TIP3    H129661   7.658   1.618   4.973
 9906TIP3    H229662   7.534   1.693   5.016
 9907TIP3   OH229663   4.730   5.635   3.309
 9907TIP3    H129664   4.727   5.627   3.213
 9907TIP3    H229665   4.776   5.556   3.337
 9908TIP3   OH229666   6.760   3.718   1.234
 9908TIP3    H129667   6.699   3.742   1.303
 9908TIP3    H229668   6.794   3.801   1.202
 9909TIP3   OH229669   2.686   7.599   2.039
 9909TIP3    H129670   2.613   7.661   2.044
 9909TIP3    H229671   2.645   7.513   2.050
 9910TIP3   OH229672   3.206   4.211   3.488
 9910TIP3    H129673   3.161   4.138   3.446
 9910TIP3    H229674   3.280   4.171   3.532
 9911TIP3   OH229675   5.639   3.768   0.479
 9911TIP3    H129676   5.613   3.848   0.523
 9911TIP3    H229677   5.597   3.773   0.393
 9912TIP3   OH229678   6.260   1.051   1.134
 9912TIP3    H129679   6.354   1.053   1.113
 9912TIP3    H229680   6.243   0.962   1.162
 9913TIP3   OH229681   4.765   6.726   0.932
 9913TIP3    H129682   4.699   6.714   0.864
 9913TIP3    H229683   4.790   6.818   0.926
 9914TIP3   OH229684   4.228   2.664   6.538
 9914TIP3    H129685   4.263   2.699   6.456
 9914TIP3    H229686   4.178   2.588   6.512
 9915TIP3   OH229687   4.395   1.122   2.240
 9915TIP3    H129688   4.394   1.037   2.197
 9915TIP3    H229689   4.307   1.157   2.226
 9916TIP3   OH229690   1.799   4.286   5.206
 9916TIP3    H129691   1.774   4.379   5.208
 9916TIP3    H229692   1.879   4.284   5.154
 9917TIP3   OH229693   6.664   1.279   6.177
 9917TIP3    H129694   6.612   1.351   6.142
 9917TIP3    H229695   6.623   1.200   6.141
 9918TIP3   OH229696   7.254   7.569   0.293
 9918TIP3    H129697   7.261   7.528   0.379
 9918TIP3    H229698   7.312   7.645   0.298
 9919TIP3   OH229699   3.453   6.973   4.336
 9919TIP3    H129700   3.438   6.881   4.358
 9919TIP3    H229701   3.386   6.993   4.271
 9920TIP3   OH229702   7.970   7.397   5.193
 9920TIP3    H129703   7.982   7.350   5.276
 9920TIP3    H229704   7.909   7.343   5.144
 9921TIP3   OH229705   1.624   2.435   1.097
 9921TIP3    H129706   1.540   2.451   1.141
 9921TIP3    H229707   1.613   2.351   1.054
 9922TIP3   OH229708   5.414   2.657   5.358
 9922TIP3    H129709   5.353   2.713   5.406
 9922TIP3    H229710   5.359   2.589   5.319
 9923TIP3   OH229711   3.941   0.352   3.225
 9923TIP3    H129712   3.896   0.428   3.188
 9923TIP3    H229713   3.988   0.386   3.301
 9924TIP3   OH229714   0.974   3.408   5.705
 9924TIP3    H129715   0.998   3.428   5.796
 9924TIP3    H229716   0.930   3.487   5.674
 9925TIP3   OH229717   0.517   3.166   0.238
 9925TIP3    H129718   0.545   3.123   0.319
 9925TIP3    H229719   0.432   3.204   0.259
 9926TIP3   OH229720   0.221   4.851   1.529
 9926TIP3    H129721   0.216   4.771   1.581
 9926TIP3    H229722   0.315   4.869   1.523
 9927TIP3   OH229723   0.725   7.112   4.618
 9927TIP3    H129724   0.646   7.060   4.634
 9927TIP3    H229725   0.797   7.051   4.632
 9928TIP3   OH229726   2.527   6.557   6.348
 9928TIP3    H129727   2.587   6.614   6.397
 9928TIP3    H229728   2.467   6.617   6.304
 9929TIP3   OH229729   3.297  -0.015   4.356
 9929TIP3    H129730   3.330   0.074   4.351
 9929TIP3    H229731   3.357  -0.059   4.417
 9930TIP3   OH229732   3.391   4.557   3.358
 9930TIP3    H129733   3.320   4.547   3.422
 9930TIP3    H229734   3.385   4.479   3.303
 9931TIP3   OH229735   0.179   4.835   4.968
 9931TIP3    H129736   0.210   4.745   4.979
 9931TIP3    H229737   0.241   4.888   5.017
 9932TIP3   OH229738   6.416   3.005   4.956
 9932TIP3    H129739   6.387   3.070   5.020
 9932TIP3    H229740   6.488   2.959   5.000
 9933TIP3   OH229741   3.876   5.852   5.946
 9933TIP3    H129742   3.783   5.833   5.953
 9933TIP3    H229743   3.883   5.946   5.964
 9934TIP3   OH229744   6.473   5.042   1.530
 9934TIP3    H129745   6.448   5.129   1.563
 9934TIP3    H229746   6.421   5.032   1.450
 9935TIP3   OH229747   6.917   5.626   2.488
 9935TIP3    H129748   6.923   5.707   2.537
 9935TIP3    H229749   6.823   5.615   2.471
 9936TIP3   OH229750   2.970   2.583   5.027
 9936TIP3    H129751   2.950   2.500   5.070
 9936TIP3    H229752   2.906   2.644   5.063
 9937TIP3   OH229753   8.087   6.016   0.128
 9937TIP3    H129754   8.044   5.938   0.163
 9937TIP3    H229755   8.068   6.013   0.034
 9938TIP3   OH229756   0.589   7.191   3.771
 9938TIP3    H129757   0.503   7.165   3.737
 9938TIP3    H229758   0.647   7.119   3.745
 9939TIP3   OH229759   4.056   3.595   4.349
 9939TIP3    H129760   3.975   3.544   4.340
 9939TIP3    H229761   4.036   3.680   4.311
 9940TIP3   OH229762   2.417   5.608   0.718
 9940TIP3    H129763   2.415   5.539   0.651
 9940TIP3    H229764   2.474   5.574   0.786
 9941TIP3   OH229765   8.189   3.351   2.168
 9941TIP3    H129766   8.175   3.435   2.211
 9941TIP3    H229767   8.113   3.342   2.110
 9942TIP3   OH229768   0.980   6.378   1.920
 9942TIP3    H129769   1.035   6.427   1.982
 9942TIP3    H229770   0.894   6.378   1.961
 9943TIP3   OH229771   6.166   0.144   1.063
 9943TIP3    H129772   6.143   0.236   1.054
 9943TIP3    H229773   6.206   0.120   0.980
 9944TIP3   OH229774   6.867   5.143   4.319
 9944TIP3    H129775   6.938   5.147   4.255
 9944TIP3    H229776   6.820   5.226   4.309
 9945TIP3   OH229777   3.936   7.555   1.100
 9945TIP3    H129778   4.008   7.499   1.128
 9945TIP3    H229779   3.861   7.524   1.151
 9946TIP3   OH229780   3.790   1.545   3.464
 9946TIP3    H129781   3.728   1.479   3.432
 9946TIP3    H229782   3.800   1.525   3.557
 9947TIP3   OH229783   0.239   2.247   1.527
 9947TIP3    H129784   0.251   2.154   1.545
 9947TIP3    H229785   0.158   2.251   1.475
 9948TIP3   OH229786   6.696   6.878   1.229
 9948TIP3    H129787   6.708   6.793   1.185
 9948TIP3    H229788   6.785   6.914   1.235
 9949TIP3   OH229789   1.840   5.194   2.460
 9949TIP3    H129790   1.860   5.284   2.487
 9949TIP3    H229791   1.758   5.173   2.506
 9950TIP3   OH229792   4.237   5.591   2.021
 9950TIP3    H129793   4.163   5.588   1.961
 9950TIP3    H229794   4.289   5.514   1.998
 9951TIP3   OH229795   5.894   6.799   5.917
 9951TIP3    H129796   5.849   6.817   6.000
 9951TIP3    H229797   5.894   6.883   5.871
 9952TIP3   OH229798   1.219   1.971   3.711
 9952TIP3    H129799   1.314   1.985   3.703
 9952TIP3    H229800   1.211   1.879   3.736
 9953TIP3   OH229801   6.144   4.332   5.308
 9953TIP3    H129802   6.172   4.345   5.218
 9953TIP3    H229803   6.176   4.408   5.355
 9954TIP3   OH229804   6.033   2.988   5.624
 9954TIP3    H129805   5.942   2.981   5.652
 9954TIP3    H229806   6.082   2.946   5.695
 9955TIP3   OH229807   3.559   2.943   5.343
 9955TIP3    H129808   3.599   2.990   5.417
 9955TIP3    H229809   3.565   3.003   5.270
 9956TIP3   OH229810   4.633   3.041   1.819
 9956TIP3    H129811   4.704   3.094   1.855
 9956TIP3    H229812   4.664   3.015   1.732
 9957TIP3   OH229813   7.891   2.496   3.043
 9957TIP3    H129814   7.961   2.560   3.055
 9957TIP3    H229815   7.836   2.533   2.974
 9958TIP3   OH229816   7.434   1.539   2.684
 9958TIP3    H129817   7.384   1.463   2.711
 9958TIP3    H229818   7.441   1.593   2.763
 9959TIP3   OH229819   4.364   2.824   2.215
 9959TIP3    H129820   4.315   2.899   2.249
 9959TIP3    H229821   4.455   2.853   2.213
 9960TIP3   OH229822   3.587   0.302   5.028
 9960TIP3    H129823   3.584   0.208   5.050
 9960TIP3    H229824   3.529   0.343   5.092
 9961TIP3   OH229825   3.916   7.691   6.208
 9961TIP3    H129826   3.950   7.777   6.183
 9961TIP3    H229827   3.839   7.710   6.261
 9962TIP3   OH229828   3.988   6.403   0.879
 9962TIP3    H129829   3.928   6.339   0.842
 9962TIP3    H229830   4.056   6.413   0.813
 9963TIP3   OH229831   7.011   5.625   3.106
 9963TIP3    H129832   7.096   5.592   3.077
 9963TIP3    H229833   7.029   5.662   3.193
 9964TIP3   OH229834   7.795   0.791   5.144
 9964TIP3    H129835   7.841   0.781   5.227
 9964TIP3    H229836   7.734   0.864   5.159
 9965TIP3   OH229837   6.120   6.930   0.630
 9965TIP3    H129838   6.078   6.938   0.716
 9965TIP3    H229839   6.048   6.937   0.567
 9966TIP3   OH229840   6.989   3.548   2.467
 9966TIP3    H129841   7.073   3.574   2.503
 9966TIP3    H229842   6.969   3.464   2.509
 9967TIP3   OH229843   7.634   2.848   4.768
 9967TIP3    H129844   7.559   2.908   4.764
 9967TIP3    H229845   7.706   2.901   4.802
 9968TIP3   OH229846   2.872   6.114   2.263
 9968TIP3    H129847   2.908   6.066   2.337
 9968TIP3    H229848   2.810   6.175   2.303
 9969TIP3   OH229849   4.433   3.192   5.558
 9969TIP3    H129850   4.346   3.193   5.519
 9969TIP3    H229851   4.470   3.107   5.532
 9970TIP3   OH229852   4.131   7.287   3.040
 9970TIP3    H129853   4.141   7.258   2.949
 9970TIP3    H229854   4.142   7.207   3.091
 9971TIP3   OH229855   1.127   0.652   6.621
 9971TIP3    H129856   1.067   0.628   6.550
 9971TIP3    H229857   1.214   0.632   6.587
 9972TIP3   OH229858   6.765   6.009   3.642
 9972TIP3    H129859   6.674   6.014   3.615
 9972TIP3    H229860   6.772   6.072   3.714
 9973TIP3   OH229861   8.251   5.179   0.038
 9973TIP3    H129862   8.162   5.166   0.073
 9973TIP3    H229863   8.286   5.091   0.028
 9974TIP3   OH229864   7.016   4.154   4.129
 9974TIP3    H129865   7.090   4.185   4.181
 9974TIP3    H229866   7.051   4.141   4.042
 9975TIP3   OH229867   3.075   1.644   1.122
 9975TIP3    H129868   3.168   1.625   1.117
 9975TIP3    H229869   3.065   1.728   1.077
 9976TIP3   OH229870   4.666   3.036   4.411
 9976TIP3    H129871   4.738   3.055   4.470
 9976TIP3    H229872   4.592   3.018   4.469
 9977TIP3   OH229873   6.374   1.617   1.488
 9977TIP3    H129874   6.405   1.565   1.414
 9977TIP3    H229875   6.280   1.597   1.493
 9978TIP3   OH229876   2.760   6.656   5.734
 9978TIP3    H129877   2.730   6.746   5.747
 9978TIP3    H229878   2.680   6.604   5.731
 9979TIP3   OH229879   5.257   6.632   5.171
 9979TIP3    H129880   5.201   6.586   5.234
 9979TIP3    H229881   5.200   6.699   5.133
 9980TIP3   OH229882   6.403   5.642   6.449
 9980TIP3    H129883   6.427   5.651   6.541
 9980TIP3    H229884   6.402   5.548   6.433
 9981TIP3   OH229885   2.558   3.966   0.364
 9981TIP3    H129886   2.528   4.049   0.328
 9981TIP3    H229887   2.630   3.990   0.423
 9982TIP3   OH229888   5.924   3.304   5.620
 9982TIP3    H129889   5.913   3.238   5.689
 9982TIP3    H229890   5.869   3.273   5.548
 9983TIP3   OH229891   1.093   3.877   6.232
 9983TIP3    H129892   1.025   3.942   6.213
 9983TIP3    H229893   1.143   3.915   6.304
 9984TIP3   OH229894   0.039   1.153   4.129
 9984TIP3    H129895   0.057   1.120   4.041
 9984TIP3    H229896  -0.010   1.082   4.172
 9985TIP3   OH229897   7.330   3.392   6.335
 9985TIP3    H129898   7.238   3.384   6.311
 9985TIP3    H229899   7.332   3.382   6.430
 9986TIP3   OH229900   5.374   2.133   3.955
 9986TIP3    H129901   5.346   2.052   3.998
 9986TIP3    H229902   5.338   2.126   3.867
 9987TIP3   OH229903   1.371   7.651   0.389
 9987TIP3    H129904   1.289   7.603   0.374
 9987TIP3    H229905   1.419   7.596   0.451
 9988TIP3   OH229906   7.240   6.634   0.130
 9988TIP3    H129907   7.297   6.611   0.203
 9988TIP3    H229908   7.208   6.722   0.151
 9989TIP3   OH229909   2.832   6.038   6.077
 9989TIP3    H129910   2.885   5.961   6.061
 9989TIP3    H229911   2.765   6.009   6.140
 9990TIP3   OH229912   1.672   5.473   6.035
 9990TIP3    H129913   1.577   5.480   6.042
 9990TIP3    H229914   1.702   5.562   6.017
 9991TIP3   OH229915   3.321   5.121   3.954
 9991TIP3    H129916   3.408   5.160   3.947
 9991TIP3    H229917   3.323   5.047   3.893
 9992TIP3   OH229918   7.720   5.790   1.950
 9992TIP3    H129919   7.664   5.787   2.027
 9992TIP3    H229920   7.672   5.845   1.888
 9993TIP3   OH229921   3.127   4.218   3.141
 9993TIP3    H129922   3.105   4.126   3.158
 9993TIP3    H229923   3.192   4.240   3.208
 9994TIP3   OH229924   2.129   4.229   0.789
 9994TIP3    H129925   2.085   4.314   0.800
 9994TIP3    H229926   2.210   4.237   0.839
 9995TIP3   OH229927   3.686   2.032   3.883
 9995TIP3    H129928   3.604   1.987   3.903
 9995TIP3    H229929   3.674   2.067   3.795
 9996TIP3   OH229930   7.728   4.224   4.153
 9996TIP3    H129931   7.690   4.196   4.069
 9996TIP3    H229932   7.654   4.261   4.201
 9997TIP3   OH229933   0.626   0.811   4.112
 9997TIP3    H129934   0.655   0.816   4.203
 9997TIP3    H229935   0.568   0.886   4.101
 9998TIP3   OH229936   7.654   3.591   0.425
 9998TIP3    H129937   7.625   3.667   0.475
 9998TIP3    H229938   7.744   3.577   0.453
 9999TIP3   OH229939   5.264   7.592   5.324
 9999TIP3    H129940   5.207   7.521   5.294
 9999TIP3    H229941   5.292   7.635   5.244
10000TIP3   OH229942   1.109   6.610   4.384
10000TIP3    H129943   1.062   6.568   4.311
10000TIP3    H229944   1.199   6.616   4.354
10001TIP3   OH229945   2.064   0.263   2.446
10001TIP3    H129946   2.000   0.201   2.412
10001TIP3    H229947   2.121   0.210   2.502
10002TIP3   OH229948   0.592   0.364   0.999
10002TIP3    H129949   0.666   0.330   1.050
10002TIP3    H229950   0.521   0.373   1.062
10003TIP3   OH229951   2.362   2.095   1.651
10003TIP3    H129952   2.396   2.006   1.652
10003TIP3    H229953   2.271   2.087   1.682
10004TIP3   OH229954   7.202   2.689   5.226
10004TIP3    H129955   7.244   2.765   5.186
10004TIP3    H229956   7.267   2.656   5.288
10005TIP3   OH229957   0.177   5.292   3.012
10005TIP3    H129958   0.172   5.380   3.049
10005TIP3    H229959   0.268   5.283   2.982
10006TIP3   OH229960   7.147   6.105   2.841
10006TIP3    H129961   7.199   6.089   2.919
10006TIP3    H229962   7.172   6.035   2.780
10007TIP3   OH229963   5.560   1.459   1.207
10007TIP3    H129964   5.576   1.456   1.301
10007TIP3    H229965   5.644   1.437   1.167
10008TIP3   OH229966   7.857   7.004   5.352
10008TIP3    H129967   7.818   7.090   5.369
10008TIP3    H229968   7.794   6.942   5.387
10009TIP3   OH229969   8.055   6.970   1.332
10009TIP3    H129970   8.013   7.031   1.271
10009TIP3    H229971   7.991   6.959   1.402
10010TIP3   OH229972   2.073   5.084   6.758
10010TIP3    H129973   2.107   5.174   6.758
10010TIP3    H229974   2.150   5.030   6.770
10011TIP3   OH229975   1.629   1.717   0.946
10011TIP3    H129976   1.554   1.657   0.943
10011TIP3    H229977   1.632   1.755   0.858
10012TIP3   OH229978   8.087   7.833   3.456
10012TIP3    H129979   7.998   7.850   3.424
10012TIP3    H229980   8.076   7.764   3.521
10013TIP3   OH229981   7.619   3.901   4.925
10013TIP3    H129982   7.550   3.868   4.867
10013TIP3    H229983   7.701   3.869   4.887
10014TIP3   OH229984   5.597   0.598   3.696
10014TIP3    H129985   5.678   0.568   3.655
10014TIP3    H229986   5.541   0.520   3.697
10015TIP3   OH229987   5.944   5.916   1.697
10015TIP3    H129988   5.976   5.826   1.709
10015TIP3    H229989   6.022   5.965   1.670
10016TIP3   OH229990   6.481   7.644   6.603
10016TIP3    H129991   6.514   7.561   6.638
10016TIP3    H229992   6.541   7.665   6.531
10017TIP3   OH229993   4.330   4.050   3.345
10017TIP3    H129994   4.287   4.031   3.429
10017TIP3    H229995   4.378   4.132   3.361
10018TIP3   OH229996   0.658   5.607   5.843
10018TIP3    H129997   0.744   5.619   5.883
10018TIP3    H229998   0.647   5.512   5.835
10019TIP3   OH229999   4.542   7.683   0.049
10019TIP3    H130000   4.529   7.638  -0.034
10019TIP3    H230001   4.632   7.662   0.074
10020TIP3   OH230002   2.151   7.514   4.572
10020TIP3    H130003   2.162   7.420   4.589
10020TIP3    H230004   2.238   7.551   4.587
10021TIP3   OH230005   0.742   3.127   1.765
10021TIP3    H130006   0.826   3.100   1.802
10021TIP3    H230007   0.686   3.051   1.775
10022TIP3   OH230008   3.889   5.535   0.154
10022TIP3    H130009   3.835   5.517   0.077
10022TIP3    H230010   3.967   5.481   0.142
10023TIP3   OH230011   7.375   0.897   2.276
10023TIP3    H130012   7.356   0.809   2.306
10023TIP3    H230013   7.349   0.897   2.184
10024TIP3   OH230014   7.320   5.735   4.248
10024TIP3    H130015   7.271   5.775   4.176
10024TIP3    H230016   7.391   5.687   4.205
10025TIP3   OH230017   1.071   3.377   3.126
10025TIP3    H130018   1.143   3.398   3.185
10025TIP3    H230019   1.108   3.316   3.063
10026TIP3   OH230020   1.025   7.432   0.633
10026TIP3    H130021   1.117   7.443   0.608
10026TIP3    H230022   1.015   7.338   0.644
10027TIP3   OH230023   6.960   3.182   5.711
10027TIP3    H130024   7.032   3.130   5.674
10027TIP3    H230025   6.936   3.137   5.791
10028TIP3   OH230026   1.328   2.268   6.673
10028TIP3    H130027   1.336   2.216   6.593
10028TIP3    H230028   1.369   2.214   6.741
10029TIP3   OH230029   5.919   5.039   1.159
10029TIP3    H130030   5.999   5.036   1.212
10029TIP3    H230031   5.848   5.042   1.224
10030TIP3   OH230032   7.097   2.018   0.701
10030TIP3    H130033   7.010   2.046   0.676
10030TIP3    H230034   7.148   2.099   0.706
10031TIP3   OH230035   7.331   3.689   2.298
10031TIP3    H130036   7.257   3.698   2.238
10031TIP3    H230037   7.384   3.767   2.283
10032TIP3   OH230038   7.643   2.531   6.514
10032TIP3    H130039   7.575   2.597   6.529
10032TIP3    H230040   7.595   2.454   6.485
10033TIP3   OH230041   5.734   2.288   0.147
10033TIP3    H130042   5.738   2.209   0.093
10033TIP3    H230043   5.796   2.272   0.217
10034TIP3   OH230044   1.005   7.670   2.089
10034TIP3    H130045   0.983   7.587   2.133
10034TIP3    H230046   1.086   7.651   2.041
10035TIP3   OH230047   4.770   5.811   0.288
10035TIP3    H130048   4.775   5.727   0.242
10035TIP3    H230049   4.700   5.859   0.243
10036TIP3   OH230050   3.746   1.202   6.528
10036TIP3    H130051   3.728   1.228   6.438
10036TIP3    H230052   3.817   1.259   6.556
10037TIP3   OH230053   6.211   5.901   0.630
10037TIP3    H130054   6.138   5.895   0.691
10037TIP3    H230055   6.171   5.889   0.544
10038TIP3   OH230056   1.050   6.979   1.598
10038TIP3    H130057   1.075   6.899   1.645
10038TIP3    H230058   1.132   7.016   1.568
10039TIP3   OH230059   2.282   6.438   5.350
10039TIP3    H130060   2.321   6.511   5.398
10039TIP3    H230061   2.337   6.427   5.273
10040TIP3   OH230062   1.912   6.358   3.455
10040TIP3    H130063   2.004   6.375   3.432
10040TIP3    H230064   1.904   6.389   3.545
10041TIP3   OH230065   7.131   2.167   4.377
10041TIP3    H130066   7.193   2.235   4.402
10041TIP3    H230067   7.177   2.114   4.312
10042TIP3   OH230068   3.724   1.775   3.324
10042TIP3    H130069   3.774   1.699   3.354
10042TIP3    H230070   3.733   1.773   3.229
10043TIP3   OH230071   1.513   0.729   6.056
10043TIP3    H130072   1.574   0.684   6.114
10043TIP3    H230073   1.431   0.680   6.064
10044TIP3   OH230074   1.136   7.556   0.315
10044TIP3    H130075   1.111   7.464   0.306
10044TIP3    H230076   1.053   7.603   0.321
10045TIP3   OH230077   7.445   4.151   1.315
10045TIP3    H130078   7.484   4.207   1.248
10045TIP3    H230079   7.478   4.186   1.398
10046TIP3   OH230080   4.060   1.044   0.358
10046TIP3    H130081   4.080   1.008   0.272
10046TIP3    H230082   4.062   0.969   0.417
10047TIP3   OH230083   2.926   1.124   2.632
10047TIP3    H130084   2.944   1.171   2.713
10047TIP3    H230085   3.006   1.137   2.580
10048TIP3   OH230086   2.712   3.216   1.708
10048TIP3    H130087   2.797   3.235   1.669
10048TIP3    H230088   2.730   3.206   1.801
10049TIP3   OH230089   6.262   3.595   5.683
10049TIP3    H130090   6.230   3.517   5.729
10049TIP3    H230091   6.353   3.603   5.711
10050TIP3   OH230092   4.394   4.358   2.609
10050TIP3    H130093   4.384   4.403   2.693
10050TIP3    H230094   4.322   4.392   2.555
10051TIP3   OH230095   7.356   4.304   2.034
10051TIP3    H130096   7.445   4.327   2.062
10051TIP3    H230097   7.342   4.358   1.956
10052TIP3   OH230098   8.110   1.192   2.439
10052TIP3    H130099   8.177   1.156   2.380
10052TIP3    H230100   8.154   1.264   2.484
10053TIP3   OH230101   0.832   3.036   3.672
10053TIP3    H130102   0.878   2.967   3.625
10053TIP3    H230103   0.841   3.113   3.615
10054TIP3   OH230104   5.362   6.824   3.333
10054TIP3    H130105   5.439   6.783   3.293
10054TIP3    H230106   5.316   6.864   3.259
10055TIP3   OH230107   2.388   6.524   0.991
10055TIP3    H130108   2.429   6.461   1.051
10055TIP3    H230109   2.374   6.476   0.910
10056TIP3   OH230110   3.146   4.155   2.246
10056TIP3    H130111   3.224   4.100   2.236
10056TIP3    H230112   3.082   4.097   2.287
10057TIP3   OH230113   8.160   0.418   6.749
10057TIP3    H130114   8.205   0.401   6.667
10057TIP3    H230115   8.230   0.418   6.815
10058TIP3   OH230116   4.431   5.245   3.436
10058TIP3    H130117   4.448   5.316   3.373
10058TIP3    H230118   4.517   5.219   3.468
10059TIP3   OH230119   4.316   7.138   3.265
10059TIP3    H130120   4.225   7.168   3.260
10059TIP3    H230121   4.311   7.044   3.247
10060TIP3   OH230122   6.757   5.119   0.092
10060TIP3    H130123   6.694   5.093   0.159
10060TIP3    H230124   6.831   5.154   0.142
10061TIP3   OH230125   8.082   3.124   6.542
10061TIP3    H130126   8.002   3.175   6.529
10061TIP3    H230127   8.062   3.067   6.617
10062TIP3   OH230128   1.958   4.334   1.676
10062TIP3    H130129   1.923   4.256   1.718
10062TIP3    H230130   2.049   4.339   1.704
10063TIP3   OH230131   5.827   7.515   6.327
10063TIP3    H130132   5.921   7.504   6.338
10063TIP3    H230133   5.812   7.609   6.341
10064TIP3   OH230134   4.297   2.423   5.228
10064TIP3    H130135   4.287   2.367   5.306
10064TIP3    H230136   4.252   2.376   5.159
10065TIP3   OH230137   5.909   1.816   6.496
10065TIP3    H130138   5.945   1.728   6.506
10065TIP3    H230139   5.881   1.820   6.404
10066TIP3   OH230140   1.210   3.039   6.459
10066TIP3    H130141   1.168   2.958   6.428
10066TIP3    H230142   1.215   3.028   6.554
10067TIP3   OH230143   5.764   6.430   4.266
10067TIP3    H130144   5.843   6.460   4.220
10067TIP3    H230145   5.777   6.458   4.357
10068TIP3   OH230146   8.249   6.069   4.434
10068TIP3    H130147   8.177   6.111   4.388
10068TIP3    H230148   8.297   6.140   4.475
10069TIP3   OH230149   3.929   1.995   1.088
10069TIP3    H130150   3.907   1.909   1.124
10069TIP3    H230151   3.976   2.039   1.158
10070TIP3   OH230152   5.854   2.343   1.746
10070TIP3    H130153   5.949   2.347   1.759
10070TIP3    H230154   5.834   2.421   1.694
10071TIP3   OH230155   3.390   3.921   5.029
10071TIP3    H130156   3.307   3.947   4.990
10071TIP3    H230157   3.453   3.930   4.958
10072TIP3   OH230158   4.342   2.690   5.784
10072TIP3    H130159   4.432   2.662   5.796
10072TIP3    H230160   4.344   2.744   5.705
10073TIP3   OH230161   6.489   3.038   5.832
10073TIP3    H130162   6.511   2.953   5.870
10073TIP3    H230163   6.445   3.016   5.750
10074TIP3   OH230164   2.327   3.187   5.444
10074TIP3    H130165   2.360   3.102   5.417
10074TIP3    H230166   2.334   3.187   5.540
10075TIP3   OH230167   1.477   6.553   3.034
10075TIP3    H130168   1.488   6.528   2.942
10075TIP3    H230169   1.554   6.606   3.054
10076TIP3   OH230170   8.289   7.682   0.176
10076TIP3    H130171   8.233   7.688   0.099
10076TIP3    H230172   8.284   7.769   0.216
10077TIP3   OH230173   3.000   7.103   0.431
10077TIP3    H130174   2.976   7.091   0.339
10077TIP3    H230175   3.077   7.048   0.444
10078TIP3   OH230176   0.452   5.911   3.551
10078TIP3    H130177   0.483   5.971   3.483
10078TIP3    H230178   0.400   5.846   3.504
10079TIP3   OH230179   7.570   3.514   5.047
10079TIP3    H130180   7.555   3.434   5.097
10079TIP3    H230181   7.496   3.518   4.985
10080TIP3   OH230182   1.819   0.611   3.924
10080TIP3    H130183   1.745   0.673   3.920
10080TIP3    H230184   1.897   0.667   3.919
10081TIP3   OH230185   1.676   3.342   5.692
10081TIP3    H130186   1.670   3.437   5.684
10081TIP3    H230187   1.589   3.310   5.667
10082TIP3   OH230188   4.411   4.074   2.623
10082TIP3    H130189   4.407   4.100   2.715
10082TIP3    H230190   4.374   4.148   2.575
10083TIP3   OH230191   0.168   7.556   1.633
10083TIP3    H130192   0.194   7.477   1.680
10083TIP3    H230193   0.245   7.613   1.637
10084TIP3   OH230194   3.779   7.412   6.478
10084TIP3    H130195   3.747   7.471   6.547
10084TIP3    H230196   3.713   7.419   6.409
10085TIP3   OH230197   5.295   2.311   5.606
10085TIP3    H130198   5.231   2.381   5.595
10085TIP3    H230199   5.304   2.272   5.519
10086TIP3   OH230200   8.017   4.070   2.556
10086TIP3    H130201   7.938   4.124   2.545
10086TIP3    H230202   8.057   4.068   2.469
10087TIP3   OH230203   6.413   0.846   3.424
10087TIP3    H130204   6.479   0.912   3.445
10087TIP3    H230205   6.330   0.887   3.446
10088TIP3   OH230206   5.529   3.271   4.996
10088TIP3    H130207   5.543   3.364   5.015
10088TIP3    H230208   5.453   3.269   4.939
10089TIP3   OH230209   6.216   2.033   2.015
10089TIP3    H130210   6.282   2.077   2.068
10089TIP3    H230211   6.266   1.976   1.956
10090TIP3   OH230212   7.015   6.422   6.089
10090TIP3    H130213   7.028   6.385   6.002
10090TIP3    H230214   7.099   6.412   6.133
10091TIP3   OH230215   0.947   0.145   5.052
10091TIP3    H130216   1.008   0.115   5.120
10091TIP3    H230217   0.883   0.198   5.100
10092TIP3   OH230218   3.671   5.420   3.547
10092TIP3    H130219   3.638   5.507   3.522
10092TIP3    H230220   3.766   5.433   3.556
10093TIP3   OH230221   2.025   1.699   6.111
10093TIP3    H130222   2.034   1.787   6.075
10093TIP3    H230223   2.115   1.664   6.113
10094TIP3   OH230224   2.645   6.162   1.619
10094TIP3    H130225   2.609   6.250   1.606
10094TIP3    H230226   2.724   6.161   1.565
10095TIP3   OH230227   5.210   7.512   4.884
10095TIP3    H130228   5.126   7.495   4.841
10095TIP3    H230229   5.196   7.483   4.974
10096TIP3   OH230230   0.475   4.260   5.489
10096TIP3    H130231   0.552   4.261   5.546
10096TIP3    H230232   0.447   4.351   5.486
10097TIP3   OH230233   5.949   1.242   0.637
10097TIP3    H130234   5.984   1.281   0.556
10097TIP3    H230235   6.027   1.224   0.689
10098TIP3   OH230236   3.588   5.881   6.237
10098TIP3    H130237   3.507   5.927   6.258
10098TIP3    H230238   3.594   5.885   6.142
10099TIP3   OH230239   2.826   3.755   4.876
10099TIP3    H130240   2.916   3.738   4.851
10099TIP3    H230241   2.829   3.771   4.970
10100TIP3   OH230242   4.080   2.496   3.893
10100TIP3    H130243   3.991   2.530   3.900
10100TIP3    H230244   4.071   2.402   3.904
10101TIP3   OH230245   3.009   1.749   5.911
10101TIP3    H130246   3.087   1.693   5.911
10101TIP3    H230247   2.954   1.714   5.981
10102TIP3   OH230248   0.978   6.032   2.607
10102TIP3    H130249   1.000   6.009   2.698
10102TIP3    H230250   1.055   6.076   2.574
10103TIP3   OH230251   3.618   2.519   0.142
10103TIP3    H130252   3.596   2.608   0.168
10103TIP3    H230253   3.696   2.497   0.194
10104TIP3   OH230254   4.959   0.341   2.914
10104TIP3    H130255   5.029   0.379   2.968
10104TIP3    H230256   4.892   0.314   2.977
10105TIP3   OH230257   2.256   6.509   4.145
10105TIP3    H130258   2.207   6.590   4.158
10105TIP3    H230259   2.238   6.457   4.223
10106TIP3   OH230260   8.262   5.363   6.566
10106TIP3    H130261   8.255   5.274   6.531
10106TIP3    H230262   8.197   5.413   6.517
10107TIP3   OH230263   3.722   4.448   0.037
10107TIP3    H130264   3.777   4.501  -0.021
10107TIP3    H230265   3.766   4.364   0.042
10108TIP3   OH230266   1.360   2.617   3.060
10108TIP3    H130267   1.369   2.667   3.141
10108TIP3    H230268   1.310   2.674   3.001
10109TIP3   OH230269   8.203   1.560   5.486
10109TIP3    H130270   8.179   1.630   5.547
10109TIP3    H230271   8.261   1.603   5.423
10110TIP3   OH230272   0.088   4.381   4.839
10110TIP3    H130273   0.121   4.340   4.919
10110TIP3    H230274   0.047   4.462   4.868
10111TIP3   OH230275   7.679   1.119   6.015
10111TIP3    H130276   7.768   1.144   6.040
10111TIP3    H230277   7.678   1.024   6.020
10112TIP3   OH230278   3.056   3.689   1.775
10112TIP3    H130279   3.050   3.784   1.761
10112TIP3    H230280   3.145   3.675   1.806
10113TIP3   OH230281   5.933   1.691   5.128
10113TIP3    H130282   5.936   1.728   5.216
10113TIP3    H230283   5.865   1.741   5.083
10114TIP3   OH230284   5.065   0.671   0.253
10114TIP3    H130285   5.134   0.698   0.314
10114TIP3    H230286   4.993   0.643   0.310
10115TIP3   OH230287   6.788   7.736   4.014
10115TIP3    H130288   6.754   7.648   4.028
10115TIP3    H230289   6.724   7.793   4.057
10116TIP3   OH230290   5.736   2.302   5.697
10116TIP3    H130291   5.775   2.293   5.610
10116TIP3    H230292   5.645   2.274   5.685
10117TIP3   OH230293   3.369   0.500   0.978
10117TIP3    H130294   3.459   0.473   0.995
10117TIP3    H230295   3.376   0.591   0.948
10118TIP3   OH230296   7.533   1.666   6.121
10118TIP3    H130297   7.523   1.653   6.027
10118TIP3    H230298   7.504   1.584   6.160
10119TIP3   OH230299   3.652   3.759   2.953
10119TIP3    H130300   3.735   3.772   2.907
10119TIP3    H230301   3.609   3.845   2.949
10120TIP3   OH230302   8.211   1.927   6.044
10120TIP3    H130303   8.156   1.993   6.003
10120TIP3    H230304   8.249   1.970   6.121
10121TIP3   OH230305   7.863   0.992   5.741
10121TIP3    H130306   7.898   1.081   5.729
10121TIP3    H230307   7.925   0.950   5.801
10122TIP3   OH230308   3.023   2.488   2.524
10122TIP3    H130309   3.107   2.518   2.559
10122TIP3    H230310   2.960   2.554   2.552
10123TIP3   OH230311   4.968   1.289   4.291
10123TIP3    H130312   5.019   1.370   4.294
10123TIP3    H230313   4.940   1.282   4.199
10124TIP3   OH230314   3.634   5.627   4.770
10124TIP3    H130315   3.622   5.612   4.676
10124TIP3    H230316   3.626   5.540   4.810
10125TIP3   OH230317   3.402   2.768   4.764
10125TIP3    H130318   3.310   2.750   4.749
10125TIP3    H230319   3.422   2.841   4.706
10126TIP3   OH230320   0.518   1.397   5.742
10126TIP3    H130321   0.513   1.484   5.704
10126TIP3    H230322   0.453   1.345   5.694
10127TIP3   OH230323   6.476   4.639   2.626
10127TIP3    H130324   6.525   4.717   2.598
10127TIP3    H230325   6.392   4.673   2.656
10128TIP3   OH230326   2.909   2.450   0.113
10128TIP3    H130327   2.874   2.481   0.029
10128TIP3    H230328   2.999   2.484   0.114
10129TIP3   OH230329   1.651   2.371   3.762
10129TIP3    H130330   1.618   2.324   3.838
10129TIP3    H230331   1.588   2.442   3.748
10130TIP3   OH230332   1.112   4.876   0.557
10130TIP3    H130333   1.176   4.838   0.617
10130TIP3    H230334   1.050   4.804   0.540
10131TIP3   OH230335   0.744   4.560   6.327
10131TIP3    H130336   0.658   4.603   6.327
10131TIP3    H230337   0.791   4.604   6.397
10132TIP3   OH230338   8.224   6.830   0.260
10132TIP3    H130339   8.305   6.836   0.311
10132TIP3    H230340   8.167   6.896   0.298
10133TIP3   OH230341   4.818   4.048   2.781
10133TIP3    H130342   4.744   4.108   2.774
10133TIP3    H230343   4.827   4.012   2.693
10134TIP3   OH230344   5.947   6.264   6.623
10134TIP3    H130345   5.893   6.322   6.569
10134TIP3    H230346   6.030   6.311   6.632
10135TIP3   OH230347   7.516   6.377   4.410
10135TIP3    H130348   7.600   6.344   4.378
10135TIP3    H230349   7.454   6.353   4.341
10136TIP3   OH230350   0.819   6.460   3.631
10136TIP3    H130351   0.853   6.409   3.558
10136TIP3    H230352   0.729   6.430   3.643
10137TIP3   OH230353   1.466   4.110   5.983
10137TIP3    H130354   1.487   4.052   6.056
10137TIP3    H230355   1.435   4.190   6.024
10138TIP3   OH230356   0.737   4.256   5.649
10138TIP3    H130357   0.780   4.339   5.669
10138TIP3    H230358   0.781   4.192   5.705
10139TIP3   OH230359   4.751   6.705   6.228
10139TIP3    H130360   4.738   6.797   6.208
10139TIP3    H230361   4.789   6.704   6.316
10140TIP3   OH230362   7.083   7.765   3.321
10140TIP3    H130363   6.996   7.726   3.321
10140TIP3    H230364   7.136   7.705   3.268
10141TIP3   OH230365   6.101   1.497   3.238
10141TIP3    H130366   6.030   1.536   3.189
10141TIP3    H230367   6.173   1.560   3.231
10142TIP3   OH230368   4.800   3.194   1.940
10142TIP3    H130369   4.882   3.159   1.976
10142TIP3    H230370   4.743   3.204   2.016
10143TIP3   OH230371   3.464   3.669   5.089
10143TIP3    H130372   3.371   3.649   5.099
10143TIP3    H230373   3.466   3.762   5.065
10144TIP3   OH230374   7.823   1.994   2.408
10144TIP3    H130375   7.776   1.965   2.487
10144TIP3    H230376   7.849   2.084   2.427
10145TIP3   OH230377   3.361   0.453   4.079
10145TIP3    H130378   3.343   0.547   4.077
10145TIP3    H230379   3.276   0.412   4.093
10146TIP3   OH230380   6.225   5.053   2.379
10146TIP3    H130381   6.264   5.101   2.452
10146TIP3    H230382   6.287   5.065   2.307
10147TIP3   OH230383   5.925   3.292   2.409
10147TIP3    H130384   5.905   3.229   2.478
10147TIP3    H230385   6.001   3.255   2.364
10148TIP3   OH230386   7.622   3.090   6.760
10148TIP3    H130387   7.632   3.032   6.684
10148TIP3    H230388   7.701   3.076   6.812
10149TIP3   OH230389   0.306   1.253   4.234
10149TIP3    H130390   0.256   1.172   4.222
10149TIP3    H230391   0.360   1.237   4.311
10150TIP3   OH230392   2.892   3.282   4.882
10150TIP3    H130393   2.923   3.191   4.878
10150TIP3    H230394   2.958   3.331   4.833
10151TIP3   OH230395   7.828   5.546   1.847
10151TIP3    H130396   7.799   5.636   1.863
10151TIP3    H230397   7.826   5.537   1.752
10152TIP3   OH230398   1.108   5.862   3.750
10152TIP3    H130399   1.068   5.941   3.786
10152TIP3    H230400   1.175   5.838   3.815
10153TIP3   OH230401   6.140   4.898   1.600
10153TIP3    H130402   6.175   4.811   1.580
10153TIP3    H230403   6.045   4.887   1.600
10154TIP3   OH230404   2.332   2.702   0.985
10154TIP3    H130405   2.396   2.772   0.970
10154TIP3    H230406   2.342   2.679   1.077
10155TIP3   OH230407   2.824   0.349   4.990
10155TIP3    H130408   2.905   0.349   4.939
10155TIP3    H230409   2.766   0.407   4.942
10156TIP3   OH230410   2.468   1.158   4.565
10156TIP3    H130411   2.538   1.106   4.606
10156TIP3    H230412   2.432   1.211   4.637
10157TIP3   OH230413   6.927   4.947   1.268
10157TIP3    H130414   7.013   4.908   1.253
10157TIP3    H230415   6.905   4.990   1.186
10158TIP3   OH230416   1.418   5.774   0.165
10158TIP3    H130417   1.369   5.706   0.119
10158TIP3    H230418   1.456   5.828   0.096
10159TIP3   OH230419   5.744   2.237   2.155
10159TIP3    H130420   5.785   2.315   2.193
10159TIP3    H230421   5.814   2.173   2.150
10160TIP3   OH230422   2.878   7.299   2.801
10160TIP3    H130423   2.967   7.266   2.818
10160TIP3    H230424   2.878   7.322   2.709
10161TIP3   OH230425   8.041   3.427   3.369
10161TIP3    H130426   8.125   3.383   3.355
10161TIP3    H230427   7.999   3.377   3.438
10162TIP3   OH230428   0.319   7.666   0.323
10162TIP3    H130429   0.370   7.667   0.404
10162TIP3    H230430   0.293   7.757   0.309
10163TIP3   OH230431   2.026   5.633   0.633
10163TIP3    H130432   2.077   5.552   0.636
10163TIP3    H230433   2.015   5.658   0.725
10164TIP3   OH230434   4.933   6.251   2.529
10164TIP3    H130435   4.842   6.272   2.550
10164TIP3    H230436   4.931   6.161   2.497
10165TIP3   OH230437   3.833   7.125   6.502
10165TIP3    H130438   3.840   7.218   6.480
10165TIP3    H230439   3.793   7.085   6.425
10166TIP3   OH230440   2.932   3.339   2.683
10166TIP3    H130441   3.025   3.357   2.672
10166TIP3    H230442   2.888   3.395   2.619
10167TIP3   OH230443   4.677   0.894   3.146
10167TIP3    H130444   4.684   0.914   3.053
10167TIP3    H230445   4.701   0.975   3.191
10168TIP3   OH230446   1.841   1.008   6.434
10168TIP3    H130447   1.807   1.095   6.458
10168TIP3    H230448   1.930   1.025   6.403
10169TIP3   OH230449   5.803   4.583   4.137
10169TIP3    H130450   5.892   4.617   4.134
10169TIP3    H230451   5.810   4.501   4.186
10170TIP3   OH230452   5.681   2.219   4.958
10170TIP3    H130453   5.591   2.186   4.954
10170TIP3    H230454   5.700   2.247   4.868
10171TIP3   OH230455   3.785   2.813   5.738
10171TIP3    H130456   3.872   2.780   5.760
10171TIP3    H230457   3.740   2.820   5.822
10172TIP3   OH230458   3.666   2.314   0.994
10172TIP3    H130459   3.700   2.345   1.078
10172TIP3    H230460   3.681   2.387   0.933
10173TIP3   OH230461   6.450   7.407   4.335
10173TIP3    H130462   6.516   7.370   4.394
10173TIP3    H230463   6.384   7.338   4.329
10174TIP3   OH230464   5.388   7.638   0.046
10174TIP3    H130465   5.294   7.645   0.029
10174TIP3    H230466   5.413   7.723   0.082
10175TIP3   OH230467   5.082   2.837   2.569
10175TIP3    H130468   5.070   2.889   2.648
10175TIP3    H230469   4.994   2.806   2.546
10176TIP3   OH230470   7.648   6.111   2.110
10176TIP3    H130471   7.692   6.050   2.169
10176TIP3    H230472   7.719   6.155   2.063
10177TIP3   OH230473   1.956   2.067   1.945
10177TIP3    H130474   2.027   2.125   1.919
10177TIP3    H230475   1.959   2.067   2.041
10178TIP3   OH230476   4.534   2.797   3.420
10178TIP3    H130477   4.616   2.827   3.382
10178TIP3    H230478   4.511   2.863   3.485
10179TIP3   OH230479   6.586   6.782   0.468
10179TIP3    H130480   6.623   6.839   0.400
10179TIP3    H230481   6.514   6.834   0.505
10180TIP3   OH230482   3.473   4.849   2.950
10180TIP3    H130483   3.452   4.897   3.031
10180TIP3    H230484   3.539   4.902   2.907
10181TIP3   OH230485   0.533   4.849   1.620
10181TIP3    H130486   0.571   4.936   1.635
10181TIP3    H230487   0.469   4.838   1.691
10182TIP3   OH230488   4.529   7.249   3.158
10182TIP3    H130489   4.453   7.211   3.202
10182TIP3    H230490   4.565   7.178   3.105
10183TIP3   OH230491   5.486   1.377   5.737
10183TIP3    H130492   5.551   1.315   5.770
10183TIP3    H230493   5.401   1.338   5.760
10184TIP3   OH230494   4.034   6.903  -0.011
10184TIP3    H130495   3.938   6.902  -0.005
10184TIP3    H230496   4.060   6.977   0.045
10185TIP3   OH230497   1.224   7.227   4.059
10185TIP3    H130498   1.305   7.179   4.041
10185TIP3    H230499   1.154   7.167   4.032
10186TIP3   OH230500   2.704   4.729   6.583
10186TIP3    H130501   2.635   4.664   6.572
10186TIP3    H230502   2.784   4.678   6.592
10187TIP3   OH230503   2.163   2.267   1.011
10187TIP3    H130504   2.136   2.186   1.054
10187TIP3    H230505   2.081   2.315   0.999
10188TIP3   OH230506   2.262   5.426   4.729
10188TIP3    H130507   2.199   5.455   4.795
10188TIP3    H230508   2.287   5.338   4.757
10189TIP3   OH230509   6.419   2.458   6.677
10189TIP3    H130510   6.407   2.464   6.582
10189TIP3    H230511   6.511   2.438   6.688
10190TIP3   OH230512   4.575   3.854   5.122
10190TIP3    H130513   4.643   3.893   5.176
10190TIP3    H230514   4.513   3.925   5.107
10191TIP3   OH230515   0.245   4.810   2.120
10191TIP3    H130516   0.159   4.779   2.151
10191TIP3    H230517   0.305   4.738   2.141
10192TIP3   OH230518   2.975   7.754   4.689
10192TIP3    H130519   2.944   7.670   4.655
10192TIP3    H230520   2.970   7.813   4.614
10193TIP3   OH230521   5.700   2.430   3.570
10193TIP3    H130522   5.720   2.344   3.606
10193TIP3    H230523   5.618   2.456   3.613
10194TIP3   OH230524   4.519   3.650   4.054
10194TIP3    H130525   4.497   3.734   4.095
10194TIP3    H230526   4.458   3.641   3.982
10195TIP3   OH230527   3.768   2.288   1.769
10195TIP3    H130528   3.678   2.277   1.739
10195TIP3    H230529   3.808   2.347   1.705
10196TIP3   OH230530   6.997   4.310   2.505
10196TIP3    H130531   6.950   4.372   2.449
10196TIP3    H230532   6.953   4.227   2.491
10197TIP3   OH230533   2.669   0.921   1.519
10197TIP3    H130534   2.674   1.014   1.497
10197TIP3    H230535   2.742   0.881   1.471
10198TIP3   OH230536   0.294   6.583   0.474
10198TIP3    H130537   0.320   6.575   0.382
10198TIP3    H230538   0.342   6.660   0.505
10199TIP3   OH230539   6.862   0.587   4.772
10199TIP3    H130540   6.925   0.649   4.810
10199TIP3    H230541   6.786   0.640   4.751
10200TIP3   OH230542   6.368   4.385   2.103
10200TIP3    H130543   6.392   4.295   2.125
10200TIP3    H230544   6.436   4.438   2.146
10201TIP3   OH230545   2.326   7.766   0.179
10201TIP3    H130546   2.369   7.772   0.265
10201TIP3    H230547   2.277   7.847   0.171
10202TIP3   OH230548   2.794   3.559   3.729
10202TIP3    H130549   2.764   3.539   3.818
10202TIP3    H230550   2.779   3.653   3.720
10203TIP3   OH230551   0.861   4.793   2.749
10203TIP3    H130552   0.861   4.711   2.798
10203TIP3    H230553   0.864   4.766   2.657
10204TIP3   OH230554   0.617   2.516   5.786
10204TIP3    H130555   0.530   2.540   5.753
10204TIP3    H230556   0.666   2.598   5.786
10205TIP3   OH230557   1.571   7.582   4.686
10205TIP3    H130558   1.577   7.542   4.773
10205TIP3    H230559   1.553   7.674   4.703
10206TIP3   OH230560   6.936   6.158   5.065
10206TIP3    H130561   6.916   6.065   5.081
10206TIP3    H230562   6.899   6.176   4.979
10207TIP3   OH230563   1.651   2.413   4.384
10207TIP3    H130564   1.699   2.345   4.430
10207TIP3    H230565   1.713   2.486   4.377
10208TIP3   OH230566   4.579   0.172   1.310
10208TIP3    H130567   4.631   0.237   1.357
10208TIP3    H230568   4.591   0.193   1.218
10209TIP3   OH230569   3.400   5.776   1.380
10209TIP3    H130570   3.467   5.841   1.357
10209TIP3    H230571   3.393   5.720   1.303
10210TIP3   OH230572   1.111   4.734   3.689
10210TIP3    H130573   1.079   4.710   3.776
10210TIP3    H230574   1.032   4.740   3.635
10211TIP3   OH230575   1.206   3.240   4.119
10211TIP3    H130576   1.198   3.212   4.210
10211TIP3    H230577   1.197   3.335   4.121
10212TIP3   OH230578   4.762   5.631   3.823
10212TIP3    H130579   4.834   5.692   3.809
10212TIP3    H230580   4.684   5.687   3.828
10213TIP3   OH230581   2.282   3.819   0.929
10213TIP3    H130582   2.294   3.757   1.001
10213TIP3    H230583   2.335   3.784   0.858
10214TIP3   OH230584   0.919   3.557   6.336
10214TIP3    H130585   1.013   3.575   6.328
10214TIP3    H230586   0.906   3.475   6.289
10215TIP3   OH230587   5.792   1.222   2.995
10215TIP3    H130588   5.875   1.254   3.031
10215TIP3    H230589   5.784   1.133   3.030
10216TIP3   OH230590   2.285   1.690   3.120
10216TIP3    H130591   2.351   1.758   3.136
10216TIP3    H230592   2.307   1.655   3.034
10217TIP3   OH230593   1.921   0.863   5.636
10217TIP3    H130594   2.001   0.913   5.653
10217TIP3    H230595   1.947   0.772   5.645
10218TIP3   OH230596   3.937   1.986   4.357
10218TIP3    H130597   3.855   1.995   4.405
10218TIP3    H230598   3.911   1.964   4.268
10219TIP3   OH230599   3.641   4.797   6.644
10219TIP3    H130600   3.601   4.804   6.557
10219TIP3    H230601   3.605   4.716   6.680
10220TIP3   OH230602   2.025   7.613   1.218
10220TIP3    H130603   1.937   7.644   1.243
10220TIP3    H230604   2.028   7.625   1.123
10221TIP3   OH230605   4.426   5.155   6.261
10221TIP3    H130606   4.379   5.102   6.197
10221TIP3    H230607   4.446   5.094   6.332
10222TIP3   OH230608   3.442   2.276   0.442
10222TIP3    H130609   3.445   2.299   0.349
10222TIP3    H230610   3.436   2.181   0.442
10223TIP3   OH230611   2.452   5.366   1.393
10223TIP3    H130612   2.460   5.436   1.458
10223TIP3    H230613   2.379   5.313   1.424
10224TIP3   OH230614   4.319   1.815   3.603
10224TIP3    H130615   4.286   1.904   3.586
10224TIP3    H230616   4.278   1.789   3.685
10225TIP3   OH230617   0.222   6.799   4.772
10225TIP3    H130618   0.214   6.710   4.737
10225TIP3    H230619   0.271   6.789   4.853
10226TIP3   OH230620   6.893   3.748   4.097
10226TIP3    H130621   6.925   3.683   4.035
10226TIP3    H230622   6.828   3.701   4.149
10227TIP3   OH230623   2.425   2.787   5.660
10227TIP3    H130624   2.428   2.701   5.701
10227TIP3    H230625   2.400   2.847   5.730
10228TIP3   OH230626   4.574   4.854   2.663
10228TIP3    H130627   4.652   4.823   2.616
10228TIP3    H230628   4.525   4.904   2.599
10229TIP3   OH230629   5.239   2.698   2.850
10229TIP3    H130630   5.178   2.628   2.827
10229TIP3    H230631   5.321   2.673   2.807
10230TIP3   OH230632   5.414   1.841   1.898
10230TIP3    H130633   5.407   1.894   1.977
10230TIP3    H230634   5.402   1.903   1.826
10231TIP3   OH230635   6.376   5.884   0.885
10231TIP3    H130636   6.441   5.816   0.866
10231TIP3    H230637   6.323   5.890   0.806
10232TIP3   OH230638   1.663   6.447   0.843
10232TIP3    H130639   1.588   6.505   0.825
10232TIP3    H230640   1.681   6.460   0.935
10233TIP3   OH230641   5.796   6.251   3.666
10233TIP3    H130642   5.777   6.157   3.656
10233TIP3    H230643   5.857   6.254   3.740
10234TIP3   OH230644   6.703   5.973   5.897
10234TIP3    H130645   6.680   5.891   5.941
10234TIP3    H230646   6.723   6.034   5.968
10235TIP3   OH230647   1.895   4.701   0.795
10235TIP3    H130648   1.959   4.643   0.754
10235TIP3    H230649   1.908   4.785   0.751
10236TIP3   OH230650   8.072   0.500   3.622
10236TIP3    H130651   8.042   0.476   3.534
10236TIP3    H230652   8.060   0.595   3.626
10237TIP3   OH230653   6.371   0.347   4.207
10237TIP3    H130654   6.312   0.285   4.250
10237TIP3    H230655   6.457   0.307   4.212
10238TIP3   OH230656   3.351   3.182   0.613
10238TIP3    H130657   3.444   3.183   0.594
10238TIP3    H230658   3.342   3.123   0.689
10239TIP3   OH230659   2.277   1.828   6.351
10239TIP3    H130660   2.229   1.901   6.391
10239TIP3    H230661   2.327   1.790   6.423
10240TIP3   OH230662   1.866   3.602   3.303
10240TIP3    H130663   1.827   3.609   3.391
10240TIP3    H230664   1.950   3.558   3.317
10241TIP3   OH230665   2.008   3.798   2.085
10241TIP3    H130666   1.977   3.887   2.105
10241TIP3    H230667   1.986   3.786   1.993
10242TIP3   OH230668   2.856   1.032   2.943
10242TIP3    H130669   2.788   1.058   3.004
10242TIP3    H230670   2.925   1.096   2.955
10243TIP3   OH230671   0.573   7.480   0.090
10243TIP3    H130672   0.658   7.520   0.071
10243TIP3    H230673   0.523   7.548   0.136
10244TIP3   OH230674   3.580   2.896   2.482
10244TIP3    H130675   3.664   2.863   2.451
10244TIP3    H230676   3.519   2.823   2.470
10245TIP3   OH230677   1.211   0.682   1.364
10245TIP3    H130678   1.158   0.605   1.389
10245TIP3    H230679   1.281   0.685   1.429
10246TIP3   OH230680   8.134   0.050   4.325
10246TIP3    H130681   8.155   0.033   4.233
10246TIP3    H230682   8.211   0.022   4.373
10247TIP3   OH230683   5.916   0.508   4.387
10247TIP3    H130684   5.897   0.571   4.319
10247TIP3    H230685   6.011   0.509   4.396
10248TIP3   OH230686   3.627   2.587   6.322
10248TIP3    H130687   3.659   2.557   6.237
10248TIP3    H230688   3.541   2.545   6.331
10249TIP3   OH230689   7.584   0.868   4.758
10249TIP3    H130690   7.665   0.827   4.727
10249TIP3    H230691   7.607   0.961   4.769
10250TIP3   OH230692   4.190   5.143   0.263
10250TIP3    H130693   4.150   5.107   0.184
10250TIP3    H230694   4.276   5.174   0.235
10251TIP3   OH230695   7.550   7.294   1.480
10251TIP3    H130696   7.577   7.228   1.544
10251TIP3    H230697   7.632   7.322   1.439
10252TIP3   OH230698   8.239   0.469   5.239
10252TIP3    H130699   8.256   0.418   5.318
10252TIP3    H230700   8.275   0.556   5.257
10253TIP3   OH230701   2.697   4.052   5.840
10253TIP3    H130702   2.647   4.107   5.900
10253TIP3    H230703   2.632   4.019   5.778
10254TIP3   OH230704   3.756   1.629   0.327
10254TIP3    H130705   3.851   1.627   0.316
10254TIP3    H230706   3.732   1.537   0.336
10255TIP3   OH230707   4.213   3.817   2.846
10255TIP3    H130708   4.146   3.873   2.807
10255TIP3    H230709   4.208   3.836   2.940
10256TIP3   OH230710   2.144   0.719   5.332
10256TIP3    H130711   2.111   0.797   5.288
10256TIP3    H230712   2.150   0.653   5.262
10257TIP3   OH230713   2.979   5.508   0.469
10257TIP3    H130714   2.920   5.435   0.452
10257TIP3    H230715   3.036   5.512   0.393
10258TIP3   OH230716   4.462   5.205   0.200
10258TIP3    H130717   4.461   5.222   0.106
10258TIP3    H230718   4.552   5.220   0.227
10259TIP3   OH230719   7.332   2.583   0.673
10259TIP3    H130720   7.363   2.663   0.631
10259TIP3    H230721   7.367   2.586   0.761
10260TIP3   OH230722   3.558   5.847   2.022
10260TIP3    H130723   3.542   5.942   2.015
10260TIP3    H230724   3.472   5.810   2.046
10261TIP3   OH230725   6.892   0.519   1.359
10261TIP3    H130726   6.819   0.531   1.420
10261TIP3    H230727   6.878   0.432   1.322
10262TIP3   OH230728   5.174   3.105   2.999
10262TIP3    H130729   5.220   3.058   2.929
10262TIP3    H230730   5.244   3.140   3.054
10263TIP3   OH230731   0.909   4.148   0.655
10263TIP3    H130732   0.977   4.088   0.685
10263TIP3    H230733   0.826   4.104   0.675
10264TIP3   OH230734   1.926   3.986   5.157
10264TIP3    H130735   1.915   3.952   5.068
10264TIP3    H230736   1.973   4.069   5.145
10265TIP3   OH230737   5.002   7.771   2.024
10265TIP3    H130738   4.993   7.768   2.120
10265TIP3    H230739   5.030   7.683   2.000
10266TIP3   OH230740   7.324   0.956   3.789
10266TIP3    H130741   7.406   0.967   3.741
10266TIP3    H230742   7.257   0.954   3.721
10267TIP3   OH230743   6.606   5.737   0.361
10267TIP3    H130744   6.651   5.653   0.349
10267TIP3    H230745   6.631   5.788   0.284
10268TIP3   OH230746   7.029   4.002   5.148
10268TIP3    H130747   7.060   3.985   5.237
10268TIP3    H230748   6.944   4.044   5.159
10269TIP3   OH230749   0.369   1.400   3.185
10269TIP3    H130750   0.401   1.457   3.115
10269TIP3    H230751   0.387   1.311   3.153
10270TIP3   OH230752   3.828   5.119   4.668
10270TIP3    H130753   3.917   5.084   4.670
10270TIP3    H230754   3.783   5.073   4.738
10271TIP3   OH230755   1.349   4.133   1.326
10271TIP3    H130756   1.396   4.210   1.294
10271TIP3    H230757   1.257   4.155   1.315
10272TIP3   OH230758   2.183   2.474   1.626
10272TIP3    H130759   2.137   2.529   1.562
10272TIP3    H230760   2.275   2.475   1.597
10273TIP3   OH230761   1.600   0.337   1.441
10273TIP3    H130762   1.613   0.348   1.535
10273TIP3    H230763   1.505   0.336   1.430
10274TIP3   OH230764   4.163   7.532   3.171
10274TIP3    H130765   4.157   7.453   3.117
10274TIP3    H230766   4.237   7.581   3.133
10275TIP3   OH230767   1.841   0.986   0.903
10275TIP3    H130768   1.881   0.912   0.857
10275TIP3    H230769   1.902   1.005   0.975
10276TIP3   OH230770   4.834   3.939   5.212
10276TIP3    H130771   4.788   3.982   5.285
10276TIP3    H230772   4.908   3.996   5.193
10277TIP3   OH230773   5.581   4.650   0.130
10277TIP3    H130774   5.648   4.715   0.152
10277TIP3    H230775   5.556   4.671   0.040
10278TIP3   OH230776   6.720   1.317   1.220
10278TIP3    H130777   6.772   1.352   1.148
10278TIP3    H230778   6.784   1.286   1.284
10279TIP3   OH230779   3.485   3.369   0.400
10279TIP3    H130780   3.552   3.436   0.417
10279TIP3    H230781   3.501   3.341   0.310
10280TIP3   OH230782   3.332   6.949   5.245
10280TIP3    H130783   3.413   6.910   5.280
10280TIP3    H230784   3.272   6.949   5.319
10281TIP3   OH230785   2.020   4.305   6.622
10281TIP3    H130786   1.939   4.274   6.664
10281TIP3    H230787   2.027   4.396   6.650
10282TIP3   OH230788   2.787   0.361   5.322
10282TIP3    H130789   2.758   0.288   5.267
10282TIP3    H230790   2.840   0.415   5.263
10283TIP3   OH230791   1.793   4.846  -0.008
10283TIP3    H130792   1.861   4.912   0.001
10283TIP3    H230793   1.726   4.871   0.056
10284TIP3   OH230794   5.310   1.498   1.122
10284TIP3    H130795   5.395   1.487   1.165
10284TIP3    H230796   5.330   1.548   1.043
10285TIP3   OH230797   3.342   3.934   0.325
10285TIP3    H130798   3.259   3.950   0.281
10285TIP3    H230799   3.408   3.943   0.256
10286TIP3   OH230800   7.083   2.235   6.453
10286TIP3    H130801   7.089   2.255   6.546
10286TIP3    H230802   7.172   2.207   6.429
10287TIP3   OH230803   0.181   4.162   2.051
10287TIP3    H130804   0.131   4.206   1.982
10287TIP3    H230805   0.265   4.209   2.054
10288TIP3   OH230806   2.450   1.062   1.040
10288TIP3    H130807   2.490   0.996   1.096
10288TIP3    H230808   2.518   1.083   0.975
10289TIP3   OH230809   2.380   6.686   5.435
10289TIP3    H130810   2.431   6.746   5.491
10289TIP3    H230811   2.431   6.680   5.354
10290TIP3   OH230812   1.878   1.726   1.572
10290TIP3    H130813   1.869   1.732   1.667
10290TIP3    H230814   1.884   1.817   1.542
10291TIP3   OH230815   4.877   1.268   0.299
10291TIP3    H130816   4.924   1.231   0.373
10291TIP3    H230817   4.925   1.237   0.222
10292TIP3   OH230818   2.154   6.901   4.488
10292TIP3    H130819   2.215   6.915   4.561
10292TIP3    H230820   2.195   6.830   4.437
10293TIP3   OH230821   4.650   1.226   5.662
10293TIP3    H130822   4.601   1.308   5.675
10293TIP3    H230823   4.731   1.254   5.620
10294TIP3   OH230824   8.054   2.576   4.392
10294TIP3    H130825   8.107   2.574   4.472
10294TIP3    H230826   7.964   2.565   4.423
10295TIP3   OH230827   7.678   4.405   0.990
10295TIP3    H130828   7.589   4.383   0.961
10295TIP3    H230829   7.706   4.329   1.040
10296TIP3   OH230830   4.745   4.570   6.090
10296TIP3    H130831   4.757   4.477   6.106
10296TIP3    H230832   4.830   4.609   6.107
10297TIP3   OH230833   5.260   4.015   0.266
10297TIP3    H130834   5.217   3.978   0.343
10297TIP3    H230835   5.195   4.075   0.229
10298TIP3   OH230836   0.895   5.616   5.951
10298TIP3    H130837   0.989   5.611   5.968
10298TIP3    H230838   0.866   5.692   6.001
10299TIP3   OH230839   7.846   5.469   2.595
10299TIP3    H130840   7.825   5.390   2.644
10299TIP3    H230841   7.879   5.530   2.660
10300TIP3   OH230842   1.705   1.954   5.374
10300TIP3    H130843   1.689   1.875   5.323
10300TIP3    H230844   1.798   1.971   5.361
10301TIP3   OH230845   2.683   5.826   5.153
10301TIP3    H130846   2.694   5.862   5.065
10301TIP3    H230847   2.649   5.899   5.205
10302TIP3   OH230848   0.421   0.210   2.087
10302TIP3    H130849   0.451   0.146   2.022
10302TIP3    H230850   0.328   0.221   2.068
10303TIP3   OH230851   3.479   6.071   5.738
10303TIP3    H130852   3.394   6.042   5.706
10303TIP3    H230853   3.458   6.135   5.806
10304TIP3   OH230854   5.878   3.705   4.901
10304TIP3    H130855   5.890   3.681   4.809
10304TIP3    H230856   5.883   3.621   4.948
10305TIP3   OH230857   2.101   4.997   2.970
10305TIP3    H130858   2.091   5.070   2.909
10305TIP3    H230859   2.194   4.977   2.969
10306TIP3   OH230860   1.932   7.330   0.572
10306TIP3    H130861   1.863   7.370   0.518
10306TIP3    H230862   1.993   7.293   0.508
10307TIP3   OH230863   2.798   1.003   5.089
10307TIP3    H130864   2.814   0.993   4.995
10307TIP3    H230865   2.884   0.996   5.129
10308TIP3   OH230866   1.887   7.199   1.939
10308TIP3    H130867   1.928   7.197   1.852
10308TIP3    H230868   1.817   7.134   1.934
10309TIP3   OH230869   7.875   4.595   0.566
10309TIP3    H130870   7.952   4.561   0.520
10309TIP3    H230871   7.868   4.686   0.535
10310TIP3   OH230872   3.067   6.045   5.425
10310TIP3    H130873   3.004   5.982   5.390
10310TIP3    H230874   3.014   6.120   5.451
10311TIP3   OH230875   1.397   7.619   6.308
10311TIP3    H130876   1.449   7.633   6.229
10311TIP3    H230877   1.456   7.640   6.380
10312TIP3   OH230878   6.347   0.694   4.100
10312TIP3    H130879   6.298   0.654   4.028
10312TIP3    H230880   6.345   0.628   4.170
10313TIP3   OH230881   3.206   6.645   2.279
10313TIP3    H130882   3.113   6.652   2.254
10313TIP3    H230883   3.212   6.564   2.328
10314TIP3   OH230884   3.808   7.760   3.670
10314TIP3    H130885   3.813   7.847   3.709
10314TIP3    H230886   3.898   7.737   3.650
10315TIP3   OH230887   1.645   0.670   0.261
10315TIP3    H130888   1.626   0.755   0.300
10315TIP3    H230889   1.740   0.668   0.251
10316TIP3   OH230890   2.268   3.687   4.080
10316TIP3    H130891   2.362   3.670   4.071
10316TIP3    H230892   2.248   3.661   4.170
10317TIP3   OH230893   3.360   2.911   2.240
10317TIP3    H130894   3.442   2.894   2.194
10317TIP3    H230895   3.356   3.006   2.248
10318TIP3   OH230896   4.007   0.466   3.703
10318TIP3    H130897   3.922   0.502   3.680
10318TIP3    H230898   4.014   0.478   3.798
10319TIP3   OH230899   0.650   4.060   0.544
10319TIP3    H130900   0.669   3.974   0.505
10319TIP3    H230901   0.574   4.092   0.496
10320TIP3   OH230902   5.575  -0.013   5.156
10320TIP3    H130903   5.662   0.026   5.166
10320TIP3    H230904   5.517   0.062   5.142
10321TIP3   OH230905   6.192   6.295   5.666
10321TIP3    H130906   6.231   6.339   5.742
10321TIP3    H230907   6.244   6.325   5.592
10322TIP3   OH230908   2.320   1.878   2.014
10322TIP3    H130909   2.401   1.922   2.037
10322TIP3    H230910   2.317   1.799   2.068
10323TIP3   OH230911   8.304   7.760   1.972
10323TIP3    H130912   8.248   7.738   1.898
10323TIP3    H230913   8.270   7.844   2.004
10324TIP3   OH230914   1.323   6.311   1.838
10324TIP3    H130915   1.400   6.281   1.789
10324TIP3    H230916   1.352   6.390   1.884
10325TIP3   OH230917   0.220   5.847   6.349
10325TIP3    H130918   0.134   5.821   6.383
10325TIP3    H230919   0.231   5.794   6.269
10326TIP3   OH230920   1.533   1.094   1.123
10326TIP3    H130921   1.478   1.159   1.166
10326TIP3    H230922   1.481   1.063   1.049
10327TIP3   OH230923   1.446   6.918   1.833
10327TIP3    H130924   1.370   6.976   1.840
10327TIP3    H230925   1.476   6.928   1.743
10328TIP3   OH230926   7.639   3.170   4.771
10328TIP3    H130927   7.722   3.203   4.736
10328TIP3    H230928   7.582   3.164   4.695
10329TIP3   OH230929   7.904   4.420   4.053
10329TIP3    H130930   7.829   4.372   4.091
10329TIP3    H230931   7.938   4.471   4.126
10330TIP3   OH230932   4.964   7.153   5.114
10330TIP3    H130933   4.960   7.240   5.155
10330TIP3    H230934   4.919   7.165   5.030
10331TIP3   OH230935   4.466   4.557   1.695
10331TIP3    H130936   4.376   4.584   1.676
10331TIP3    H230937   4.497   4.518   1.613
10332TIP3   OH230938   7.995   4.041   2.275
10332TIP3    H130939   8.073   4.029   2.221
10332TIP3    H230940   7.940   3.964   2.254
10333TIP3   OH230941   6.554   4.118   1.419
10333TIP3    H130942   6.523   4.200   1.381
10333TIP3    H230943   6.474   4.074   1.448
10334TIP3   OH230944   7.661   4.060   5.216
10334TIP3    H130945   7.647   4.153   5.237
10334TIP3    H230946   7.718   4.061   5.140
10335TIP3   OH230947   7.222   7.048   0.187
10335TIP3    H130948   7.148   6.989   0.179
10335TIP3    H230949   7.281   7.021   0.116
10336TIP3   OH230950   5.471   1.964   4.975
10336TIP3    H130951   5.432   1.932   4.894
10336TIP3    H230952   5.565   1.956   4.962
10337TIP3   OH230953   1.086   3.473   1.268
10337TIP3    H130954   1.072   3.403   1.333
10337TIP3    H230955   1.029   3.450   1.195
10338TIP3   OH230956   5.389   6.469   2.475
10338TIP3    H130957   5.304   6.434   2.449
10338TIP3    H230958   5.385   6.475   2.570
10339TIP3   OH230959   8.200   4.409   1.944
10339TIP3    H130960   8.215   4.373   2.032
10339TIP3    H230961   8.148   4.489   1.960
10340TIP3   OH230962   7.118   7.074   3.987
10340TIP3    H130963   7.176   7.148   4.006
10340TIP3    H230964   7.058   7.070   4.062
10341TIP3   OH230965   1.106   7.401   4.491
10341TIP3    H130966   1.028   7.382   4.441
10341TIP3    H230967   1.110   7.332   4.557
10342TIP3   OH230968   3.213   1.728   0.261
10342TIP3    H130969   3.177   1.813   0.238
10342TIP3    H230970   3.276   1.747   0.331
10343TIP3   OH230971   5.130   4.621   4.429
10343TIP3    H130972   5.149   4.715   4.435
10343TIP3    H230973   5.201   4.586   4.375
10344TIP3   OH230974   2.245   4.305   1.745
10344TIP3    H130975   2.286   4.221   1.726
10344TIP3    H230976   2.299   4.343   1.814
10345TIP3   OH230977   1.692   3.623   5.660
10345TIP3    H130978   1.729   3.600   5.575
10345TIP3    H230979   1.629   3.692   5.640
10346TIP3   OH230980   6.060   3.627   1.775
10346TIP3    H130981   6.051   3.537   1.805
10346TIP3    H230982   6.054   3.622   1.679
10347TIP3   OH230983   5.489   3.805   4.170
10347TIP3    H130984   5.561   3.839   4.117
10347TIP3    H230985   5.412   3.813   4.114
10348TIP3   OH230986   6.985   5.903   1.089
10348TIP3    H130987   7.076   5.875   1.080
10348TIP3    H230988   6.941   5.831   1.133
10349TIP3   OH230989   0.854   1.098   3.511
10349TIP3    H130990   0.784   1.160   3.490
10349TIP3    H230991   0.867   1.108   3.605
10350TIP3   OH230992   1.586   6.415   5.980
10350TIP3    H130993   1.587   6.492   5.923
10350TIP3    H230994   1.651   6.434   6.047
10351TIP3   OH230995   3.866   1.044   5.446
10351TIP3    H130996   3.847   1.015   5.357
10351TIP3    H230997   3.961   1.049   5.450
10352TIP3   OH230998   6.529   3.623   3.061
10352TIP3    H130999   6.508   3.534   3.031
10352TIP3    H231000   6.453   3.675   3.033
10353TIP3   OH231001   3.357   4.858   5.590
10353TIP3    H131002   3.365   4.817   5.676
10353TIP3    H231003   3.424   4.816   5.536
10354TIP3   OH231004   3.661   5.235   4.184
10354TIP3    H131005   3.666   5.257   4.277
10354TIP3    H231006   3.719   5.159   4.174
10355TIP3   OH231007   0.623   0.245   5.428
10355TIP3    H131008   0.612   0.333   5.391
10355TIP3    H231009   0.533   0.213   5.439
10356TIP3   OH231010   8.206   1.655   5.992
10356TIP3    H131011   8.181   1.744   6.017
10356TIP3    H231012   8.297   1.647   6.021
10357TIP3   OH231013   2.455   3.416   4.762
10357TIP3    H131014   2.525   3.480   4.746
10357TIP3    H231015   2.441   3.375   4.677
10358TIP3   OH231016   0.478   3.780   0.639
10358TIP3    H131017   0.493   3.852   0.700
10358TIP3    H231018   0.405   3.809   0.584
10359TIP3   OH231019   3.721   1.045   0.568
10359TIP3    H131020   3.647   1.056   0.507
10359TIP3    H231021   3.770   0.970   0.534
10360TIP3   OH231022   5.956   2.869   2.471
10360TIP3    H131023   5.875   2.847   2.425
10360TIP3    H231024   5.997   2.785   2.488
10361TIP3   OH231025   0.603   6.569   4.839
10361TIP3    H131026   0.558   6.531   4.915
10361TIP3    H231027   0.580   6.662   4.842
10362TIP3   OH231028   5.572   0.538   5.859
10362TIP3    H131029   5.665   0.559   5.853
10362TIP3    H231030   5.555   0.483   5.783
10363TIP3   OH231031   7.256   3.075   6.259
10363TIP3    H131032   7.193   3.129   6.307
10363TIP3    H231033   7.340   3.120   6.270
10364TIP3   OH231034   8.266   3.887   3.180
10364TIP3    H131035   8.244   3.954   3.245
10364TIP3    H231036   8.362   3.886   3.179
10365TIP3   OH231037   0.199   5.460   4.592
10365TIP3    H131038   0.271   5.459   4.530
10365TIP3    H231039   0.120   5.449   4.539
10366TIP3   OH231040   0.350   7.691   3.298
10366TIP3    H131041   0.378   7.638   3.372
10366TIP3    H231042   0.385   7.646   3.221
10367TIP3   OH231043   2.922   6.383   2.521
10367TIP3    H131044   2.842   6.347   2.484
10367TIP3    H231045   2.904   6.391   2.615
10368TIP3   OH231046   7.302   5.341   3.904
10368TIP3    H131047   7.210   5.337   3.877
10368TIP3    H231048   7.298   5.342   4.000
10369TIP3   OH231049   2.061   7.705   0.952
10369TIP3    H131050   2.069   7.614   0.924
10369TIP3    H231051   2.089   7.755   0.875
10370TIP3   OH231052   3.226   6.136   0.013
10370TIP3    H131053   3.168   6.211   0.026
10370TIP3    H231054   3.315   6.172   0.023
10371TIP3   OH231055   1.562   7.295   6.130
10371TIP3    H131056   1.600   7.215   6.094
10371TIP3    H231057   1.636   7.343   6.168
10372TIP3   OH231058   2.672   0.338   0.259
10372TIP3    H131059   2.736   0.273   0.230
10372TIP3    H231060   2.722   0.418   0.270
10373TIP3   OH231061   1.226   2.649   6.716
10373TIP3    H131062   1.251   2.587   6.647
10373TIP3    H231063   1.221   2.596   6.795
10374TIP3   OH231064   7.130   1.203   2.947
10374TIP3    H131065   7.160   1.112   2.942
10374TIP3    H231066   7.126   1.222   3.040
10375TIP3   OH231067   0.535   1.910   4.168
10375TIP3    H131068   0.485   1.855   4.107
10375TIP3    H231069   0.562   1.851   4.238
10376TIP3   OH231070   0.505   4.397   0.173
10376TIP3    H131071   0.437   4.424   0.235
10376TIP3    H231072   0.584   4.442   0.202
10377TIP3   OH231073   1.802   7.069   2.397
10377TIP3    H131074   1.786   7.146   2.342
10377TIP3    H231075   1.838   7.004   2.336
10378TIP3   OH231076   2.418   6.499   3.908
10378TIP3    H131077   2.354   6.514   3.978
10378TIP3    H231078   2.365   6.497   3.828
10379TIP3   OH231079   0.641   0.567   6.451
10379TIP3    H131080   0.637   0.599   6.541
10379TIP3    H231081   0.550   0.570   6.421
10380TIP3   OH231082   4.837   5.389   3.356
10380TIP3    H131083   4.910   5.372   3.296
10380TIP3    H231084   4.812   5.302   3.388
10381TIP3   OH231085   0.417   6.177   1.485
10381TIP3    H131086   0.448   6.240   1.550
10381TIP3    H231087   0.497   6.143   1.445
10382TIP3   OH231088   3.002   4.502   6.612
10382TIP3    H131089   2.999   4.410   6.639
10382TIP3    H231090   2.958   4.503   6.527
10383TIP3   OH231091   5.693   2.074   2.920
10383TIP3    H131092   5.642   2.153   2.901
10383TIP3    H231093   5.757   2.069   2.849
10384TIP3   OH231094   6.047   6.641   6.231
10384TIP3    H131095   6.102   6.708   6.190
10384TIP3    H231096   5.969   6.689   6.259
10385TIP3   OH231097   6.030   6.096   4.351
10385TIP3    H131098   6.107   6.057   4.310
10385TIP3    H231099   5.970   6.022   4.364
10386TIP3   OH231100   2.247   5.634   6.466
10386TIP3    H131101   2.340   5.612   6.465
10386TIP3    H231102   2.204   5.559   6.506
10387TIP3   OH231103   0.153   5.006   4.451
10387TIP3    H131104   0.114   5.084   4.410
10387TIP3    H231105   0.093   4.935   4.430
10388TIP3   OH231106   3.829   3.781   0.707
10388TIP3    H131107   3.901   3.790   0.769
10388TIP3    H231108   3.777   3.860   0.718
10389TIP3   OH231109   1.436   6.788   4.672
10389TIP3    H131110   1.436   6.814   4.580
10389TIP3    H231111   1.502   6.845   4.712
10390TIP3   OH231112   2.462   1.893   2.957
10390TIP3    H131113   2.512   1.812   2.972
10390TIP3    H231114   2.449   1.895   2.862
10391TIP3   OH231115   6.226   4.513   0.091
10391TIP3    H131116   6.150   4.509   0.148
10391TIP3    H231117   6.190   4.542   0.007
10392TIP3   OH231118   0.679   3.553   1.012
10392TIP3    H131119   0.652   3.514   1.094
10392TIP3    H231120   0.629   3.635   1.006
10393TIP3   OH231121   2.269   4.679   4.834
10393TIP3    H131122   2.339   4.744   4.838
10393TIP3    H231123   2.195   4.726   4.796
10394TIP3   OH231124   1.143   7.608   6.449
10394TIP3    H131125   1.176   7.520   6.431
10394TIP3    H231126   1.211   7.667   6.416
10395TIP3   OH231127   7.362   7.064   0.424
10395TIP3    H131128   7.306   7.082   0.348
10395TIP3    H231129   7.354   6.970   0.438
10396TIP3   OH231130   2.365   7.800   2.499
10396TIP3    H131131   2.418   7.725   2.471
10396TIP3    H231132   2.429   7.867   2.523
10397TIP3   OH231133   4.650   5.383   6.601
10397TIP3    H131134   4.609   5.343   6.524
10397TIP3    H231135   4.629   5.476   6.593
10398TIP3   OH231136   7.924   7.119   2.671
10398TIP3    H131137   7.907   7.212   2.652
10398TIP3    H231138   7.841   7.085   2.704
10399TIP3   OH231139   6.492   4.599   2.290
10399TIP3    H131140   6.578   4.562   2.275
10399TIP3    H231141   6.508   4.690   2.315
10400TIP3   OH231142   6.490   3.967   2.416
10400TIP3    H131143   6.574   3.930   2.443
10400TIP3    H231144   6.431   3.892   2.414
10401TIP3   OH231145   3.255   4.328   0.928
10401TIP3    H131146   3.291   4.387   0.993
10401TIP3    H231147   3.238   4.383   0.852
10402TIP3   OH231148   1.856   4.359   4.170
10402TIP3    H131149   1.775   4.310   4.181
10402TIP3    H231150   1.867   4.407   4.252
10403TIP3   OH231151   3.787   1.924   5.927
10403TIP3    H131152   3.703   1.883   5.949
10403TIP3    H231153   3.824   1.868   5.859
10404TIP3   OH231154   6.849   7.618   3.319
10404TIP3    H131155   6.887   7.532   3.340
10404TIP3    H231156   6.765   7.619   3.366
10405TIP3   OH231157   2.728   5.270   3.898
10405TIP3    H131158   2.779   5.210   3.844
10405TIP3    H231159   2.652   5.219   3.926
10406TIP3   OH231160   3.821   4.935   0.072
10406TIP3    H131161   3.822   4.943   0.167
10406TIP3    H231162   3.843   5.023   0.040
10407TIP3   OH231163   0.279   2.905   0.845
10407TIP3    H131164   0.249   2.832   0.790
10407TIP3    H231165   0.233   2.892   0.929
10408TIP3   OH231166   6.747   1.498   3.698
10408TIP3    H131167   6.708   1.412   3.706
10408TIP3    H231168   6.808   1.504   3.772
10409TIP3   OH231169   0.758   7.566   2.019
10409TIP3    H131170   0.798   7.653   2.010
10409TIP3    H231171   0.705   7.573   2.099
10410TIP3   OH231172   7.239   0.355   3.258
10410TIP3    H131173   7.157   0.306   3.255
10410TIP3    H231174   7.221   0.434   3.206
10411TIP3   OH231175   5.964   1.818   5.404
10411TIP3    H131176   6.012   1.895   5.433
10411TIP3    H231177   5.903   1.798   5.475
10412TIP3   OH231178   0.311   4.743   2.954
10412TIP3    H131179   0.266   4.821   2.985
10412TIP3    H231180   0.320   4.688   3.033
10413TIP3   OH231181   0.373   0.680   4.144
10413TIP3    H131182   0.377   0.586   4.132
10413TIP3    H231183   0.456   0.713   4.110
10414TIP3   OH231184   3.019   1.962   3.625
10414TIP3    H131185   2.935   1.934   3.591
10414TIP3    H231186   3.039   1.900   3.695
10415TIP3   OH231187   5.976   2.814   5.970
10415TIP3    H131188   5.968   2.892   5.914
10415TIP3    H231189   6.066   2.816   6.000
10416TIP3   OH231190   1.364   1.867   6.049
10416TIP3    H131191   1.398   1.878   6.137
10416TIP3    H231192   1.422   1.802   6.009
10417TIP3   OH231193   0.871   2.865   1.290
10417TIP3    H131194   0.950   2.866   1.236
10417TIP3    H231195   0.882   2.791   1.349
10418TIP3   OH231196   7.875   0.624   5.858
10418TIP3    H131197   7.902   0.545   5.905
10418TIP3    H231198   7.948   0.685   5.870
10419TIP3   OH231199   3.720   4.396   2.908
10419TIP3    H131200   3.638   4.437   2.937
10419TIP3    H231201   3.704   4.372   2.817
10420TIP3   OH231202   5.933   4.925   0.554
10420TIP3    H131203   5.894   4.940   0.640
10420TIP3    H231204   6.023   4.898   0.574
10421TIP3   OH231205   8.260   3.747   6.263
10421TIP3    H131206   8.170   3.718   6.276
10421TIP3    H231207   8.289   3.701   6.184
10422TIP3   OH231208   7.567   6.454   4.667
10422TIP3    H131209   7.512   6.421   4.738
10422TIP3    H231210   7.521   6.429   4.587
10423TIP3   OH231211   2.553   3.589   1.677
10423TIP3    H131212   2.545   3.585   1.582
10423TIP3    H231213   2.640   3.626   1.692
10424TIP3   OH231214   3.008   7.526   5.665
10424TIP3    H131215   2.915   7.544   5.674
10424TIP3    H231216   3.042   7.597   5.610
10425TIP3   OH231217   2.630   0.021   5.461
10425TIP3    H131218   2.695   0.001   5.394
10425TIP3    H231219   2.559  -0.040   5.445
10426TIP3   OH231220   3.450   3.104   3.594
10426TIP3    H131221   3.545   3.102   3.596
10426TIP3    H231222   3.427   3.138   3.508
10427TIP3   OH231223   1.454   5.837   1.072
10427TIP3    H131224   1.529   5.844   1.014
10427TIP3    H231225   1.483   5.880   1.153
10428TIP3   OH231226   0.936   7.178   2.848
10428TIP3    H131227   0.846   7.209   2.857
10428TIP3    H231228   0.965   7.209   2.762
10429TIP3   OH231229   5.099   4.999   3.376
10429TIP3    H131230   5.119   5.016   3.284
10429TIP3    H231231   5.053   4.915   3.376
10430TIP3   OH231232   0.055   1.605   4.512
10430TIP3    H131233   0.079   1.557   4.433
10430TIP3    H231234  -0.040   1.611   4.509
10431TIP3   OH231235   1.065   5.101   0.878
10431TIP3    H131236   1.074   5.197   0.875
10431TIP3    H231237   0.990   5.086   0.934
10432TIP3   OH231238   1.899   4.712   2.758
10432TIP3    H131239   1.932   4.636   2.709
10432TIP3    H231240   1.935   4.702   2.846
10433TIP3   OH231241   1.715   7.801   0.913
10433TIP3    H131242   1.634   7.819   0.961
10433TIP3    H231243   1.723   7.706   0.915
10434TIP3   OH231244   5.967   6.793   0.082
10434TIP3    H131245   5.993   6.701   0.074
10434TIP3    H231246   6.040   6.835   0.127
10435TIP3   OH231247   1.120   7.809   2.656
10435TIP3    H131248   1.039   7.769   2.625
10435TIP3    H231249   1.106   7.823   2.750
10436TIP3   OH231250   0.074   2.755   2.590
10436TIP3    H131251   0.002   2.738   2.529
10436TIP3    H231252   0.122   2.672   2.593
10437TIP3   OH231253   3.405   2.086   0.714
10437TIP3    H131254   3.456   2.016   0.673
10437TIP3    H231255   3.429   2.083   0.807
10438TIP3   OH231256   2.938   0.917   3.229
10438TIP3    H131257   2.992   0.990   3.199
10438TIP3    H231258   2.930   0.930   3.324
10439TIP3   OH231259   2.761   4.711   3.041
10439TIP3    H131260   2.744   4.637   2.982
10439TIP3    H231261   2.684   4.714   3.098
10440TIP3   OH231262   3.395   0.010   6.076
10440TIP3    H131263   3.397   0.105   6.085
10440TIP3    H231264   3.483  -0.013   6.047
10441TIP3   OH231265   0.730   4.096   1.615
10441TIP3    H131266   0.751   4.135   1.530
10441TIP3    H231267   0.746   4.002   1.603
10442TIP3   OH231268   8.159   3.580   4.334
10442TIP3    H131269   8.217   3.596   4.409
10442TIP3    H231270   8.094   3.650   4.339
10443TIP3   OH231271   0.844   5.564   6.576
10443TIP3    H131272   0.828   5.521   6.660
10443TIP3    H231273   0.797   5.648   6.583
10444TIP3   OH231274   3.116   3.599   1.068
10444TIP3    H131275   3.083   3.669   1.011
10444TIP3    H231276   3.046   3.534   1.069
10445TIP3   OH231277   6.983   0.908   2.888
10445TIP3    H131278   7.078   0.924   2.887
10445TIP3    H231279   6.946   0.979   2.835
10446TIP3   OH231280   7.311   5.187   6.715
10446TIP3    H131281   7.386   5.143   6.674
10446TIP3    H231282   7.340   5.278   6.726
10447TIP3   OH231283   3.501   6.259   3.138
10447TIP3    H131284   3.498   6.302   3.223
10447TIP3    H231285   3.410   6.256   3.109
10448TIP3   OH231286   6.332   5.896   1.356
10448TIP3    H131287   6.239   5.904   1.332
10448TIP3    H231288   6.367   5.984   1.344
10449TIP3   OH231289   5.961   0.271   3.369
10449TIP3    H131290   5.959   0.201   3.304
10449TIP3    H231291   6.013   0.340   3.327
10450TIP3   OH231292   5.686   1.480   5.517
10450TIP3    H131293   5.685   1.576   5.510
10450TIP3    H231294   5.620   1.460   5.583
10451TIP3   OH231295   2.533   4.724   1.482
10451TIP3    H131296   2.544   4.636   1.520
10451TIP3    H231297   2.622   4.757   1.471
10452TIP3   OH231298   7.503   7.486   5.220
10452TIP3    H131299   7.460   7.407   5.188
10452TIP3    H231300   7.574   7.454   5.276
10453TIP3   OH231301   3.753   4.758   4.644
10453TIP3    H131302   3.746   4.757   4.548
10453TIP3    H231303   3.662   4.761   4.674
10454TIP3   OH231304   4.216   4.850   5.243
10454TIP3    H131305   4.194   4.800   5.165
10454TIP3    H231306   4.263   4.788   5.299
10455TIP3   OH231307   2.003   0.222   6.183
10455TIP3    H131308   1.980   0.307   6.222
10455TIP3    H231309   2.058   0.245   6.108
10456TIP3   OH231310   2.755   4.812   5.895
10456TIP3    H131311   2.765   4.723   5.930
10456TIP3    H231312   2.664   4.815   5.865
10457TIP3   OH231313   7.523   4.329   4.355
10457TIP3    H131314   7.528   4.302   4.447
10457TIP3    H231315   7.592   4.396   4.346
10458TIP3   OH231316   2.983   1.798   0.788
10458TIP3    H131317   2.954   1.810   0.879
10458TIP3    H231318   3.033   1.717   0.789
10459TIP3   OH231319   2.708   5.716   0.505
10459TIP3    H131320   2.725   5.673   0.588
10459TIP3    H231321   2.706   5.645   0.441
10460TIP3   OH231322   0.535   5.803   2.798
10460TIP3    H131323   0.621   5.843   2.813
10460TIP3    H231324   0.531   5.790   2.704
10461TIP3   OH231325   4.192   0.591   0.508
10461TIP3    H131326   4.247   0.581   0.431
10461TIP3    H231327   4.145   0.508   0.516
10462TIP3   OH231328   2.842   3.329   4.476
10462TIP3    H131329   2.918   3.297   4.525
10462TIP3    H231330   2.796   3.250   4.448
10463TIP3   OH231331   0.780   7.235   0.425
10463TIP3    H131332   0.748   7.300   0.362
10463TIP3    H231333   0.705   7.218   0.482
10464TIP3   OH231334   5.158   3.137   6.667
10464TIP3    H131335   5.098   3.077   6.710
10464TIP3    H231336   5.236   3.085   6.651
10465TIP3   OH231337   7.962   7.509   4.563
10465TIP3    H131338   8.056   7.524   4.552
10465TIP3    H231339   7.928   7.503   4.474
10466TIP3   OH231340   6.084   3.714   6.110
10466TIP3    H131341   6.065   3.808   6.112
10466TIP3    H231342   6.104   3.695   6.018
10467TIP3   OH231343   7.731   5.115   5.139
10467TIP3    H131344   7.689   5.194   5.104
10467TIP3    H231345   7.688   5.043   5.092
10468TIP3   OH231346   3.973   0.277   2.104
10468TIP3    H131347   3.948   0.295   2.195
10468TIP3    H231348   3.995   0.363   2.068
10469TIP3   OH231349   3.227   4.593   2.941
10469TIP3    H131350   3.208   4.660   2.875
10469TIP3    H231351   3.214   4.637   3.024
10470TIP3   OH231352   5.120   4.624   2.842
10470TIP3    H131353   5.135   4.530   2.848
10470TIP3    H231354   5.162   4.650   2.760
10471TIP3   OH231355   5.223   0.805   0.499
10471TIP3    H131356   5.167   0.844   0.567
10471TIP3    H231357   5.236   0.875   0.436
10472TIP3   OH231358   3.987   6.527   4.496
10472TIP3    H131359   3.982   6.509   4.590
10472TIP3    H231360   4.008   6.442   4.456
10473TIP3   OH231361   7.008   3.791   4.329
10473TIP3    H131362   6.939   3.773   4.393
10473TIP3    H231363   6.962   3.795   4.245
10474TIP3   OH231364   7.778   5.013   6.403
10474TIP3    H131365   7.764   4.954   6.477
10474TIP3    H231366   7.818   4.958   6.336
10475TIP3   OH231367   5.200   0.750   4.473
10475TIP3    H131368   5.239   0.681   4.418
10475TIP3    H231369   5.172   0.817   4.411
10476TIP3   OH231370   3.210   6.378   1.444
10476TIP3    H131371   3.153   6.304   1.423
10476TIP3    H231372   3.250   6.403   1.361
10477TIP3   OH231373   5.814   4.649   2.249
10477TIP3    H131374   5.841   4.566   2.287
10477TIP3    H231375   5.886   4.709   2.268
10478TIP3   OH231376   1.507   5.261   1.977
10478TIP3    H131377   1.475   5.264   2.067
10478TIP3    H231378   1.599   5.289   1.984
10479TIP3   OH231379   0.997   6.418   5.301
10479TIP3    H131380   0.929   6.356   5.274
10479TIP3    H231381   0.950   6.500   5.315
10480TIP3   OH231382   5.205   6.564   6.664
10480TIP3    H131383   5.203   6.619   6.586
10480TIP3    H231384   5.148   6.490   6.643
10481TIP3   OH231385   6.483   1.351   0.991
10481TIP3    H131386   6.568   1.372   1.031
10481TIP3    H231387   6.420   1.360   1.063
10482TIP3   OH231388   1.532   1.288   4.152
10482TIP3    H131389   1.621   1.309   4.178
10482TIP3    H231390   1.485   1.278   4.235
10483TIP3   OH231391   7.273   5.220   3.454
10483TIP3    H131392   7.211   5.291   3.473
10483TIP3    H231393   7.318   5.249   3.375
10484TIP3   OH231394   5.908   0.649   4.150
10484TIP3    H131395   5.992   0.694   4.154
10484TIP3    H231396   5.847   0.715   4.118
10485TIP3   OH231397   1.995   7.228   0.148
10485TIP3    H131398   1.983   7.159   0.083
10485TIP3    H231399   1.929   7.294   0.127
10486TIP3   OH231400   7.786   3.853   5.326
10486TIP3    H131401   7.778   3.926   5.264
10486TIP3    H231402   7.732   3.784   5.288
10487TIP3   OH231403   2.291   1.570   6.586
10487TIP3    H131404   2.318   1.655   6.619
10487TIP3    H231405   2.257   1.523   6.662
10488TIP3   OH231406   4.180   4.798   3.933
10488TIP3    H131407   4.245   4.770   3.997
10488TIP3    H231408   4.190   4.736   3.861
10489TIP3   OH231409   0.892   1.113   0.544
10489TIP3    H131410   0.838   1.048   0.499
10489TIP3    H231411   0.841   1.194   0.539
10490TIP3   OH231412   6.621   1.086   3.391
10490TIP3    H131413   6.666   1.005   3.414
10490TIP3    H231414   6.690   1.152   3.390
10491TIP3   OH231415   4.119   1.214   2.226
10491TIP3    H131416   4.120   1.258   2.311
10491TIP3    H231417   4.033   1.234   2.189
10492TIP3   OH231418   3.225   1.432   0.186
10492TIP3    H131419   3.234   1.524   0.209
10492TIP3    H231420   3.160   1.431   0.115
10493TIP3   OH231421   7.693   1.563   2.152
10493TIP3    H131422   7.718   1.530   2.066
10493TIP3    H231423   7.712   1.491   2.213
10494TIP3   OH231424   2.319   4.485   5.461
10494TIP3    H131425   2.235   4.524   5.437
10494TIP3    H231426   2.361   4.550   5.517
10495TIP3   OH231427   0.078   1.531   1.204
10495TIP3    H131428   0.088   1.439   1.182
10495TIP3    H231429   0.039   1.531   1.292
10496TIP3   OH231430   3.644   5.271   4.437
10496TIP3    H131431   3.582   5.208   4.473
10496TIP3    H231432   3.719   5.268   4.496
10497TIP3   OH231433   7.539   2.568   0.195
10497TIP3    H131434   7.474   2.527   0.253
10497TIP3    H231435   7.499   2.565   0.108
10498TIP3   OH231436   1.987   2.567   6.554
10498TIP3    H131437   1.966   2.519   6.474
10498TIP3    H231438   1.903   2.602   6.584
10499TIP3   OH231439   6.381   0.185   3.895
10499TIP3    H131440   6.325   0.126   3.947
10499TIP3    H231441   6.320   0.229   3.836
10500TIP3   OH231442   7.534   1.879   4.364
10500TIP3    H131443   7.448   1.838   4.361
10500TIP3    H231444   7.595   1.805   4.363
10501TIP3   OH231445   7.366   6.527   0.368
10501TIP3    H131446   7.460   6.538   0.352
10501TIP3    H231447   7.354   6.433   0.381
10502TIP3   OH231448   3.994   2.994   1.162
10502TIP3    H131449   4.084   2.963   1.153
10502TIP3    H231450   3.992   3.038   1.247
10503TIP3   OH231451   1.389   4.267   1.818
10503TIP3    H131452   1.327   4.284   1.747
10503TIP3    H231453   1.470   4.244   1.773
10504TIP3   OH231454   1.049   7.135   0.106
10504TIP3    H131455   0.961   7.110   0.078
10504TIP3    H231456   1.092   7.163   0.026
10505TIP3   OH231457   0.786   1.517   4.348
10505TIP3    H131458   0.741   1.475   4.421
10505TIP3    H231459   0.806   1.446   4.287
10506TIP3   OH231460   1.146   5.513   1.043
10506TIP3    H131461   1.195   5.468   0.974
10506TIP3    H231462   1.173   5.605   1.035
10507TIP3   OH231463   4.521   4.984   2.427
10507TIP3    H131464   4.505   5.076   2.406
10507TIP3    H231465   4.612   4.969   2.403
10508TIP3   OH231466   5.633   4.879   0.410
10508TIP3    H131467   5.565   4.932   0.368
10508TIP3    H231468   5.679   4.939   0.467
10509TIP3   OH231469   7.383   4.040   4.056
10509TIP3    H131470   7.336   4.119   4.029
10509TIP3    H231471   7.469   4.047   4.013
10510TIP3   OH231472   4.588   4.838   4.326
10510TIP3    H131473   4.655   4.850   4.394
10510TIP3    H231474   4.622   4.887   4.251
10511TIP3   OH231475   4.424   5.943   4.435
10511TIP3    H131476   4.506   5.983   4.406
10511TIP3    H231477   4.450   5.860   4.475
10512TIP3   OH231478   2.151   7.228   4.602
10512TIP3    H131479   2.157   7.176   4.682
10512TIP3    H231480   2.229   7.203   4.552
10513TIP3   OH231481   4.322   0.559   4.047
10513TIP3    H131482   4.401   0.519   4.083
10513TIP3    H231483   4.258   0.488   4.045
10514TIP3   OH231484   2.610   2.369   1.107
10514TIP3    H131485   2.587   2.401   1.194
10514TIP3    H231486   2.534   2.318   1.079
10515TIP3   OH231487   0.554   4.693   2.894
10515TIP3    H131488   0.469   4.734   2.908
10515TIP3    H231489   0.611   4.765   2.866
10516TIP3   OH231490   6.748   7.056   3.960
10516TIP3    H131491   6.818   7.009   3.914
10516TIP3    H231492   6.794   7.106   4.028
10517TIP3   OH231493   2.232   2.085   3.311
10517TIP3    H131494   2.168   2.016   3.294
10517TIP3    H231495   2.190   2.143   3.374
10518TIP3   OH231496   0.227   3.183   4.981
10518TIP3    H131497   0.173   3.257   5.008
10518TIP3    H231498   0.297   3.222   4.928
10519TIP3   OH231499   7.492   6.558   1.044
10519TIP3    H131500   7.430   6.621   1.080
10519TIP3    H231501   7.513   6.501   1.119
10520TIP3   OH231502   7.410   0.474   1.433
10520TIP3    H131503   7.395   0.424   1.353
10520TIP3    H231504   7.323   0.490   1.468
10521TIP3   OH231505   5.915   4.108   5.818
10521TIP3    H131506   5.909   4.098   5.723
10521TIP3    H231507   5.825   4.123   5.847
10522TIP3   OH231508   1.452   0.699   4.774
10522TIP3    H131509   1.487   0.783   4.744
10522TIP3    H231510   1.358   0.706   4.758
10523TIP3   OH231511   5.083   2.414   0.791
10523TIP3    H131512   5.005   2.359   0.803
10523TIP3    H231513   5.077   2.445   0.700
10524TIP3   OH231514   7.551   1.155   5.343
10524TIP3    H131515   7.588   1.202   5.418
10524TIP3    H231516   7.625   1.106   5.306
10525TIP3   OH231517   0.482   2.914   5.018
10525TIP3    H131518   0.468   2.838   4.962
10525TIP3    H231519   0.557   2.889   5.073
10526TIP3   OH231520   3.797   6.610   6.515
10526TIP3    H131521   3.848   6.681   6.476
10526TIP3    H231522   3.818   6.534   6.462
10527TIP3   OH231523   4.975   7.754   3.165
10527TIP3    H131524   5.064   7.723   3.152
10527TIP3    H231525   4.938   7.763   3.077
10528TIP3   OH231526   4.756   1.149   5.297
10528TIP3    H131527   4.800   1.188   5.373
10528TIP3    H231528   4.826   1.102   5.251
10529TIP3   OH231529   6.935   1.370   2.227
10529TIP3    H131530   6.872   1.310   2.268
10529TIP3    H231531   6.981   1.317   2.163
10530TIP3   OH231532   3.316   0.543   1.539
10530TIP3    H131533   3.403   0.542   1.500
10530TIP3    H231534   3.310   0.628   1.583
10531TIP3   OH231535   5.223   7.657   1.639
10531TIP3    H131536   5.254   7.739   1.678
10531TIP3    H231537   5.128   7.661   1.649
10532TIP3   OH231538   2.364   2.683   6.127
10532TIP3    H131539   2.391   2.775   6.129
10532TIP3    H231540   2.285   2.682   6.074
10533TIP3   OH231541   6.800   1.426   5.080
10533TIP3    H131542   6.761   1.467   5.002
10533TIP3    H231543   6.865   1.365   5.045
10534TIP3   OH231544   2.030   3.947   0.869
10534TIP3    H131545   2.061   4.026   0.826
10534TIP3    H231546   2.109   3.893   0.880
10535TIP3   OH231547   5.447   1.702   4.281
10535TIP3    H131548   5.357   1.672   4.296
10535TIP3    H231549   5.453   1.712   4.186
10536TIP3   OH231550   1.663   0.228   5.885
10536TIP3    H131551   1.703   0.311   5.861
10536TIP3    H231552   1.659   0.178   5.804
10537TIP3   OH231553   6.946   5.576   4.578
10537TIP3    H131554   7.009   5.539   4.640
10537TIP3    H231555   6.877   5.613   4.634
10538TIP3   OH231556   7.259   1.300   1.224
10538TIP3    H131557   7.182   1.355   1.233
10538TIP3    H231558   7.325   1.342   1.280
10539TIP3   OH231559   4.159   7.314   6.150
10539TIP3    H131560   4.227   7.292   6.086
10539TIP3    H231561   4.127   7.229   6.181
10540TIP3   OH231562   7.776   5.015   5.811
10540TIP3    H131563   7.792   4.934   5.763
10540TIP3    H231564   7.751   5.079   5.744
10541TIP3   OH231565   4.400   2.263   1.113
10541TIP3    H131566   4.402   2.273   1.017
10541TIP3    H231567   4.342   2.333   1.143
10542TIP3   OH231568   7.184   7.325   3.301
10542TIP3    H131569   7.107   7.353   3.351
10542TIP3    H231570   7.151   7.306   3.214
10543TIP3   OH231571   3.183   5.057   1.500
10543TIP3    H131572   3.121   5.126   1.524
10543TIP3    H231573   3.222   5.031   1.583
10544TIP3   OH231574   4.896   1.226   5.511
10544TIP3    H131575   4.948   1.306   5.522
10544TIP3    H231576   4.962   1.156   5.503
10545TIP3   OH231577   5.789   5.708   3.518
10545TIP3    H131578   5.746   5.687   3.600
10545TIP3    H231579   5.881   5.720   3.542
10546TIP3   OH231580   5.090   7.370   6.125
10546TIP3    H131581   5.176   7.331   6.108
10546TIP3    H231582   5.029   7.296   6.127
10547TIP3   OH231583   6.626   1.908   2.125
10547TIP3    H131584   6.618   1.868   2.038
10547TIP3    H231585   6.538   1.900   2.163
10548TIP3   OH231586   7.594   0.594   5.616
10548TIP3    H131587   7.672   0.649   5.617
10548TIP3    H231588   7.583   0.570   5.524
10549TIP3   OH231589   0.372   0.892   1.814
10549TIP3    H131590   0.346   0.806   1.781
10549TIP3    H231591   0.462   0.904   1.784
10550TIP3   OH231592   2.746   1.664   3.223
10550TIP3    H131593   2.711   1.630   3.141
10550TIP3    H231594   2.730   1.758   3.220
10551TIP3   OH231595   6.034   1.538   4.932
10551TIP3    H131596   6.000   1.603   4.993
10551TIP3    H231597   5.957   1.502   4.888
10552TIP3   OH231598   2.495   4.874   2.142
10552TIP3    H131599   2.499   4.963   2.108
10552TIP3    H231600   2.448   4.825   2.075
10553TIP3   OH231601   7.466   4.172   6.013
10553TIP3    H131602   7.463   4.181   5.918
10553TIP3    H231603   7.463   4.262   6.046
10554TIP3   OH231604   0.230   7.368   0.412
10554TIP3    H131605   0.297   7.309   0.379
10554TIP3    H231606   0.249   7.378   0.505
10555TIP3   OH231607   0.324   1.076   6.079
10555TIP3    H131608   0.404   1.103   6.125
10555TIP3    H231609   0.354   1.054   5.991
10556TIP3   OH231610   0.243   6.540   6.052
10556TIP3    H131611   0.304   6.571   6.119
10556TIP3    H231612   0.223   6.617   6.000
10557TIP3   OH231613   5.466   4.229   2.779
10557TIP3    H131614   5.533   4.166   2.753
10557TIP3    H231615   5.512   4.312   2.788
10558TIP3   OH231616   5.738   3.296   1.658
10558TIP3    H131617   5.724   3.280   1.751
10558TIP3    H231618   5.744   3.392   1.652
10559TIP3   OH231619   2.164   2.424   5.393
10559TIP3    H131620   2.255   2.395   5.394
10559TIP3    H231621   2.169   2.519   5.383
10560TIP3   OH231622   7.317   6.553   4.785
10560TIP3    H131623   7.318   6.627   4.845
10560TIP3    H231624   7.285   6.480   4.837
10561TIP3   OH231625   4.918   5.054   6.265
10561TIP3    H131626   4.843   5.017   6.218
10561TIP3    H231627   4.882   5.084   6.348
10562TIP3   OH231628   3.287   5.094   2.806
10562TIP3    H131629   3.365   5.096   2.862
10562TIP3    H231630   3.293   5.174   2.754
10563TIP3   OH231631   5.004   1.792   5.559
10563TIP3    H131632   4.960   1.862   5.512
10563TIP3    H231633   5.009   1.823   5.649
10564TIP3   OH231634   3.428   0.927   6.051
10564TIP3    H131635   3.498   0.959   6.108
10564TIP3    H231636   3.457   0.951   5.963
10565TIP3   OH231637   0.579   0.284   0.728
10565TIP3    H131638   0.493   0.244   0.716
10565TIP3    H231639   0.581   0.311   0.819
10566TIP3   OH231640   8.229   5.368   1.158
10566TIP3    H131641   8.306   5.425   1.148
10566TIP3    H231642   8.256   5.304   1.224
10567TIP3   OH231643   7.329   7.069   5.438
10567TIP3    H131644   7.237   7.087   5.418
10567TIP3    H231645   7.357   7.142   5.493
10568TIP3   OH231646   6.472   0.323   6.047
10568TIP3    H131647   6.539   0.391   6.061
10568TIP3    H231648   6.483   0.263   6.121
10569TIP3   OH231649   7.594   7.816   4.416
10569TIP3    H131650   7.643   7.855   4.488
10569TIP3    H231651   7.649   7.744   4.385
10570TIP3   OH231652   7.640   5.404   0.859
10570TIP3    H131653   7.696   5.345   0.810
10570TIP3    H231654   7.660   5.491   0.824
10571TIP3   OH231655   2.509   5.037   5.660
10571TIP3    H131656   2.472   5.114   5.702
10571TIP3    H231657   2.489   4.965   5.720
10572TIP3   OH231658   2.297   1.768   0.925
10572TIP3    H131659   2.252   1.830   0.868
10572TIP3    H231660   2.370   1.735   0.873
10573TIP3   OH231661   5.164   4.474   6.691
10573TIP3    H131662   5.082   4.424   6.696
10573TIP3    H231663   5.174   4.495   6.598
10574TIP3   OH231664   3.468   5.146   5.863
10574TIP3    H131665   3.442   5.238   5.863
10574TIP3    H231666   3.423   5.108   5.939
10575TIP3   OH231667   2.853   1.328   1.853
10575TIP3    H131668   2.843   1.397   1.918
10575TIP3    H231669   2.846   1.372   1.769
10576TIP3   OH231670   6.641   6.697   5.977
10576TIP3    H131671   6.687   6.650   6.047
10576TIP3    H231672   6.685   6.782   5.972
10577TIP3   OH231673   1.193   4.069   0.148
10577TIP3    H131674   1.112   4.119   0.141
10577TIP3    H231675   1.167   3.985   0.185
10578TIP3   OH231676   4.955   0.592   5.754
10578TIP3    H131677   4.908   0.657   5.702
10578TIP3    H231678   4.914   0.597   5.841
10579TIP3   OH231679   0.178   6.312   3.808
10579TIP3    H131680   0.089   6.347   3.813
10579TIP3    H231681   0.233   6.380   3.846
10580TIP3   OH231682   0.684   1.006   3.163
10580TIP3    H131683   0.604   1.036   3.119
10580TIP3    H231684   0.653   0.960   3.241
10581TIP3   OH231685   0.818   5.662   5.609
10581TIP3    H131686   0.845   5.575   5.637
10581TIP3    H231687   0.736   5.678   5.656
10582TIP3   OH231688   0.208   2.505   2.591
10582TIP3    H131689   0.299   2.483   2.570
10582TIP3    H231690   0.163   2.420   2.593
10583TIP3   OH231691   5.746   4.239   1.637
10583TIP3    H131692   5.675   4.211   1.580
10583TIP3    H231693   5.706   4.303   1.696
10584TIP3   OH231694   7.208   4.883   4.345
10584TIP3    H131695   7.169   4.797   4.332
10584TIP3    H231696   7.302   4.868   4.338
10585TIP3   OH231697   6.099   4.658   4.150
10585TIP3    H131698   6.104   4.750   4.174
10585TIP3    H231699   6.145   4.612   4.221
10586TIP3   OH231700   7.192   1.247   3.233
10586TIP3    H131701   7.181   1.335   3.270
10586TIP3    H231702   7.277   1.250   3.190
10587TIP3   OH231703   3.825   6.031   0.211
10587TIP3    H131704   3.907   6.078   0.228
10587TIP3    H231705   3.837   5.945   0.250
10588TIP3   OH231706   0.781   2.242   4.412
10588TIP3    H131707   0.838   2.225   4.338
10588TIP3    H231708   0.838   2.237   4.489
10589TIP3   OH231709   4.659   0.085   0.037
10589TIP3    H131710   4.673   0.180   0.035
10589TIP3    H231711   4.650   0.064   0.129
10590TIP3   OH231712   1.630   1.727   2.203
10590TIP3    H131713   1.568   1.761   2.138
10590TIP3    H231714   1.670   1.806   2.240
10591TIP3   OH231715   7.159   4.256   6.194
10591TIP3    H131716   7.209   4.175   6.180
10591TIP3    H231717   7.179   4.280   6.285
10592TIP3   OH231718   7.480   5.937   2.587
10592TIP3    H131719   7.514   5.886   2.514
10592TIP3    H231720   7.543   5.923   2.658
10593TIP3   OH231721   2.529   0.974   5.387
10593TIP3    H131722   2.618   1.002   5.409
10593TIP3    H231723   2.535   0.946   5.296
10594TIP3   OH231724   6.282   3.251   2.924
10594TIP3    H131725   6.367   3.240   2.966
10594TIP3    H231726   6.271   3.346   2.916
10595TIP3   OH231727   3.513   3.789   5.571
10595TIP3    H131728   3.480   3.823   5.487
10595TIP3    H231729   3.457   3.713   5.589
10596TIP3   OH231730   3.021   0.806   5.244
10596TIP3    H131731   3.085   0.876   5.256
10596TIP3    H231732   3.069   0.738   5.196
10597TIP3   OH231733   0.511   4.283   1.130
10597TIP3    H131734   0.606   4.282   1.123
10597TIP3    H231735   0.494   4.279   1.225
10598TIP3   OH231736   6.405   4.999   2.790
10598TIP3    H131737   6.388   4.931   2.856
10598TIP3    H231738   6.498   4.990   2.771
10599TIP3   OH231739   6.317   4.110   5.355
10599TIP3    H131740   6.248   4.057   5.394
10599TIP3    H231741   6.277   4.196   5.340
10600TIP3   OH231742   6.445   1.673   4.940
10600TIP3    H131743   6.363   1.659   4.987
10600TIP3    H231744   6.422   1.736   4.871
10601TIP3   OH231745   6.964   1.775   0.511
10601TIP3    H131746   6.921   1.859   0.530
10601TIP3    H231747   6.938   1.754   0.422
10602TIP3   OH231748   0.701   2.466   0.700
10602TIP3    H131749   0.662   2.505   0.622
10602TIP3    H231750   0.706   2.373   0.679
10603TIP3   OH231751   6.350   2.163   2.239
10603TIP3    H131752   6.426   2.220   2.231
10603TIP3    H231753   6.281   2.220   2.274
10604TIP3   OH231754   1.061   6.209   4.728
10604TIP3    H131755   1.092   6.298   4.745
10604TIP3    H231756   0.989   6.196   4.790
10605TIP3   OH231757   2.033   4.347   1.193
10605TIP3    H131758   2.054   4.262   1.154
10605TIP3    H231759   1.945   4.335   1.230
10606TIP3   OH231760   7.874   1.197   1.167
10606TIP3    H131761   7.939   1.267   1.169
10606TIP3    H231762   7.852   1.187   1.074
10607TIP3   OH231763   1.439   0.470   3.499
10607TIP3    H131764   1.385   0.487   3.576
10607TIP3    H231765   1.396   0.397   3.454
10608TIP3   OH231766   6.844   3.141   2.667
10608TIP3    H131767   6.877   3.129   2.756
10608TIP3    H231768   6.835   3.236   2.657
10609TIP3   OH231769   5.996   0.563   2.792
10609TIP3    H131770   6.051   0.626   2.745
10609TIP3    H231771   6.022   0.478   2.758
10610TIP3   OH231772   7.301   5.861   3.660
10610TIP3    H131773   7.376   5.845   3.604
10610TIP3    H231774   7.260   5.940   3.623
10611TIP3   OH231775   1.052   2.569   4.127
10611TIP3    H131776   1.026   2.661   4.122
10611TIP3    H231777   1.024   2.531   4.044
10612TIP3   OH231778   2.093   4.348   2.873
10612TIP3    H131779   2.090   4.425   2.816
10612TIP3    H231780   2.057   4.277   2.819
10613TIP3   OH231781   6.960   4.823   1.953
10613TIP3    H131782   6.917   4.888   1.897
10613TIP3    H231783   7.027   4.872   2.001
10614TIP3   OH231784   2.780   7.158   3.054
10614TIP3    H131785   2.813   7.196   2.972
10614TIP3    H231786   2.852   7.169   3.115
10615TIP3   OH231787   6.452   7.005   3.455
10615TIP3    H131788   6.384   7.049   3.404
10615TIP3    H231789   6.408   6.929   3.493
10616TIP3   OH231790   7.367   5.442   6.682
10616TIP3    H131791   7.441   5.482   6.636
10616TIP3    H231792   7.333   5.512   6.737
10617TIP3   OH231793   2.663   1.710   0.455
10617TIP3    H131794   2.742   1.702   0.402
10617TIP3    H231795   2.693   1.746   0.538
10618TIP3   OH231796   2.257   3.609   5.076
10618TIP3    H131797   2.316   3.647   5.010
10618TIP3    H231798   2.198   3.553   5.026
10619TIP3   OH231799   1.669   5.482   0.032
10619TIP3    H131800   1.703   5.565   0.065
10619TIP3    H231801   1.617   5.507  -0.045
10620TIP3   OH231802   1.879   3.923   2.591
10620TIP3    H131803   1.783   3.919   2.587
10620TIP3    H231804   1.897   3.950   2.681
10621TIP3   OH231805   3.875   5.245   5.597
10621TIP3    H131806   3.861   5.203   5.512
10621TIP3    H231807   3.967   5.229   5.616
10622TIP3   OH231808   3.045   5.246   2.857
10622TIP3    H131809   2.997   5.274   2.934
10622TIP3    H231810   3.113   5.312   2.844
10623TIP3   OH231811   7.965   5.054   3.404
10623TIP3    H131812   7.908   4.978   3.417
10623TIP3    H231813   7.920   5.125   3.450
10624TIP3   OH231814   5.709   6.952   3.762
10624TIP3    H131815   5.765   7.022   3.727
10624TIP3    H231816   5.759   6.872   3.746
10625TIP3   OH231817   3.706   3.307   5.459
10625TIP3    H131818   3.678   3.389   5.497
10625TIP3    H231819   3.625   3.256   5.447
10626TIP3   OH231820   7.855   2.980   2.676
10626TIP3    H131821   7.945   2.953   2.691
10626TIP3    H231822   7.838   3.047   2.742
10627TIP3   OH231823   1.543   6.585   2.767
10627TIP3    H131824   1.510   6.662   2.814
10627TIP3    H231825   1.615   6.619   2.714
10628TIP3   OH231826   7.957   1.383   4.329
10628TIP3    H131827   7.914   1.433   4.398
10628TIP3    H231828   7.892   1.319   4.301
10629TIP3   OH231829   3.477   7.785   2.309
10629TIP3    H131830   3.509   7.694   2.310
10629TIP3    H231831   3.383   7.777   2.294
10630TIP3   OH231832   6.558   1.041   5.521
10630TIP3    H131833   6.536   1.081   5.437
10630TIP3    H231834   6.594   0.956   5.499
10631TIP3   OH231835   3.362   0.263   4.342
10631TIP3    H131836   3.286   0.322   4.343
10631TIP3    H231837   3.428   0.309   4.291
10632TIP3   OH231838   4.713   4.032   1.654
10632TIP3    H131839   4.772   3.977   1.706
10632TIP3    H231840   4.771   4.087   1.602
10633TIP3   OH231841   7.394   5.379   3.266
10633TIP3    H131842   7.403   5.474   3.268
10633TIP3    H231843   7.441   5.352   3.187
10634TIP3   OH231844   5.970   6.547   4.144
10634TIP3    H131845   6.058   6.576   4.120
10634TIP3    H231846   5.930   6.518   4.062
10635TIP3   OH231847   0.938   6.186   6.114
10635TIP3    H131848   0.973   6.275   6.121
10635TIP3    H231849   0.859   6.195   6.061
10636TIP3   OH231850   1.678   4.166   0.424
10636TIP3    H131851   1.612   4.205   0.367
10636TIP3    H231852   1.664   4.207   0.509
10637TIP3   OH231853   7.479   3.100   5.729
10637TIP3    H131854   7.407   3.161   5.746
10637TIP3    H231855   7.532   3.143   5.663
10638TIP3   OH231856   4.278   0.371   1.561
10638TIP3    H131857   4.315   0.418   1.487
10638TIP3    H231858   4.286   0.278   1.538
10639TIP3   OH231859   1.520   4.854   6.602
10639TIP3    H131860   1.481   4.910   6.535
10639TIP3    H231861   1.449   4.796   6.629
10640TIP3   OH231862   4.633   1.218   3.244
10640TIP3    H131863   4.544   1.251   3.253
10640TIP3    H231864   4.683   1.263   3.312
10641TIP3   OH231865   5.159   0.560   3.364
10641TIP3    H131866   5.091   0.545   3.299
10641TIP3    H231867   5.112   0.568   3.447
10642TIP3   OH231868   6.227   6.026   5.519
10642TIP3    H131869   6.218   6.109   5.565
10642TIP3    H231870   6.266   5.966   5.583
10643TIP3   OH231871   3.941   5.904   0.848
10643TIP3    H131872   3.872   5.868   0.792
10643TIP3    H231873   3.899   5.976   0.895
10644TIP3   OH231874   3.636   6.970   3.556
10644TIP3    H131875   3.581   7.028   3.503
10644TIP3    H231876   3.720   6.967   3.509
10645TIP3   OH231877   0.324   1.762   3.121
10645TIP3    H131878   0.315   1.830   3.187
10645TIP3    H231879   0.235   1.728   3.109
10646TIP3   OH231880   2.927   7.065   0.165
10646TIP3    H131881   2.987   6.992   0.150
10646TIP3    H231882   2.896   7.088   0.077
10647TIP3   OH231883   2.080   5.333   4.110
10647TIP3    H131884   1.993   5.304   4.139
10647TIP3    H231885   2.102   5.405   4.169
10648TIP3   OH231886   3.665   3.457   3.545
10648TIP3    H131887   3.732   3.510   3.588
10648TIP3    H231888   3.593   3.453   3.607
10649TIP3   OH231889   3.180   1.529   5.931
10649TIP3    H131890   3.219   1.568   6.009
10649TIP3    H231891   3.147   1.444   5.961
10650TIP3   OH231892   0.748   3.061   1.495
10650TIP3    H131893   0.747   3.059   1.590
10650TIP3    H231894   0.822   3.004   1.471
10651TIP3   OH231895   6.168   3.927   5.482
10651TIP3    H131896   6.173   3.847   5.430
10651TIP3    H231897   6.234   3.916   5.550
10652TIP3   OH231898   0.134   3.583   5.034
10652TIP3    H131899   0.061   3.641   5.058
10652TIP3    H231900   0.100   3.495   5.051
10653TIP3   OH231901   2.552   5.660   1.799
10653TIP3    H131902   2.579   5.696   1.884
10653TIP3    H231903   2.599   5.713   1.735
10654TIP3   OH231904   0.889   2.195   5.030
10654TIP3    H131905   0.931   2.252   4.966
10654TIP3    H231906   0.878   2.111   4.984
10655TIP3   OH231907   2.016   0.151   2.047
10655TIP3    H131908   2.017   0.080   2.111
10655TIP3    H231909   1.973   0.224   2.092
10656TIP3   OH231910   3.755   4.902   3.592
10656TIP3    H131911   3.686   4.836   3.600
10656TIP3    H231912   3.709   4.986   3.599
10657TIP3   OH231913   2.266   1.951   4.013
10657TIP3    H131914   2.294   1.865   3.981
10657TIP3    H231915   2.218   1.932   4.094
10658TIP3   OH231916   0.350   6.058   6.008
10658TIP3    H131917   0.334   6.056   6.102
10658TIP3    H231918   0.412   5.988   5.991
10659TIP3   OH231919   3.296   6.486   4.239
10659TIP3    H131920   3.210   6.527   4.234
10659TIP3    H231921   3.345   6.523   4.166
10660TIP3   OH231922   1.045   6.300   1.639
10660TIP3    H131923   1.011   6.379   1.682
10660TIP3    H231924   1.128   6.283   1.683
10661TIP3   OH231925   1.857   4.035   1.646
10661TIP3    H131926   1.891   4.042   1.735
10661TIP3    H231927   1.831   3.943   1.638
10662TIP3   OH231928   1.060   1.991   1.382
10662TIP3    H131929   0.977   2.030   1.410
10662TIP3    H231930   1.107   2.063   1.341
10663TIP3   OH231931   2.504   0.832   2.355
10663TIP3    H131932   2.593   0.796   2.357
10663TIP3    H231933   2.499   0.879   2.272
10664TIP3   OH231934   3.440   1.881   3.900
10664TIP3    H131935   3.385   1.883   3.822
10664TIP3    H231936   3.384   1.914   3.971
10665TIP3   OH231937   4.934   7.727   5.496
10665TIP3    H131938   4.965   7.644   5.533
10665TIP3    H231939   4.963   7.793   5.559
10666TIP3   OH231940   1.943   1.704   2.801
10666TIP3    H131941   1.943   1.641   2.730
10666TIP3    H231942   1.989   1.660   2.873
10667TIP3   OH231943   5.865   7.355   3.030
10667TIP3    H131944   5.939   7.300   3.004
10667TIP3    H231945   5.904   7.441   3.047
10668TIP3   OH231946   7.806   1.694   3.168
10668TIP3    H131947   7.841   1.722   3.084
10668TIP3    H231948   7.843   1.607   3.181
10669TIP3   OH231949   7.786   5.402   2.290
10669TIP3    H131950   7.807   5.424   2.381
10669TIP3    H231951   7.800   5.484   2.242
10670TIP3   OH231952   1.548   2.868   4.463
10670TIP3    H131953   1.630   2.913   4.482
10670TIP3    H231954   1.519   2.905   4.380
10671TIP3   OH231955   3.825   4.808   3.238
10671TIP3    H131956   3.905   4.809   3.290
10671TIP3    H231957   3.768   4.746   3.284
10672TIP3   OH231958   5.887   3.520   4.079
10672TIP3    H131959   5.866   3.433   4.111
10672TIP3    H231960   5.815   3.542   4.019
10673TIP3   OH231961   4.229   0.021   1.842
10673TIP3    H131962   4.180   0.034   1.761
10673TIP3    H231963   4.177  -0.044   1.891
10674TIP3   OH231964   3.102   1.388   4.145
10674TIP3    H131965   3.174   1.325   4.136
10674TIP3    H231966   3.145   1.472   4.155
10675TIP3   OH231967   5.107   3.967   5.084
10675TIP3    H131968   5.133   4.059   5.078
10675TIP3    H231969   5.090   3.941   4.994
10676TIP3   OH231970   1.634   3.133   1.594
10676TIP3    H131971   1.647   3.046   1.557
10676TIP3    H231972   1.540   3.151   1.581
10677TIP3   OH231973   5.098   0.245   5.309
10677TIP3    H131974   5.156   0.316   5.335
10677TIP3    H231975   5.011   0.285   5.308
10678TIP3   OH231976   5.369   6.158   5.281
10678TIP3    H131977   5.383   6.197   5.195
10678TIP3    H231978   5.413   6.073   5.276
10679TIP3   OH231979   3.901   3.054   4.453
10679TIP3    H131980   3.847   3.118   4.498
10679TIP3    H231981   3.843   2.980   4.438
10680TIP3   OH231982   7.634   4.350   2.077
10680TIP3    H131983   7.682   4.430   2.056
10680TIP3    H231984   7.702   4.287   2.100
10681TIP3   OH231985   3.707   2.876   4.361
10681TIP3    H131986   3.629   2.923   4.332
10681TIP3    H231987   3.749   2.846   4.281
10682TIP3   OH231988   5.674   7.257   5.826
10682TIP3    H131989   5.759   7.214   5.823
10682TIP3    H231990   5.677   7.321   5.755
10683TIP3   OH231991   6.471   2.688   1.152
10683TIP3    H131992   6.566   2.690   1.149
10683TIP3    H231993   6.444   2.709   1.062
10684TIP3   OH231994   1.660   4.330   2.476
10684TIP3    H131995   1.580   4.287   2.508
10684TIP3    H231996   1.631   4.418   2.452
10685TIP3   OH231997   0.039   5.199   4.301
10685TIP3    H131998   0.016   5.159   4.217
10685TIP3    H231999   0.067   5.288   4.277
10686TIP3   OH232000   7.311   3.909   5.477
10686TIP3    H132001   7.227   3.947   5.450
10686TIP3    H232002   7.354   3.885   5.395
10687TIP3   OH232003   5.180   3.595   2.429
10687TIP3    H132004   5.114   3.649   2.471
10687TIP3    H232005   5.159   3.597   2.336
10688TIP3   OH232006   1.749   3.526   4.754
10688TIP3    H132007   1.724   3.434   4.760
10688TIP3    H232008   1.680   3.573   4.801
10689TIP3   OH232009   0.334   0.169   0.670
10689TIP3    H132010   0.322   0.075   0.685
10689TIP3    H232011   0.310   0.183   0.579
10690TIP3   OH232012   5.853   5.941   5.124
10690TIP3    H132013   5.785   6.000   5.090
10690TIP3    H232014   5.805   5.862   5.148
10691TIP3   OH232015   8.269   2.852   5.743
10691TIP3    H132016   8.202   2.920   5.729
10691TIP3    H232017   8.224   2.785   5.794
10692TIP3   OH232018   2.546   5.018   3.654
10692TIP3    H132019   2.494   5.050   3.581
10692TIP3    H232020   2.524   5.076   3.727
10693TIP3   OH232021   5.620   4.215   4.422
10693TIP3    H132022   5.636   4.269   4.500
10693TIP3    H232023   5.526   4.224   4.406
10694TIP3   OH232024   6.954   7.526   0.342
10694TIP3    H132025   6.966   7.508   0.436
10694TIP3    H232026   7.040   7.510   0.303
10695TIP3   OH232027   1.512   2.142   6.014
10695TIP3    H132028   1.515   2.049   6.036
10695TIP3    H232029   1.568   2.184   6.080
10696TIP3   OH232030   4.475   5.071   5.661
10696TIP3    H132031   4.477   5.149   5.716
10696TIP3    H232032   4.422   5.097   5.585
10697TIP3   OH232033   3.062   6.754   0.281
10697TIP3    H132034   3.044   6.768   0.374
10697TIP3    H232035   3.109   6.671   0.277
10698TIP3   OH232036   4.690   2.339   4.265
10698TIP3    H132037   4.664   2.409   4.205
10698TIP3    H232038   4.730   2.384   4.339
10699TIP3   OH232039   7.669   4.639   3.201
10699TIP3    H132040   7.576   4.649   3.218
10699TIP3    H232041   7.686   4.546   3.220
10700TIP3   OH232042   6.937   6.130   2.528
10700TIP3    H132043   6.870   6.174   2.581
10700TIP3    H232044   6.974   6.064   2.587
10701TIP3   OH232045   1.464   5.422   4.757
10701TIP3    H132046   1.374   5.430   4.790
10701TIP3    H232047   1.486   5.330   4.773
10702TIP3   OH232048   1.321   2.711   2.591
10702TIP3    H132049   1.349   2.707   2.683
10702TIP3    H232050   1.262   2.636   2.581
10703TIP3   OH232051   4.203   5.831   0.845
10703TIP3    H132052   4.109   5.849   0.849
10703TIP3    H232053   4.212   5.740   0.873
10704TIP3   OH232054   0.047   2.509   2.182
10704TIP3    H132055   0.024   2.417   2.196
10704TIP3    H232056  -0.002   2.557   2.249
10705TIP3   OH232057   6.594   3.206   0.557
10705TIP3    H132058   6.661   3.263   0.518
10705TIP3    H232059   6.596   3.127   0.503
10706TIP3   OH232060   3.883   3.531   3.924
10706TIP3    H132061   3.971   3.544   3.889
10706TIP3    H232062   3.864   3.438   3.911
10707TIP3   OH232063   0.225   5.676   1.658
10707TIP3    H132064   0.234   5.771   1.665
10707TIP3    H232065   0.215   5.647   1.749
10708TIP3   OH232066   2.851   5.181   3.218
10708TIP3    H132067   2.935   5.137   3.229
10708TIP3    H232068   2.873   5.270   3.191
10709TIP3   OH232069   0.123   2.725   3.821
10709TIP3    H132070   0.175   2.801   3.849
10709TIP3    H232071   0.112   2.673   3.900
10710TIP3   OH232072   4.924   2.513   2.997
10710TIP3    H132073   4.889   2.594   2.959
10710TIP3    H232074   4.955   2.463   2.922
10711TIP3   OH232075   3.605   0.168   5.412
10711TIP3    H132076   3.527   0.114   5.399
10711TIP3    H232077   3.589   0.245   5.358
10712TIP3   OH232078   2.880   5.055   3.767
10712TIP3    H132079   2.948   4.991   3.748
10712TIP3    H232080   2.846   5.080   3.681
10713TIP3   OH232081   4.111   6.738   3.938
10713TIP3    H132082   4.093   6.651   3.903
10713TIP3    H232083   4.053   6.747   4.014
10714TIP3   OH232084   4.368   5.382   1.915
10714TIP3    H132085   4.363   5.352   1.824
10714TIP3    H232086   4.454   5.354   1.945
10715TIP3   OH232087   0.593   7.207   1.549
10715TIP3    H132088   0.603   7.267   1.623
10715TIP3    H232089   0.631   7.124   1.580
10716TIP3   OH232090  -0.004   3.048   4.398
10716TIP3    H132091   0.076   2.996   4.409
10716TIP3    H232092  -0.070   2.984   4.369
10717TIP3   OH232093   7.190   6.324   3.637
10717TIP3    H132094   7.257   6.290   3.697
10717TIP3    H232095   7.203   6.418   3.637
10718TIP3   OH232096   2.072   1.963   2.870
10718TIP3    H132097   2.004   2.029   2.884
10718TIP3    H232098   2.025   1.884   2.843
10719TIP3   OH232099   3.890   6.128   5.947
10719TIP3    H132100   3.977   6.128   5.987
10719TIP3    H232101   3.876   6.218   5.920
10720TIP3   OH232102   6.317   4.942   1.813
10720TIP3    H132103   6.229   4.913   1.840
10720TIP3    H232104   6.305   4.976   1.725
10721TIP3   OH232105   6.640   2.013   3.680
10721TIP3    H132106   6.709   1.995   3.744
10721TIP3    H232107   6.562   2.032   3.732
10722TIP3   OH232108   3.018   5.281   1.403
10722TIP3    H132109   2.931   5.242   1.417
10722TIP3    H232110   3.054   5.233   1.328
10723TIP3   OH232111   2.635   2.937   3.943
10723TIP3    H132112   2.650   3.019   3.897
10723TIP3    H232113   2.677   2.949   4.028
10724TIP3   OH232114   6.052   2.248   3.621
10724TIP3    H132115   6.005   2.235   3.704
10724TIP3    H232116   6.144   2.261   3.648
10725TIP3   OH232117   7.445   6.815   6.350
10725TIP3    H132118   7.506   6.775   6.413
10725TIP3    H232119   7.434   6.905   6.381
10726TIP3   OH232120   2.905   3.879   5.845
10726TIP3    H132121   2.832   3.941   5.843
10726TIP3    H232122   2.933   3.878   5.937
10727TIP3   OH232123   1.780   7.532   0.905
10727TIP3    H132124   1.863   7.485   0.900
10727TIP3    H232125   1.713   7.464   0.907
10728TIP3   OH232126   3.393   4.943   2.559
10728TIP3    H132127   3.355   4.991   2.633
10728TIP3    H232128   3.442   4.871   2.599
10729TIP3   OH232129   5.450   1.627   2.650
10729TIP3    H132130   5.472   1.534   2.652
10729TIP3    H232131   5.501   1.662   2.576
10730TIP3   OH232132   0.041   3.787   2.765
10730TIP3    H132133  -0.022   3.806   2.834
10730TIP3    H232134  -0.002   3.721   2.711
10731TIP3   OH232135   4.895   6.777   1.567
10731TIP3    H132136   4.944   6.700   1.538
10731TIP3    H232137   4.874   6.759   1.658
10732TIP3   OH232138   6.815   0.447   3.255
10732TIP3    H132139   6.739   0.440   3.197
10732TIP3    H232140   6.858   0.362   3.248
10733TIP3   OH232141   3.135   2.192   2.844
10733TIP3    H132142   3.105   2.281   2.829
10733TIP3    H232143   3.148   2.155   2.757
10734TIP3   OH232144   1.443   1.480   6.539
10734TIP3    H132145   1.436   1.574   6.555
10734TIP3    H232146   1.446   1.442   6.627
10735TIP3   OH232147   0.883   5.012   1.066
10735TIP3    H132148   0.830   5.007   1.146
10735TIP3    H232149   0.964   4.966   1.089
10736TIP3   OH232150   0.246   6.231   4.849
10736TIP3    H132151   0.243   6.237   4.753
10736TIP3    H232152   0.294   6.150   4.866
10737TIP3   OH232153   2.728   0.778   2.883
10737TIP3    H132154   2.795   0.717   2.913
10737TIP3    H232155   2.763   0.864   2.905
10738TIP3   OH232156   7.151   4.283   0.864
10738TIP3    H132157   7.196   4.300   0.781
10738TIP3    H232158   7.063   4.256   0.839
10739TIP3   OH232159   2.922   6.156   3.359
10739TIP3    H132160   2.853   6.113   3.409
10739TIP3    H232161   2.992   6.091   3.354
10740TIP3   OH232162   5.137   4.535   3.803
10740TIP3    H132163   5.071   4.492   3.748
10740TIP3    H232164   5.128   4.494   3.888
10741TIP3   OH232165   5.757   4.615   1.991
10741TIP3    H132166   5.772   4.622   2.085
10741TIP3    H232167   5.844   4.616   1.952
10742TIP3   OH232168   2.320   6.069   1.997
10742TIP3    H132169   2.400   6.098   1.953
10742TIP3    H232170   2.307   5.979   1.967
10743TIP3   OH232171   6.728   7.729   1.142
10743TIP3    H132172   6.660   7.661   1.150
10743TIP3    H232173   6.727   7.753   1.050
10744TIP3   OH232174   1.432   3.150   5.875
10744TIP3    H132175   1.446   3.190   5.789
10744TIP3    H232176   1.436   3.056   5.859
10745TIP3   OH232177   7.355   2.785   1.536
10745TIP3    H132178   7.430   2.845   1.536
10745TIP3    H232179   7.294   2.823   1.472
10746TIP3   OH232180   1.761   0.741   6.485
10746TIP3    H132181   1.674   0.728   6.524
10746TIP3    H232182   1.791   0.824   6.523
10747TIP3   OH232183   8.134   2.210   4.357
10747TIP3    H132184   8.190   2.251   4.424
10747TIP3    H232185   8.189   2.142   4.318
10748TIP3   OH232186   2.859   5.768   4.813
10748TIP3    H132187   2.887   5.735   4.728
10748TIP3    H232188   2.922   5.838   4.833
10749TIP3   OH232189   5.659   5.562   3.728
10749TIP3    H132190   5.684   5.533   3.816
10749TIP3    H232191   5.563   5.557   3.727
10750TIP3   OH232192   8.009   2.410   1.241
10750TIP3    H132193   7.967   2.495   1.227
10750TIP3    H232194   8.095   2.432   1.278
10751TIP3   OH232195   1.903   7.076   5.597
10751TIP3    H132196   1.996   7.089   5.580
10751TIP3    H232197   1.894   6.981   5.604
10752TIP3   OH232198   1.873   3.148   3.739
10752TIP3    H132199   1.795   3.186   3.779
10752TIP3    H232200   1.878   3.189   3.653
10753TIP3   OH232201   5.990   6.272   3.871
10753TIP3    H132202   5.996   6.190   3.920
10753TIP3    H232203   6.075   6.280   3.827
10754TIP3   OH232204   6.239   5.615   5.470
10754TIP3    H132205   6.215   5.611   5.563
10754TIP3    H232206   6.332   5.636   5.471
10755TIP3   OH232207   7.258   4.327   4.275
10755TIP3    H132208   7.275   4.391   4.207
10755TIP3    H232209   7.335   4.333   4.333
10756TIP3   OH232210   7.280   3.885   1.247
10756TIP3    H132211   7.231   3.874   1.328
10756TIP3    H232212   7.252   3.971   1.214
10757TIP3   OH232213   7.941   0.075   0.638
10757TIP3    H132214   7.849   0.102   0.629
10757TIP3    H232215   7.967   0.107   0.725
10758TIP3   OH232216   3.190   2.286   0.215
10758TIP3    H132217   3.274   2.263   0.176
10758TIP3    H232218   3.132   2.214   0.192
10759TIP3   OH232219   8.102   4.959   2.224
10759TIP3    H132220   8.079   5.041   2.267
10759TIP3    H232221   8.061   4.965   2.138
10760TIP3   OH232222   0.325   3.867   1.801
10760TIP3    H132223   0.416   3.843   1.784
10760TIP3    H232224   0.302   3.819   1.881
10761TIP3   OH232225   1.832   1.506   4.473
10761TIP3    H132226   1.802   1.441   4.536
10761TIP3    H232227   1.923   1.522   4.498
10762TIP3   OH232228   0.774   1.171   1.012
10762TIP3    H132229   0.771   1.187   1.107
10762TIP3    H232230   0.840   1.102   1.002
10763TIP3   OH232231   2.416   4.889   0.023
10763TIP3    H132232   2.421   4.976  -0.017
10763TIP3    H232233   2.323   4.874   0.035
10764TIP3   OH232234   1.685   0.936   2.854
10764TIP3    H132235   1.675   0.877   2.779
10764TIP3    H232236   1.768   0.909   2.894
10765TIP3   OH232237   3.449   2.523   1.671
10765TIP3    H132238   3.485   2.551   1.755
10765TIP3    H232239   3.363   2.564   1.667
10766TIP3   OH232240   4.843   2.014   1.483
10766TIP3    H132241   4.812   2.099   1.453
10766TIP3    H232242   4.914   1.992   1.422
10767TIP3   OH232243   5.941   6.045   2.840
10767TIP3    H132244   5.917   5.990   2.765
10767TIP3    H232245   5.906   6.132   2.817
10768TIP3   OH232246   6.448   5.503   4.911
10768TIP3    H132247   6.517   5.460   4.961
10768TIP3    H232248   6.440   5.590   4.950
10769TIP3   OH232249   0.247   1.677   6.515
10769TIP3    H132250   0.244   1.652   6.423
10769TIP3    H232251   0.158   1.706   6.535
10770TIP3   OH232252   8.184   6.224   6.116
10770TIP3    H132253   8.263   6.171   6.111
10770TIP3    H232254   8.181   6.255   6.207
10771TIP3   OH232255   2.333   2.616   4.176
10771TIP3    H132256   2.417   2.588   4.141
10771TIP3    H232257   2.349   2.705   4.208
10772TIP3   OH232258   1.037   0.340   6.449
10772TIP3    H132259   1.018   0.431   6.426
10772TIP3    H232260   1.005   0.289   6.375
10773TIP3   OH232261   4.905   3.146   2.240
10773TIP3    H132262   4.956   3.145   2.159
10773TIP3    H232263   4.953   3.089   2.299
10774TIP3   OH232264   7.176   1.807   3.873
10774TIP3    H132265   7.145   1.883   3.922
10774TIP3    H232266   7.214   1.750   3.940
10775TIP3   OH232267   2.059   2.128   0.310
10775TIP3    H132268   2.115   2.055   0.286
10775TIP3    H232269   2.061   2.186   0.235
10776TIP3   OH232270   2.551   2.889   1.629
10776TIP3    H132271   2.510   2.930   1.705
10776TIP3    H232272   2.645   2.896   1.645
10777TIP3   OH232273   7.099   0.718   0.243
10777TIP3    H132274   7.082   0.631   0.279
10777TIP3    H232275   7.117   0.773   0.320
10778TIP3   OH232276   0.599   1.284   2.425
10778TIP3    H132277   0.626   1.372   2.398
10778TIP3    H232278   0.662   1.225   2.384
10779TIP3   OH232279   1.794   2.270   0.623
10779TIP3    H132280   1.756   2.214   0.556
10779TIP3    H232281   1.888   2.266   0.608
10780TIP3   OH232282   2.585   1.732   4.354
10780TIP3    H132283   2.608   1.687   4.435
10780TIP3    H232284   2.552   1.817   4.382
10781TIP3   OH232285   1.187   3.857   4.740
10781TIP3    H132286   1.129   3.930   4.720
10781TIP3    H232287   1.217   3.874   4.830
10782TIP3   OH232288   3.870   1.664   0.651
10782TIP3    H132289   3.878   1.759   0.637
10782TIP3    H232290   3.912   1.649   0.736
10783TIP3   OH232291   3.906   5.607   1.991
10783TIP3    H132292   3.900   5.512   2.002
10783TIP3    H232293   3.928   5.619   1.898
10784TIP3   OH232294   3.947   4.543   6.723
10784TIP3    H132295   4.034   4.569   6.752
10784TIP3    H232296   3.889   4.613   6.756
10785TIP3   OH232297   5.007   4.558   2.458
10785TIP3    H132298   4.966   4.547   2.372
10785TIP3    H232299   5.026   4.469   2.487
10786TIP3   OH232300   3.036   6.610   0.783
10786TIP3    H132301   3.112   6.553   0.768
10786TIP3    H232302   3.006   6.588   0.872
10787TIP3   OH232303   1.723   1.873   3.850
10787TIP3    H132304   1.797   1.931   3.866
10787TIP3    H232305   1.708   1.829   3.934
10788TIP3   OH232306   7.239   3.717   1.919
10788TIP3    H132307   7.189   3.753   1.992
10788TIP3    H232308   7.176   3.664   1.870
10789TIP3   OH232309   4.809   4.540   5.626
10789TIP3    H132310   4.897   4.531   5.590
10789TIP3    H232311   4.768   4.608   5.573
10790TIP3   OH232312   7.428   1.617   2.171
10790TIP3    H132313   7.523   1.604   2.169
10790TIP3    H232314   7.402   1.587   2.258
10791TIP3   OH232315   1.305   3.329   3.262
10791TIP3    H132316   1.262   3.289   3.338
10791TIP3    H232317   1.383   3.277   3.247
10792TIP3   OH232318   0.929   1.070   0.197
10792TIP3    H132319   0.836   1.072   0.175
10792TIP3    H232320   0.968   1.013   0.130
10793TIP3   OH232321   1.871   0.439   6.452
10793TIP3    H132322   1.814   0.368   6.422
10793TIP3    H232323   1.825   0.478   6.526
10794TIP3   OH232324   3.843   0.049   6.787
10794TIP3    H132325   3.810   0.106   6.717
10794TIP3    H232326   3.923   0.012   6.752
10795TIP3   OH232327   7.353   0.769   3.447
10795TIP3    H132328   7.362   0.676   3.469
10795TIP3    H232329   7.275   0.797   3.495
10796TIP3   OH232330   2.400   7.388   5.819
10796TIP3    H132331   2.352   7.443   5.881
10796TIP3    H232332   2.347   7.389   5.739
10797TIP3   OH232333   3.275   5.765   2.941
10797TIP3    H132334   3.287   5.858   2.924
10797TIP3    H232335   3.362   5.734   2.968
10798TIP3   OH232336   3.014   6.307   6.183
10798TIP3    H132337   3.085   6.371   6.186
10798TIP3    H232338   3.031   6.257   6.103
10799TIP3   OH232339   3.527   4.258   0.327
10799TIP3    H132340   3.539   4.240   0.420
10799TIP3    H232341   3.536   4.353   0.319
10800TIP3   OH232342   0.086   5.031   1.822
10800TIP3    H132343   0.002   4.995   1.850
10800TIP3    H232344   0.125   5.066   1.901
10801TIP3   OH232345   4.569   6.607   3.096
10801TIP3    H132346   4.606   6.612   3.008
10801TIP3    H232347   4.509   6.532   3.093
10802TIP3   OH232348   6.099   7.514   6.347
10802TIP3    H132349   6.162   7.466   6.293
10802TIP3    H232350   6.147   7.534   6.428
10803TIP3   OH232351   5.635   3.245   6.092
10803TIP3    H132352   5.670   3.332   6.073
10803TIP3    H232353   5.653   3.232   6.185
10804TIP3   OH232354   2.649   5.838   0.916
10804TIP3    H132355   2.575   5.887   0.881
10804TIP3    H232356   2.631   5.747   0.894
10805TIP3   OH232357   5.332   3.272   6.320
10805TIP3    H132358   5.404   3.321   6.281
10805TIP3    H232359   5.357   3.260   6.411
10806TIP3   OH232360   3.505   4.895   0.183
10806TIP3    H132361   3.424   4.858   0.148
10806TIP3    H232362   3.574   4.865   0.123
10807TIP3   OH232363   0.868   7.577   4.747
10807TIP3    H132364   0.896   7.498   4.701
10807TIP3    H232365   0.812   7.623   4.684
10808TIP3   OH232366   6.758   4.404   6.691
10808TIP3    H132367   6.699   4.457   6.637
10808TIP3    H232368   6.719   4.408   6.779
10809TIP3   OH232369   2.127   5.255   2.832
10809TIP3    H132370   2.212   5.247   2.788
10809TIP3    H232371   2.066   5.207   2.775
10810TIP3   OH232372   3.677   6.632   4.924
10810TIP3    H132373   3.767   6.602   4.937
10810TIP3    H232374   3.685   6.700   4.857
10811TIP3   OH232375   6.606   5.277   5.060
10811TIP3    H132376   6.535   5.216   5.077
10811TIP3    H232377   6.624   5.317   5.145
10812TIP3   OH232378   6.475   0.838   0.860
10812TIP3    H132379   6.449   0.929   0.847
10812TIP3    H232380   6.395   0.787   0.847
10813TIP3   OH232381   4.933   5.566   1.969
10813TIP3    H132382   4.863   5.624   1.941
10813TIP3    H232383   4.915   5.483   1.923
10814TIP3   OH232384   3.762   3.815   4.520
10814TIP3    H132385   3.845   3.777   4.550
10814TIP3    H232386   3.776   3.909   4.522
10815TIP3   OH232387   3.295   6.558   1.982
10815TIP3    H132388   3.303   6.472   1.940
10815TIP3    H232389   3.275   6.538   2.074
10816TIP3   OH232390   0.921   0.532   0.992
10816TIP3    H132391   0.942   0.460   0.933
10816TIP3    H232392   0.969   0.607   0.956
10817TIP3   OH232393   5.159   0.989   3.768
10817TIP3    H132394   5.184   0.911   3.719
10817TIP3    H232395   5.064   0.994   3.760
10818TIP3   OH232396   8.188   2.608   5.125
10818TIP3    H132397   8.170   2.700   5.144
10818TIP3    H232398   8.253   2.610   5.055
10819TIP3   OH232399   6.341   6.894   0.493
10819TIP3    H132400   6.304   6.863   0.411
10819TIP3    H232401   6.268   6.889   0.555
10820TIP3   OH232402   0.169   2.518   1.940
10820TIP3    H132403   0.147   2.535   2.032
10820TIP3    H232404   0.239   2.580   1.920
10821TIP3   OH232405   0.906   1.954   5.910
10821TIP3    H132406   0.940   2.022   5.968
10821TIP3    H232407   0.873   1.886   5.969
10822TIP3   OH232408   1.942   7.291   4.979
10822TIP3    H132409   1.927   7.360   4.913
10822TIP3    H232410   2.038   7.285   4.986
10823TIP3   OH232411   5.606   6.083   5.058
10823TIP3    H132412   5.585   6.001   5.014
10823TIP3    H232413   5.525   6.134   5.056
10824TIP3   OH232414   1.338   5.453   5.681
10824TIP3    H132415   1.362   5.541   5.652
10824TIP3    H232416   1.299   5.412   5.604
10825TIP3   OH232417   4.134   5.383   5.539
10825TIP3    H132418   4.069   5.327   5.496
10825TIP3    H232419   4.191   5.413   5.468
10826TIP3   OH232420   0.840   5.971   6.656
10826TIP3    H132421   0.834   6.063   6.628
10826TIP3    H232422   0.934   5.954   6.663
10827TIP3   OH232423   7.076   0.965   4.079
10827TIP3    H132424   7.070   1.055   4.047
10827TIP3    H232425   7.121   0.973   4.163
10828TIP3   OH232426   7.842   6.476   2.785
10828TIP3    H132427   7.903   6.549   2.775
10828TIP3    H232428   7.894   6.398   2.764
10829TIP3   OH232429   1.316   5.006   5.730
10829TIP3    H132430   1.298   5.080   5.672
10829TIP3    H232431   1.401   5.026   5.770
10830TIP3   OH232432   5.655   3.952   6.723
10830TIP3    H132433   5.615   4.002   6.794
10830TIP3    H232434   5.584   3.901   6.685
10831TIP3   OH232435   7.296   2.021   5.718
10831TIP3    H132436   7.220   2.051   5.768
10831TIP3    H232437   7.369   2.027   5.779
10832TIP3   OH232438   5.630   4.880   2.033
10832TIP3    H132439   5.541   4.897   2.003
10832TIP3    H232440   5.639   4.785   2.026
10833TIP3   OH232441   2.302   1.101   2.069
10833TIP3    H132442   2.329   1.171   2.128
10833TIP3    H232443   2.382   1.053   2.050
10834TIP3   OH232444   2.548   7.010   3.077
10834TIP3    H132445   2.583   6.955   3.147
10834TIP3    H232446   2.623   7.059   3.045
10835TIP3   OH232447   6.007   0.336   0.355
10835TIP3    H132448   6.051   0.421   0.357
10835TIP3    H232449   6.077   0.272   0.368
10836TIP3   OH232450   3.719   0.251   3.074
10836TIP3    H132451   3.726   0.320   3.009
10836TIP3    H232452   3.804   0.251   3.118
10837TIP3   OH232453   0.489   7.516   3.952
10837TIP3    H132454   0.458   7.434   3.990
10837TIP3    H232455   0.469   7.509   3.859
10838TIP3   OH232456   4.145   3.990   1.371
10838TIP3    H132457   4.140   4.073   1.418
10838TIP3    H232458   4.083   3.999   1.299
10839TIP3   OH232459   0.475   7.616   5.786
10839TIP3    H132460   0.547   7.592   5.844
10839TIP3    H232461   0.399   7.623   5.844
10840TIP3   OH232462   1.406   1.800   6.569
10840TIP3    H132463   1.387   1.807   6.662
10840TIP3    H232464   1.444   1.884   6.545
10841TIP3   OH232465   1.426   7.536   3.419
10841TIP3    H132466   1.337   7.500   3.427
10841TIP3    H232467   1.430   7.605   3.485
10842TIP3   OH232468   3.049   7.611   4.244
10842TIP3    H132469   3.144   7.612   4.256
10842TIP3    H232470   3.030   7.696   4.203
10843TIP3   OH232471   2.471   4.175   4.315
10843TIP3    H132472   2.419   4.255   4.303
10843TIP3    H232473   2.536   4.198   4.381
10844TIP3   OH232474   7.819   3.956   0.283
10844TIP3    H132475   7.727   3.930   0.277
10844TIP3    H232476   7.853   3.943   0.194
10845TIP3   OH232477   4.073   0.053   6.412
10845TIP3    H132478   4.134   0.127   6.414
10845TIP3    H232479   4.051   0.037   6.503
10846TIP3   OH232480   1.398   0.193   5.882
10846TIP3    H132481   1.381   0.122   5.820
10846TIP3    H232482   1.493   0.188   5.898
10847TIP3   OH232483   8.262   7.503   6.586
10847TIP3    H132484   8.308   7.537   6.510
10847TIP3    H232485   8.171   7.493   6.557
10848TIP3   OH232486   5.137   1.170   4.635
10848TIP3    H132487   5.182   1.200   4.556
10848TIP3    H232488   5.068   1.112   4.603
10849TIP3   OH232489   3.010   6.764   3.855
10849TIP3    H132490   2.983   6.692   3.912
10849TIP3    H232491   3.106   6.765   3.861
10850TIP3   OH232492   8.002   4.288   3.801
10850TIP3    H132493   7.927   4.256   3.751
10850TIP3    H232494   7.970   4.368   3.843
10851TIP3   OH232495   2.355   2.400   3.039
10851TIP3    H132496   2.331   2.324   2.986
10851TIP3    H232497   2.283   2.462   3.024
10852TIP3   OH232498   0.928   2.034   1.976
10852TIP3    H132499   0.908   1.959   1.920
10852TIP3    H232500   1.018   2.019   2.003
10853TIP3   OH232501   8.180   3.453   1.362
10853TIP3    H132502   8.191   3.358   1.374
10853TIP3    H232503   8.269   3.486   1.351
10854TIP3   OH232504   8.123   6.082   0.694
10854TIP3    H132505   8.095   6.017   0.630
10854TIP3    H232506   8.182   6.140   0.647
10855TIP3   OH232507   2.907   5.405   0.763
10855TIP3    H132508   2.974   5.437   0.703
10855TIP3    H232509   2.954   5.389   0.845
10856TIP3   OH232510   7.661   6.027   1.223
10856TIP3    H132511   7.631   6.004   1.135
10856TIP3    H232512   7.724   6.097   1.210
10857TIP3   OH232513   0.704   0.391   6.747
10857TIP3    H132514   0.757   0.404   6.668
10857TIP3    H232515   0.726   0.465   6.803
10858TIP3   OH232516   2.187   4.373   0.091
10858TIP3    H132517   2.241   4.428   0.035
10858TIP3    H232518   2.200   4.284   0.058
10859TIP3   OH232519   4.194   4.048   6.074
10859TIP3    H132520   4.136   4.118   6.046
10859TIP3    H232521   4.136   3.979   6.107
10860TIP3   OH232522   3.574   7.608   2.819
10860TIP3    H132523   3.612   7.541   2.763
10860TIP3    H232524   3.509   7.651   2.764
10861TIP3   OH232525   5.503   2.119   6.349
10861TIP3    H132526   5.501   2.032   6.387
10861TIP3    H232527   5.554   2.110   6.268
10862TIP3   OH232528   4.134   1.831   4.109
10862TIP3    H132529   4.122   1.924   4.085
10862TIP3    H232530   4.207   1.831   4.170
10863TIP3   OH232531   2.769   0.928   6.287
10863TIP3    H132532   2.699   0.992   6.299
10863TIP3    H232533   2.808   0.950   6.203
10864TIP3   OH232534   3.943   6.658   0.988
10864TIP3    H132535   4.026   6.692   0.954
10864TIP3    H232536   3.919   6.588   0.927
10865TIP3   OH232537   1.492   3.536   4.409
10865TIP3    H132538   1.534   3.464   4.363
10865TIP3    H232539   1.421   3.495   4.459
10866TIP3   OH232540   1.305   5.439   6.214
10866TIP3    H132541   1.351   5.489   6.146
10866TIP3    H232542   1.215   5.473   6.213
10867TIP3   OH232543   2.083   4.783   4.626
10867TIP3    H132544   2.025   4.852   4.656
10867TIP3    H232545   2.121   4.816   4.544
10868TIP3   OH232546   6.930   6.545   0.139
10868TIP3    H132547   7.006   6.520   0.086
10868TIP3    H232548   6.855   6.532   0.081
10869TIP3   OH232549   4.558   4.744   4.953
10869TIP3    H132550   4.613   4.667   4.945
10869TIP3    H232551   4.610   4.815   4.915
10870TIP3   OH232552   7.243   6.153   5.320
10870TIP3    H132553   7.166   6.104   5.349
10870TIP3    H232554   7.208   6.234   5.283
10871TIP3   OH232555   8.216   4.312   0.488
10871TIP3    H132556   8.204   4.403   0.459
10871TIP3    H232557   8.174   4.260   0.420
10872TIP3   OH232558   0.373   0.509   3.733
10872TIP3    H132559   0.384   0.595   3.691
10872TIP3    H232560   0.443   0.505   3.798
10873TIP3   OH232561   6.625   7.197   2.942
10873TIP3    H132562   6.661   7.178   3.028
10873TIP3    H232563   6.594   7.287   2.948
10874TIP3   OH232564   1.692   5.105   4.592
10874TIP3    H132565   1.630   5.069   4.528
10874TIP3    H232566   1.772   5.121   4.542
10875TIP3   OH232567   2.162   7.685   4.091
10875TIP3    H132568   2.108   7.743   4.038
10875TIP3    H232569   2.171   7.606   4.037
10876TIP3   OH232570   5.048   5.106   0.609
10876TIP3    H132571   5.096   5.121   0.690
10876TIP3    H232572   5.026   5.013   0.611
10877TIP3   OH232573   0.506   1.485   4.829
10877TIP3    H132574   0.449   1.540   4.775
10877TIP3    H232575   0.453   1.464   4.906
10878TIP3   OH232576   4.160   6.438   2.025
10878TIP3    H132577   4.161   6.412   1.933
10878TIP3    H232578   4.085   6.393   2.063
10879TIP3   OH232579   4.913   5.350   5.524
10879TIP3    H132580   4.919   5.257   5.544
10879TIP3    H232581   4.866   5.354   5.441
10880TIP3   OH232582   4.384   1.537   5.948
10880TIP3    H132583   4.423   1.624   5.954
10880TIP3    H232584   4.303   1.543   5.999
10881TIP3   OH232585   3.315   0.287   6.071
10881TIP3    H132586   3.305   0.334   5.988
10881TIP3    H232587   3.314   0.356   6.138
10882TIP3   OH232588   0.546   7.669   2.205
10882TIP3    H132589   0.574   7.751   2.164
10882TIP3    H232590   0.456   7.686   2.235
10883TIP3   OH232591   1.399   6.799   1.189
10883TIP3    H132592   1.308   6.830   1.183
10883TIP3    H232593   1.407   6.733   1.121
10884TIP3   OH232594   2.688   1.842   0.704
10884TIP3    H132595   2.651   1.888   0.779
10884TIP3    H232596   2.782   1.838   0.721
10885TIP3   OH232597   1.273   7.127   1.841
10885TIP3    H132598   1.200   7.175   1.879
10885TIP3    H232599   1.305   7.183   1.771
10886TIP3   OH232600   1.885   2.284   1.282
10886TIP3    H132601   1.965   2.274   1.334
10886TIP3    H232602   1.847   2.366   1.312
10887TIP3   OH232603   5.119   2.898   0.231
10887TIP3    H132604   5.101   2.984   0.194
10887TIP3    H232605   5.035   2.853   0.231
10888TIP3   OH232606   1.531   6.535   5.727
10888TIP3    H132607   1.520   6.485   5.646
10888TIP3    H232608   1.481   6.615   5.713
10889TIP3   OH232609   0.268   3.192   1.991
10889TIP3    H132610   0.304   3.104   1.985
10889TIP3    H232611   0.225   3.194   2.077
10890TIP3   OH232612   5.401   5.065   2.745
10890TIP3    H132613   5.382   5.158   2.734
10890TIP3    H232614   5.399   5.029   2.656
10891TIP3   OH232615   0.976   6.946   4.667
10891TIP3    H132616   1.018   6.923   4.750
10891TIP3    H232617   0.958   6.862   4.625
10892TIP3   OH232618   6.692   7.736   4.903
10892TIP3    H132619   6.633   7.784   4.845
10892TIP3    H232620   6.725   7.664   4.849
10893TIP3   OH232621   3.129   2.899   4.839
10893TIP3    H132622   3.137   2.821   4.784
10893TIP3    H232623   3.176   2.875   4.919
10894TIP3   OH232624   4.187   5.835   5.797
10894TIP3    H132625   4.120   5.881   5.849
10894TIP3    H232626   4.139   5.766   5.752
10895TIP3   OH232627   0.554   0.832   3.358
10895TIP3    H132628   0.583   0.763   3.299
10895TIP3    H232629   0.548   0.790   3.444
10896TIP3   OH232630   6.229   0.274   1.435
10896TIP3    H132631   6.269   0.199   1.390
10896TIP3    H232632   6.212   0.241   1.523
10897TIP3   OH232633   2.859   4.719   5.111
10897TIP3    H132634   2.836   4.658   5.180
10897TIP3    H232635   2.848   4.806   5.151
10898TIP3   OH232636   1.775   3.116   3.364
10898TIP3    H132637   1.753   3.189   3.423
10898TIP3    H232638   1.869   3.124   3.349
10899TIP3   OH232639   1.751   6.583   2.578
10899TIP3    H132640   1.747   6.633   2.496
10899TIP3    H232641   1.840   6.597   2.611
10900TIP3   OH232642   6.091   0.286   3.013
10900TIP3    H132643   5.998   0.272   3.026
10900TIP3    H232644   6.100   0.299   2.918
10901TIP3   OH232645   7.468   2.472   3.718
10901TIP3    H132646   7.376   2.499   3.715
10901TIP3    H232647   7.478   2.431   3.804
10902TIP3   OH232648   2.954   0.464   6.423
10902TIP3    H132649   2.977   0.557   6.417
10902TIP3    H232650   3.037   0.420   6.440
10903TIP3   OH232651   6.075   7.351   5.020
10903TIP3    H132652   6.010   7.395   4.965
10903TIP3    H232653   6.129   7.423   5.055
10904TIP3   OH232654   4.352   2.283   0.836
10904TIP3    H132655   4.260   2.309   0.837
10904TIP3    H232656   4.362   2.233   0.754
10905TIP3   OH232657   1.008   1.037   1.038
10905TIP3    H132658   1.004   0.986   0.957
10905TIP3    H232659   1.097   1.023   1.070
10906TIP3   OH232660   1.503   0.048   5.211
10906TIP3    H132661   1.531   0.139   5.219
10906TIP3    H232662   1.415   0.054   5.174
10907TIP3   OH232663   6.635   2.847   6.207
10907TIP3    H132664   6.612   2.831   6.116
10907TIP3    H232665   6.710   2.790   6.223
10908TIP3   OH232666   5.452   5.241   1.449
10908TIP3    H132667   5.386   5.200   1.505
10908TIP3    H232668   5.422   5.331   1.439
10909TIP3   OH232669   0.720   1.425   0.165
10909TIP3    H132670   0.777   1.445   0.090
10909TIP3    H232671   0.721   1.329   0.169
10910TIP3   OH232672   6.247   4.028   4.397
10910TIP3    H132673   6.243   3.962   4.466
10910TIP3    H232674   6.336   4.024   4.363
10911TIP3   OH232675   4.830   2.144   0.785
10911TIP3    H132676   4.812   2.127   0.878
10911TIP3    H232677   4.789   2.229   0.768
10912TIP3   OH232678   4.136   5.875   5.363
10912TIP3    H132679   4.118   5.846   5.452
10912TIP3    H232680   4.198   5.811   5.329
10913TIP3   OH232681   0.116   4.511   6.103
10913TIP3    H132682   0.177   4.584   6.097
10913TIP3    H232683   0.169   4.433   6.086
10914TIP3   OH232684   3.476   5.196   2.057
10914TIP3    H132685   3.427   5.272   2.087
10914TIP3    H232686   3.424   5.161   1.984
10915TIP3   OH232687   4.133   0.600   5.684
10915TIP3    H132688   4.210   0.546   5.702
10915TIP3    H232689   4.060   0.551   5.721
10916TIP3   OH232690   0.616   2.832   3.444
10916TIP3    H132691   0.693   2.777   3.459
10916TIP3    H232692   0.556   2.776   3.393
10917TIP3   OH232693   2.777   4.831   1.414
10917TIP3    H132694   2.867   4.822   1.444
10917TIP3    H232695   2.774   4.918   1.373
10918TIP3   OH232696   8.283   5.489   6.273
10918TIP3    H132697   8.248   5.475   6.185
10918TIP3    H232698   8.330   5.408   6.293
10919TIP3   OH232699   7.408   2.628   0.952
10919TIP3    H132700   7.444   2.631   1.041
10919TIP3    H232701   7.449   2.702   0.907
10920TIP3   OH232702   8.165   0.415   4.430
10920TIP3    H132703   8.173   0.435   4.337
10920TIP3    H232704   8.102   0.343   4.433
10921TIP3   OH232705   6.038   2.438   0.140
10921TIP3    H132706   5.989   2.372   0.188
10921TIP3    H232707   5.988   2.451   0.059
10922TIP3   OH232708   4.689   3.858   0.162
10922TIP3    H132709   4.689   3.781   0.220
10922TIP3    H232710   4.603   3.898   0.176
10923TIP3   OH232711   3.596   5.919   3.085
10923TIP3    H132712   3.540   5.841   3.082
10923TIP3    H232713   3.555   5.975   3.151
10924TIP3   OH232714   0.554   0.373   0.052
10924TIP3    H132715   0.628   0.335   0.099
10924TIP3    H232716   0.586   0.385  -0.037
10925TIP3   OH232717   3.436   0.223   3.552
10925TIP3    H132718   3.372   0.233   3.482
10925TIP3    H232719   3.392   0.255   3.631
10926TIP3   OH232720   0.993   7.452   0.035
10926TIP3    H132721   0.975   7.414   0.121
10926TIP3    H232722   1.027   7.379  -0.017
10927TIP3   OH232723   1.463   7.244   3.513
10927TIP3    H132724   1.459   7.283   3.600
10927TIP3    H232725   1.546   7.195   3.513
10928TIP3   OH232726   1.692   1.044   0.634
10928TIP3    H132727   1.602   1.015   0.622
10928TIP3    H232728   1.745   0.968   0.610
10929TIP3   OH232729   2.932   2.905   1.091
10929TIP3    H132730   2.864   2.874   1.031
10929TIP3    H232731   2.906   2.872   1.177
10930TIP3   OH232732   2.707   6.917   5.761
10930TIP3    H132733   2.697   7.010   5.743
10930TIP3    H232734   2.801   6.906   5.780
10931TIP3   OH232735   2.930   7.300   4.179
10931TIP3    H132736   2.909   7.361   4.109
10931TIP3    H232737   2.848   7.289   4.227
10932TIP3   OH232738   3.699   5.116   5.403
10932TIP3    H132739   3.682   5.173   5.328
10932TIP3    H232740   3.630   5.136   5.466
10933TIP3   OH232741   0.015   0.381   5.486
10933TIP3    H132742  -0.004   0.292   5.514
10933TIP3    H232743   0.111   0.385   5.484
10934TIP3   OH232744   8.255   3.875   4.413
10934TIP3    H132745   8.201   3.954   4.415
10934TIP3    H232746   8.197   3.806   4.445
10935TIP3   OH232747   0.064   4.957   4.743
10935TIP3    H132748   0.124   4.914   4.803
10935TIP3    H232749   0.076   4.911   4.660
10936TIP3   OH232750   7.047   1.758   2.716
10936TIP3    H132751   6.977   1.726   2.660
10936TIP3    H232752   7.118   1.780   2.656
10937TIP3   OH232753   7.848   2.956   0.284
10937TIP3    H132754   7.806   2.873   0.262
10937TIP3    H232755   7.888   2.941   0.369
10938TIP3   OH232756   0.372   5.115   1.385
10938TIP3    H132757   0.422   5.197   1.384
10938TIP3    H232758   0.310   5.126   1.458
10939TIP3   OH232759   6.935   5.849   6.557
10939TIP3    H132760   7.006   5.884   6.502
10939TIP3    H232761   6.980   5.795   6.622
10940TIP3   OH232762   3.709   3.737   4.941
10940TIP3    H132763   3.798   3.723   4.974
10940TIP3    H232764   3.656   3.674   4.989
10941TIP3   OH232765   6.289   3.096   6.301
10941TIP3    H132766   6.266   3.112   6.392
10941TIP3    H232767   6.311   3.182   6.266
10942TIP3   OH232768   3.028   1.565   1.596
10942TIP3    H132769   2.941   1.585   1.628
10942TIP3    H232770   3.015   1.543   1.503
10943TIP3   OH232771   2.318   3.297   1.372
10943TIP3    H132772   2.264   3.269   1.446
10943TIP3    H232773   2.259   3.349   1.318
10944TIP3   OH232774   1.828   5.986   0.021
10944TIP3    H132775   1.838   5.905  -0.029
10944TIP3    H232776   1.915   6.026   0.020
10945TIP3   OH232777   3.127   3.514   3.908
10945TIP3    H132778   3.196   3.491   3.970
10945TIP3    H232779   3.125   3.609   3.909
10946TIP3   OH232780   4.069   7.254   3.337
10946TIP3    H132781   4.086   7.231   3.429
10946TIP3    H232782   3.985   7.300   3.339
10947TIP3   OH232783   1.955   0.794   1.839
10947TIP3    H132784   2.033   0.798   1.785
10947TIP3    H232785   1.976   0.731   1.907
10948TIP3   OH232786   8.244   3.680   3.396
10948TIP3    H132787   8.192   3.734   3.455
10948TIP3    H232788   8.221   3.712   3.308
10949TIP3   OH232789   0.340   1.607   4.340
10949TIP3    H132790   0.420   1.650   4.310
10949TIP3    H232791   0.322   1.541   4.273
10950TIP3   OH232792   0.041   6.416   5.728
10950TIP3    H132793  -0.035   6.375   5.687
10950TIP3    H232794   0.005   6.467   5.801
10951TIP3   OH232795   7.172   6.300   2.573
10951TIP3    H132796   7.167   6.303   2.668
10951TIP3    H232797   7.081   6.288   2.545
10952TIP3   OH232798   7.533   0.428   1.686
10952TIP3    H132799   7.467   0.469   1.742
10952TIP3    H232800   7.499   0.438   1.597
10953TIP3   OH232801   5.994   4.189   1.543
10953TIP3    H132802   5.907   4.166   1.577
10953TIP3    H232803   6.050   4.193   1.621
10954TIP3   OH232804   5.782   5.838   6.359
10954TIP3    H132805   5.842   5.818   6.431
10954TIP3    H232806   5.729   5.759   6.349
10955TIP3   OH232807   6.237   2.640   0.599
10955TIP3    H132808   6.199   2.718   0.639
10955TIP3    H232809   6.320   2.671   0.562
10956TIP3   OH232810   4.034   7.799   0.987
10956TIP3    H132811   3.964   7.851   0.948
10956TIP3    H232812   3.991   7.720   1.021
10957TIP3   OH232813   7.956   1.583   5.057
10957TIP3    H132814   7.933   1.611   4.968
10957TIP3    H232815   8.049   1.561   5.051
10958TIP3   OH232816   4.511   1.730   0.098
10958TIP3    H132817   4.478   1.702   0.183
10958TIP3    H232818   4.572   1.801   0.119
10959TIP3   OH232819   7.160   2.272   0.559
10959TIP3    H132820   7.137   2.187   0.522
10959TIP3    H232821   7.076   2.312   0.581
10960TIP3   OH232822   8.185   6.974   4.227
10960TIP3    H132823   8.136   6.920   4.289
10960TIP3    H232824   8.182   7.062   4.266
10961TIP3   OH232825   1.000   6.623   0.275
10961TIP3    H132826   0.964   6.608   0.187
10961TIP3    H232827   1.033   6.713   0.272
10962TIP3   OH232828   7.822   2.522   4.111
10962TIP3    H132829   7.763   2.572   4.167
10962TIP3    H232830   7.855   2.452   4.168
10963TIP3   OH232831   0.424   5.236   4.464
10963TIP3    H132832   0.485   5.269   4.399
10963TIP3    H232833   0.477   5.221   4.542
10964TIP3   OH232834   7.346   3.171   1.869
10964TIP3    H132835   7.330   3.077   1.875
10964TIP3    H232836   7.302   3.208   1.945
10965TIP3   OH232837   7.812   4.111   2.838
10965TIP3    H132838   7.902   4.079   2.827
10965TIP3    H232839   7.817   4.204   2.818
10966TIP3   OH232840   1.362   1.247   3.468
10966TIP3    H132841   1.276   1.225   3.504
10966TIP3    H232842   1.386   1.169   3.417
10967TIP3   OH232843   0.195   4.145   0.919
10967TIP3    H132844   0.124   4.194   0.878
10967TIP3    H232845   0.275   4.185   0.885
10968TIP3   OH232846   7.465   4.852   4.317
10968TIP3    H132847   7.542   4.882   4.365
10968TIP3    H232848   7.485   4.761   4.294
10969TIP3   OH232849   2.954   3.518   0.710
10969TIP3    H132850   2.894   3.586   0.740
10969TIP3    H232851   2.929   3.500   0.620
10970TIP3   OH232852   0.405   0.510   5.153
10970TIP3    H132853   0.365   0.548   5.074
10970TIP3    H232854   0.403   0.416   5.138
10971TIP3   OH232855   8.244   5.409   2.152
10971TIP3    H132856   8.318   5.399   2.092
10971TIP3    H232857   8.167   5.409   2.095
10972TIP3   OH232858   5.779   6.298   5.137
10972TIP3    H132859   5.818   6.275   5.053
10972TIP3    H232860   5.693   6.255   5.136
10973TIP3   OH232861   5.674   1.745   5.483
10973TIP3    H132862   5.727   1.813   5.442
10973TIP3    H232863   5.643   1.785   5.565
10974TIP3   OH232864   2.459   6.986   4.357
10974TIP3    H132865   2.433   6.904   4.315
10974TIP3    H232866   2.486   6.961   4.445
10975TIP3   OH232867   6.743   6.372   4.553
10975TIP3    H132868   6.708   6.283   4.547
10975TIP3    H232869   6.835   6.363   4.526
10976TIP3   OH232870   7.719   0.513   5.024
10976TIP3    H132871   7.803   0.469   5.012
10976TIP3    H232872   7.737   0.581   5.089
10977TIP3   OH232873   4.826   3.572   4.672
10977TIP3    H132874   4.788   3.660   4.676
10977TIP3    H232875   4.920   3.587   4.677
10978TIP3   OH232876   7.156   1.961   6.145
10978TIP3    H132877   7.176   1.883   6.094
10978TIP3    H232878   7.238   2.011   6.146
10979TIP3   OH232879   3.278   1.908   6.011
10979TIP3    H132880   3.202   1.939   6.060
10979TIP3    H232881   3.242   1.884   5.925
10980TIP3   OH232882   2.321   5.544   3.954
10980TIP3    H132883   2.302   5.471   3.895
10980TIP3    H232884   2.358   5.502   4.032
10981TIP3   OH232885   2.765   1.858   3.636
10981TIP3    H132886   2.719   1.845   3.719
10981TIP3    H232887   2.703   1.909   3.583
10982TIP3   OH232888   4.198   4.921   1.541
10982TIP3    H132889   4.264   4.988   1.521
10982TIP3    H232890   4.126   4.969   1.580
10983TIP3   OH232891   6.274   5.758   5.094
10983TIP3    H132892   6.225   5.783   5.172
10983TIP3    H232893   6.220   5.788   5.021
10984TIP3   OH232894   2.788   4.386   1.446
10984TIP3    H132895   2.731   4.376   1.370
10984TIP3    H232896   2.852   4.452   1.419
10985TIP3   OH232897   4.846   3.286   4.513
10985TIP3    H132898   4.875   3.372   4.544
10985TIP3    H232899   4.769   3.305   4.459
10986TIP3   OH232900   4.808   1.118   1.689
10986TIP3    H132901   4.750   1.078   1.754
10986TIP3    H232902   4.756   1.191   1.653
10987TIP3   OH232903   2.598   7.735   6.378
10987TIP3    H132904   2.671   7.757   6.320
10987TIP3    H232905   2.542   7.812   6.378
10988TIP3   OH232906   2.628   4.087   5.026
10988TIP3    H132907   2.610   4.057   4.937
10988TIP3    H232908   2.701   4.032   5.056
10989TIP3   OH232909   2.962   1.596   0.410
10989TIP3    H132910   3.050   1.580   0.376
10989TIP3    H232911   2.969   1.678   0.458
10990TIP3   OH232912   5.354   0.040   0.667
10990TIP3    H132913   5.337   0.122   0.620
10990TIP3    H232914   5.449   0.029   0.662
10991TIP3   OH232915   6.874   1.316   0.449
10991TIP3    H132916   6.907   1.379   0.386
10991TIP3    H232917   6.931   1.240   0.439
10992TIP3   OH232918   0.565   2.091   4.908
10992TIP3    H132919   0.629   2.041   4.857
10992TIP3    H232920   0.541   2.032   4.980
10993TIP3   OH232921   6.000   4.890   5.919
10993TIP3    H132922   5.991   4.849   5.833
10993TIP3    H232923   5.985   4.983   5.902
10994TIP3   OH232924   3.974   7.033   1.113
10994TIP3    H132925   3.944   7.106   1.168
10994TIP3    H232926   3.910   6.964   1.127
10995TIP3   OH232927   5.347   6.390   2.121
10995TIP3    H132928   5.331   6.296   2.134
10995TIP3    H232929   5.264   6.424   2.087
10996TIP3   OH232930   5.875   3.578   1.293
10996TIP3    H132931   5.898   3.652   1.238
10996TIP3    H232932   5.910   3.501   1.247
10997TIP3   OH232933   0.888   0.387   0.619
10997TIP3    H132934   0.938   0.334   0.680
10997TIP3    H232935   0.798   0.385   0.653
10998TIP3   OH232936   6.121   3.393   6.395
10998TIP3    H132937   6.154   3.387   6.484
10998TIP3    H232938   6.192   3.433   6.345
10999TIP3   OH232939   2.058   3.363   6.346
10999TIP3    H132940   2.070   3.344   6.253
10999TIP3    H232941   1.977   3.415   6.350
11000TIP3   OH232942   0.607   5.005   0.172
11000TIP3    H132943   0.642   5.027   0.259
11000TIP3    H232944   0.512   5.006   0.184
11001TIP3   OH232945   3.455   0.808   1.461
11001TIP3    H132946   3.359   0.800   1.458
11001TIP3    H232947   3.473   0.838   1.550
11002TIP3   OH232948   6.640   3.887   6.575
11002TIP3    H132949   6.644   3.799   6.538
11002TIP3    H232950   6.700   3.883   6.650
11003TIP3   OH232951   1.547   4.178   5.156
11003TIP3    H132952   1.637   4.200   5.180
11003TIP3    H232953   1.513   4.131   5.232
11004TIP3   OH232954   3.719   3.515   5.111
11004TIP3    H132955   3.636   3.467   5.117
11004TIP3    H232956   3.786   3.451   5.131
11005TIP3   OH232957   4.951   4.736   4.780
11005TIP3    H132958   5.031   4.684   4.767
11005TIP3    H232959   4.882   4.683   4.740
11006TIP3   OH232960   1.167   0.304   0.337
11006TIP3    H132961   1.079   0.278   0.365
11006TIP3    H232962   1.152   0.377   0.277
11007TIP3   OH232963   5.062   1.970   2.889
11007TIP3    H132964   5.075   2.041   2.826
11007TIP3    H232965   4.980   1.991   2.932
11008TIP3   OH232966   2.041   1.123   0.001
11008TIP3    H132967   2.065   1.146  -0.089
11008TIP3    H232968   2.121   1.140   0.052
11009TIP3   OH232969   4.813   6.487   3.212
11009TIP3    H132970   4.732   6.532   3.189
11009TIP3    H232971   4.869   6.497   3.135
11010TIP3   OH232972   7.294   7.292   3.988
11010TIP3    H132973   7.336   7.365   4.034
11010TIP3    H232974   7.310   7.309   3.895
11011TIP3   OH232975   6.129   3.858   3.260
11011TIP3    H132976   6.035   3.844   3.272
11011TIP3    H232977   6.140   3.871   3.166
11012TIP3   OH232978   7.508   4.607   5.106
11012TIP3    H132979   7.426   4.647   5.077
11012TIP3    H232980   7.486   4.515   5.122
11013TIP3   OH232981   2.212   0.107   4.640
11013TIP3    H132982   2.153   0.180   4.623
11013TIP3    H232983   2.298   0.147   4.652
11014TIP3   OH232984   1.683   3.211   2.990
11014TIP3    H132985   1.664   3.255   2.907
11014TIP3    H232986   1.776   3.226   3.005
11015TIP3   OH232987   2.014   3.116   1.521
11015TIP3    H132988   2.052   3.078   1.442
11015TIP3    H232989   2.075   3.093   1.591
11016TIP3   OH232990   4.971   0.834   6.113
11016TIP3    H132991   5.030   0.759   6.106
11016TIP3    H232992   4.883   0.795   6.114
11017TIP3   OH232993   1.484   1.926   5.056
11017TIP3    H132994   1.472   1.953   4.965
11017TIP3    H232995   1.417   1.974   5.104
11018TIP3   OH232996   5.544   0.070   6.737
11018TIP3    H132997   5.547  -0.026   6.732
11018TIP3    H232998   5.575   0.091   6.825
11019TIP3   OH232999   7.367   5.324   6.280
11019TIP3    H133000   7.397   5.241   6.243
11019TIP3    H233001   7.420   5.390   6.237
11020TIP3   OH233002   0.507   5.229   2.622
11020TIP3    H133003   0.556   5.148   2.630
11020TIP3    H233004   0.499   5.243   2.527
11021TIP3   OH233005   2.076   5.993   6.568
11021TIP3    H133006   2.098   6.069   6.621
11021TIP3    H233007   2.154   5.977   6.515
11022TIP3   OH233008   6.026   7.572   4.561
11022TIP3    H133009   6.019   7.571   4.465
11022TIP3    H233010   6.115   7.539   4.578
11023TIP3   OH233011   7.225   3.228   2.129
11023TIP3    H133012   7.231   3.288   2.204
11023TIP3    H233013   7.140   3.249   2.089
11024TIP3   OH233014   2.929   6.896   6.484
11024TIP3    H133015   2.924   6.840   6.408
11024TIP3    H233016   2.980   6.847   6.548
11025TIP3   OH233017   6.881   0.166   2.761
11025TIP3    H133018   6.818   0.116   2.813
11025TIP3    H233019   6.947   0.101   2.734
11026TIP3   OH233020   8.250   7.336   2.528
11026TIP3    H133021   8.307   7.410   2.548
11026TIP3    H233022   8.202   7.319   2.609
11027TIP3   OH233023   0.961   1.807   3.815
11027TIP3    H133024   0.895   1.819   3.746
11027TIP3    H233025   1.027   1.750   3.775
11028TIP3   OH233026   0.331   1.346   1.870
11028TIP3    H133027   0.399   1.322   1.808
11028TIP3    H233028   0.358   1.306   1.953
11029TIP3   OH233029   3.696   6.475   5.375
11029TIP3    H133030   3.687   6.536   5.302
11029TIP3    H233031   3.736   6.528   5.445
11030TIP3   OH233032   1.242   2.179   5.886
11030TIP3    H133033   1.168   2.192   5.945
11030TIP3    H233034   1.311   2.145   5.943
11031TIP3   OH233035   8.095   1.544   4.109
11031TIP3    H133036   8.043   1.552   4.029
11031TIP3    H233037   8.047   1.482   4.163
11032TIP3   OH233038   0.263   3.237   1.136
11032TIP3    H133039   0.264   3.331   1.121
11032TIP3    H233040   0.264   3.227   1.231
11033TIP3   OH233041   1.206   4.523   0.849
11033TIP3    H133042   1.297   4.544   0.871
11033TIP3    H233043   1.169   4.606   0.819
11034TIP3   OH233044   5.190   3.309   3.651
11034TIP3    H133045   5.250   3.253   3.602
11034TIP3    H233046   5.104   3.268   3.641
11035TIP3   OH233047   3.783   3.644   3.358
11035TIP3    H133048   3.830   3.566   3.330
11035TIP3    H233049   3.811   3.659   3.448
11036TIP3   OH233050   0.499   1.542   5.984
11036TIP3    H133051   0.551   1.502   6.054
11036TIP3    H233052   0.497   1.475   5.916
11037TIP3   OH233053   0.128   6.802   1.798
11037TIP3    H133054   0.189   6.816   1.726
11037TIP3    H233055   0.076   6.883   1.802
11038TIP3   OH233056   6.454   7.072   5.080
11038TIP3    H133057   6.398   7.033   5.147
11038TIP3    H233058   6.395   7.127   5.028
11039TIP3   OH233059   8.271   0.457   2.034
11039TIP3    H133060   8.302   0.548   2.041
11039TIP3    H233061   8.229   0.440   2.118
11040TIP3   OH233062   7.709   5.121   1.617
11040TIP3    H133063   7.635   5.067   1.587
11040TIP3    H233064   7.678   5.211   1.607
11041TIP3   OH233065   1.100   4.338   2.221
11041TIP3    H133066   1.191   4.348   2.249
11041TIP3    H233067   1.092   4.245   2.200
11042TIP3   OH233068   5.026   5.707   4.794
11042TIP3    H133069   5.105   5.665   4.762
11042TIP3    H233070   5.036   5.800   4.770
11043TIP3   OH233071   3.503   1.692   4.669
11043TIP3    H133072   3.511   1.719   4.760
11043TIP3    H233073   3.528   1.769   4.618
11044TIP3   OH233074   3.520   7.283   0.345
11044TIP3    H133075   3.506   7.342   0.418
11044TIP3    H233076   3.443   7.227   0.343
11045TIP3   OH233077   7.103   4.213   1.340
11045TIP3    H133078   7.117   4.274   1.413
11045TIP3    H233079   7.130   4.262   1.262
11046TIP3   OH233080   3.957   2.578   6.737
11046TIP3    H133081   3.865   2.573   6.709
11046TIP3    H233082   4.000   2.507   6.689
11047TIP3   OH233083   5.875   1.546   4.603
11047TIP3    H133084   5.819   1.612   4.644
11047TIP3    H233085   5.861   1.558   4.509
11048TIP3   OH233086   4.944   5.162   6.560
11048TIP3    H133087   4.954   5.216   6.639
11048TIP3    H233088   5.033   5.131   6.541
11049TIP3   OH233089   2.298   4.874   0.992
11049TIP3    H133090   2.248   4.811   0.940
11049TIP3    H233091   2.278   4.959   0.952
11050TIP3   OH233092   3.531   0.062   6.513
11050TIP3    H133093   3.479  -0.012   6.546
11050TIP3    H233094   3.471   0.109   6.455
11051TIP3   OH233095   5.234   2.729   3.540
11051TIP3    H133096   5.177   2.669   3.589
11051TIP3    H233097   5.321   2.690   3.544
11052TIP3   OH233098   0.272   0.599   2.232
11052TIP3    H133099   0.345   0.540   2.218
11052TIP3    H233100   0.208   0.547   2.280
11053TIP3   OH233101   0.159   4.230   5.071
11053TIP3    H133102   0.164   4.148   5.119
11053TIP3    H233103   0.244   4.271   5.084
11054TIP3   OH233104   0.190   2.729   0.647
11054TIP3    H133105   0.114   2.670   0.646
11054TIP3    H233106   0.256   2.683   0.595
11055TIP3   OH233107   7.952   0.946   1.226
11055TIP3    H133108   7.941   1.041   1.223
11055TIP3    H233109   7.863   0.912   1.234
11056TIP3   OH233110   6.267   1.910   6.240
11056TIP3    H133111   6.353   1.951   6.243
11056TIP3    H233112   6.255   1.872   6.327
11057TIP3   OH233113   3.478   4.845   1.375
11057TIP3    H133114   3.416   4.801   1.433
11057TIP3    H233115   3.448   4.936   1.371
11058TIP3   OH233116   4.885   1.068   3.753
11058TIP3    H133117   4.863   1.042   3.663
11058TIP3    H233118   4.895   1.163   3.748
11059TIP3   OH233119   6.356   2.571   4.553
11059TIP3    H133120   6.443   2.541   4.580
11059TIP3    H233121   6.348   2.657   4.594
11060TIP3   OH233122   3.381   5.974   3.554
11060TIP3    H133123   3.297   5.968   3.509
11060TIP3    H233124   3.360   6.010   3.640
11061TIP3   OH233125   0.659   7.646   6.553
11061TIP3    H133126   0.666   7.550   6.554
11061TIP3    H233127   0.627   7.668   6.641
11062TIP3   OH233128   1.937   3.570   5.009
11062TIP3    H133129   1.901   3.486   5.037
11062TIP3    H233130   1.879   3.600   4.940
11063TIP3   OH233131   4.833   3.082   1.106
11063TIP3    H133132   4.747   3.073   1.065
11063TIP3    H233133   4.823   3.156   1.166
11064TIP3   OH233134   8.194   5.557   4.033
11064TIP3    H133135   8.107   5.586   4.005
11064TIP3    H233136   8.252   5.630   4.007
11065TIP3   OH233137   1.828   0.874   5.336
11065TIP3    H133138   1.897   0.919   5.287
11065TIP3    H233139   1.833   0.911   5.424
11066TIP3   OH233140   0.619   4.927   1.955
11066TIP3    H133141   0.536   4.901   1.916
11066TIP3    H233142   0.685   4.899   1.892
11067TIP3   OH233143   5.442   4.878   6.244
11067TIP3    H133144   5.504   4.926   6.189
11067TIP3    H233145   5.359   4.923   6.232
11068TIP3   OH233146   3.902   3.457   2.609
11068TIP3    H133147   3.922   3.551   2.617
11068TIP3    H233148   3.914   3.438   2.515
11069TIP3   OH233149   5.425   5.451   0.916
11069TIP3    H133150   5.508   5.422   0.878
11069TIP3    H233151   5.362   5.384   0.889
11070TIP3   OH233152   1.813   2.026   2.583
11070TIP3    H133153   1.795   2.113   2.549
11070TIP3    H233154   1.758   1.968   2.530
11071TIP3   OH233155   3.103   1.272   6.576
11071TIP3    H133156   3.146   1.338   6.522
11071TIP3    H233157   3.170   1.246   6.639
11072TIP3   OH233158   4.552   4.630   0.857
11072TIP3    H133159   4.529   4.540   0.835
11072TIP3    H233160   4.534   4.680   0.778
11073TIP3   OH233161   3.559   1.233   3.746
11073TIP3    H133162   3.655   1.235   3.751
11073TIP3    H233163   3.532   1.321   3.770
11074TIP3   OH233164   5.778   0.994   1.422
11074TIP3    H133165   5.709   0.962   1.364
11074TIP3    H233166   5.745   0.979   1.510
11075TIP3   OH233167   6.165   4.931   4.023
11075TIP3    H133168   6.256   4.909   4.046
11075TIP3    H233169   6.162   4.926   3.928
11076TIP3   OH233170   3.375   1.172   0.165
11076TIP3    H133171   3.409   1.182   0.076
11076TIP3    H233172   3.304   1.237   0.170
11077TIP3   OH233173   5.873   3.692   5.531
11077TIP3    H133174   5.955   3.653   5.501
11077TIP3    H233175   5.855   3.648   5.614
11078TIP3   OH233176   1.672   4.853   2.432
11078TIP3    H133177   1.750   4.802   2.452
11078TIP3    H233178   1.657   4.906   2.510
11079TIP3   OH233179   3.217   2.856   5.880
11079TIP3    H133180   3.281   2.909   5.928
11079TIP3    H233181   3.258   2.770   5.872
11080TIP3   OH233182   0.406   1.672   6.741
11080TIP3    H133183   0.363   1.674   6.656
11080TIP3    H233184   0.488   1.720   6.728
11081TIP3   OH233185   3.966   7.428   3.987
11081TIP3    H133186   3.956   7.477   4.069
11081TIP3    H233187   4.007   7.345   4.013
11082TIP3   OH233188   7.352   3.919   4.299
11082TIP3    H133189   7.431   3.900   4.349
11082TIP3    H233190   7.384   3.948   4.213
11083TIP3   OH233191   0.540   0.793   4.972
11083TIP3    H133192   0.506   0.761   4.888
11083TIP3    H233193   0.571   0.714   5.016
11084TIP3   OH233194   4.018   2.084   5.189
11084TIP3    H133195   4.000   2.063   5.097
11084TIP3    H233196   3.997   2.004   5.237
11085TIP3   OH233197   7.687   0.672   2.269
11085TIP3    H133198   7.693   0.730   2.345
11085TIP3    H233199   7.725   0.723   2.197
11086TIP3   OH233200   4.888   1.355   6.244
11086TIP3    H133201   4.967   1.402   6.269
11086TIP3    H233202   4.822   1.423   6.230
11087TIP3   OH233203   2.816   3.662   1.673
11087TIP3    H133204   2.862   3.586   1.636
11087TIP3    H233205   2.876   3.695   1.740
11088TIP3   OH233206   6.293   4.901   5.073
11088TIP3    H133207   6.321   4.991   5.091
11088TIP3    H233208   6.249   4.906   4.988
11089TIP3   OH233209   5.749   6.206   1.288
11089TIP3    H133210   5.672   6.182   1.237
11089TIP3    H233211   5.743   6.153   1.367
11090TIP3   OH233212   1.971   4.432   3.205
11090TIP3    H133213   2.022   4.483   3.142
11090TIP3    H233214   1.941   4.496   3.270
11091TIP3   OH233215   7.147   4.121   5.800
11091TIP3    H133216   7.156   4.089   5.890
11091TIP3    H233217   7.235   4.151   5.777
11092TIP3   OH233218   5.208   5.596   2.393
11092TIP3    H133219   5.284   5.637   2.352
11092TIP3    H233220   5.169   5.543   2.324
11093TIP3   OH233221   5.203   0.052   5.178
11093TIP3    H133222   5.252   0.116   5.126
11093TIP3    H233223   5.147   0.105   5.235
11094TIP3   OH233224   0.720   3.315   1.403
11094TIP3    H133225   0.734   3.233   1.452
11094TIP3    H233226   0.800   3.365   1.417
11095TIP3   OH233227   4.755   7.087   2.637
11095TIP3    H133228   4.822   7.037   2.685
11095TIP3    H233229   4.715   7.142   2.704
11096TIP3   OH233230   0.523   0.946   2.756
11096TIP3    H133231   0.484   1.018   2.805
11096TIP3    H233232   0.617   0.965   2.757
11097TIP3   OH233233   5.668   0.371   1.211
11097TIP3    H133234   5.583   0.343   1.243
11097TIP3    H233235   5.695   0.302   1.150
11098TIP3   OH233236   4.216   4.765   6.419
11098TIP3    H133237   4.193   4.674   6.440
11098TIP3    H233238   4.195   4.774   6.326
11099TIP3   OH233239   5.159   3.159   0.093
11099TIP3    H133240   5.224   3.130   0.157
11099TIP3    H233241   5.210   3.194   0.021
11100TIP3   OH233242   1.731   2.781   0.413
11100TIP3    H133243   1.746   2.862   0.364
11100TIP3    H233244   1.734   2.807   0.505
11101TIP3   OH233245   2.213   4.962   5.574
11101TIP3    H133246   2.201   5.025   5.502
11101TIP3    H233247   2.124   4.949   5.608
11102TIP3   OH233248   8.279   1.831   2.508
11102TIP3    H133249   8.200   1.855   2.556
11102TIP3    H233250   8.248   1.772   2.440
11103TIP3   OH233251   5.557   5.814   0.800
11103TIP3    H133252   5.615   5.828   0.875
11103TIP3    H233253   5.489   5.881   0.810
11104TIP3   OH233254   2.298   4.015   5.473
11104TIP3    H133255   2.344   4.080   5.421
11104TIP3    H233256   2.290   3.939   5.416
11105TIP3   OH233257   1.370   0.345   4.549
11105TIP3    H133258   1.435   0.415   4.557
11105TIP3    H233259   1.312   0.356   4.624
11106TIP3   OH233260   5.610   5.685   3.308
11106TIP3    H133261   5.672   5.677   3.381
11106TIP3    H233262   5.645   5.626   3.241
11107TIP3   OH233263   3.162   2.269   0.876
11107TIP3    H133264   3.112   2.345   0.846
11107TIP3    H233265   3.191   2.226   0.795
11108TIP3   OH233266   0.120   3.867   0.228
11108TIP3    H133267   0.142   3.836   0.316
11108TIP3    H233268   0.184   3.823   0.171
11109TIP3   OH233269   8.013   0.434   2.918
11109TIP3    H133270   8.104   0.410   2.934
11109TIP3    H233271   7.962   0.357   2.942
11110TIP3   OH233272   2.962   4.512   0.566
11110TIP3    H133273   3.031   4.512   0.633
11110TIP3    H233274   2.918   4.428   0.579
11111TIP3   OH233275   7.614   0.139   1.263
11111TIP3    H133276   7.634   0.103   1.176
11111TIP3    H233277   7.540   0.197   1.248
11112TIP3   OH233278   3.266   3.039   4.187
11112TIP3    H133279   3.253   2.946   4.206
11112TIP3    H233280   3.180   3.070   4.160
11113TIP3   OH233281   2.904   6.724   3.612
11113TIP3    H133282   2.958   6.715   3.691
11113TIP3    H233283   2.897   6.819   3.599
11114TIP3   OH233284   0.760   2.975   2.996
11114TIP3    H133285   0.796   2.894   2.960
11114TIP3    H233286   0.755   2.960   3.090
11115TIP3   OH233287   4.366   7.549   0.194
11115TIP3    H133288   4.424   7.474   0.185
11115TIP3    H233289   4.407   7.617   0.140
11116TIP3   OH233290   7.705   4.954   3.899
11116TIP3    H133291   7.672   4.887   3.839
11116TIP3    H233292   7.631   4.972   3.957
11117TIP3   OH233293   3.651   6.564   2.100
11117TIP3    H133294   3.712   6.539   2.030
11117TIP3    H233295   3.701   6.625   2.155
11118TIP3   OH233296   1.574   5.015   3.035
11118TIP3    H133297   1.608   5.085   3.089
11118TIP3    H233298   1.651   4.973   2.997
11119TIP3   OH233299   3.587   5.445   5.553
11119TIP3    H133300   3.571   5.539   5.556
11119TIP3    H233301   3.562   5.419   5.465
11120TIP3   OH233302   6.127   0.885   3.332
11120TIP3    H133303   6.053   0.829   3.310
11120TIP3    H233304   6.159   0.916   3.247
11121TIP3   OH233305   4.805   1.152   2.082
11121TIP3    H133306   4.775   1.232   2.038
11121TIP3    H233307   4.889   1.176   2.122
11122TIP3   OH233308   4.049   1.269   6.585
11122TIP3    H133309   4.033   1.270   6.679
11122TIP3    H233310   4.136   1.309   6.575
11123TIP3   OH233311   2.278   7.404   2.820
11123TIP3    H133312   2.333   7.390   2.742
11123TIP3    H233313   2.323   7.472   2.869
11124TIP3   OH233314   6.488   6.736   5.300
11124TIP3    H133315   6.417   6.681   5.335
11124TIP3    H233316   6.464   6.751   5.209
11125TIP3   OH233317   3.403   4.278   2.283
11125TIP3    H133318   3.386   4.200   2.229
11125TIP3    H233319   3.427   4.242   2.369
11126TIP3   OH233320   2.355   1.186   3.479
11126TIP3    H133321   2.366   1.135   3.559
11126TIP3    H233322   2.260   1.198   3.470
11127TIP3   OH233323   1.740   5.337   3.462
11127TIP3    H133324   1.680   5.403   3.427
11127TIP3    H233325   1.802   5.388   3.514
11128TIP3   OH233326   8.121   6.260   1.988
11128TIP3    H133327   8.203   6.218   1.962
11128TIP3    H233328   8.139   6.295   2.075
11129TIP3   OH233329   6.194   4.121   3.346
11129TIP3    H133330   6.104   4.153   3.334
11129TIP3    H233331   6.201   4.046   3.288
11130TIP3   OH233332   6.756   5.356   3.500
11130TIP3    H133333   6.720   5.419   3.562
11130TIP3    H233334   6.749   5.271   3.545
11131TIP3   OH233335   3.489   0.910   4.199
11131TIP3    H133336   3.540   0.830   4.197
11131TIP3    H233337   3.539   0.972   4.146
11132TIP3   OH233338   2.011   7.380   2.894
11132TIP3    H133339   2.085   7.423   2.850
11132TIP3    H233340   2.012   7.415   2.983
11133TIP3   OH233341   7.108   3.298   5.990
11133TIP3    H133342   7.041   3.348   5.942
11133TIP3    H233343   7.071   3.287   6.078
11134TIP3   OH233344   6.728   2.087   4.638
11134TIP3    H133345   6.735   2.051   4.550
11134TIP3    H233346   6.657   2.151   4.632
11135TIP3   OH233347   7.758   1.351   3.753
11135TIP3    H133348   7.736   1.343   3.846
11135TIP3    H233349   7.777   1.444   3.740
11136TIP3   OH233350   3.566   6.801   3.064
11136TIP3    H133351   3.530   6.885   3.037
11136TIP3    H233352   3.555   6.800   3.159
11137TIP3   OH233353   7.861   5.190   0.354
11137TIP3    H133354   7.911   5.194   0.436
11137TIP3    H233355   7.790   5.129   0.373
11138TIP3   OH233356   4.065   7.779   0.358
11138TIP3    H133357   4.044   7.761   0.266
11138TIP3    H233358   4.126   7.853   0.354
11139TIP3   OH233359   5.365   5.275   2.322
11139TIP3    H133360   5.418   5.197   2.305
11139TIP3    H233361   5.428   5.344   2.342
11140TIP3   OH233362   5.537   6.564   4.475
11140TIP3    H133363   5.563   6.577   4.566
11140TIP3    H233364   5.561   6.473   4.455
11141TIP3   OH233365   6.548   0.496   3.932
11141TIP3    H133366   6.537   0.537   3.847
11141TIP3    H233367   6.474   0.437   3.940
11142TIP3   OH233368   6.680   5.837   2.245
11142TIP3    H133369   6.691   5.857   2.338
11142TIP3    H233370   6.759   5.872   2.203
11143TIP3   OH233371   1.972   1.375   4.813
11143TIP3    H133372   2.015   1.454   4.846
11143TIP3    H233373   2.039   1.307   4.821
11144TIP3   OH233374   4.722   4.112   0.698
11144TIP3    H133375   4.649   4.072   0.650
11144TIP3    H233376   4.759   4.040   0.749
11145TIP3   OH233377   1.143   6.389   3.704
11145TIP3    H133378   1.065   6.349   3.665
11145TIP3    H233379   1.115   6.478   3.726
11146TIP3   OH233380   2.614   4.181   1.532
11146TIP3    H133381   2.654   4.193   1.618
11146TIP3    H233382   2.661   4.241   1.474
11147TIP3   OH233383   0.878   1.155   5.238
11147TIP3    H133384   0.843   1.143   5.326
11147TIP3    H233385   0.934   1.232   5.244
11148TIP3   OH233386   2.083   4.211   4.847
11148TIP3    H133387   2.046   4.296   4.821
11148TIP3    H233388   2.115   4.226   4.937
11149TIP3   OH233389   8.022   0.448   0.014
11149TIP3    H133390   8.072   0.405   0.084
11149TIP3    H233391   7.930   0.440   0.042
11150TIP3   OH233392   5.409   1.550   5.290
11150TIP3    H133393   5.406   1.469   5.341
11150TIP3    H233394   5.356   1.612   5.340
11151TIP3   OH233395   1.853   1.293   3.543
11151TIP3    H133396   1.888   1.372   3.584
11151TIP3    H233397   1.841   1.317   3.451
11152TIP3   OH233398   6.012   1.838   0.541
11152TIP3    H133399   6.040   1.849   0.632
11152TIP3    H233400   6.044   1.916   0.496
11153TIP3   OH233401   4.975   7.683   5.125
11153TIP3    H133402   4.943   7.752   5.183
11153TIP3    H233403   5.066   7.707   5.107
11154TIP3   OH233404   4.751   2.832   0.631
11154TIP3    H133405   4.836   2.790   0.639
11154TIP3    H233406   4.756   2.909   0.688
11155TIP3   OH233407   1.387   0.982   6.003
11155TIP3    H133408   1.429   0.902   6.036
11155TIP3    H233409   1.445   1.053   6.030
11156TIP3   OH233410   8.234   3.434   5.496
11156TIP3    H133411   8.147   3.459   5.467
11156TIP3    H233412   8.294   3.480   5.438
11157TIP3   OH233413   7.075   4.260   2.908
11157TIP3    H133414   7.073   4.216   2.993
11157TIP3    H233415   7.018   4.207   2.852
11158TIP3   OH233416   3.761   2.729   3.360
11158TIP3    H133417   3.783   2.638   3.380
11158TIP3    H233418   3.799   2.745   3.273
11159TIP3   OH233419   0.984   4.183   5.970
11159TIP3    H133420   0.958   4.275   5.974
11159TIP3    H233421   1.043   4.172   6.044
11160TIP3   OH233422   7.005   5.687   3.820
11160TIP3    H133423   6.946   5.624   3.862
11160TIP3    H233424   6.958   5.718   3.743
11161TIP3   OH233425   0.930   1.838   5.524
11161TIP3    H133426   0.935   1.794   5.439
11161TIP3    H233427   0.976   1.920   5.511
11162TIP3   OH233428   6.477   1.444   6.085
11162TIP3    H133429   6.443   1.450   5.996
11162TIP3    H233430   6.479   1.534   6.116
11163TIP3   OH233431   5.859   7.188   2.580
11163TIP3    H133432   5.858   7.104   2.534
11163TIP3    H233433   5.868   7.253   2.511
11164TIP3   OH233434   3.877   4.298   4.076
11164TIP3    H133435   3.962   4.340   4.086
11164TIP3    H233436   3.895   4.218   4.027
11165TIP3   OH233437   5.002   2.597   3.861
11165TIP3    H133438   4.985   2.529   3.797
11165TIP3    H233439   5.097   2.594   3.875
11166TIP3   OH233440   4.382   2.041   1.272
11166TIP3    H133441   4.401   2.119   1.219
11166TIP3    H233442   4.468   2.002   1.288
11167TIP3   OH233443   8.074   3.427   1.627
11167TIP3    H133444   8.031   3.354   1.583
11167TIP3    H233445   8.120   3.474   1.557
11168TIP3   OH233446   1.321   3.205   2.107
11168TIP3    H133447   1.251   3.214   2.172
11168TIP3    H233448   1.356   3.117   2.120
11169TIP3   OH233449   6.971   0.187   3.992
11169TIP3    H133450   6.946   0.149   3.908
11169TIP3    H233451   7.066   0.189   3.990
11170TIP3   OH233452   7.753   0.404   0.052
11170TIP3    H133453   7.712   0.475   0.102
11170TIP3    H233454   7.694   0.389  -0.022
11171TIP3   OH233455   3.258   6.269   5.144
11171TIP3    H133456   3.339   6.296   5.188
11171TIP3    H233457   3.258   6.173   5.152
11172TIP3   OH233458   1.435   7.003   5.340
11172TIP3    H133459   1.519   6.964   5.315
11172TIP3    H233460   1.458   7.065   5.409
11173TIP3   OH233461   1.491   3.913   4.004
11173TIP3    H133462   1.438   3.942   3.930
11173TIP3    H233463   1.449   3.953   4.080
11174TIP3   OH233464   4.403   7.746   3.287
11174TIP3    H133465   4.469   7.815   3.278
11174TIP3    H233466   4.444   7.669   3.249
11175TIP3   OH233467   2.861   0.654   2.239
11175TIP3    H133468   2.796   0.592   2.205
11175TIP3    H233469   2.851   0.732   2.184
11176TIP3   OH233470   1.436   4.576   5.363
11176TIP3    H133471   1.387   4.505   5.404
11176TIP3    H233472   1.456   4.636   5.435
11177TIP3   OH233473   2.508   4.540   2.449
11177TIP3    H133474   2.560   4.480   2.502
11177TIP3    H233475   2.566   4.614   2.432
11178TIP3   OH233476   1.289   3.863   5.526
11178TIP3    H133477   1.307   3.817   5.444
11178TIP3    H233478   1.356   3.832   5.587
11179TIP3   OH233479   5.678   2.798   2.670
11179TIP3    H133480   5.713   2.802   2.581
11179TIP3    H233481   5.639   2.885   2.684
11180TIP3   OH233482   0.689   3.540   5.962
11180TIP3    H133483   0.729   3.624   5.984
11180TIP3    H233484   0.733   3.476   6.018
11181TIP3   OH233485   0.791   1.160   2.292
11181TIP3    H133486   0.818   1.081   2.245
11181TIP3    H233487   0.870   1.214   2.295
11182TIP3   OH233488   0.403   5.756   0.450
11182TIP3    H133489   0.455   5.819   0.399
11182TIP3    H233490   0.445   5.754   0.536
11183TIP3   OH233491   7.714   3.552   2.640
11183TIP3    H133492   7.654   3.478   2.645
11183TIP3    H233493   7.684   3.602   2.564
11184TIP3   OH233494   0.409   2.013   6.588
11184TIP3    H133495   0.435   2.082   6.649
11184TIP3    H233496   0.476   1.946   6.597
11185TIP3   OH233497   1.454   1.276   0.549
11185TIP3    H133498   1.364   1.310   0.548
11185TIP3    H233499   1.492   1.313   0.629
11186TIP3   OH233500   4.701   4.716   0.070
11186TIP3    H133501   4.686   4.801   0.111
11186TIP3    H233502   4.626   4.663   0.097
11187TIP3   OH233503   2.641   1.387   2.113
11187TIP3    H133504   2.697   1.323   2.157
11187TIP3    H233505   2.552   1.366   2.142
11188TIP3   OH233506   3.551   6.174   4.176
11188TIP3    H133507   3.520   6.145   4.262
11188TIP3    H233508   3.632   6.221   4.195
11189TIP3   OH233509   6.623   7.305   3.607
11189TIP3    H133510   6.665   7.348   3.681
11189TIP3    H233511   6.554   7.366   3.580
11190TIP3   OH233512   5.597   5.177   1.193
11190TIP3    H133513   5.666   5.241   1.179
11190TIP3    H233514   5.577   5.183   1.286
11191TIP3   OH233515   5.832   0.741   5.583
11191TIP3    H133516   5.747   0.720   5.543
11191TIP3    H233517   5.861   0.820   5.538
11192TIP3   OH233518   4.358   2.543   6.738
11192TIP3    H133519   4.428   2.593   6.779
11192TIP3    H233520   4.331   2.597   6.664
11193TIP3   OH233521   2.615   3.337   0.030
11193TIP3    H133522   2.561   3.386  -0.032
11193TIP3    H233523   2.605   3.245   0.005
11194TIP3   OH233524   7.271   2.778   0.324
11194TIP3    H133525   7.222   2.859   0.341
11194TIP3    H233526   7.317   2.795   0.242
11195TIP3   OH233527   5.575   6.890   0.561
11195TIP3    H133528   5.557   6.974   0.519
11195TIP3    H233529   5.640   6.849   0.505
11196TIP3   OH233530   4.107   2.160   2.453
11196TIP3    H133531   4.013   2.169   2.469
11196TIP3    H233532   4.141   2.122   2.534
11197TIP3   OH233533   6.919   4.340   0.086
11197TIP3    H133534   6.943   4.409   0.024
11197TIP3    H233535   6.841   4.299   0.047
11198TIP3   OH233536   7.295   3.022   4.812
11198TIP3    H133537   7.245   3.058   4.885
11198TIP3    H233538   7.365   3.086   4.797
11199TIP3   OH233539   4.559   4.598   4.430
11199TIP3    H133540   4.556   4.681   4.382
11199TIP3    H233541   4.619   4.543   4.379
11200TIP3   OH233542   6.417   5.872   4.413
11200TIP3    H133543   6.510   5.855   4.398
11200TIP3    H233544   6.398   5.829   4.497
11201TIP3   OH233545   3.862   1.228   0.769
11201TIP3    H133546   3.894   1.296   0.710
11201TIP3    H233547   3.785   1.192   0.726
11202TIP3   OH233548   3.477   1.285   0.793
11202TIP3    H133549   3.516   1.361   0.751
11202TIP3    H233550   3.383   1.294   0.777
11203TIP3   OH233551   7.822   4.048   6.118
11203TIP3    H133552   7.807   4.088   6.032
11203TIP3    H233553   7.825   3.954   6.101
11204TIP3   OH233554   7.668   7.131   1.654
11204TIP3    H133555   7.604   7.065   1.678
11204TIP3    H233556   7.716   7.149   1.735
11205TIP3   OH233557   3.475   3.310   2.824
11205TIP3    H133558   3.483   3.221   2.859
11205TIP3    H233559   3.382   3.330   2.833
11206TIP3   OH233560   5.535   0.803   0.541
11206TIP3    H133561   5.526   0.727   0.484
11206TIP3    H233562   5.453   0.851   0.530
11207TIP3   OH233563   8.114   3.717   4.015
11207TIP3    H133564   8.026   3.681   4.032
11207TIP3    H233565   8.124   3.709   3.920
11208TIP3   OH233566   7.729   1.467   6.578
11208TIP3    H133567   7.678   1.436   6.503
11208TIP3    H233568   7.734   1.391   6.635
11209TIP3   OH233569   0.003   3.306   5.741
11209TIP3    H133570   0.070   3.345   5.798
11209TIP3    H233571   0.026   3.337   5.654
11210TIP3   OH233572   7.731   5.769   4.372
11210TIP3    H133573   7.759   5.744   4.460
11210TIP3    H233574   7.665   5.837   4.387
11211TIP3   OH233575   7.766   4.438   5.942
11211TIP3    H133576   7.858   4.409   5.937
11211TIP3    H233577   7.765   4.501   6.014
11212TIP3   OH233578   1.947   3.293   5.173
11212TIP3    H133579   2.026   3.266   5.126
11212TIP3    H233580   1.979   3.322   5.258
11213TIP3   OH233581   6.061   0.386   0.962
11213TIP3    H133582   5.997   0.429   0.905
11213TIP3    H233583   6.042   0.419   1.049
11214TIP3   OH233584   0.233   7.773   5.567
11214TIP3    H133585   0.299   7.734   5.508
11214TIP3    H233586   0.208   7.854   5.523
11215TIP3   OH233587   1.700   4.307   0.667
11215TIP3    H133588   1.698   4.322   0.762
11215TIP3    H233589   1.773   4.361   0.636
11216TIP3   OH233590   3.424   2.181   4.343
11216TIP3    H133591   3.449   2.254   4.286
11216TIP3    H233592   3.402   2.222   4.427
11217TIP3   OH233593   2.908  -0.032   2.503
11217TIP3    H133594   2.974  -0.006   2.568
11217TIP3    H233595   2.835   0.028   2.516
11218TIP3   OH233596   6.408   3.659   4.014
11218TIP3    H133597   6.320   3.622   4.017
11218TIP3    H233598   6.400   3.744   4.057
11219TIP3   OH233599   5.932   1.372   2.820
11219TIP3    H133600   5.946   1.462   2.849
11219TIP3    H233601   5.853   1.344   2.865
11220TIP3   OH233602   1.350   3.243   2.728
11220TIP3    H133603   1.356   3.158   2.685
11220TIP3    H233604   1.297   3.226   2.806
11221TIP3   OH233605   4.323   6.894   1.370
11221TIP3    H133606   4.233   6.862   1.370
11221TIP3    H233607   4.350   6.893   1.278
11222TIP3   OH233608   3.038   3.469   3.645
11222TIP3    H133609   2.944   3.491   3.647
11222TIP3    H233610   3.055   3.430   3.731
11223TIP3   OH233611   7.039   3.174   1.899
11223TIP3    H133612   6.983   3.167   1.821
11223TIP3    H233613   7.059   3.083   1.922
11224TIP3   OH233614   2.899   3.345   1.904
11224TIP3    H133615   2.855   3.391   1.976
11224TIP3    H233616   2.887   3.252   1.924
11225TIP3   OH233617   7.752   7.045   1.913
11225TIP3    H133618   7.759   6.970   1.972
11225TIP3    H233619   7.694   7.106   1.958
11226TIP3   OH233620   0.455   3.781   3.828
11226TIP3    H133621   0.511   3.789   3.905
11226TIP3    H233622   0.366   3.782   3.863
11227TIP3   OH233623   1.371   0.450   4.193
11227TIP3    H133624   1.410   0.369   4.225
11227TIP3    H233625   1.329   0.425   4.111
11228TIP3   OH233626   3.644   0.448   1.007
11228TIP3    H133627   3.677   0.385   1.072
11228TIP3    H233628   3.691   0.529   1.027
11229TIP3   OH233629   5.473   0.942   2.372
11229TIP3    H133630   5.380   0.926   2.392
11229TIP3    H233631   5.509   0.855   2.358
11230TIP3   OH233632   3.783   7.694   1.634
11230TIP3    H133633   3.769   7.785   1.658
11230TIP3    H233634   3.724   7.645   1.691
11231TIP3   OH233635   3.981   3.747   5.031
11231TIP3    H133636   4.026   3.769   5.113
11231TIP3    H233637   3.963   3.831   4.990
11232TIP3   OH233638   3.460   6.891   4.001
11232TIP3    H133639   3.370   6.859   4.002
11232TIP3    H233640   3.471   6.931   3.915
11233TIP3   OH233641   7.435   6.519   3.056
11233TIP3    H133642   7.460   6.455   2.990
11233TIP3    H233643   7.508   6.519   3.119
11234TIP3   OH233644   5.646   4.476   4.944
11234TIP3    H133645   5.704   4.453   5.016
11234TIP3    H233646   5.602   4.394   4.922
11235TIP3   OH233647   3.918   5.650   6.537
11235TIP3    H133648   3.929   5.556   6.549
11235TIP3    H233649   3.950   5.667   6.448
11236TIP3   OH233650   5.295   5.546   2.667
11236TIP3    H133651   5.243   5.581   2.740
11236TIP3    H233652   5.241   5.559   2.590
11237TIP3   OH233653   6.356   5.480   0.197
11237TIP3    H133654   6.276   5.454   0.152
11237TIP3    H233655   6.425   5.467   0.133
11238TIP3   OH233656   7.490   4.648   5.566
11238TIP3    H133657   7.431   4.674   5.495
11238TIP3    H233658   7.578   4.667   5.533
11239TIP3   OH233659   8.023   3.143   1.968
11239TIP3    H133660   8.113   3.153   2.001
11239TIP3    H233661   7.992   3.063   2.010
11240TIP3   OH233662   5.816   7.483   2.533
11240TIP3    H133663   5.729   7.484   2.493
11240TIP3    H233664   5.799   7.495   2.627
11241TIP3   OH233665   4.182   0.214   5.643
11241TIP3    H133666   4.146   0.177   5.562
11241TIP3    H233667   4.225   0.140   5.685
11242TIP3   OH233668   3.373   1.735   6.576
11242TIP3    H133669   3.437   1.738   6.647
11242TIP3    H233670   3.303   1.795   6.603
11243TIP3   OH233671   5.978   2.187   1.480
11243TIP3    H133672   6.014   2.231   1.557
11243TIP3    H233673   5.978   2.094   1.503
11244TIP3   OH233674   5.495   2.630   4.567
11244TIP3    H133675   5.458   2.595   4.485
11244TIP3    H233676   5.569   2.683   4.538
11245TIP3   OH233677   5.347   6.980   5.725
11245TIP3    H133678   5.293   6.937   5.659
11245TIP3    H233679   5.385   6.908   5.776
11246TIP3   OH233680   3.379   1.374   0.439
11246TIP3    H133681   3.300   1.346   0.393
11246TIP3    H233682   3.399   1.459   0.401
11247TIP3   OH233683   2.188   3.806   5.985
11247TIP3    H133684   2.219   3.716   5.978
11247TIP3    H233685   2.163   3.830   5.896
11248TIP3   OH233686   3.601   6.769   3.318
11248TIP3    H133687   3.667   6.716   3.363
11248TIP3    H233688   3.540   6.794   3.388
11249TIP3   OH233689   7.809   3.748   1.222
11249TIP3    H133690   7.847   3.805   1.155
11249TIP3    H233691   7.714   3.755   1.209
11250TIP3   OH233692   7.853   6.444   0.321
11250TIP3    H133693   7.921   6.509   0.304
11250TIP3    H233694   7.866   6.377   0.253
11251TIP3   OH233695   3.468   5.371   2.354
11251TIP3    H133696   3.380   5.351   2.322
11251TIP3    H233697   3.511   5.416   2.281
11252TIP3   OH233698   3.068   0.107   0.396
11252TIP3    H133699   3.148   0.158   0.385
11252TIP3    H233700   3.047   0.113   0.489
11253TIP3   OH233701   2.277   1.968   0.233
11253TIP3    H133702   2.246   1.933   0.150
11253TIP3    H233703   2.230   1.918   0.300
11254TIP3   OH233704   4.619   1.133   2.770
11254TIP3    H133705   4.542   1.132   2.826
11254TIP3    H233706   4.611   1.215   2.720
11255TIP3   OH233707   6.866   3.124   6.417
11255TIP3    H133708   6.816   3.093   6.342
11255TIP3    H233709   6.810   3.108   6.492
11256TIP3   OH233710   3.081   7.438   0.863
11256TIP3    H133711   3.051   7.349   0.845
11256TIP3    H233712   3.161   7.427   0.914
11257TIP3   OH233713   5.262   7.382   5.126
11257TIP3    H133714   5.268   7.315   5.059
11257TIP3    H233715   5.345   7.376   5.174
11258TIP3   OH233716   6.735   7.067   5.012
11258TIP3    H133717   6.778   7.150   5.034
11258TIP3    H233718   6.642   7.084   5.028
11259TIP3   OH233719   0.156   7.094   0.182
11259TIP3    H133720   0.133   7.049   0.263
11259TIP3    H233721   0.232   7.047   0.148
11260TIP3   OH233722   3.099   4.624   4.026
11260TIP3    H133723   3.142   4.551   4.069
11260TIP3    H233724   3.009   4.622   4.059
11261TIP3   OH233725   6.673   0.462   5.282
11261TIP3    H133726   6.655   0.432   5.193
11261TIP3    H233727   6.741   0.529   5.271
11262TIP3   OH233728   1.229   3.707   3.373
11262TIP3    H133729   1.186   3.673   3.294
11262TIP3    H233730   1.283   3.634   3.403
11263TIP3   OH233731   0.708   0.243   4.608
11263TIP3    H133732   0.651   0.316   4.632
11263TIP3    H233733   0.649   0.174   4.578
11264TIP3   OH233734   4.909   7.775   4.248
11264TIP3    H133735   4.925   7.682   4.231
11264TIP3    H233736   4.896   7.813   4.162
11265TIP3   OH233737   7.986   2.299   5.686
11265TIP3    H133738   8.068   2.334   5.650
11265TIP3    H233739   7.924   2.371   5.679
11266TIP3   OH233740   4.555   6.999   6.040
11266TIP3    H133741   4.505   6.927   6.003
11266TIP3    H233742   4.625   6.957   6.091
11267TIP3   OH233743   7.779   2.346   6.685
11267TIP3    H133744   7.749   2.390   6.605
11267TIP3    H233745   7.796   2.256   6.657
11268TIP3   OH233746   2.762   3.334   0.996
11268TIP3    H133747   2.694   3.397   1.021
11268TIP3    H233748   2.768   3.275   1.071
11269TIP3   OH233749   0.601   5.220   0.573
11269TIP3    H133750   0.646   5.237   0.490
11269TIP3    H233751   0.518   5.180   0.547
11270TIP3   OH233752   0.763   6.544   3.116
11270TIP3    H133753   0.817   6.601   3.172
11270TIP3    H233754   0.732   6.602   3.047
11271TIP3   OH233755   4.807   5.183   5.976
11271TIP3    H133756   4.888   5.193   5.926
11271TIP3    H233757   4.827   5.222   6.061
11272TIP3   OH233758   8.144   4.259   5.641
11272TIP3    H133759   8.228   4.299   5.658
11272TIP3    H233760   8.130   4.199   5.715
11273TIP3   OH233761   4.650   6.912   5.380
11273TIP3    H133762   4.642   6.969   5.303
11273TIP3    H233763   4.590   6.840   5.362
11274TIP3   OH233764   1.845   7.477   1.463
11274TIP3    H133765   1.853   7.523   1.379
11274TIP3    H233766   1.920   7.418   1.466
11275TIP3   OH233767   2.449   4.896   4.871
11275TIP3    H133768   2.441   4.884   4.965
11275TIP3    H233769   2.540   4.875   4.851
11276TIP3   OH233770   5.550   7.238   5.470
11276TIP3    H133771   5.479   7.256   5.530
11276TIP3    H233772   5.538   7.299   5.398
11277TIP3   OH233773   2.504   4.555   6.580
11277TIP3    H133774   2.492   4.486   6.515
11277TIP3    H233775   2.508   4.509   6.663
11278TIP3   OH233776   5.423   1.054   5.627
11278TIP3    H133777   5.363   1.108   5.678
11278TIP3    H233778   5.410   0.965   5.659
11279TIP3   OH233779   1.061   7.017   4.286
11279TIP3    H133780   1.101   6.973   4.211
11279TIP3    H233781   1.122   7.087   4.307
11280TIP3   OH233782   4.611   0.816   4.070
11280TIP3    H133783   4.577   0.804   3.981
11280TIP3    H233784   4.594   0.732   4.114
11281TIP3   OH233785   6.800   7.446   5.330
11281TIP3    H133786   6.736   7.419   5.395
11281TIP3    H233787   6.881   7.401   5.355
11282TIP3   OH233788   7.904   1.782   1.379
11282TIP3    H133789   7.984   1.764   1.330
11282TIP3    H233790   7.859   1.698   1.385
11283TIP3   OH233791   7.596   6.493   5.271
11283TIP3    H133792   7.604   6.398   5.258
11283TIP3    H233793   7.680   6.528   5.241
11284TIP3   OH233794   8.057   1.828   2.666
11284TIP3    H133795   8.030   1.746   2.708
11284TIP3    H233796   7.977   1.879   2.659
11285TIP3   OH233797   5.535   1.628   2.166
11285TIP3    H133798   5.472   1.562   2.193
11285TIP3    H233799   5.620   1.592   2.191
11286TIP3   OH233800   3.088   7.515   4.554
11286TIP3    H133801   3.047   7.520   4.468
11286TIP3    H233802   3.139   7.434   4.553
11287TIP3   OH233803   0.902   1.454   3.627
11287TIP3    H133804   0.979   1.478   3.576
11287TIP3    H233805   0.872   1.536   3.665
11288TIP3   OH233806   3.417   3.045   0.217
11288TIP3    H133807   3.382   3.133   0.202
11288TIP3    H233808   3.460   3.023   0.134
11289TIP3   OH233809   1.010   0.506   3.743
11289TIP3    H133810   0.933   0.466   3.783
11289TIP3    H233811   1.002   0.486   3.650
11290TIP3   OH233812   7.501   6.905   4.848
11290TIP3    H133813   7.558   6.831   4.827
11290TIP3    H233814   7.422   6.865   4.884
11291TIP3   OH233815   1.900   4.346   2.422
11291TIP3    H133816   1.911   4.277   2.356
11291TIP3    H233817   1.810   4.335   2.452
11292TIP3   OH233818   8.059   4.816   6.666
11292TIP3    H133819   8.141   4.776   6.697
11292TIP3    H233820   8.044   4.890   6.725
11293TIP3   OH233821   7.298   2.274   0.841
11293TIP3    H133822   7.358   2.201   0.823
11293TIP3    H233823   7.302   2.328   0.762
11294TIP3   OH233824   2.551   7.271   4.897
11294TIP3    H133825   2.522   7.278   4.988
11294TIP3    H233826   2.472   7.246   4.849
11295TIP3   OH233827   5.061   6.029   2.016
11295TIP3    H133828   5.052   6.104   1.957
11295TIP3    H233829   5.086   6.067   2.100
11296TIP3   OH233830   2.467   5.438   2.871
11296TIP3    H133831   2.471   5.489   2.953
11296TIP3    H233832   2.558   5.434   2.842
11297TIP3   OH233833   6.799   5.488   6.463
11297TIP3    H133834   6.778   5.448   6.379
11297TIP3    H233835   6.895   5.491   6.466
11298TIP3   OH233836   0.298   3.230   1.428
11298TIP3    H133837   0.278   3.275   1.511
11298TIP3    H233838   0.382   3.186   1.444
11299TIP3   OH233839   8.185   2.836   1.877
11299TIP3    H133840   8.127   2.763   1.855
11299TIP3    H233841   8.168   2.853   1.970
11300TIP3   OH233842   0.712   1.628   2.319
11300TIP3    H133843   0.766   1.563   2.364
11300TIP3    H233844   0.683   1.584   2.239
11301TIP3   OH233845   0.956   0.869   5.720
11301TIP3    H133846   1.031   0.812   5.733
11301TIP3    H233847   0.988   0.957   5.742
11302TIP3   OH233848   6.068   0.125   5.787
11302TIP3    H133849   6.092   0.042   5.829
11302TIP3    H233850   6.075   0.108   5.693
11303TIP3   OH233851   4.120   3.579   3.824
11303TIP3    H133852   4.178   3.548   3.755
11303TIP3    H233853   4.167   3.561   3.906
11304TIP3   OH233854   5.002   4.747   1.390
11304TIP3    H133855   4.918   4.738   1.345
11304TIP3    H233856   5.051   4.809   1.336
11305TIP3   OH233857   5.083   4.242   6.321
11305TIP3    H133858   5.112   4.328   6.352
11305TIP3    H233859   4.998   4.229   6.364
11306TIP3   OH233860   5.064   4.984   2.721
11306TIP3    H133861   5.125   5.057   2.723
11306TIP3    H233862   5.087   4.936   2.641
11307TIP3   OH233863   5.674   7.770   1.645
11307TIP3    H133864   5.621   7.695   1.620
11307TIP3    H233865   5.719   7.742   1.725
11308TIP3   OH233866   2.394   5.860   2.385
11308TIP3    H133867   2.353   5.880   2.300
11308TIP3    H233868   2.486   5.844   2.363
11309TIP3   OH233869   2.190   3.287   1.774
11309TIP3    H133870   2.279   3.306   1.805
11309TIP3    H233871   2.159   3.218   1.833
11310TIP3   OH233872   5.197   1.902   4.079
11310TIP3    H133873   5.117   1.926   4.031
11310TIP3    H233874   5.170   1.829   4.135
11311TIP3   OH233875   5.635   4.203   0.759
11311TIP3    H133876   5.695   4.198   0.685
11311TIP3    H233877   5.631   4.114   0.794
11312TIP3   OH233878   7.505   3.084   4.524
11312TIP3    H133879   7.414   3.076   4.553
11312TIP3    H233880   7.499   3.098   4.430
11313TIP3   OH233881   5.038   3.760   2.605
11313TIP3    H133882   4.972   3.797   2.547
11313TIP3    H233883   4.987   3.717   2.674
11314TIP3   OH233884   2.706   6.264   6.048
11314TIP3    H133885   2.771   6.332   6.066
11314TIP3    H233886   2.756   6.182   6.051
11315TIP3   OH233887   4.815   2.099   4.646
11315TIP3    H133888   4.724   2.086   4.617
11315TIP3    H233889   4.858   2.139   4.571
11316TIP3   OH233890   4.147   2.706   2.386
11316TIP3    H133891   4.200   2.784   2.378
11316TIP3    H233892   4.191   2.654   2.453
11317TIP3   OH233893   4.454   5.872   5.697
11317TIP3    H133894   4.511   5.834   5.763
11317TIP3    H233895   4.366   5.845   5.723
11318TIP3   OH233896   7.406   6.706   2.450
11318TIP3    H133897   7.388   6.727   2.359
11318TIP3    H233898   7.500   6.714   2.459
11319TIP3   OH233899   6.937   5.092   3.418
11319TIP3    H133900   6.988   5.148   3.477
11319TIP3    H233901   6.926   5.145   3.339
11320TIP3   OH233902   7.884   2.645   1.237
11320TIP3    H133903   7.927   2.697   1.169
11320TIP3    H233904   7.845   2.710   1.296
11321TIP3   OH233905   7.088   2.723   4.597
11321TIP3    H133906   7.052   2.654   4.653
11321TIP3    H233907   7.028   2.797   4.610
11322TIP3   OH233908   2.096   7.843   4.867
11322TIP3    H133909   2.091   7.751   4.893
11322TIP3    H233910   2.123   7.840   4.775
11323TIP3   OH233911   0.825   2.565   4.821
11323TIP3    H133912   0.844   2.599   4.908
11323TIP3    H233913   0.740   2.522   4.830
11324TIP3   OH233914   8.164   5.668   5.578
11324TIP3    H133915   8.223   5.623   5.639
11324TIP3    H233916   8.128   5.741   5.629
11325TIP3   OH233917   6.773   5.640   5.108
11325TIP3    H133918   6.723   5.583   5.167
11325TIP3    H233919   6.780   5.723   5.155
11326TIP3   OH233920   7.602   3.197   4.276
11326TIP3    H133921   7.634   3.252   4.348
11326TIP3    H233922   7.534   3.250   4.234
11327TIP3   OH233923   2.708   3.456   4.177
11327TIP3    H133924   2.802   3.449   4.192
11327TIP3    H233925   2.671   3.482   4.261
11328TIP3   OH233926   0.221   2.053   2.426
11328TIP3    H133927   0.244   2.035   2.335
11328TIP3    H233928   0.148   1.994   2.444
11329TIP3   OH233929   7.015   4.765   0.868
11329TIP3    H133930   6.961   4.689   0.845
11329TIP3    H233931   7.064   4.785   0.788
11330TIP3   OH233932   4.628   2.516   4.065
11330TIP3    H133933   4.709   2.566   4.076
11330TIP3    H233934   4.559   2.574   4.098
11331TIP3   OH233935   3.612   1.631   1.121
11331TIP3    H133936   3.556   1.702   1.153
11331TIP3    H233937   3.666   1.607   1.196
11332TIP3   OH233938   0.442   4.434   2.870
11332TIP3    H133939   0.491   4.355   2.894
11332TIP3    H233940   0.500   4.506   2.897
11333TIP3   OH233941   4.771   2.508   4.488
11333TIP3    H133942   4.861   2.513   4.520
11333TIP3    H233943   4.732   2.592   4.512
11334TIP3   OH233944   4.981   1.504   4.031
11334TIP3    H133945   5.044   1.447   3.987
11334TIP3    H233946   4.956   1.568   3.964
11335TIP3   OH233947   6.226   0.089   0.802
11335TIP3    H133948   6.214   0.028   0.729
11335TIP3    H233949   6.282   0.158   0.767
11336TIP3   OH233950   7.818   5.976   2.262
11336TIP3    H133951   7.829   5.993   2.355
11336TIP3    H233952   7.907   5.958   2.229
11337TIP3   OH233953   4.691   6.397   1.024
11337TIP3    H133954   4.597   6.385   1.015
11337TIP3    H233955   4.728   6.311   1.005
11338TIP3   OH233956   0.712   1.093   5.028
11338TIP3    H133957   0.776   1.127   5.089
11338TIP3    H233958   0.751   1.011   4.996
11339TIP3   OH233959   7.933   7.134   5.672
11339TIP3    H133960   8.026   7.153   5.656
11339TIP3    H233961   7.933   7.086   5.755
11340TIP3   OH233962   7.180   0.952   4.331
11340TIP3    H133963   7.260   0.925   4.375
11340TIP3    H233964   7.113   0.950   4.399
11341TIP3   OH233965   5.683   7.319   1.976
11341TIP3    H133966   5.593   7.329   2.007
11341TIP3    H233967   5.679   7.342   1.883
11342TIP3   OH233968   3.065   0.547   1.174
11342TIP3    H133969   3.118   0.561   1.095
11342TIP3    H233970   3.063   0.452   1.184
11343TIP3   OH233971   4.183   4.417   5.144
11343TIP3    H133972   4.182   4.377   5.057
11343TIP3    H233973   4.245   4.490   5.137
11344TIP3   OH233974   1.188   0.982   3.775
11344TIP3    H133975   1.099   0.954   3.798
11344TIP3    H233976   1.204   0.945   3.689
11345TIP3   OH233977   7.251   4.825   1.568
11345TIP3    H133978   7.217   4.908   1.532
11345TIP3    H233979   7.292   4.850   1.651
11346TIP3   OH233980   4.276   4.060   5.455
11346TIP3    H133981   4.313   4.147   5.473
11346TIP3    H233982   4.207   4.077   5.391
11347TIP3   OH233983   5.214   0.496   0.738
11347TIP3    H133984   5.239   0.501   0.646
11347TIP3    H233985   5.158   0.419   0.744
11348TIP3   OH233986   0.503   4.845   0.873
11348TIP3    H133987   0.521   4.939   0.875
11348TIP3    H233988   0.582   4.806   0.837
11349TIP3   OH233989   3.430   6.146   1.656
11349TIP3    H133990   3.370   6.078   1.626
11349TIP3    H233991   3.476   6.173   1.576
11350TIP3   OH233992   0.631   4.504   6.079
11350TIP3    H133993   0.697   4.475   6.016
11350TIP3    H233994   0.679   4.516   6.161
11351TIP3   OH233995   2.939   6.245   5.548
11351TIP3    H133996   2.910   6.296   5.473
11351TIP3    H233997   2.962   6.310   5.614
11352TIP3   OH233998   6.058   3.951   5.223
11352TIP3    H133999   5.968   3.973   5.249
11352TIP3    H234000   6.111   3.976   5.298
11353TIP3   OH234001   0.798   1.322   5.739
11353TIP3    H134002   0.708   1.339   5.710
11353TIP3    H234003   0.819   1.396   5.796
11354TIP3   OH234004   5.996   5.849   6.549
11354TIP3    H134005   6.055   5.780   6.518
11354TIP3    H234006   6.004   5.919   6.485
11355TIP3   OH234007   3.628   3.711   1.357
11355TIP3    H134008   3.544   3.683   1.321
11355TIP3    H234009   3.627   3.679   1.448
11356TIP3   OH234010   7.636   3.519   1.263
11356TIP3    H134011   7.559   3.573   1.277
11356TIP3    H234012   7.709   3.573   1.294
11357TIP3   OH234013   6.948   2.487   4.680
11357TIP3    H134014   7.007   2.413   4.666
11357TIP3    H234015   6.899   2.494   4.598
11358TIP3   OH234016   6.069   0.697   6.390
11358TIP3    H134017   5.999   0.682   6.453
11358TIP3    H234018   6.064   0.622   6.330
11359TIP3   OH234019   1.913   0.903   1.470
11359TIP3    H134020   1.933   0.809   1.464
11359TIP3    H234021   1.943   0.939   1.387
11360TIP3   OH234022   5.503   6.668   4.179
11360TIP3    H134023   5.541   6.619   4.106
11360TIP3    H234024   5.523   6.615   4.256
11361TIP3   OH234025   3.575   6.089   1.919
11361TIP3    H134026   3.661   6.130   1.909
11361TIP3    H234027   3.553   6.058   1.831
11362TIP3   OH234028   2.958   2.264   3.860
11362TIP3    H134029   2.996   2.325   3.923
11362TIP3    H234030   3.005   2.282   3.778
11363TIP3   OH234031   7.954   2.970   1.687
11363TIP3    H134032   7.894   2.913   1.736
11363TIP3    H234033   8.038   2.961   1.732
11364TIP3   OH234034   6.576   4.004   3.655
11364TIP3    H134035   6.512   4.069   3.685
11364TIP3    H234036   6.558   3.927   3.708
11365TIP3   OH234037   2.316   5.832   1.860
11365TIP3    H134038   2.278   5.864   1.778
11365TIP3    H234039   2.378   5.764   1.833
11366TIP3   OH234040   4.374   4.485   3.179
11366TIP3    H134041   4.464   4.469   3.151
11366TIP3    H234042   4.331   4.399   3.170
11367TIP3   OH234043   2.991   3.556   2.484
11367TIP3    H134044   3.002   3.625   2.419
11367TIP3    H234045   2.925   3.497   2.445
11368TIP3   OH234046   7.801   3.876   3.276
11368TIP3    H134047   7.865   3.806   3.285
11368TIP3    H234048   7.771   3.870   3.185
11369TIP3   OH234049   1.733   4.595   5.440
11369TIP3    H134050   1.726   4.687   5.468
11369TIP3    H234051   1.696   4.593   5.352
11370TIP3   OH234052   7.217   3.729   2.974
11370TIP3    H134053   7.211   3.783   3.053
11370TIP3    H234054   7.188   3.787   2.904
11371TIP3   OH234055   1.462   2.195   2.478
11371TIP3    H134056   1.450   2.102   2.497
11371TIP3    H234057   1.551   2.214   2.508
11372TIP3   OH234058   7.618   1.897   1.286
11372TIP3    H134059   7.711   1.897   1.312
11372TIP3    H234060   7.590   1.806   1.299
11373TIP3   OH234061   1.373   2.021   1.600
11373TIP3    H134062   1.317   2.090   1.636
11373TIP3    H234063   1.444   2.011   1.663
11374TIP3   OH234064   2.232   4.804   2.326
11374TIP3    H134065   2.145   4.839   2.344
11374TIP3    H234066   2.234   4.720   2.373
11375TIP3   OH234067   7.411   3.916   5.228
11375TIP3    H134068   7.357   3.915   5.148
11375TIP3    H234069   7.482   3.977   5.207
11376TIP3   OH234070   8.083   3.980   6.274
11376TIP3    H134071   8.047   3.991   6.186
11376TIP3    H234072   8.161   3.927   6.261
11377TIP3   OH234073   5.169   0.236   3.431
11377TIP3    H134074   5.204   0.234   3.341
11377TIP3    H234075   5.098   0.299   3.428
11378TIP3   OH234076   5.696   1.969   3.684
11378TIP3    H134077   5.720   1.926   3.602
11378TIP3    H234078   5.734   1.913   3.752
11379TIP3   OH234079   4.101   3.657   6.785
11379TIP3    H134080   4.100   3.710   6.705
11379TIP3    H234081   4.189   3.619   6.787
11380TIP3   OH234082   0.464   0.702   0.403
11380TIP3    H134083   0.496   0.671   0.488
11380TIP3    H234084   0.513   0.651   0.339
11381TIP3   OH234085   3.556   4.009   3.143
11381TIP3    H134086   3.609   3.948   3.193
11381TIP3    H234087   3.618   4.072   3.108
11382TIP3   OH234088   6.060   5.091   3.578
11382TIP3    H134089   6.065   5.109   3.484
11382TIP3    H234090   6.021   5.170   3.615
11383TIP3   OH234091   0.628   5.220   6.329
11383TIP3    H134092   0.611   5.313   6.344
11383TIP3    H234093   0.700   5.218   6.266
11384TIP3   OH234094   7.731   5.212   3.817
11384TIP3    H134095   7.666   5.229   3.748
11384TIP3    H234096   7.737   5.117   3.821
11385TIP3   OH234097   8.184   3.880   0.997
11385TIP3    H134098   8.246   3.807   0.995
11385TIP3    H234099   8.130   3.864   1.074
11386TIP3   OH234100   5.268   3.645   6.238
11386TIP3    H134101   5.262   3.739   6.249
11386TIP3    H234102   5.193   3.622   6.183
11387TIP3   OH234103   2.587   3.076   3.000
11387TIP3    H134104   2.516   3.103   2.941
11387TIP3    H234105   2.627   3.158   3.029
11388TIP3   OH234106   1.708   7.625   4.440
11388TIP3    H134107   1.702   7.612   4.534
11388TIP3    H234108   1.658   7.706   4.424
11389TIP3   OH234109   2.227   0.111   2.717
11389TIP3    H134110   2.269   0.190   2.750
11389TIP3    H234111   2.292   0.042   2.727
11390TIP3   OH234112   1.102   6.515   5.679
11390TIP3    H134113   1.119   6.606   5.653
11390TIP3    H234114   1.134   6.463   5.606
11391TIP3   OH234115   3.891   2.231   2.647
11391TIP3    H134116   3.863   2.141   2.628
11391TIP3    H234117   3.914   2.229   2.739
11392TIP3   OH234118   7.143   6.782   3.270
11392TIP3    H134119   7.152   6.753   3.361
11392TIP3    H234120   7.233   6.795   3.240
11393TIP3   OH234121   6.245   4.802   6.468
11393TIP3    H134122   6.207   4.870   6.523
11393TIP3    H234123   6.225   4.829   6.379
11394TIP3   OH234124   4.699   6.034   3.031
11394TIP3    H134125   4.681   6.049   3.124
11394TIP3    H234126   4.706   5.939   3.022
11395TIP3   OH234127   4.053   1.325   3.311
11395TIP3    H134128   4.113   1.256   3.339
11395TIP3    H234129   3.981   1.322   3.374
11396TIP3   OH234130   6.417   0.402   0.260
11396TIP3    H134131   6.438   0.312   0.285
11396TIP3    H234132   6.500   0.438   0.229
11397TIP3   OH234133   5.733   2.668   0.796
11397TIP3    H134134   5.791   2.717   0.738
11397TIP3    H234135   5.646   2.679   0.759
11398TIP3   OH234136   6.139   2.727   4.407
11398TIP3    H134137   6.178   2.775   4.334
11398TIP3    H234138   6.210   2.721   4.471
11399TIP3   OH234139   3.640   4.624   3.365
11399TIP3    H134140   3.546   4.608   3.356
11399TIP3    H234141   3.671   4.554   3.422
11400TIP3   OH234142   5.846   4.965   2.188
11400TIP3    H134143   5.808   5.051   2.204
11400TIP3    H234144   5.780   4.919   2.136
11401TIP3   OH234145   4.515   5.826   1.067
11401TIP3    H134146   4.529   5.862   0.979
11401TIP3    H234147   4.581   5.869   1.121
11402TIP3   OH234148   7.661   4.086   1.779
11402TIP3    H134149   7.708   4.065   1.860
11402TIP3    H234150   7.575   4.115   1.808
11403TIP3   OH234151   3.168   5.722   5.738
11403TIP3    H134152   3.216   5.658   5.686
11403TIP3    H234153   3.087   5.737   5.689
11404TIP3   OH234154   2.007   6.833   4.235
11404TIP3    H134155   2.038   6.877   4.314
11404TIP3    H234156   1.922   6.797   4.259
11405TIP3   OH234157   4.152   1.084   3.925
11405TIP3    H134158   4.090   1.011   3.926
11405TIP3    H234159   4.219   1.061   3.989
11406TIP3   OH234160   7.028   6.755   1.093
11406TIP3    H134161   6.967   6.694   1.134
11406TIP3    H234162   7.057   6.710   1.013
11407TIP3   OH234163   3.111   4.229   6.428
11407TIP3    H134164   3.063   4.257   6.507
11407TIP3    H234165   3.065   4.150   6.399
11408TIP3   OH234166   0.444   2.671   4.850
11408TIP3    H134167   0.384   2.698   4.780
11408TIP3    H234168   0.482   2.589   4.819
11409TIP3   OH234169   2.112   2.290   1.436
11409TIP3    H134170   2.205   2.270   1.439
11409TIP3    H234171   2.102   2.365   1.496
11410TIP3   OH234172   2.608   5.823   3.478
11410TIP3    H134173   2.600   5.876   3.398
11410TIP3    H234174   2.691   5.777   3.467
11411TIP3   OH234175   7.972   7.043   5.938
11411TIP3    H134176   8.016   7.125   5.962
11411TIP3    H234177   7.883   7.054   5.970
11412TIP3   OH234178   1.385   2.152   2.189
11412TIP3    H134179   1.467   2.170   2.143
11412TIP3    H234180   1.405   2.168   2.281
11413TIP3   OH234181   3.171   7.273   3.398
11413TIP3    H134182   3.221   7.346   3.363
11413TIP3    H234183   3.106   7.313   3.457
11414TIP3   OH234184   2.342   3.842   3.553
11414TIP3    H134185   2.254   3.843   3.590
11414TIP3    H234186   2.358   3.932   3.525
11415TIP3   OH234187   7.579   7.292   2.788
11415TIP3    H134188   7.637   7.312   2.714
11415TIP3    H234189   7.491   7.310   2.756
11416TIP3   OH234190   3.683   4.357   2.651
11416TIP3    H134191   3.622   4.285   2.636
11416TIP3    H234192   3.684   4.405   2.568
11417TIP3   OH234193   1.490   5.365   6.714
11417TIP3    H134194   1.413   5.370   6.657
11417TIP3    H234195   1.524   5.277   6.700
11418TIP3   OH234196   7.539   1.817   4.016
11418TIP3    H134197   7.451   1.852   4.024
11418TIP3    H234198   7.534   1.754   3.944
11419TIP3   OH234199   0.140   0.291   0.852
11419TIP3    H134200   0.216   0.242   0.822
11419TIP3    H234201   0.065   0.246   0.813
11420TIP3   OH234202   8.217   0.664   0.896
11420TIP3    H134203   8.204   0.735   0.959
11420TIP3    H234204   8.153   0.682   0.827
11421TIP3   OH234205   2.665   7.370   5.749
11421TIP3    H134206   2.677   7.458   5.711
11421TIP3    H234207   2.572   7.367   5.771
11422TIP3   OH234208   1.430   3.264   4.570
11422TIP3    H134209   1.371   3.237   4.640
11422TIP3    H234210   1.517   3.262   4.610
11423TIP3   OH234211   0.318   0.793   6.158
11423TIP3    H134212   0.253   0.832   6.216
11423TIP3    H234213   0.349   0.866   6.103
11424TIP3   OH234214   4.573   4.536   0.589
11424TIP3    H134215   4.594   4.624   0.558
11424TIP3    H234216   4.523   4.497   0.517
11425TIP3   OH234217   4.925   5.820   6.274
11425TIP3    H134218   4.917   5.872   6.194
11425TIP3    H234219   4.995   5.758   6.255
11426TIP3   OH234220   6.132   7.709   2.247
11426TIP3    H134221   6.193   7.721   2.320
11426TIP3    H234222   6.112   7.615   2.249
11427TIP3   OH234223   1.179   2.159   1.717
11427TIP3    H134224   1.086   2.175   1.700
11427TIP3    H234225   1.212   2.242   1.752
11428TIP3   OH234226   7.840   1.215   0.430
11428TIP3    H134227   7.772   1.270   0.471
11428TIP3    H234228   7.792   1.162   0.366
11429TIP3   OH234229   3.877   1.761   1.200
11429TIP3    H134230   3.944   1.703   1.164
11429TIP3    H234231   3.848   1.717   1.280
11430TIP3   OH234232   0.319   0.998   2.206
11430TIP3    H134233   0.349   0.927   2.150
11430TIP3    H234234   0.344   0.970   2.295
11431TIP3   OH234235   6.884   3.980   6.372
11431TIP3    H134236   6.790   3.963   6.371
11431TIP3    H234237   6.913   3.955   6.284
11432TIP3   OH234238   6.714   2.021   3.287
11432TIP3    H134239   6.809   2.018   3.286
11432TIP3    H234240   6.688   1.953   3.348
11433TIP3   OH234241   1.544   5.620   1.495
11433TIP3    H134242   1.587   5.584   1.572
11433TIP3    H234243   1.473   5.674   1.530
11434TIP3   OH234244   1.235   6.327   5.390
11434TIP3    H134245   1.155   6.370   5.361
11434TIP3    H234246   1.208   6.236   5.406
11435TIP3   OH234247   6.384   3.938   5.658
11435TIP3    H134248   6.421   4.024   5.679
11435TIP3    H234249   6.458   3.890   5.621
11436TIP3   OH234250   5.797   2.975   3.677
11436TIP3    H134251   5.847   2.908   3.630
11436TIP3    H234252   5.757   3.027   3.608
11437TIP3   OH234253   7.917   5.586   1.338
11437TIP3    H134254   7.894   5.667   1.293
11437TIP3    H234255   7.964   5.535   1.272
11438TIP3   OH234256   5.763   0.398   2.982
11438TIP3    H134257   5.760   0.493   2.989
11438TIP3    H234258   5.675   0.373   2.953
11439TIP3   OH234259   0.288   1.925   1.515
11439TIP3    H134260   0.220   1.949   1.577
11439TIP3    H234261   0.247   1.935   1.429
11440TIP3   OH234262   7.446   7.506   4.075
11440TIP3    H134263   7.501   7.519   3.997
11440TIP3    H234264   7.388   7.582   4.077
11441TIP3   OH234265   4.068   0.522   1.992
11441TIP3    H134266   4.039   0.549   1.905
11441TIP3    H234267   4.144   0.578   2.010
11442TIP3   OH234268   1.162   3.742   6.000
11442TIP3    H134269   1.136   3.652   6.021
11442TIP3    H234270   1.145   3.791   6.081
11443TIP3   OH234271   4.695   5.365   2.368
11443TIP3    H134272   4.760   5.423   2.329
11443TIP3    H234273   4.739   5.325   2.443
11444TIP3   OH234274   4.223   1.937   0.633
11444TIP3    H134275   4.212   1.963   0.725
11444TIP3    H234276   4.285   2.000   0.597
11445TIP3   OH234277   7.724   2.585   2.828
11445TIP3    H134278   7.756   2.509   2.779
11445TIP3    H234279   7.673   2.635   2.765
11446TIP3   OH234280   3.706   5.052   6.653
11446TIP3    H134281   3.780   5.062   6.713
11446TIP3    H234282   3.670   4.965   6.674
11447TIP3   OH234283   5.233   2.724   3.131
11447TIP3    H134284   5.242   2.714   3.037
11447TIP3    H234285   5.170   2.656   3.156
11448TIP3   OH234286   7.868   2.288   3.235
11448TIP3    H134287   7.953   2.296   3.278
11448TIP3    H234288   7.880   2.328   3.149
11449TIP3   OH234289   0.995   7.088   2.400
11449TIP3    H134290   0.932   7.044   2.343
11449TIP3    H234291   1.004   7.030   2.475
11450TIP3   OH234292   7.285  -0.009   4.416
11450TIP3    H134293   7.296   0.061   4.479
11450TIP3    H234294   7.260   0.035   4.335
11451TIP3   OH234295   6.335   6.031   6.092
11451TIP3    H134296   6.350   5.937   6.101
11451TIP3    H234297   6.248   6.037   6.051
11452TIP3   OH234298   6.640   1.255   4.416
11452TIP3    H134299   6.614   1.165   4.399
11452TIP3    H234300   6.692   1.250   4.496
11453TIP3   OH234301   2.760   4.177   6.221
11453TIP3    H134302   2.773   4.266   6.189
11453TIP3    H234303   2.737   4.188   6.313
11454TIP3   OH234304   5.560   7.378   2.217
11454TIP3    H134305   5.574   7.472   2.201
11454TIP3    H234306   5.484   7.374   2.275
11455TIP3   OH234307   2.033   3.372   5.442
11455TIP3    H134308   2.045   3.449   5.497
11455TIP3    H234309   2.069   3.300   5.493
11456TIP3   OH234310   3.725   7.127   4.642
11456TIP3    H134311   3.710   7.165   4.729
11456TIP3    H234312   3.816   7.149   4.622
11457TIP3   OH234313   1.941   3.629   6.320
11457TIP3    H134314   2.033   3.640   6.297
11457TIP3    H234315   1.893   3.645   6.238
11458TIP3   OH234316   2.856   5.417   3.043
11458TIP3    H134317   2.946   5.432   3.072
11458TIP3    H234318   2.803   5.477   3.096
11459TIP3   OH234319   3.560   0.950   3.712
11459TIP3    H134320   3.561   1.008   3.637
11459TIP3    H234321   3.649   0.914   3.717
11460TIP3   OH234322   1.170   7.277   2.668
11460TIP3    H134323   1.223   7.291   2.590
11460TIP3    H234324   1.175   7.183   2.684
11461TIP3   OH234325   2.411   1.273   0.547
11461TIP3    H134326   2.409   1.234   0.635
11461TIP3    H234327   2.332   1.326   0.543
11462TIP3   OH234328   1.359   2.465   3.482
11462TIP3    H134329   1.312   2.541   3.449
11462TIP3    H234330   1.440   2.462   3.431
11463TIP3   OH234331   5.210   1.728   1.567
11463TIP3    H134332   5.213   1.655   1.506
11463TIP3    H234333   5.302   1.751   1.581
11464TIP3   OH234334   4.381   3.212   1.036
11464TIP3    H134335   4.416   3.294   1.071
11464TIP3    H234336   4.458   3.163   1.007
11465TIP3   OH234337   0.951   2.644   2.549
11465TIP3    H134338   0.961   2.602   2.635
11465TIP3    H234339   0.899   2.722   2.566
11466TIP3   OH234340   6.617   1.256   1.513
11466TIP3    H134341   6.688   1.236   1.453
11466TIP3    H234342   6.544   1.201   1.483
11467TIP3   OH234343   7.554   6.084   3.506
11467TIP3    H134344   7.547   6.169   3.549
11467TIP3    H234345   7.596   6.028   3.571
11468TIP3   OH234346   6.919   0.490   1.855
11468TIP3    H134347   6.981   0.551   1.814
11468TIP3    H234348   6.939   0.495   1.949
11469TIP3   OH234349   0.277   1.379   6.582
11469TIP3    H134350   0.263   1.472   6.598
11469TIP3    H234351   0.223   1.359   6.505
11470TIP3   OH234352   2.845   1.492   0.699
11470TIP3    H134353   2.773   1.439   0.668
11470TIP3    H234354   2.921   1.460   0.651
11471TIP3   OH234355   2.178   6.333   4.582
11471TIP3    H134356   2.212   6.249   4.551
11471TIP3    H234357   2.108   6.310   4.643
11472TIP3   OH234358   3.770   3.479   0.160
11472TIP3    H134359   3.700   3.501   0.099
11472TIP3    H234360   3.727   3.475   0.246
11473TIP3   OH234361   2.110   3.126   0.119
11473TIP3    H134362   2.016   3.141   0.118
11473TIP3    H234363   2.129   3.093   0.207
11474TIP3   OH234364   4.599   5.423   2.107
11474TIP3    H134365   4.668   5.393   2.166
11474TIP3    H234366   4.601   5.518   2.115
11475TIP3   OH234367   7.966   7.215   2.003
11475TIP3    H134368   7.968   7.173   2.089
11475TIP3    H234369   7.907   7.161   1.952
11476TIP3   OH234370   0.585   2.928   3.727
11476TIP3    H134371   0.569   2.862   3.660
11476TIP3    H234372   0.649   2.987   3.687
11477TIP3   OH234373   5.843   0.463   1.457
11477TIP3    H134374   5.794   0.452   1.539
11477TIP3    H234375   5.777   0.452   1.389
11478TIP3   OH234376   6.817   3.548   2.104
11478TIP3    H134377   6.808   3.523   2.012
11478TIP3    H234378   6.818   3.464   2.151
11479TIP3   OH234379   6.189   5.621   2.286
11479TIP3    H134380   6.116   5.561   2.268
11479TIP3    H234381   6.194   5.677   2.208
11480TIP3   OH234382   2.338   6.222   3.776
11480TIP3    H134383   2.285   6.164   3.830
11480TIP3    H234384   2.389   6.163   3.720
11481TIP3   OH234385   1.121   5.105   4.331
11481TIP3    H134386   1.155   5.111   4.242
11481TIP3    H234387   1.061   5.179   4.339
11482TIP3   OH234388   5.319   5.926   5.571
11482TIP3    H134389   5.389   5.900   5.512
11482TIP3    H234390   5.360   5.988   5.631
11483TIP3   OH234391   3.418   1.237   5.387
11483TIP3    H134392   3.513   1.253   5.388
11483TIP3    H234393   3.380   1.324   5.375
11484TIP3   OH234394   2.175   0.215   1.557
11484TIP3    H134395   2.145   0.306   1.563
11484TIP3    H234396   2.161   0.180   1.645
11485TIP3   OH234397   6.408   3.442   3.826
11485TIP3    H134398   6.337   3.453   3.763
11485TIP3    H234399   6.365   3.427   3.909
11486TIP3   OH234400   2.090   1.303   1.332
11486TIP3    H134401   2.041   1.364   1.387
11486TIP3    H234402   2.174   1.292   1.377
11487TIP3   OH234403   6.009   4.667   5.337
11487TIP3    H134404   6.082   4.615   5.371
11487TIP3    H234405   6.047   4.752   5.316
11488TIP3   OH234406   7.725   5.258   2.780
11488TIP3    H134407   7.751   5.171   2.749
11488TIP3    H234408   7.802   5.290   2.828
11489TIP3   OH234409   7.332   7.394   2.754
11489TIP3    H134410   7.283   7.475   2.746
11489TIP3    H234411   7.345   7.364   2.664
11490TIP3   OH234412   4.728   6.662   2.469
11490TIP3    H134413   4.726   6.584   2.414
11490TIP3    H234414   4.805   6.710   2.439
11491TIP3   OH234415   7.892   1.508   6.278
11491TIP3    H134416   7.964   1.445   6.273
11491TIP3    H234417   7.888   1.532   6.371
11492TIP3   OH234418   3.982   6.003   3.278
11492TIP3    H134419   4.073   5.976   3.276
11492TIP3    H234420   3.936   5.935   3.229
11493TIP3   OH234421   2.684   2.898   4.477
11493TIP3    H134422   2.679   2.838   4.552
11493TIP3    H234423   2.627   2.971   4.500
11494TIP3   OH234424   7.215   2.365   5.783
11494TIP3    H134425   7.170   2.313   5.850
11494TIP3    H234426   7.144   2.401   5.730
11495TIP3   OH234427   4.046   7.210   3.606
11495TIP3    H134428   4.050   7.154   3.683
11495TIP3    H234429   4.053   7.299   3.641
11496TIP3   OH234430   0.352   2.696   2.804
11496TIP3    H134431   0.296   2.632   2.762
11496TIP3    H234432   0.441   2.670   2.779
11497TIP3   OH234433   3.972   1.661   1.599
11497TIP3    H134434   3.907   1.688   1.534
11497TIP3    H234435   4.056   1.672   1.555
11498TIP3   OH234436   4.388   4.766   5.866
11498TIP3    H134437   4.481   4.749   5.875
11498TIP3    H234438   4.346   4.682   5.887
11499TIP3   OH234439   4.185   2.090   2.184
11499TIP3    H134440   4.167   2.114   2.275
11499TIP3    H234441   4.127   2.016   2.167
11500TIP3   OH234442   7.768   3.631   4.752
11500TIP3    H134443   7.677   3.606   4.732
11500TIP3    H234444   7.809   3.640   4.666
11501TIP3   OH234445   7.308   0.205   1.002
11501TIP3    H134446   7.350   0.163   0.926
11501TIP3    H234447   7.221   0.166   1.006
11502TIP3   OH234448   7.120   1.433   6.345
11502TIP3    H134449   7.039   1.442   6.296
11502TIP3    H234450   7.163   1.356   6.306
11503TIP3   OH234451   5.155   7.158   3.334
11503TIP3    H134452   5.242   7.132   3.365
11503TIP3    H234453   5.173   7.208   3.254
11504TIP3   OH234454   1.260   5.475   2.110
11504TIP3    H134455   1.297   5.501   2.026
11504TIP3    H234456   1.264   5.554   2.164
11505TIP3   OH234457   2.524   4.336   3.426
11505TIP3    H134458   2.585   4.399   3.464
11505TIP3    H234459   2.440   4.382   3.425
11506TIP3   OH234460   0.936   6.840   6.222
11506TIP3    H134461   1.011   6.804   6.270
11506TIP3    H234462   0.891   6.896   6.285
11507TIP3   OH234463   4.409   5.430   3.633
11507TIP3    H134464   4.408   5.399   3.723
11507TIP3    H234465   4.401   5.350   3.580
11508TIP3   OH234466   0.362   7.021   3.075
11508TIP3    H134467   0.282   7.071   3.056
11508TIP3    H234468   0.368   7.020   3.170
11509TIP3   OH234469   3.130   0.917   4.415
11509TIP3    H134470   3.226   0.926   4.417
11509TIP3    H234471   3.100   0.982   4.479
11510TIP3   OH234472   2.303   5.990   5.693
11510TIP3    H134473   2.283   5.920   5.630
11510TIP3    H234474   2.357   5.948   5.759
11511TIP3   OH234475   8.178   5.595   6.023
11511TIP3    H134476   8.119   5.531   5.983
11511TIP3    H234477   8.120   5.663   6.057
11512TIP3   OH234478   3.636   0.325   4.749
11512TIP3    H134479   3.629   0.316   4.844
11512TIP3    H234480   3.545   0.329   4.718
11513TIP3   OH234481   5.397   1.445   3.210
11513TIP3    H134482   5.389   1.429   3.304
11513TIP3    H234483   5.456   1.377   3.179
11514TIP3   OH234484   5.675   2.884   2.010
11514TIP3    H134485   5.620   2.823   1.961
11514TIP3    H234486   5.613   2.940   2.057
11515TIP3   OH234487   2.235   2.835   2.433
11515TIP3    H134488   2.274   2.875   2.511
11515TIP3    H234489   2.300   2.772   2.403
11516TIP3   OH234490   6.990   2.108   3.309
11516TIP3    H134491   7.019   2.024   3.345
11516TIP3    H234492   6.951   2.153   3.384
11517TIP3   OH234493   2.531   5.510   0.955
11517TIP3    H134494   2.601   5.454   0.990
11517TIP3    H234495   2.474   5.527   1.030
11518TIP3   OH234496   0.025   1.686   1.663
11518TIP3    H134497   0.090   1.683   1.593
11518TIP3    H234498   0.067   1.643   1.737
11519TIP3   OH234499   6.888   1.783   4.471
11519TIP3    H134500   6.846   1.697   4.462
11519TIP3    H234501   6.832   1.842   4.420
11520TIP3   OH234502   8.063   0.735   2.151
11520TIP3    H134503   8.134   0.777   2.198
11520TIP3    H234504   8.034   0.664   2.210
11521TIP3   OH234505   5.003   7.513   3.999
11521TIP3    H134506   4.979   7.450   3.931
11521TIP3    H234507   4.921   7.529   4.046
11522TIP3   OH234508   6.784   5.823   0.109
11522TIP3    H134509   6.780   5.915   0.135
11522TIP3    H234510   6.730   5.818   0.030
11523TIP3   OH234511   3.928   6.483   4.895
11523TIP3    H134512   3.934   6.438   4.978
11523TIP3    H234513   3.909   6.414   4.831
11524TIP3   OH234514   3.164   2.549   0.113
11524TIP3    H134515   3.233   2.553   0.047
11524TIP3    H234516   3.179   2.465   0.157
11525TIP3   OH234517   6.043   5.396   6.329
11525TIP3    H134518   6.064   5.450   6.405
11525TIP3    H234519   6.050   5.306   6.360
11526TIP3   OH234520   4.869   3.705   5.758
11526TIP3    H134521   4.848   3.787   5.802
11526TIP3    H234522   4.906   3.732   5.674
11527TIP3   OH234523   2.221   6.873   5.297
11527TIP3    H134524   2.257   6.852   5.211
11527TIP3    H234525   2.211   6.789   5.340
11528TIP3   OH234526   0.282   7.067   5.098
11528TIP3    H134527   0.358   7.117   5.130
11528TIP3    H234528   0.209   7.129   5.103
11529TIP3   OH234529   0.435   6.839   0.495
11529TIP3    H134530   0.493   6.898   0.446
11529TIP3    H234531   0.488   6.811   0.569
11530TIP3   OH234532   1.394   1.099   6.776
11530TIP3    H134533   1.399   1.105   6.681
11530TIP3    H234534   1.425   1.011   6.796
11531TIP3   OH234535   4.189   0.571   4.962
11531TIP3    H134536   4.098   0.554   4.988
11531TIP3    H234537   4.241   0.541   5.037
11532TIP3   OH234538   0.684   5.743   3.809
11532TIP3    H134539   0.733   5.777   3.884
11532TIP3    H234540   0.665   5.652   3.831
11533TIP3   OH234541   0.752   4.708   2.491
11533TIP3    H134542   0.698   4.634   2.518
11533TIP3    H234543   0.738   4.715   2.396
11534TIP3   OH234544   7.890   2.163   3.963
11534TIP3    H134545   7.846   2.178   4.047
11534TIP3    H234546   7.906   2.068   3.962
11535TIP3   OH234547   1.954   0.946   0.366
11535TIP3    H134548   2.011   1.002   0.418
11535TIP3    H234549   1.992   0.948   0.278
11536TIP3   OH234550   4.825   5.137   3.412
11536TIP3    H134551   4.780   5.122   3.329
11536TIP3    H234552   4.916   5.115   3.394
11537TIP3   OH234553   1.224   2.628   6.216
11537TIP3    H134554   1.246   2.535   6.216
11537TIP3    H234555   1.305   2.673   6.241
11538TIP3   OH234556   4.856   2.170   5.852
11538TIP3    H134557   4.874   2.262   5.835
11538TIP3    H234558   4.942   2.129   5.860
11539TIP3   OH234559   5.332   4.432   2.586
11539TIP3    H134560   5.401   4.399   2.644
11539TIP3    H234561   5.339   4.528   2.593
11540TIP3   OH234562   0.734   1.934   4.482
11540TIP3    H134563   0.736   2.022   4.445
11540TIP3    H234564   0.825   1.913   4.499
11541TIP3   OH234565   4.802   0.550   3.658
11541TIP3    H134566   4.760   0.618   3.605
11541TIP3    H234567   4.729   0.506   3.702
11542TIP3   OH234568   6.720   4.670   4.386
11542TIP3    H134569   6.700   4.714   4.468
11542TIP3    H234570   6.725   4.740   4.321
11543TIP3   OH234571   2.017   3.709   5.523
11543TIP3    H134572   1.980   3.723   5.436
11543TIP3    H234573   2.045   3.796   5.551
11544TIP3   OH234574   6.474   2.375   1.623
11544TIP3    H134575   6.394   2.428   1.619
11544TIP3    H234576   6.451   2.294   1.577
11545TIP3   OH234577   2.504   2.298   1.843
11545TIP3    H134578   2.559   2.220   1.854
11545TIP3    H234579   2.430   2.268   1.789
11546TIP3   OH234580   0.729   6.071   3.459
11546TIP3    H134581   0.675   6.075   3.380
11546TIP3    H234582   0.778   6.153   3.459
11547TIP3   OH234583   5.406   0.803   1.511
11547TIP3    H134584   5.329   0.858   1.497
11547TIP3    H234585   5.461   0.819   1.434
11548TIP3   OH234586   7.293   0.715   4.197
11548TIP3    H134587   7.291   0.805   4.228
11548TIP3    H234588   7.205   0.682   4.214
11549TIP3   OH234589   4.961   1.422   4.772
11549TIP3    H134590   4.925   1.354   4.829
11549TIP3    H234591   4.926   1.402   4.685
11550TIP3   OH234592   2.932   4.404   1.209
11550TIP3    H134593   2.977   4.347   1.147
11550TIP3    H234594   2.839   4.387   1.195
11551TIP3   OH234595   1.432   0.459   3.100
11551TIP3    H134596   1.510   0.427   3.144
11551TIP3    H234597   1.454   0.548   3.072
11552TIP3   OH234598   1.613   5.398   3.987
11552TIP3    H134599   1.521   5.383   4.011
11552TIP3    H234600   1.621   5.362   3.898
11553TIP3   OH234601   6.036   2.912   0.020
11553TIP3    H134602   6.110   2.874   0.069
11553TIP3    H234603   5.959   2.881   0.067
11554TIP3   OH234604   2.944   2.690   2.725
11554TIP3    H134605   2.923   2.775   2.687
11554TIP3    H234606   2.937   2.702   2.819
11555TIP3   OH234607   4.325   1.881   5.051
11555TIP3    H134608   4.362   1.930   4.977
11555TIP3    H234609   4.381   1.804   5.059
11556TIP3   OH234610   5.649   4.909   5.627
11556TIP3    H134611   5.559   4.933   5.651
11556TIP3    H234612   5.698   4.991   5.632
11557TIP3   OH234613   5.775   7.759   0.286
11557TIP3    H134614   5.807   7.671   0.306
11557TIP3    H234615   5.789   7.768   0.191
11558TIP3   OH234616   3.840   5.382   4.607
11558TIP3    H134617   3.849   5.410   4.699
11558TIP3    H234618   3.874   5.293   4.606
11559TIP3   OH234619   6.636   1.248   3.692
11559TIP3    H134620   6.709   1.188   3.711
11559TIP3    H234621   6.611   1.227   3.602
11560TIP3   OH234622   1.709   1.349   6.698
11560TIP3    H134623   1.640   1.331   6.635
11560TIP3    H234624   1.790   1.323   6.654
11561TIP3   OH234625   3.799   6.232   4.261
11561TIP3    H134626   3.855   6.205   4.189
11561TIP3    H234627   3.839   6.192   4.339
11562TIP3   OH234628   6.081   4.628   4.706
11562TIP3    H134629   6.045   4.614   4.618
11562TIP3    H234630   6.018   4.684   4.749
11563TIP3   OH234631   5.466   5.161   4.503
11563TIP3    H134632   5.488   5.086   4.447
11563TIP3    H234633   5.428   5.225   4.442
11564TIP3   OH234634   1.712   7.754   1.575
11564TIP3    H134635   1.702   7.667   1.612
11564TIP3    H234636   1.806   7.772   1.582
11565TIP3   OH234637   4.620   4.985   4.895
11565TIP3    H134638   4.608   5.078   4.871
11565TIP3    H234639   4.618   4.984   4.990
11566TIP3   OH234640   6.213   1.125   1.947
11566TIP3    H134641   6.154   1.067   1.994
11566TIP3    H234642   6.214   1.091   1.857
11567TIP3   OH234643   6.931   7.671   1.315
11567TIP3    H134644   6.843   7.669   1.278
11567TIP3    H234645   6.986   7.631   1.248
11568TIP3   OH234646   2.408   2.493   6.336
11568TIP3    H134647   2.383   2.571   6.287
11568TIP3    H234648   2.425   2.524   6.425
11569TIP3   OH234649   5.168   0.869   1.028
11569TIP3    H134650   5.190   0.898   1.116
11569TIP3    H234651   5.198   0.940   0.971
11570TIP3   OH234652   6.821   4.077   5.614
11570TIP3    H134653   6.768   4.094   5.536
11570TIP3    H234654   6.879   4.153   5.621
11571TIP3   OH234655   4.122   3.920   0.395
11571TIP3    H134656   4.149   3.846   0.449
11571TIP3    H234657   4.062   3.882   0.331
11572TIP3   OH234658   0.614   3.496   2.128
11572TIP3    H134659   0.518   3.490   2.128
11572TIP3    H234660   0.632   3.580   2.169
11573TIP3   OH234661   4.034   0.733   5.975
11573TIP3    H134662   4.077   0.651   5.950
11573TIP3    H234663   4.104   0.798   5.973
11574TIP3   OH234664   3.492   3.367   1.697
11574TIP3    H134665   3.524   3.278   1.684
11574TIP3    H234666   3.461   3.369   1.788
11575TIP3   OH234667   1.230   0.077   0.904
11575TIP3    H134668   1.320   0.104   0.886
11575TIP3    H234669   1.191   0.065   0.818
11576TIP3   OH234670   7.558   6.300   3.681
11576TIP3    H134671   7.543   6.369   3.746
11576TIP3    H234672   7.651   6.280   3.689
11577TIP3   OH234673   3.591   6.652   2.644
11577TIP3    H134674   3.674   6.615   2.674
11577TIP3    H234675   3.613   6.695   2.561
11578TIP3   OH234676   1.757   0.184   1.884
11578TIP3    H134677   1.685   0.241   1.910
11578TIP3    H234678   1.785   0.141   1.965
11579TIP3   OH234679   0.170   7.651   2.932
11579TIP3    H134680   0.144   7.732   2.976
11579TIP3    H234681   0.196   7.592   3.003
11580TIP3   OH234682   4.469   2.864   5.973
11580TIP3    H134683   4.425   2.918   6.039
11580TIP3    H234684   4.398   2.811   5.935
11581TIP3   OH234685   0.292   4.678   3.414
11581TIP3    H134686   0.329   4.671   3.326
11581TIP3    H234687   0.202   4.707   3.401
11582TIP3   OH234688   5.784   7.210   2.257
11582TIP3    H134689   5.727   7.278   2.221
11582TIP3    H234690   5.770   7.134   2.201
11583TIP3   OH234691   6.050   7.146   5.209
11583TIP3    H134692   5.974   7.093   5.186
11583TIP3    H234693   6.060   7.206   5.135
11584TIP3   OH234694   4.098   4.324   5.375
11584TIP3    H134695   4.129   4.369   5.296
11584TIP3    H234696   4.007   4.353   5.384
11585TIP3   OH234697   7.719   0.530   1.857
11585TIP3    H134698   7.664   0.601   1.889
11585TIP3    H234699   7.658   0.459   1.837
11586TIP3   OH234700   5.668   3.139   3.480
11586TIP3    H134701   5.598   3.106   3.423
11586TIP3    H234702   5.630   3.216   3.522
11587TIP3   OH234703   2.074   0.607   3.448
11587TIP3    H134704   1.997   0.554   3.464
11587TIP3    H234705   2.057   0.689   3.496
11588TIP3   OH234706   1.495   3.094   0.652
11588TIP3    H134707   1.503   3.080   0.746
11588TIP3    H234708   1.410   3.138   0.642
11589TIP3   OH234709   0.991   4.454   5.704
11589TIP3    H134710   1.012   4.503   5.625
11589TIP3    H234711   1.067   4.398   5.719
11590TIP3   OH234712   3.581   7.124   6.183
11590TIP3    H134713   3.524   7.102   6.256
11590TIP3    H234714   3.530   7.186   6.130
11591TIP3   OH234715   0.592   2.405   4.903
11591TIP3    H134716   0.538   2.407   4.982
11591TIP3    H234717   0.589   2.314   4.874
11592TIP3   OH234718   0.989   6.193   0.430
11592TIP3    H134719   0.950   6.241   0.502
11592TIP3    H234720   1.041   6.124   0.472
11593TIP3   OH234721   7.092   2.001   1.041
11593TIP3    H134722   7.163   1.990   0.978
11593TIP3    H234723   7.043   1.919   1.037
11594TIP3   OH234724   2.531   3.903   3.884
11594TIP3    H134725   2.532   3.965   3.811
11594TIP3    H234726   2.465   3.938   3.945
11595TIP3   OH234727   0.583   1.928   6.171
11595TIP3    H134728   0.598   1.999   6.108
11595TIP3    H234729   0.613   1.849   6.126
11596TIP3   OH234730   0.109   1.517   4.808
11596TIP3    H134731   0.182   1.458   4.828
11596TIP3    H234732   0.032   1.460   4.803
11597TIP3   OH234733   0.900   2.720   6.028
11597TIP3    H134734   0.865   2.766   5.951
11597TIP3    H234735   0.960   2.783   6.068
11598TIP3   OH234736   2.427   6.341   1.709
11598TIP3    H134737   2.454   6.430   1.684
11598TIP3    H234738   2.406   6.347   1.802
11599TIP3   OH234739   1.286   7.092   2.233
11599TIP3    H134740   1.194   7.117   2.231
11599TIP3    H234741   1.286   6.998   2.216
11600TIP3   OH234742   2.937   6.699   0.524
11600TIP3    H134743   2.951   6.612   0.487
11600TIP3    H234744   2.955   6.690   0.617
11601TIP3   OH234745   4.905   5.594   0.142
11601TIP3    H134746   4.934   5.508   0.110
11601TIP3    H234747   4.861   5.634   0.067
11602TIP3   OH234748   3.856   0.513   2.444
11602TIP3    H134749   3.939   0.561   2.440
11602TIP3    H234750   3.824   0.530   2.533
11603TIP3   OH234751   3.830   0.891   3.713
11603TIP3    H134752   3.843   0.867   3.805
11603TIP3    H234753   3.892   0.835   3.665
11604TIP3   OH234754   6.237   1.695   5.173
11604TIP3    H134755   6.141   1.692   5.171
11604TIP3    H234756   6.257   1.787   5.189
11605TIP3   OH234757   4.612   2.241   3.108
11605TIP3    H134758   4.580   2.153   3.128
11605TIP3    H234759   4.613   2.245   3.013
11606TIP3   OH234760   4.070   6.276   2.522
11606TIP3    H134761   4.153   6.294   2.477
11606TIP3    H234762   4.005   6.272   2.452
11607TIP3   OH234763   2.615   0.323   0.866
11607TIP3    H134764   2.596   0.409   0.827
11607TIP3    H234765   2.709   0.313   0.856
11608TIP3   OH234766   6.494   4.782   1.669
11608TIP3    H134767   6.528   4.855   1.617
11608TIP3    H234768   6.436   4.823   1.733
11609TIP3   OH234769   1.886   7.383   5.220
11609TIP3    H134770   1.924   7.356   5.136
11609TIP3    H234771   1.957   7.431   5.264
11610TIP3   OH234772   5.752   6.099   6.496
11610TIP3    H134773   5.830   6.132   6.540
11610TIP3    H234774   5.786   6.035   6.433
11611TIP3   OH234775   6.607  -0.015   2.033
11611TIP3    H134776   6.633  -0.063   1.955
11611TIP3    H234777   6.648   0.071   2.024
11612TIP3   OH234778   8.187   4.226   4.665
11612TIP3    H134779   8.129   4.163   4.708
11612TIP3    H234780   8.246   4.255   4.735
11613TIP3   OH234781   6.056   7.150   2.289
11613TIP3    H134782   5.963   7.174   2.286
11613TIP3    H234783   6.077   7.121   2.200
11614TIP3   OH234784   6.491   6.049   3.573
11614TIP3    H134785   6.406   6.008   3.555
11614TIP3    H234786   6.478   6.142   3.555
11615TIP3   OH234787   0.951   2.607   6.542
11615TIP3    H134788   0.955   2.544   6.614
11615TIP3    H234789   0.941   2.553   6.463
11616TIP3   OH234790   2.214   2.082   5.434
11616TIP3    H134791   2.194   2.107   5.524
11616TIP3    H234792   2.231   1.987   5.439
11617TIP3   OH234793   2.371   6.405   6.111
11617TIP3    H134794   2.421   6.481   6.082
11617TIP3    H234795   2.305   6.441   6.171
11618TIP3   OH234796   7.700   0.216   0.924
11618TIP3    H134797   7.776   0.230   0.980
11618TIP3    H234798   7.671   0.127   0.943
11619TIP3   OH234799   2.389   6.844   0.733
11619TIP3    H134800   2.355   6.916   0.679
11619TIP3    H234801   2.396   6.881   0.821
11620TIP3   OH234802   3.432   6.098   6.349
11620TIP3    H134803   3.338   6.117   6.357
11620TIP3    H234804   3.473   6.150   6.418
11621TIP3   OH234805   7.489   2.261   5.801
11621TIP3    H134806   7.535   2.326   5.748
11621TIP3    H234807   7.396   2.280   5.788
11622TIP3   OH234808   0.370   5.651   0.042
11622TIP3    H134809   0.320   5.724   0.080
11622TIP3    H234810   0.452   5.650   0.090
11623TIP3   OH234811   8.093   1.150   5.604
11623TIP3    H134812   8.187   1.157   5.617
11623TIP3    H234813   8.055   1.189   5.683
11624TIP3   OH234814   6.781   3.899   2.956
11624TIP3    H134815   6.713   3.842   2.921
11624TIP3    H234816   6.843   3.839   2.998
11625TIP3   OH234817   6.915   0.232   4.263
11625TIP3    H134818   7.010   0.233   4.275
11625TIP3    H234819   6.903   0.230   4.168
11626TIP3   OH234820   7.574   7.610   4.684
11626TIP3    H134821   7.612   7.522   4.689
11626TIP3    H234822   7.506   7.604   4.617
11627TIP3   OH234823   1.672   0.642   5.389
11627TIP3    H134824   1.703   0.579   5.324
11627TIP3    H234825   1.723   0.721   5.373
11628TIP3   OH234826   5.425   7.627   6.067
11628TIP3    H134827   5.471   7.682   6.131
11628TIP3    H234828   5.494   7.572   6.030
11629TIP3   OH234829   2.177   1.967   1.795
11629TIP3    H134830   2.087   1.974   1.826
11629TIP3    H234831   2.222   1.915   1.862
11630TIP3   OH234832   0.940   6.081   5.715
11630TIP3    H134833   0.858   6.063   5.669
11630TIP3    H234834   0.985   5.997   5.718
11631TIP3   OH234835   2.717   3.504   4.764
11631TIP3    H134836   2.736   3.593   4.792
11631TIP3    H234837   2.803   3.467   4.744
11632TIP3   OH234838   6.699   4.754   2.898
11632TIP3    H134839   6.636   4.793   2.959
11632TIP3    H234840   6.670   4.664   2.888
11633TIP3   OH234841   2.968   3.508   1.442
11633TIP3    H134842   2.908   3.492   1.369
11633TIP3    H234843   2.993   3.600   1.433
11634TIP3   OH234844   5.040   1.277   2.200
11634TIP3    H134845   5.014   1.307   2.287
11634TIP3    H234846   5.121   1.228   2.215
11635TIP3   OH234847   2.361   6.297   2.717
11635TIP3    H134848   2.375   6.242   2.794
11635TIP3    H234849   2.425   6.367   2.725
11636TIP3   OH234850   2.164   0.510   4.965
11636TIP3    H134851   2.102   0.503   4.892
11636TIP3    H234852   2.239   0.458   4.937
11637TIP3   OH234853   1.799   5.306   4.157
11637TIP3    H134854   1.753   5.384   4.125
11637TIP3    H234855   1.753   5.233   4.116
11638TIP3   OH234856   4.019   1.886   0.409
11638TIP3    H134857   4.025   1.791   0.419
11638TIP3    H234858   4.045   1.920   0.495
11639TIP3   OH234859   2.992   7.225   3.185
11639TIP3    H134860   2.997   7.259   3.274
11639TIP3    H234861   3.063   7.269   3.138
11640TIP3   OH234862   1.135   4.796   0.868
11640TIP3    H134863   1.109   4.827   0.955
11640TIP3    H234864   1.190   4.866   0.833
11641TIP3   OH234865   5.669   5.239   2.625
11641TIP3    H134866   5.750   5.262   2.580
11641TIP3    H234867   5.603   5.296   2.586
11642TIP3   OH234868   6.418   1.501   5.784
11642TIP3    H134869   6.467   1.544   5.713
11642TIP3    H234870   6.362   1.437   5.740
11643TIP3   OH234871   0.752   7.379   6.544
11643TIP3    H134872   0.832   7.366   6.492
11643TIP3    H234873   0.697   7.304   6.522
11644TIP3   OH234874   2.032   0.604   2.006
11644TIP3    H134875   2.053   0.645   2.090
11644TIP3    H234876   2.087   0.526   2.003
11645TIP3   OH234877   4.737   5.611   4.411
11645TIP3    H134878   4.819   5.649   4.382
11645TIP3    H234879   4.731   5.637   4.504
11646TIP3   OH234880   6.978   0.207   3.226
11646TIP3    H134881   6.961   0.178   3.136
11646TIP3    H234882   6.969   0.128   3.279
11647TIP3   OH234883   1.463   4.810   0.079
11647TIP3    H134884   1.401   4.791   0.008
11647TIP3    H234885   1.438   4.897   0.109
11648TIP3   OH234886   3.685   2.133   3.625
11648TIP3    H134887   3.756   2.117   3.563
11648TIP3    H234888   3.607   2.098   3.582
11649TIP3   OH234889   2.125   3.927   6.645
11649TIP3    H134890   2.099   3.945   6.555
11649TIP3    H234891   2.131   3.832   6.650
11650TIP3   OH234892   3.484   0.145   4.011
11650TIP3    H134893   3.404   0.109   4.048
11650TIP3    H234894   3.515   0.207   4.078
11651TIP3   OH234895   2.532   1.997   2.192
11651TIP3    H134896   2.545   2.092   2.197
11651TIP3    H234897   2.472   1.977   2.264
11652TIP3   OH234898   0.318   5.419   3.533
11652TIP3    H134899   0.281   5.475   3.601
11652TIP3    H234900   0.279   5.333   3.549
11653TIP3   OH234901   2.948   4.423   1.949
11653TIP3    H134902   2.969   4.510   1.982
11653TIP3    H234903   2.915   4.376   2.026
11654TIP3   OH234904   5.445   6.904   4.645
11654TIP3    H134905   5.373   6.968   4.647
11654TIP3    H234906   5.521   6.954   4.616
11655TIP3   OH234907   4.699   0.143   3.513
11655TIP3    H134908   4.680   0.056   3.481
11655TIP3    H234909   4.731   0.129   3.603
11656TIP3   OH234910   0.106   5.423   0.115
11656TIP3    H134911   0.060   5.349   0.077
11656TIP3    H234912   0.039   5.491   0.125
11657TIP3   OH234913   2.726   6.494   4.340
11657TIP3    H134914   2.764   6.576   4.373
11657TIP3    H234915   2.801   6.439   4.319
11658TIP3   OH234916   3.194   7.155   2.455
11658TIP3    H134917   3.177   7.179   2.364
11658TIP3    H234918   3.200   7.060   2.454
11659TIP3   OH234919   8.240   0.730   1.319
11659TIP3    H134920   8.204   0.781   1.246
11659TIP3    H234921   8.324   0.697   1.285
11660TIP3   OH234922   0.459   4.496   4.377
11660TIP3    H134923   0.459   4.498   4.281
11660TIP3    H234924   0.424   4.581   4.403
11661TIP3   OH234925   4.673   0.292   1.834
11661TIP3    H134926   4.718   0.317   1.915
11661TIP3    H234927   4.580   0.297   1.855
11662TIP3   OH234928   3.507   2.014   0.437
11662TIP3    H134929   3.564   1.966   0.377
11662TIP3    H234930   3.431   1.957   0.450
11663TIP3   OH234931   1.777   1.916   2.859
11663TIP3    H134932   1.808   1.825   2.855
11663TIP3    H234933   1.771   1.943   2.767
11664TIP3   OH234934   1.599   0.124   5.634
11664TIP3    H134935   1.670   0.068   5.604
11664TIP3    H234936   1.520   0.072   5.618
11665TIP3   OH234937   8.011   5.193   0.611
11665TIP3    H134938   8.004   5.134   0.686
11665TIP3    H234939   8.052   5.272   0.646
11666TIP3   OH234940   7.951   6.151   1.170
11666TIP3    H134941   7.992   6.138   1.256
11666TIP3    H234942   8.018   6.120   1.108
11667TIP3   OH234943   5.242   2.856   5.432
11667TIP3    H134944   5.248   2.937   5.482
11667TIP3    H234945   5.163   2.866   5.379
11668TIP3   OH234946   3.045   7.450   5.350
11668TIP3    H134947   3.137   7.470   5.364
11668TIP3    H234948   3.002   7.535   5.345
11669TIP3   OH234949   6.932   7.460   4.774
11669TIP3    H134950   6.840   7.476   4.750
11669TIP3    H234951   6.971   7.419   4.697
11670TIP3   OH234952   2.431   3.811   1.437
11670TIP3    H134953   2.425   3.906   1.448
11670TIP3    H234954   2.522   3.791   1.456
11671TIP3   OH234955   2.441   5.572   2.618
11671TIP3    H134956   2.451   5.518   2.696
11671TIP3    H234957   2.452   5.661   2.649
11672TIP3   OH234958   1.212   3.158   4.365
11672TIP3    H134959   1.208   3.219   4.439
11672TIP3    H234960   1.214   3.071   4.406
11673TIP3   OH234961   1.284   6.955   0.801
11673TIP3    H134962   1.277   6.888   0.870
11673TIP3    H234963   1.216   6.931   0.738
11674TIP3   OH234964   2.257   1.857   4.313
11674TIP3    H134965   2.300   1.772   4.307
11674TIP3    H234966   2.206   1.851   4.394
11675TIP3   OH234967   0.629   6.878   0.776
11675TIP3    H134968   0.682   6.941   0.825
11675TIP3    H234969   0.690   6.810   0.749
11676TIP3   OH234970   0.229   0.600   5.946
11676TIP3    H134971   0.275   0.516   5.937
11676TIP3    H234972   0.293   0.658   5.988
11677TIP3   OH234973   3.115   4.692   2.676
11677TIP3    H134974   3.109   4.786   2.689
11677TIP3    H234975   3.103   4.680   2.582
11678TIP3   OH234976   1.350   0.611   0.705
11678TIP3    H134977   1.313   0.588   0.619
11678TIP3    H234978   1.444   0.610   0.692
11679TIP3   OH234979   4.556   5.584   5.580
11679TIP3    H134980   4.563   5.538   5.497
11679TIP3    H234981   4.570   5.676   5.558
11680TIP3   OH234982   1.988   4.230   5.637
11680TIP3    H134983   1.907   4.278   5.625
11680TIP3    H234984   1.989   4.205   5.729
11681TIP3   OH234985   3.255   6.357   2.163
11681TIP3    H134986   3.339   6.313   2.175
11681TIP3    H234987   3.207   6.340   2.244
11682TIP3   OH234988   3.561   4.047   0.139
11682TIP3    H134989   3.564   4.112   0.209
11682TIP3    H234990   3.560   4.099   0.058
11683TIP3   OH234991   7.335   5.505   4.449
11683TIP3    H134992   7.330   5.592   4.411
11683TIP3    H234993   7.407   5.462   4.402
11684TIP3   OH234994   4.278   7.309   0.378
11684TIP3    H134995   4.373   7.293   0.377
11684TIP3    H234996   4.270   7.402   0.398
11685TIP3   OH234997   3.379   2.491   6.468
11685TIP3    H134998   3.392   2.500   6.562
11685TIP3    H234999   3.373   2.397   6.453
11686TIP3   OH235000   7.403   3.646   1.297
11686TIP3    H135001   7.349   3.719   1.267
11686TIP3    H235002   7.386   3.641   1.392
11687TIP3   OH235003   1.412   5.247   4.309
11687TIP3    H135004   1.504   5.219   4.310
11687TIP3    H235005   1.416   5.342   4.319
11688TIP3   OH235006   4.552   5.543   0.876
11688TIP3    H135007   4.539   5.453   0.908
11688TIP3    H235008   4.546   5.597   0.955
11689TIP3   OH235009   0.397   4.289   2.623
11689TIP3    H135010   0.325   4.291   2.560
11689TIP3    H235011   0.354   4.303   2.708
11690TIP3   OH235012   3.652   7.102   3.819
11690TIP3    H135013   3.700   7.034   3.866
11690TIP3    H235014   3.646   7.070   3.729
11691TIP3   OH235015   5.390   1.894   3.396
11691TIP3    H135016   5.452   1.821   3.395
11691TIP3    H235017   5.393   1.928   3.307
11692TIP3   OH235018   2.481   4.139   2.451
11692TIP3    H135019   2.453   4.112   2.538
11692TIP3    H235020   2.574   4.159   2.461
11693TIP3   OH235021   4.941   1.489   1.048
11693TIP3    H135022   4.882   1.454   0.980
11693TIP3    H235023   4.999   1.416   1.069
11694TIP3   OH235024   0.054   4.611   1.021
11694TIP3    H135025   0.088   4.536   1.070
11694TIP3    H235026   0.090   4.687   1.066
11695TIP3   OH235027   5.485   7.520   3.116
11695TIP3    H135028   5.554   7.472   3.069
11695TIP3    H235029   5.479   7.476   3.201
11696TIP3   OH235030   3.095   6.448   3.243
11696TIP3    H135031   3.036   6.503   3.190
11696TIP3    H235032   3.048   6.437   3.326
11697TIP3   OH235033   0.700   6.331   1.227
11697TIP3    H135034   0.720   6.392   1.298
11697TIP3    H235035   0.771   6.266   1.230
11698TIP3   OH235036   0.522   5.939   2.490
11698TIP3    H135037   0.616   5.934   2.476
11698TIP3    H235038   0.511   6.012   2.551
11699TIP3   OH235039   1.391   7.346   2.839
11699TIP3    H135040   1.327   7.401   2.882
11699TIP3    H235041   1.475   7.386   2.859
11700TIP3   OH235042   4.368   3.021   1.891
11700TIP3    H135043   4.370   3.041   1.985
11700TIP3    H235044   4.459   3.031   1.863
11701TIP3   OH235045   3.792   4.145   3.824
11701TIP3    H135046   3.706   4.125   3.860
11701TIP3    H235047   3.776   4.215   3.760
11702TIP3   OH235048   0.626   3.693   2.774
11702TIP3    H135049   0.651   3.690   2.682
11702TIP3    H235050   0.686   3.757   2.813
11703TIP3   OH235051   6.637   7.512   4.086
11703TIP3    H135052   6.636   7.467   4.171
11703TIP3    H235053   6.551   7.555   4.082
11704TIP3   OH235054   5.409   3.465   4.004
11704TIP3    H135055   5.326   3.489   3.962
11704TIP3    H235056   5.415   3.522   4.080
11705TIP3   OH235057   6.889   6.115   0.209
11705TIP3    H135058   6.983   6.122   0.224
11705TIP3    H235059   6.849   6.171   0.275
11706TIP3   OH235060   2.343   2.883   2.725
11706TIP3    H135061   2.405   2.956   2.727
11706TIP3    H235062   2.397   2.806   2.742
11707TIP3   OH235063   7.524   5.594   5.862
11707TIP3    H135064   7.430   5.614   5.857
11707TIP3    H235065   7.542   5.547   5.780
11708TIP3   OH235066   3.839   7.208   5.197
11708TIP3    H135067   3.762   7.262   5.178
11708TIP3    H235068   3.835   7.136   5.134
11709TIP3   OH235069   5.123   5.358   6.720
11709TIP3    H135070   5.191   5.425   6.708
11709TIP3    H235071   5.159   5.300   6.787
11710TIP3   OH235072   1.698   0.336   4.974
11710TIP3    H135073   1.683   0.255   4.925
11710TIP3    H235074   1.616   0.351   5.021
11711TIP3   OH235075   2.541   3.825   5.935
11711TIP3    H135076   2.596   3.891   5.978
11711TIP3    H235077   2.497   3.872   5.864
11712TIP3   OH235078   6.381   1.037   4.987
11712TIP3    H135079   6.443   1.064   5.054
11712TIP3    H235080   6.296   1.065   5.020
11713TIP3   OH235081   0.543   1.382   1.123
11713TIP3    H135082   0.517   1.403   1.213
11713TIP3    H235083   0.463   1.352   1.081
11714TIP3   OH235084   3.862   3.052   5.295
11714TIP3    H135085   3.911   2.972   5.315
11714TIP3    H235086   3.817   3.074   5.377
11715TIP3   OH235087   4.046   4.649   2.810
11715TIP3    H135088   3.967   4.671   2.860
11715TIP3    H235089   4.081   4.733   2.781
11716TIP3   OH235090   1.563   2.912   5.502
11716TIP3    H135091   1.587   2.822   5.477
11716TIP3    H235092   1.639   2.965   5.479
11717TIP3   OH235093   0.412   7.022   1.937
11717TIP3    H135094   0.417   7.008   1.843
11717TIP3    H235095   0.390   7.115   1.946
11718TIP3   OH235096   2.452   4.546   0.007
11718TIP3    H135097   2.493   4.463  -0.019
11718TIP3    H235098   2.483   4.562   0.096
11719TIP3   OH235099   1.877   0.406   3.530
11719TIP3    H135100   1.858   0.421   3.623
11719TIP3    H235101   1.827   0.327   3.508
11720TIP3   OH235102   7.177   5.856   4.680
11720TIP3    H135103   7.126   5.786   4.720
11720TIP3    H235104   7.148   5.935   4.726
11721TIP3   OH235105   8.017   5.383   1.974
11721TIP3    H135106   7.971   5.312   1.929
11721TIP3    H235107   7.961   5.459   1.964
11722TIP3   OH235108   5.133   5.768   5.903
11722TIP3    H135109   5.186   5.847   5.905
11722TIP3    H235110   5.160   5.724   5.822
11723TIP3   OH235111   5.185   5.094   6.597
11723TIP3    H135112   5.151   5.056   6.678
11723TIP3    H235113   5.255   5.153   6.625
11724TIP3   OH235114   4.984   6.954   3.206
11724TIP3    H135115   4.930   7.030   3.228
11724TIP3    H235116   5.054   6.955   3.271
11725TIP3   OH235117   1.581   5.291   3.733
11725TIP3    H135118   1.555   5.208   3.694
11725TIP3    H235119   1.573   5.355   3.661
11726TIP3   OH235120   4.121   2.846   6.680
11726TIP3    H135121   4.149   2.786   6.611
11726TIP3    H235122   4.035   2.814   6.706
11727TIP3   OH235123   8.090   3.908   5.990
11727TIP3    H135124   8.177   3.885   6.023
11727TIP3    H235125   8.066   3.836   5.932
11728TIP3   OH235126   3.037   7.111   1.448
11728TIP3    H135127   3.029   7.149   1.535
11728TIP3    H235128   2.987   7.029   1.452
11729TIP3   OH235129   8.261   2.536   1.689
11729TIP3    H135130   8.225   2.447   1.701
11729TIP3    H235131   8.298   2.558   1.775
11730TIP3   OH235132   7.967   1.122   6.082
11730TIP3    H135133   8.009   1.171   6.152
11730TIP3    H235134   7.986   1.172   6.003
11731TIP3   OH235135   0.961   1.119   1.366
11731TIP3    H135136   0.879   1.168   1.358
11731TIP3    H235137   1.001   1.125   1.280
11732TIP3   OH235138   6.695   5.125   0.816
11732TIP3    H135139   6.778   5.149   0.775
11732TIP3    H235140   6.688   5.030   0.802
11733TIP3   OH235141   1.979   1.664   3.100
11733TIP3    H135142   2.054   1.712   3.135
11733TIP3    H235143   2.001   1.572   3.110
11734TIP3   OH235144   2.347   0.016   1.159
11734TIP3    H135145   2.379   0.068   1.086
11734TIP3    H235146   2.364   0.070   1.236
11735TIP3   OH235147   8.178   3.083   3.213
11735TIP3    H135148   8.226   3.141   3.272
11735TIP3    H235149   8.112   3.042   3.269
11736TIP3   OH235150   5.563   3.333   2.596
11736TIP3    H135151   5.580   3.425   2.619
11736TIP3    H235152   5.482   3.335   2.546
11737TIP3   OH235153   0.769   2.812   5.801
11737TIP3    H135154   0.790   2.863   5.723
11737TIP3    H235155   0.693   2.855   5.838
11738TIP3   OH235156   4.807   7.633   5.796
11738TIP3    H135157   4.753   7.671   5.726
11738TIP3    H235158   4.858   7.564   5.753
11739TIP3   OH235159   3.726   0.275   1.222
11739TIP3    H135160   3.822   0.279   1.217
11739TIP3    H235161   3.708   0.204   1.283
11740TIP3   OH235162   7.402   5.441   3.656
11740TIP3    H135163   7.367   5.422   3.743
11740TIP3    H235164   7.468   5.373   3.641
11741TIP3   OH235165   5.488   2.798   5.614
11741TIP3    H135166   5.462   2.794   5.706
11741TIP3    H235167   5.439   2.872   5.578
11742TIP3   OH235168   6.994   1.003   6.226
11742TIP3    H135169   6.969   1.003   6.318
11742TIP3    H235170   6.911   1.005   6.178
11743TIP3   OH235171   0.944   4.852   4.671
11743TIP3    H135172   0.950   4.802   4.753
11743TIP3    H235173   0.883   4.923   4.691
11744TIP3   OH235174   1.143   6.564   4.649
11744TIP3    H135175   1.125   6.595   4.561
11744TIP3    H235176   1.063   6.585   4.698
11745TIP3   OH235177   2.481   0.394   5.059
11745TIP3    H135178   2.473   0.310   5.014
11745TIP3    H235179   2.460   0.460   4.991
11746TIP3   OH235180   7.192   4.231   5.133
11746TIP3    H135181   7.123   4.296   5.146
11746TIP3    H235182   7.147   4.147   5.138
11747TIP3   OH235183   1.622   6.400   0.101
11747TIP3    H135184   1.683   6.444   0.160
11747TIP3    H235185   1.592   6.469   0.041
11748TIP3   OH235186   6.232   3.428   5.300
11748TIP3    H135187   6.253   3.417   5.207
11748TIP3    H235188   6.217   3.340   5.333
11749TIP3   OH235189   2.916   5.757   6.043
11749TIP3    H135190   2.908   5.665   6.069
11749TIP3    H235191   2.854   5.767   5.970
11750TIP3   OH235192   7.491   3.052   3.419
11750TIP3    H135193   7.479   3.059   3.324
11750TIP3    H235194   7.566   2.994   3.429
11751TIP3   OH235195   1.737   1.347   1.413
11751TIP3    H135196   1.799   1.417   1.434
11751TIP3    H235197   1.712   1.310   1.498
11752TIP3   OH235198   5.898   3.584   6.325
11752TIP3    H135199   5.966   3.521   6.300
11752TIP3    H235200   5.945   3.666   6.339
11753TIP3   OH235201   2.690   5.945   4.893
11753TIP3    H135202   2.702   6.017   4.832
11753TIP3    H235203   2.750   5.877   4.862
11754TIP3   OH235204   2.961   5.935   2.433
11754TIP3    H135205   2.938   5.940   2.526
11754TIP3    H235206   2.960   5.842   2.413
11755TIP3   OH235207   1.779   7.241   4.716
11755TIP3    H135208   1.828   7.321   4.736
11755TIP3    H235209   1.722   7.229   4.792
11756TIP3   OH235210   1.003   5.662   5.044
11756TIP3    H135211   1.084   5.706   5.018
11756TIP3    H235212   1.030   5.573   5.066
11757TIP3   OH235213   6.410   6.311   3.558
11757TIP3    H135214   6.454   6.309   3.473
11757TIP3    H235215   6.459   6.374   3.610
11758TIP3   OH235216   8.085   0.067   2.144
11758TIP3    H135217   8.083   0.159   2.169
11758TIP3    H235218   8.150   0.062   2.074
11759TIP3   OH235219   4.852   6.877   3.532
11759TIP3    H135220   4.946   6.859   3.528
11759TIP3    H235221   4.821   6.822   3.604
11760TIP3   OH235222   6.610   0.702   0.146
11760TIP3    H135223   6.645   0.698   0.235
11760TIP3    H235224   6.551   0.777   0.146
11761TIP3   OH235225   4.463   4.012   0.263
11761TIP3    H135226   4.391   4.008   0.200
11761TIP3    H235227   4.456   4.099   0.302
11762TIP3   OH235228   5.933   4.666   0.997
11762TIP3    H135229   6.017   4.647   0.957
11762TIP3    H235230   5.886   4.582   0.994
11763TIP3   OH235231   0.932   5.404   3.010
11763TIP3    H135232   0.972   5.476   3.059
11763TIP3    H235233   0.914   5.441   2.924
11764TIP3   OH235234   5.890   6.451   1.386
11764TIP3    H135235   5.980   6.436   1.417
11764TIP3    H235236   5.853   6.364   1.378
11765TIP3   OH235237   7.346   1.306   2.821
11765TIP3    H135238   7.271   1.271   2.870
11765TIP3    H235239   7.367   1.238   2.757
11766TIP3   OH235240   3.204   4.817   6.225
11766TIP3    H135241   3.212   4.879   6.298
11766TIP3    H235242   3.109   4.807   6.213
11767TIP3   OH235243   6.806   5.668   3.378
11767TIP3    H135244   6.899   5.671   3.355
11767TIP3    H235245   6.761   5.651   3.295
11768TIP3   OH235246   4.293   4.759   4.865
11768TIP3    H135247   4.370   4.779   4.916
11768TIP3    H235248   4.318   4.682   4.814
11769TIP3   OH235249   0.760   7.258   2.045
11769TIP3    H135250   0.758   7.353   2.039
11769TIP3    H235251   0.679   7.234   2.091
11770TIP3   OH235252   2.349   4.195   6.207
11770TIP3    H135253   2.323   4.142   6.131
11770TIP3    H235254   2.296   4.161   6.279
11771TIP3   OH235255   0.872   3.221   3.457
11771TIP3    H135256   0.891   3.312   3.435
11771TIP3    H235257   0.827   3.187   3.380
11772TIP3   OH235258   2.049   3.326   6.056
11772TIP3    H135259   2.016   3.365   5.976
11772TIP3    H235260   2.037   3.232   6.043
11773TIP3   OH235261   5.957   5.189   5.468
11773TIP3    H135262   5.927   5.252   5.534
11773TIP3    H235263   6.051   5.207   5.459
11774TIP3   OH235264   7.847   0.361   5.303
11774TIP3    H135265   7.842   0.282   5.249
11774TIP3    H235266   7.896   0.423   5.249
11775TIP3   OH235267   3.153   3.199   4.505
11775TIP3    H135268   3.186   3.206   4.415
11775TIP3    H235269   3.091   3.126   4.502
11776TIP3   OH235270   7.667   3.050   5.024
11776TIP3    H135271   7.622   3.093   4.952
11776TIP3    H235272   7.742   3.007   4.983
11777TIP3   OH235273   2.377   1.573   2.711
11777TIP3    H135274   2.346   1.483   2.696
11777TIP3    H235275   2.441   1.564   2.781
11778TIP3   OH235276   5.244   2.458   6.102
11778TIP3    H135277   5.339   2.444   6.099
11778TIP3    H235278   5.223   2.500   6.019
11779TIP3   OH235279   4.778   5.769   1.358
11779TIP3    H135280   4.722   5.818   1.417
11779TIP3    H235281   4.779   5.821   1.277
11780TIP3   OH235282   3.584   1.847   0.713
11780TIP3    H135283   3.645   1.876   0.645
11780TIP3    H235284   3.609   1.899   0.790
11781TIP3   OH235285   0.451   5.731   5.379
11781TIP3    H135286   0.431   5.777   5.461
11781TIP3    H235287   0.382   5.665   5.372
11782TIP3   OH235288   5.887   4.259   3.730
11782TIP3    H135289   5.866   4.307   3.650
11782TIP3    H235290   5.801   4.237   3.767
11783TIP3   OH235291   8.016   5.871   0.559
11783TIP3    H135292   7.924   5.868   0.531
11783TIP3    H235293   8.026   5.797   0.618
11784TIP3   OH235294   1.830   2.817   2.850
11784TIP3    H135295   1.844   2.802   2.943
11784TIP3    H235296   1.745   2.777   2.831
11785TIP3   OH235297   7.736   6.150   0.410
11785TIP3    H135298   7.676   6.113   0.475
11785TIP3    H235299   7.791   6.210   0.461
11786TIP3   OH235300   7.447   7.351   4.492
11786TIP3    H135301   7.429   7.280   4.431
11786TIP3    H235302   7.363   7.396   4.503
11787TIP3   OH235303   7.804   5.148   1.884
11787TIP3    H135304   7.712   5.155   1.909
11787TIP3    H235305   7.803   5.160   1.789
11788TIP3   OH235306   6.926   5.663   2.841
11788TIP3    H135307   6.988   5.612   2.893
11788TIP3    H235308   6.843   5.615   2.850
11789TIP3   OH235309   0.202   5.143   5.269
11789TIP3    H135310   0.132   5.198   5.234
11789TIP3    H235311   0.282   5.180   5.232
11790TIP3   OH235312   7.556   4.174   0.767
11790TIP3    H135313   7.469   4.173   0.728
11790TIP3    H235314   7.542   4.208   0.855
11791TIP3   OH235315   8.094   4.791   0.237
11791TIP3    H135316   8.037   4.829   0.171
11791TIP3    H235317   8.127   4.866   0.287
11792TIP3   OH235318   4.320   4.892   4.336
11792TIP3    H135319   4.416   4.886   4.333
11792TIP3    H235320   4.290   4.819   4.281
11793TIP3   OH235321   4.177   0.929   5.723
11793TIP3    H135322   4.161   0.835   5.710
11793TIP3    H235323   4.090   0.969   5.719
11794TIP3   OH235324   4.284   0.751   2.701
11794TIP3    H135325   4.237   0.692   2.643
11794TIP3    H235326   4.234   0.833   2.699
11795TIP3   OH235327   7.001   5.147   0.222
11795TIP3    H135328   6.966   5.223   0.270
11795TIP3    H235329   7.079   5.122   0.271
11796TIP3   OH235330   4.488   0.908   6.731
11796TIP3    H135331   4.504   0.942   6.643
11796TIP3    H235332   4.413   0.958   6.763
11797TIP3   OH235333   6.014   7.439   2.307
11797TIP3    H135334   5.986   7.401   2.223
11797TIP3    H235335   5.932   7.454   2.355
11798TIP3   OH235336   1.225   5.066   5.238
11798TIP3    H135337   1.252   5.123   5.166
11798TIP3    H235338   1.129   5.066   5.235
11799TIP3   OH235339   7.962   4.010   5.672
11799TIP3    H135340   7.908   4.076   5.628
11799TIP3    H235341   7.990   4.053   5.753
11800TIP3   OH235342   0.695   4.330   3.901
11800TIP3    H135343   0.701   4.255   3.842
11800TIP3    H235344   0.754   4.308   3.973
11801TIP3   OH235345   4.431   4.624   5.618
11801TIP3    H135346   4.453   4.531   5.615
11801TIP3    H235347   4.443   4.648   5.710
11802TIP3   OH235348   6.386   0.814   1.743
11802TIP3    H135349   6.412   0.863   1.820
11802TIP3    H235350   6.376   0.880   1.674
11803TIP3   OH235351   5.189   2.998   4.533
11803TIP3    H135352   5.247   3.038   4.598
11803TIP3    H235353   5.101   3.014   4.567
11804TIP3   OH235354   2.098   1.851   2.352
11804TIP3    H135355   2.191   1.851   2.328
11804TIP3    H235356   2.084   1.767   2.395
11805TIP3   OH235357   6.080   3.672   1.502
11805TIP3    H135358   6.004   3.632   1.459
11805TIP3    H235359   6.152   3.659   1.441
11806TIP3   OH235360   0.150   5.559   1.058
11806TIP3    H135361   0.215   5.548   0.988
11806TIP3    H235362   0.168   5.645   1.095
11807TIP3   OH235363   6.122   0.149   5.124
11807TIP3    H135364   6.138   0.171   5.215
11807TIP3    H235365   6.147   0.227   5.075
11808TIP3   OH235366   3.713   1.254   5.836
11808TIP3    H135367   3.669   1.284   5.916
11808TIP3    H235368   3.767   1.328   5.810
11809TIP3   OH235369   3.985   1.413   0.607
11809TIP3    H135370   3.941   1.490   0.571
11809TIP3    H235371   4.035   1.446   0.682
11810TIP3   OH235372   3.280   6.358   4.872
11810TIP3    H135373   3.266   6.453   4.876
11810TIP3    H235374   3.295   6.332   4.963
11811TIP3   OH235375   8.085   5.546   4.583
11811TIP3    H135376   8.100   5.637   4.608
11811TIP3    H235377   8.069   5.550   4.488
11812TIP3   OH235378   6.536   0.470   2.298
11812TIP3    H135379   6.558   0.390   2.346
11812TIP3    H235380   6.619   0.517   2.290
11813TIP3   OH235381   5.093   4.304   2.542
11813TIP3    H135382   5.174   4.350   2.566
11813TIP3    H235383   5.104   4.216   2.578
11814TIP3   OH235384   1.911   6.806   1.894
11814TIP3    H135385   1.853   6.882   1.902
11814TIP3    H235386   1.984   6.838   1.841
11815TIP3   OH235387   1.783   5.233   1.932
11815TIP3    H135388   1.863   5.277   1.963
11815TIP3    H235389   1.801   5.140   1.944
11816TIP3   OH235390   4.922   3.199   4.209
11816TIP3    H135391   4.902   3.178   4.300
11816TIP3    H235392   4.986   3.133   4.182
11817TIP3   OH235393   3.012   3.107   4.112
11817TIP3    H135394   3.003   3.199   4.136
11817TIP3    H235395   2.923   3.071   4.122
11818TIP3   OH235396   0.944   1.446   2.735
11818TIP3    H135397   1.018   1.506   2.732
11818TIP3    H235398   0.899   1.468   2.817
11819TIP3   OH235399   5.794   5.336   5.779
11819TIP3    H135400   5.710   5.372   5.750
11819TIP3    H235401   5.790   5.339   5.874
11820TIP3   OH235402   2.639   1.091   2.560
11820TIP3    H135403   2.730   1.098   2.587
11820TIP3    H235404   2.620   0.997   2.562
11821TIP3   OH235405   6.536   3.576   5.403
11821TIP3    H135406   6.549   3.617   5.488
11821TIP3    H235407   6.482   3.499   5.421
11822TIP3   OH235408   0.404   0.419   5.847
11822TIP3    H135409   0.433   0.370   5.924
11822TIP3    H235410   0.484   0.433   5.796
11823TIP3   OH235411   6.420   1.202   3.223
11823TIP3    H135412   6.343   1.203   3.281
11823TIP3    H235413   6.491   1.167   3.278
11824TIP3   OH235414   4.444   6.675   4.701
11824TIP3    H135415   4.536   6.657   4.718
11824TIP3    H235416   4.445   6.746   4.636
11825TIP3   OH235417   7.655   4.573   3.926
11825TIP3    H135418   7.695   4.514   3.989
11825TIP3    H235419   7.712   4.569   3.849
11826TIP3   OH235420   5.946   0.230   2.040
11826TIP3    H135421   5.892   0.168   2.089
11826TIP3    H235422   6.028   0.183   2.023
11827TIP3   OH235423   6.730   1.170   4.945
11827TIP3    H135424   6.704   1.185   5.036
11827TIP3    H235425   6.675   1.230   4.895
11828TIP3   OH235426   2.740   7.150   5.626
11828TIP3    H135427   2.698   7.224   5.668
11828TIP3    H235428   2.812   7.188   5.576
11829TIP3   OH235429   2.400   6.817   6.599
11829TIP3    H135430   2.482   6.780   6.631
11829TIP3    H235431   2.426   6.895   6.550
11830TIP3   OH235432   6.362   4.754   0.698
11830TIP3    H135433   6.399   4.686   0.641
11830TIP3    H235434   6.385   4.836   0.656
11831TIP3   OH235435   5.876   5.042   4.590
11831TIP3    H135436   5.820   5.110   4.630
11831TIP3    H235437   5.946   5.090   4.547
11832TIP3   OH235438   2.396   2.197   6.326
11832TIP3    H135439   2.387   2.292   6.321
11832TIP3    H235440   2.308   2.166   6.350
11833TIP3   OH235441   7.140   7.339   0.220
11833TIP3    H135442   7.196   7.417   0.221
11833TIP3    H235443   7.148   7.305   0.130
11834TIP3   OH235444   3.733   1.709   3.048
11834TIP3    H135445   3.780   1.633   3.083
11834TIP3    H235446   3.747   1.704   2.954
11835TIP3   OH235447   2.063   2.310   3.118
11835TIP3    H135448   2.011   2.244   3.073
11835TIP3    H235449   2.010   2.336   3.194
11836TIP3   OH235450   0.827   6.947   2.185
11836TIP3    H135451   0.750   6.953   2.242
11836TIP3    H235452   0.790   6.948   2.096
11837TIP3   OH235453   0.702   2.145   2.575
11837TIP3    H135454   0.714   2.237   2.551
11837TIP3    H235455   0.614   2.124   2.544
11838TIP3   OH235456   5.730   6.984   1.089
11838TIP3    H135457   5.706   6.967   0.998
11838TIP3    H235458   5.671   6.929   1.141
11839TIP3   OH235459   0.367   0.165   5.451
11839TIP3    H135460   0.290   0.115   5.426
11839TIP3    H235461   0.332   0.245   5.491
11840TIP3   OH235462   3.004   0.695   4.288
11840TIP3    H135463   3.050   0.768   4.329
11840TIP3    H235464   2.919   0.692   4.332
11841TIP3   OH235465   4.851   3.430   0.444
11841TIP3    H135466   4.881   3.340   0.457
11841TIP3    H235467   4.926   3.474   0.402
11842TIP3   OH235468   7.024   2.562   2.243
11842TIP3    H135469   7.001   2.493   2.305
11842TIP3    H235470   7.119   2.558   2.236
11843TIP3   OH235471   7.403   3.578   4.830
11843TIP3    H135472   7.414   3.667   4.796
11843TIP3    H235473   7.317   3.578   4.871
11844TIP3   OH235474   2.915   1.518   4.858
11844TIP3    H135475   2.980   1.477   4.800
11844TIP3    H235476   2.900   1.604   4.821
11845TIP3   OH235477   5.308   6.708   4.444
11845TIP3    H135478   5.356   6.625   4.447
11845TIP3    H235479   5.349   6.761   4.512
11846TIP3   OH235480   8.277   6.851   0.592
11846TIP3    H135481   8.197   6.798   0.596
11846TIP3    H235482   8.326   6.827   0.670
11847TIP3   OH235483   1.200   0.068   2.544
11847TIP3    H135484   1.158   0.150   2.516
11847TIP3    H235485   1.273   0.057   2.483
11848TIP3   OH235486   6.602   4.148   2.645
11848TIP3    H135487   6.559   4.113   2.567
11848TIP3    H235488   6.534   4.197   2.691
11849TIP3   OH235489   5.912   4.621   2.605
11849TIP3    H135490   5.891   4.553   2.541
11849TIP3    H235491   5.828   4.647   2.641
11850TIP3   OH235492   7.807   1.629   3.704
11850TIP3    H135493   7.749   1.613   3.629
11850TIP3    H235494   7.842   1.717   3.690
11851TIP3   OH235495   6.298   0.782   1.185
11851TIP3    H135496   6.276   0.689   1.186
11851TIP3    H235497   6.393   0.784   1.174
11852TIP3   OH235498   2.777   0.982   3.720
11852TIP3    H135499   2.834   1.006   3.647
11852TIP3    H235500   2.809   1.034   3.793
11853TIP3   OH235501   1.850   2.601   4.365
11853TIP3    H135502   1.923   2.644   4.319
11853TIP3    H235503   1.874   2.604   4.457
11854TIP3   OH235504   7.185   2.800   3.483
11854TIP3    H135505   7.272   2.801   3.443
11854TIP3    H235506   7.127   2.770   3.412
11855TIP3   OH235507   5.762   5.774   1.281
11855TIP3    H135508   5.852   5.805   1.270
11855TIP3    H235509   5.764   5.725   1.363
11856TIP3   OH235510   5.297   5.452   0.202
11856TIP3    H135511   5.356   5.486   0.134
11856TIP3    H235512   5.354   5.400   0.259
11857TIP3   OH235513   2.617   1.885   5.094
11857TIP3    H135514   2.570   1.964   5.122
11857TIP3    H235515   2.691   1.918   5.044
11858TIP3   OH235516   2.258   4.281   2.317
11858TIP3    H135517   2.200   4.207   2.300
11858TIP3    H235518   2.341   4.240   2.343
11859TIP3   OH235519   2.458   2.187   0.719
11859TIP3    H135520   2.538   2.236   0.698
11859TIP3    H235521   2.420   2.235   0.792
11860TIP3   OH235522   5.515   0.632   0.317
11860TIP3    H135523   5.463   0.632   0.237
11860TIP3    H235524   5.605   0.614   0.287
11861TIP3   OH235525   1.748   7.673   2.473
11861TIP3    H135526   1.739   7.760   2.512
11861TIP3    H235527   1.739   7.688   2.379
11862TIP3   OH235528   4.213   6.221   3.170
11862TIP3    H135529   4.175   6.137   3.194
11862TIP3    H235530   4.149   6.260   3.111
11863TIP3   OH235531   6.971   6.042   5.795
11863TIP3    H135532   6.901   5.997   5.841
11863TIP3    H235533   6.970   6.005   5.707
11864TIP3   OH235534   2.053   6.434   4.366
11864TIP3    H135535   2.103   6.411   4.444
11864TIP3    H235536   1.982   6.489   4.399
11865TIP3   OH235537   7.303   6.707   1.188
11865TIP3    H135538   7.299   6.726   1.282
11865TIP3    H235539   7.211   6.693   1.163
11866TIP3   OH235540   1.084   2.094   3.920
11866TIP3    H135541   1.101   2.186   3.900
11866TIP3    H235542   1.138   2.045   3.858
11867TIP3   OH235543   6.401   4.412   3.229
11867TIP3    H135544   6.338   4.482   3.244
11867TIP3    H235545   6.361   4.357   3.161
11868TIP3   OH235546   2.038   1.895   0.025
11868TIP3    H135547   2.038   1.800   0.035
11868TIP3    H235548   1.946   1.919   0.020
11869TIP3   OH235549   1.955   3.046   6.331
11869TIP3    H135550   2.008   3.042   6.411
11869TIP3    H235551   1.877   3.096   6.356
11870TIP3   OH235552   5.886   7.423   3.928
11870TIP3    H135553   5.906   7.333   3.901
11870TIP3    H235554   5.969   7.456   3.962
11871TIP3   OH235555   2.368   6.379   1.254
11871TIP3    H135556   2.375   6.288   1.283
11871TIP3    H235557   2.306   6.419   1.316
11872TIP3   OH235558   2.646   5.158   5.219
11872TIP3    H135559   2.588   5.150   5.294
11872TIP3    H235560   2.596   5.209   5.155
11873TIP3   OH235561   4.814   5.630   3.041
11873TIP3    H135562   4.806   5.557   2.980
11873TIP3    H235563   4.908   5.640   3.054
11874TIP3   OH235564   4.215   4.044   3.599
11874TIP3    H135565   4.131   4.017   3.637
11874TIP3    H235566   4.228   4.133   3.631
11875TIP3   OH235567   5.445   0.385   3.607
11875TIP3    H135568   5.438   0.375   3.512
11875TIP3    H235569   5.389   0.315   3.643
11876TIP3   OH235570   1.520   6.650   0.041
11876TIP3    H135571   1.567   6.713   0.095
11876TIP3    H235572   1.432   6.686   0.032
11877TIP3   OH235573   4.651   4.955   1.798
11877TIP3    H135574   4.610   4.875   1.831
11877TIP3    H235575   4.703   4.927   1.724
11878TIP3   OH235576   6.610   6.593   3.174
11878TIP3    H135577   6.570   6.641   3.102
11878TIP3    H235578   6.692   6.559   3.137
11879TIP3   OH235579   0.328   3.162   5.576
11879TIP3    H135580   0.384   3.198   5.645
11879TIP3    H235581   0.288   3.084   5.616
11880TIP3   OH235582   3.016   6.107   4.001
11880TIP3    H135583   2.997   6.144   3.915
11880TIP3    H235584   3.109   6.086   3.998
11881TIP3   OH235585   2.053   6.372   0.552
11881TIP3    H135586   2.012   6.401   0.633
11881TIP3    H235587   2.076   6.452   0.506
11882TIP3   OH235588   0.859   1.516   5.156
11882TIP3    H135589   0.845   1.536   5.063
11882TIP3    H235590   0.880   1.600   5.196
11883TIP3   OH235591   5.987   0.300   4.669
11883TIP3    H135592   6.028   0.232   4.722
11883TIP3    H235593   5.952   0.363   4.733
11884TIP3   OH235594   1.661   3.291   3.827
11884TIP3    H135595   1.665   3.387   3.829
11884TIP3    H235596   1.571   3.271   3.802
11885TIP3   OH235597   3.394   2.145   5.396
11885TIP3    H135598   3.446   2.066   5.408
11885TIP3    H235599   3.393   2.186   5.482
11886TIP3   OH235600   2.957   7.498   6.551
11886TIP3    H135601   3.037   7.446   6.541
11886TIP3    H235602   2.891   7.451   6.499
11887TIP3   OH235603   7.895   3.094   3.153
11887TIP3    H135604   7.848   3.161   3.202
11887TIP3    H235605   7.987   3.111   3.170
11888TIP3   OH235606   2.432   2.319   2.400
11888TIP3    H135607   2.518   2.276   2.396
11888TIP3    H235608   2.401   2.303   2.489
11889TIP3   OH235609   4.375   6.047   0.922
11889TIP3    H135610   4.299   6.096   0.954
11889TIP3    H235611   4.342   5.958   0.907
11890TIP3   OH235612   1.957   6.855   2.294
11890TIP3    H135613   2.036   6.865   2.348
11890TIP3    H235614   1.989   6.818   2.212
11891TIP3   OH235615   7.664   0.789   2.784
11891TIP3    H135616   7.746   0.837   2.802
11891TIP3    H235617   7.645   0.742   2.864
11892TIP3   OH235618   0.356   6.422   4.017
11892TIP3    H135619   0.337   6.364   4.091
11892TIP3    H235620   0.417   6.373   3.963
11893TIP3   OH235621   4.519   2.443   4.633
11893TIP3    H135622   4.602   2.399   4.614
11893TIP3    H235623   4.513   2.512   4.566
11894TIP3   OH235624   5.564   1.085   3.692
11894TIP3    H135625   5.618   1.135   3.631
11894TIP3    H235626   5.563   0.996   3.657
11895TIP3   OH235627   3.389   0.274   4.638
11895TIP3    H135628   3.376   0.249   4.547
11895TIP3    H235629   3.327   0.345   4.652
11896TIP3   OH235630   1.256   0.996   3.294
11896TIP3    H135631   1.277   1.042   3.213
11896TIP3    H235632   1.178   1.040   3.328
11897TIP3   OH235633   6.269   5.119   4.323
11897TIP3    H135634   6.263   5.030   4.357
11897TIP3    H235635   6.188   5.161   4.351
11898TIP3   OH235636   2.069   5.248   3.576
11898TIP3    H135637   2.048   5.276   3.665
11898TIP3    H235638   2.052   5.325   3.522
11899TIP3   OH235639   5.618   7.266   4.517
11899TIP3    H135640   5.640   7.350   4.558
11899TIP3    H235641   5.606   7.206   4.591
11900TIP3   OH235642   2.801   0.254   0.540
11900TIP3    H135643   2.862   0.199   0.589
11900TIP3    H235644   2.728   0.195   0.520
11901TIP3   OH235645   6.859   3.774   4.558
11901TIP3    H135646   6.778   3.743   4.599
11901TIP3    H235647   6.883   3.852   4.609
11902TIP3   OH235648   0.116   1.888   4.561
11902TIP3    H135649   0.063   1.836   4.500
11902TIP3    H235650   0.169   1.944   4.504
11903TIP3   OH235651   8.178   2.108   4.923
11903TIP3    H135652   8.178   2.158   5.005
11903TIP3    H235653   8.132   2.164   4.861
11904TIP3   OH235654   2.765   6.382   3.297
11904TIP3    H135655   2.828   6.313   3.314
11904TIP3    H235656   2.681   6.337   3.288
11905TIP3   OH235657   4.216   5.491   5.786
11905TIP3    H135658   4.168   5.476   5.705
11905TIP3    H235659   4.298   5.533   5.759
11906TIP3   OH235660   7.885   3.204   2.342
11906TIP3    H135661   7.903   3.254   2.262
11906TIP3    H235662   7.968   3.202   2.389
11907TIP3   OH235663   1.325   0.742   2.813
11907TIP3    H135664   1.281   0.704   2.738
11907TIP3    H235665   1.255   0.760   2.876
11908TIP3   OH235666   0.295   2.897  -0.002
11908TIP3    H135667   0.376   2.894   0.048
11908TIP3    H235668   0.235   2.838   0.044
11909TIP3   OH235669   0.669   7.472   3.692
11909TIP3    H135670   0.634   7.390   3.726
11909TIP3    H235671   0.732   7.500   3.759
11910TIP3   OH235672   6.346   1.863   5.583
11910TIP3    H135673   6.279   1.855   5.650
11910TIP3    H235674   6.341   1.780   5.535
11911TIP3   OH235675   2.729   5.722   5.840
11911TIP3    H135676   2.678   5.645   5.865
11911TIP3    H235677   2.665   5.792   5.831
11912TIP3   OH235678   2.857   7.024   3.893
11912TIP3    H135679   2.901   6.943   3.865
11912TIP3    H235680   2.865   7.023   3.989
11913TIP3   OH235681   6.865   4.257   1.191
11913TIP3    H135682   6.954   4.252   1.225
11913TIP3    H235683   6.819   4.312   1.255
11914TIP3   OH235684   4.524   1.549   3.153
11914TIP3    H135685   4.481   1.466   3.171
11914TIP3    H235686   4.490   1.609   3.219
11915TIP3   OH235687   2.695   0.176   5.154
11915TIP3    H135688   2.701   0.236   5.079
11915TIP3    H235689   2.601   0.166   5.168
11916TIP3   OH235690   2.458   5.702   3.685
11916TIP3    H135691   2.526   5.721   3.621
11916TIP3    H235692   2.421   5.618   3.657
11917TIP3   OH235693   6.752   5.859   5.653
11917TIP3    H135694   6.742   5.913   5.732
11917TIP3    H235695   6.679   5.885   5.597
11918TIP3   OH235696   2.763   2.976   6.336
11918TIP3    H135697   2.785   2.994   6.427
11918TIP3    H235698   2.792   2.886   6.321
11919TIP3   OH235699   2.134   5.658   2.382
11919TIP3    H135700   2.119   5.704   2.299
11919TIP3    H235701   2.223   5.682   2.406
11920TIP3   OH235702   0.540   1.095   6.251
11920TIP3    H135703   0.509   1.053   6.331
11920TIP3    H235704   0.623   1.050   6.231
11921TIP3   OH235705   0.861   5.345   4.883
11921TIP3    H135706   0.887   5.338   4.975
11921TIP3    H235707   0.927   5.294   4.835
11922TIP3   OH235708   5.059   2.274   1.128
11922TIP3    H135709   4.972   2.240   1.109
11922TIP3    H235710   5.094   2.214   1.194
11923TIP3   OH235711   7.481   2.614   4.672
11923TIP3    H135712   7.503   2.682   4.735
11923TIP3    H235713   7.515   2.533   4.710
11924TIP3   OH235714   7.408   4.509   2.489
11924TIP3    H135715   7.358   4.474   2.563
11924TIP3    H235716   7.348   4.505   2.415
11925TIP3   OH235717   0.570   2.977   0.434
11925TIP3    H135718   0.524   2.966   0.517
11925TIP3    H235719   0.546   2.899   0.384
11926TIP3   OH235720   1.170   0.831   3.544
11926TIP3    H135721   1.203   0.862   3.459
11926TIP3    H235722   1.079   0.805   3.526
11927TIP3   OH235723   6.126   5.377   0.065
11927TIP3    H135724   6.041   5.421   0.066
11927TIP3    H235725   6.122   5.319  -0.011
11928TIP3   OH235726   3.997   5.238   0.015
11928TIP3    H135727   4.068   5.178  -0.009
11928TIP3    H235728   4.019   5.268   0.103
11929TIP3   OH235729   2.712   5.535   5.194
11929TIP3    H135730   2.636   5.484   5.221
11929TIP3    H235731   2.684   5.626   5.202
11930TIP3   OH235732   5.399   0.030   1.459
11930TIP3    H135733   5.404   0.032   1.555
11930TIP3    H235734   5.490   0.023   1.431
11931TIP3   OH235735   1.865   5.914   2.604
11931TIP3    H135736   1.918   5.970   2.548
11931TIP3    H235737   1.835   5.972   2.674
11932TIP3   OH235738   1.151   4.823   5.884
11932TIP3    H135739   1.220   4.775   5.930
11932TIP3    H235740   1.198   4.889   5.832
11933TIP3   OH235741   1.834   5.190   5.319
11933TIP3    H135742   1.793   5.190   5.233
11933TIP3    H235743   1.860   5.099   5.333
11934TIP3   OH235744   4.311   5.349   1.172
11934TIP3    H135745   4.296   5.437   1.138
11934TIP3    H235746   4.256   5.345   1.250
11935TIP3   OH235747   0.191   1.995   0.624
11935TIP3    H135748   0.221   1.957   0.707
11935TIP3    H235749   0.231   1.940   0.557
11936TIP3   OH235750   7.383   3.925   2.785
11936TIP3    H135751   7.356   3.995   2.845
11936TIP3    H235752   7.333   3.941   2.705
11937TIP3   OH235753   4.757   0.012   1.861
11937TIP3    H135754   4.706  -0.018   1.936
11937TIP3    H235755   4.746   0.108   1.862
11938TIP3   OH235756   0.863   0.330   6.182
11938TIP3    H135757   0.907   0.259   6.136
11938TIP3    H235758   0.824   0.383   6.113
11939TIP3   OH235759   1.065   5.908   2.858
11939TIP3    H135760   1.150   5.881   2.824
11939TIP3    H235761   1.085   5.975   2.923
11940TIP3   OH235762   0.741   1.457   1.525
11940TIP3    H135763   0.736   1.429   1.617
11940TIP3    H235764   0.786   1.542   1.529
11941TIP3   OH235765   2.311   6.659   4.834
11941TIP3    H135766   2.335   6.719   4.763
11941TIP3    H235767   2.215   6.664   4.837
11942TIP3   OH235768   4.968   6.347   1.176
11942TIP3    H135769   4.943   6.414   1.113
11942TIP3    H235770   5.049   6.379   1.216
11943TIP3   OH235771   7.116   4.015   2.352
11943TIP3    H135772   7.099   4.004   2.446
11943TIP3    H235773   7.070   3.943   2.310
11944TIP3   OH235774   0.563   5.528   1.516
11944TIP3    H135775   0.620   5.474   1.571
11944TIP3    H235776   0.593   5.617   1.530
11945TIP3   OH235777   1.091   3.759   1.185
11945TIP3    H135778   1.119   3.787   1.272
11945TIP3    H235779   1.032   3.685   1.201
11946TIP3   OH235780   5.217   4.373   1.762
11946TIP3    H135781   5.287   4.424   1.722
11946TIP3    H235782   5.157   4.438   1.797
11947TIP3   OH235783   0.716   0.484   4.903
11947TIP3    H135784   0.676   0.467   4.818
11947TIP3    H235785   0.702   0.403   4.953
11948TIP3   OH235786   2.681   6.252   0.491
11948TIP3    H135787   2.594   6.256   0.532
11948TIP3    H235788   2.712   6.164   0.511
11949TIP3   OH235789   5.832   3.788   3.023
11949TIP3    H135790   5.908   3.730   3.017
11949TIP3    H235791   5.758   3.731   3.042
11950TIP3   OH235792   4.231   0.543   6.582
11950TIP3    H135793   4.322   0.557   6.557
11950TIP3    H235794   4.190   0.629   6.572
11951TIP3   OH235795   7.710   3.130   1.794
11951TIP3    H135796   7.696   3.208   1.740
11951TIP3    H235797   7.803   3.111   1.783
11952TIP3   OH235798   3.856   0.552   0.547
11952TIP3    H135799   3.809   0.519   0.623
11952TIP3    H235800   3.789   0.567   0.481
11953TIP3   OH235801   5.536   4.838   5.892
11953TIP3    H135802   5.629   4.825   5.913
11953TIP3    H235803   5.535   4.916   5.836
11954TIP3   OH235804   3.118   0.614   5.757
11954TIP3    H135805   3.106   0.519   5.752
11954TIP3    H235806   3.102   0.644   5.667
11955TIP3   OH235807   5.214   1.373   6.594
11955TIP3    H135808   5.229   1.356   6.687
11955TIP3    H235809   5.242   1.293   6.551
11956TIP3   OH235810   0.548   0.720   5.864
11956TIP3    H135811   0.474   0.750   5.812
11956TIP3    H235812   0.574   0.637   5.824
11957TIP3   OH235813   5.436   2.105   3.184
11957TIP3    H135814   5.502   2.102   3.253
11957TIP3    H235815   5.366   2.160   3.219
11958TIP3   OH235816   4.700   1.524   4.361
11958TIP3    H135817   4.624   1.489   4.315
11958TIP3    H235818   4.741   1.448   4.402
11959TIP3   OH235819   7.883   4.267   6.287
11959TIP3    H135820   7.901   4.232   6.374
11959TIP3    H235821   7.847   4.193   6.238
11960TIP3   OH235822   2.709   4.142   3.411
11960TIP3    H135823   2.658   4.222   3.396
11960TIP3    H235824   2.799   4.166   3.387
11961TIP3   OH235825   7.144   6.228   0.256
11961TIP3    H135826   7.233   6.259   0.270
11961TIP3    H235827   7.118   6.268   0.172
11962TIP3   OH235828   6.981   2.118   2.662
11962TIP3    H135829   6.949   2.067   2.737
11962TIP3    H235830   6.912   2.111   2.597
11963TIP3   OH235831   1.164   5.984   6.075
11963TIP3    H135832   1.144   6.024   6.160
11963TIP3    H235833   1.178   6.059   6.017
11964TIP3   OH235834   4.247   0.279   6.394
11964TIP3    H135835   4.330   0.245   6.428
11964TIP3    H235836   4.250   0.373   6.414
11965TIP3   OH235837   1.642   0.201   2.451
11965TIP3    H135838   1.601   0.187   2.366
11965TIP3    H235839   1.595   0.276   2.488
11966TIP3   OH235840   0.510   2.904   0.698
11966TIP3    H135841   0.428   2.915   0.748
11966TIP3    H235842   0.578   2.933   0.758
11967TIP3   OH235843   1.941   6.590   6.699
11967TIP3    H135844   1.904   6.663   6.749
11967TIP3    H235845   1.865   6.538   6.673
11968TIP3   OH235846   1.898   0.584   4.210
11968TIP3    H135847   1.933   0.631   4.135
11968TIP3    H235848   1.820   0.540   4.177
11969TIP3   OH235849   0.685   2.010   0.095
11969TIP3    H135850   0.703   2.033   0.186
11969TIP3    H235851   0.595   2.040   0.080
11970TIP3   OH235852   6.363   5.426   4.643
11970TIP3    H135853   6.367   5.501   4.584
11970TIP3    H235854   6.401   5.457   4.725
11971TIP3   OH235855   6.165   6.899   1.021
11971TIP3    H135856   6.198   6.852   1.097
11971TIP3    H235857   6.097   6.957   1.056
11972TIP3   OH235858   3.823   2.744   6.138
11972TIP3    H135859   3.881   2.688   6.085
11972TIP3    H235860   3.747   2.758   6.082
11973TIP3   OH235861   2.418   6.539   4.613
11973TIP3    H135862   2.388   6.456   4.575
11973TIP3    H235863   2.376   6.543   4.699
11974TIP3   OH235864   6.915   7.229   6.712
11974TIP3    H135865   6.966   7.249   6.791
11974TIP3    H235866   6.894   7.315   6.675
11975TIP3   OH235867   2.645   0.896   0.085
11975TIP3    H135868   2.681   0.972   0.131
11975TIP3    H235869   2.706   0.881   0.013
11976TIP3   OH235870   3.370   3.880   3.501
11976TIP3    H135871   3.295   3.834   3.540
11976TIP3    H235872   3.433   3.887   3.573
11977TIP3   OH235873   2.118   6.025   5.355
11977TIP3    H135874   2.209   6.004   5.332
11977TIP3    H235875   2.073   5.940   5.356
11978TIP3   OH235876   0.078   3.515   2.987
11978TIP3    H135877   0.140   3.577   2.949
11978TIP3    H235878  -0.008   3.550   2.964
11979TIP3   OH235879   1.479   1.180   1.734
11979TIP3    H135880   1.428   1.100   1.722
11979TIP3    H235881   1.453   1.236   1.661
11980TIP3   OH235882   4.734   0.338   0.241
11980TIP3    H135883   4.730   0.358   0.147
11980TIP3    H235884   4.645   0.351   0.272
11981TIP3   OH235885   1.574   5.587   4.986
11981TIP3    H135886   1.581   5.664   4.930
11981TIP3    H235887   1.539   5.519   4.929
11982TIP3   OH235888   5.426   4.331   0.929
11982TIP3    H135889   5.347   4.350   0.879
11982TIP3    H235890   5.485   4.290   0.866
11983TIP3   OH235891   1.673   6.885   4.769
11983TIP3    H135892   1.736   6.908   4.700
11983TIP3    H235893   1.698   6.939   4.843
11984TIP3   OH235894   6.673   2.982   2.517
11984TIP3    H135895   6.747   3.012   2.569
11984TIP3    H235896   6.703   2.902   2.475
11985TIP3   OH235897   2.617   5.174   1.550
11985TIP3    H135898   2.605   5.210   1.462
11985TIP3    H235899   2.550   5.105   1.557
11986TIP3   OH235900   1.501   3.002   3.942
11986TIP3    H135901   1.435   3.068   3.918
11986TIP3    H235902   1.515   3.015   4.036
11987TIP3   OH235903   7.640   3.792   1.742
11987TIP3    H135904   7.629   3.867   1.683
11987TIP3    H235905   7.607   3.823   1.826
11988TIP3   OH235906   0.664   0.523   5.658
11988TIP3    H135907   0.693   0.536   5.567
11988TIP3    H235908   0.744   0.518   5.709
11989TIP3   OH235909   7.058   0.768   4.889
11989TIP3    H135910   7.135   0.804   4.845
11989TIP3    H235911   7.094   0.721   4.964
11990TIP3   OH235912   6.698   1.890   0.921
11990TIP3    H135913   6.780   1.859   0.881
11990TIP3    H235914   6.702   1.858   1.011
11991TIP3   OH235915   2.724   4.572   3.473
11991TIP3    H135916   2.800   4.592   3.419
11991TIP3    H235917   2.652   4.620   3.430
11992TIP3   OH235918   4.717   2.558   3.634
11992TIP3    H135919   4.697   2.641   3.592
11992TIP3    H235920   4.789   2.521   3.583
11993TIP3   OH235921   6.148   0.588   5.514
11993TIP3    H135922   6.119   0.533   5.587
11993TIP3    H235923   6.242   0.601   5.529
11994TIP3   OH235924   7.421   3.077   0.505
11994TIP3    H135925   7.419   2.985   0.533
11994TIP3    H235926   7.514   3.094   0.488
11995TIP3   OH235927   5.582   1.210   3.278
11995TIP3    H135928   5.669   1.177   3.301
11995TIP3    H235929   5.536   1.134   3.242
11996TIP3   OH235930   8.209   3.686   6.592
11996TIP3    H135931   8.183   3.731   6.673
11996TIP3    H235932   8.129   3.679   6.541
11997TIP3   OH235933   6.842   6.917   6.505
11997TIP3    H135934   6.819   6.844   6.563
11997TIP3    H235935   6.808   6.891   6.419
11998TIP3   OH235936   3.055   5.283   6.287
11998TIP3    H135937   3.067   5.296   6.193
11998TIP3    H235938   3.121   5.337   6.329
11999TIP3   OH235939   4.661   6.211   4.149
11999TIP3    H135940   4.671   6.299   4.186
11999TIP3    H235941   4.712   6.214   4.068
12000TIP3   OH235942   4.810   0.761   4.955
12000TIP3    H135943   4.786   0.727   4.869
12000TIP3    H235944   4.755   0.839   4.967
12001TIP3   OH235945   0.496   6.667   4.007
12001TIP3    H135946   0.436   6.592   4.015
12001TIP3    H235947   0.545   6.667   4.089
12002TIP3   OH235948   1.000   7.101   5.794
12002TIP3    H135949   1.010   7.191   5.827
12002TIP3    H235950   1.060   7.049   5.847
12003TIP3   OH235951   0.006   7.115   2.358
12003TIP3    H135952  -0.019   7.207   2.349
12003TIP3    H235953   0.097   7.117   2.387
12004TIP3   OH235954   2.647   5.182   0.839
12004TIP3    H135955   2.676   5.100   0.878
12004TIP3    H235956   2.670   5.249   0.904
12005TIP3   OH235957   2.264   4.346   5.694
12005TIP3    H135958   2.194   4.284   5.672
12005TIP3    H235959   2.280   4.393   5.612
12006TIP3   OH235960   0.771   5.494   3.227
12006TIP3    H135961   0.820   5.449   3.159
12006TIP3    H235962   0.693   5.527   3.183
12007TIP3   OH235963   3.977   2.808   0.164
12007TIP3    H135964   4.009   2.894   0.137
12007TIP3    H235965   3.974   2.756   0.084
12008TIP3   OH235966   5.844   3.116   4.425
12008TIP3    H135967   5.776   3.086   4.486
12008TIP3    H235968   5.878   3.036   4.385
12009TIP3   OH235969   4.936   2.842   4.519
12009TIP3    H135970   4.853   2.796   4.528
12009TIP3    H235971   4.926   2.921   4.572
12010TIP3   OH235972   3.914   2.150   0.880
12010TIP3    H135973   3.844   2.214   0.900
12010TIP3    H235974   3.920   2.097   0.960
12011TIP3   OH235975   5.367   4.280   3.108
12011TIP3    H135976   5.313   4.332   3.048
12011TIP3    H235977   5.305   4.221   3.150
12012TIP3   OH235978   1.935   6.644   5.106
12012TIP3    H135979   1.842   6.622   5.110
12012TIP3    H235980   1.959   6.630   5.014
12013TIP3   OH235981   2.179   4.644   5.221
12013TIP3    H135982   2.117   4.616   5.154
12013TIP3    H235983   2.130   4.638   5.303
12014TIP3   OH235984   1.317   0.875   1.692
12014TIP3    H135985   1.249   0.894   1.627
12014TIP3    H235986   1.275   0.894   1.776
12015TIP3   OH235987   2.575   2.313   4.362
12015TIP3    H135988   2.640   2.279   4.301
12015TIP3    H235989   2.512   2.241   4.372
12016TIP3   OH235990   2.529   5.052   1.921
12016TIP3    H135991   2.536   5.000   1.841
12016TIP3    H235992   2.462   5.117   1.901
12017TIP3   OH235993   2.965   3.897   4.613
12017TIP3    H135994   2.932   3.809   4.630
12017TIP3    H235995   3.059   3.885   4.600
12018TIP3   OH235996   3.344   7.714   2.694
12018TIP3    H135997   3.250   7.725   2.690
12018TIP3    H235998   3.380   7.792   2.651
12019TIP3   OH235999   7.228   6.400   5.216
12019TIP3    H136000   7.292   6.447   5.270
12019TIP3    H236001   7.146   6.407   5.264
12020TIP3   OH236002   5.133   5.360   4.943
12020TIP3    H136003   5.177   5.359   4.858
12020TIP3    H236004   5.192   5.409   5.000
12021TIP3   OH236005   4.453   0.729   5.923
12021TIP3    H136006   4.484   0.708   5.835
12021TIP3    H236007   4.476   0.821   5.935
12022TIP3   OH236008   4.564   4.744   1.103
12022TIP3    H136009   4.522   4.674   1.152
12022TIP3    H236010   4.589   4.703   1.020
12023TIP3   OH236011   1.761   6.330   2.192
12023TIP3    H136012   1.803   6.412   2.218
12023TIP3    H236013   1.830   6.282   2.146
12024TIP3   OH236014   5.744   3.880   4.014
12024TIP3    H136015   5.718   3.788   4.015
12024TIP3    H236016   5.838   3.878   3.993
12025TIP3   OH236017   5.544   4.605   5.678
12025TIP3    H136018   5.585   4.689   5.698
12025TIP3    H236019   5.615   4.551   5.644
12026TIP3   OH236020   6.990   2.619   3.312
12026TIP3    H136021   6.990   2.630   3.217
12026TIP3    H236022   7.027   2.532   3.326
12027TIP3   OH236023   4.890   5.183   2.983
12027TIP3    H136024   4.868   5.261   2.933
12027TIP3    H236025   4.939   5.128   2.922
12028TIP3   OH236026   6.589   0.073   0.526
12028TIP3    H136027   6.604   0.050   0.434
12028TIP3    H236028   6.654   0.140   0.545
12029TIP3   OH236029   0.265   1.070   3.987
12029TIP3    H136030   0.195   1.005   3.979
12029TIP3    H236031   0.221   1.154   3.984
12030TIP3   OH236032   3.672   6.276   2.933
12030TIP3    H136033   3.624   6.270   3.016
12030TIP3    H236034   3.616   6.329   2.877
12031TIP3   OH236035   4.582   0.510   3.836
12031TIP3    H136036   4.559   0.569   3.908
12031TIP3    H236037   4.498   0.481   3.801
12032TIP3   OH236038   6.369   5.054   6.271
12032TIP3    H136039   6.389   5.037   6.363
12032TIP3    H236040   6.445   5.019   6.223
12033TIP3   OH236041   1.497   0.497   3.864
12033TIP3    H136042   1.564   0.516   3.799
12033TIP3    H236043   1.416   0.531   3.825
12034TIP3   OH236044   7.848   0.368   1.480
12034TIP3    H136045   7.881   0.286   1.443
12034TIP3    H236046   7.830   0.347   1.571
12035TIP3   OH236047   2.106   0.464   5.223
12035TIP3    H136048   2.120   0.460   5.129
12035TIP3    H236049   2.188   0.435   5.262
12036TIP3   OH236050   6.570   6.305   3.330
12036TIP3    H136051   6.637   6.338   3.390
12036TIP3    H236052   6.581   6.356   3.250
12037TIP3   OH236053   7.286   4.081   2.150
12037TIP3    H136054   7.218   4.075   2.217
12037TIP3    H236055   7.299   4.175   2.137
12038TIP3   OH236056   0.502   1.421   6.396
12038TIP3    H136057   0.558   1.436   6.471
12038TIP3    H236058   0.421   1.386   6.433
12039TIP3   OH236059   2.311   7.750   4.666
12039TIP3    H136060   2.293   7.844   4.673
12039TIP3    H236061   2.371   7.732   4.738
12040TIP3   OH236062   6.757   6.638   5.272
12040TIP3    H136063   6.771   6.663   5.180
12040TIP3    H236064   6.688   6.697   5.302
12041TIP3   OH236065   4.818   4.103   3.619
12041TIP3    H136066   4.736   4.102   3.569
12041TIP3    H236067   4.887   4.109   3.553
12042TIP3   OH236068   4.179   1.756   3.831
12042TIP3    H136069   4.157   1.822   3.896
12042TIP3    H236070   4.176   1.673   3.879
12043TIP3   OH236071   5.808   5.448   3.923
12043TIP3    H136072   5.766   5.375   3.967
12043TIP3    H236073   5.892   5.413   3.894
12044TIP3   OH236074   7.293   4.639   1.170
12044TIP3    H136075   7.323   4.610   1.256
12044TIP3    H236076   7.374   4.654   1.121
12045TIP3   OH236077   3.310   5.390   1.880
12045TIP3    H136078   3.311   5.296   1.862
12045TIP3    H236079   3.395   5.421   1.850
12046TIP3   OH236080   0.416   5.050   4.264
12046TIP3    H136081   0.485   4.992   4.295
12046TIP3    H236082   0.384   5.095   4.343
12047TIP3   OH236083   1.366   4.776   1.183
12047TIP3    H136084   1.436   4.795   1.246
12047TIP3    H236085   1.301   4.727   1.233
12048TIP3   OH236086   7.699   7.237   3.174
12048TIP3    H136087   7.717   7.298   3.102
12048TIP3    H236088   7.605   7.221   3.169
12049TIP3   OH236089   0.812   7.098   4.200
12049TIP3    H136090   0.886   7.038   4.209
12049TIP3    H236091   0.810   7.119   4.107
12050TIP3   OH236092   0.875   7.782   2.514
12050TIP3    H136093   0.797   7.781   2.570
12050TIP3    H236094   0.844   7.811   2.429
12051TIP3   OH236095   2.075   5.158   1.034
12051TIP3    H136096   2.007   5.156   0.967
12051TIP3    H236097   2.048   5.229   1.093
12052TIP3   OH236098   2.174   2.439   4.715
12052TIP3    H136099   2.222   2.521   4.705
12052TIP3    H236100   2.231   2.384   4.769
12053TIP3   OH236101   3.969   5.027   3.694
12053TIP3    H136102   3.928   5.027   3.780
12053TIP3    H236103   3.905   4.987   3.636
12054TIP3   OH236104   6.230   0.203   1.819
12054TIP3    H136105   6.316   0.163   1.807
12054TIP3    H236106   6.198   0.166   1.902
12055TIP3   OH236107   7.719   3.345   4.468
12055TIP3    H136108   7.791   3.318   4.524
12055TIP3    H236109   7.676   3.416   4.516
12056TIP3   OH236110   0.002   5.023   0.994
12056TIP3    H136111   0.089   5.017   1.034
12056TIP3    H236112   0.017   5.003   0.902
12057TIP3   OH236113   1.073   2.364   4.328
12057TIP3    H136114   1.141   2.398   4.387
12057TIP3    H236115   1.069   2.427   4.257
12058TIP3   OH236116   8.271   3.010   1.630
12058TIP3    H136117   8.342   2.948   1.617
12058TIP3    H236118   8.300   3.065   1.704
12059TIP3   OH236119   2.344   4.481   6.232
12059TIP3    H136120   2.368   4.540   6.161
12059TIP3    H236121   2.345   4.394   6.192
12060TIP3   OH236122   4.178   3.250   5.763
12060TIP3    H136123   4.141   3.265   5.675
12060TIP3    H236124   4.150   3.161   5.786
12061TIP3   OH236125   0.057   1.742   3.101
12061TIP3    H136126  -0.001   1.746   3.177
12061TIP3    H236127   0.014   1.796   3.035
12062TIP3   OH236128   7.228   3.942   3.156
12062TIP3    H136129   7.187   4.027   3.140
12062TIP3    H236130   7.210   3.924   3.249
12063TIP3   OH236131   6.523   4.529   2.934
12063TIP3    H136132   6.604   4.479   2.923
12063TIP3    H236133   6.500   4.517   3.026
12064TIP3   OH236134   2.991   6.411   3.492
12064TIP3    H136135   2.934   6.343   3.455
12064TIP3    H236136   2.948   6.435   3.574
12065TIP3   OH236137   7.758   4.077   5.839
12065TIP3    H136138   7.785   4.002   5.786
12065TIP3    H236139   7.765   4.152   5.779
12066TIP3   OH236140   1.929   3.241   0.353
12066TIP3    H136141   1.846   3.231   0.307
12066TIP3    H236142   1.905   3.253   0.445
12067TIP3   OH236143   7.658   0.058   3.761
12067TIP3    H136144   7.593   0.088   3.698
12067TIP3    H236145   7.735   0.035   3.708
12068TIP3   OH236146   2.835   2.674   0.698
12068TIP3    H136147   2.914   2.708   0.740
12068TIP3    H236148   2.789   2.626   0.767
12069TIP3   OH236149   3.925   3.883   0.218
12069TIP3    H136150   3.854   3.822   0.198
12069TIP3    H236151   3.885   3.947   0.277
12070TIP3   OH236152   3.115   3.876   5.324
12070TIP3    H136153   3.161   3.956   5.348
12070TIP3    H236154   3.065   3.852   5.402
12071TIP3   OH236155   1.956   3.837   3.176
12071TIP3    H136156   1.997   3.890   3.244
12071TIP3    H236157   1.912   3.767   3.223
12072TIP3   OH236158   5.207   6.376   4.552
12072TIP3    H136159   5.163   6.306   4.600
12072TIP3    H236160   5.252   6.427   4.618
12073TIP3   OH236161   5.183   1.518   1.372
12073TIP3    H136162   5.240   1.440   1.369
12073TIP3    H236163   5.175   1.545   1.280
12074TIP3   OH236164   7.850   2.677   6.378
12074TIP3    H136165   7.817   2.623   6.449
12074TIP3    H236166   7.941   2.648   6.366
12075TIP3   OH236167   6.640   1.367   2.112
12075TIP3    H136168   6.673   1.449   2.075
12075TIP3    H236169   6.708   1.340   2.174
12076TIP3   OH236170   6.456   6.911   1.610
12076TIP3    H136171   6.527   6.975   1.621
12076TIP3    H236172   6.456   6.892   1.516
12077TIP3   OH236173   4.002   1.763   0.083
12077TIP3    H136174   4.089   1.755   0.044
12077TIP3    H236175   4.001   1.698   0.154
12078TIP3   OH236176   6.903   4.093   0.325
12078TIP3    H136177   6.925   4.113   0.234
12078TIP3    H236178   6.948   4.160   0.376
12079TIP3   OH236179   0.666   2.200   0.953
12079TIP3    H136180   0.690   2.142   0.881
12079TIP3    H236181   0.599   2.258   0.916
12080TIP3   OH236182   0.818   5.549   2.783
12080TIP3    H136183   0.897   5.590   2.748
12080TIP3    H236184   0.749   5.571   2.720
12081TIP3   OH236185   5.340   7.022   0.250
12081TIP3    H136186   5.358   6.928   0.252
12081TIP3    H236187   5.393   7.059   0.320
12082TIP3   OH236188   2.485   6.894   5.616
12082TIP3    H136189   2.555   6.872   5.677
12082TIP3    H236190   2.404   6.878   5.665
12083TIP3   OH236191   4.440   6.582   4.372
12083TIP3    H136192   4.359   6.610   4.329
12083TIP3    H236193   4.411   6.532   4.448
12084TIP3   OH236194   3.142   6.542   5.946
12084TIP3    H136195   3.146   6.519   6.039
12084TIP3    H236196   3.209   6.610   5.935
12085TIP3   OH236197   6.826   4.203   4.519
12085TIP3    H136198   6.781   4.224   4.601
12085TIP3    H236199   6.901   4.263   4.517
12086TIP3   OH236200   2.507   1.905   1.054
12086TIP3    H136201   2.433   1.862   1.010
12086TIP3    H236202   2.528   1.847   1.127
12087TIP3   OH236203   1.688   2.649   3.290
12087TIP3    H136204   1.610   2.613   3.248
12087TIP3    H236205   1.716   2.583   3.352
12088TIP3   OH236206   3.605   4.296   4.436
12088TIP3    H136207   3.561   4.253   4.510
12088TIP3    H236208   3.549   4.371   4.415
12089TIP3   OH236209   5.299   0.005   2.123
12089TIP3    H136210   5.214   0.046   2.139
12089TIP3    H236211   5.356   0.078   2.095
12090TIP3   OH236212   6.084   2.648   2.559
12090TIP3    H136213   6.121   2.565   2.529
12090TIP3    H236214   6.043   2.627   2.643
12091TIP3   OH236215   3.380   1.512   3.130
12091TIP3    H136216   3.404   1.603   3.114
12091TIP3    H236217   3.448   1.461   3.087
12092TIP3   OH236218   1.785   4.067   5.372
12092TIP3    H136219   1.817   4.154   5.350
12092TIP3    H236220   1.821   4.010   5.305
12093TIP3   OH236221   5.769   1.131   6.207
12093TIP3    H136222   5.679   1.102   6.215
12093TIP3    H236223   5.819   1.050   6.195
12094TIP3   OH236224   5.173   0.196   1.570
12094TIP3    H136225   5.145   0.126   1.511
12094TIP3    H236226   5.261   0.219   1.541
12095TIP3   OH236227   4.564   4.502   2.070
12095TIP3    H136228   4.633   4.450   2.111
12095TIP3    H236229   4.547   4.573   2.132
12096TIP3   OH236230   5.040   7.150   6.678
12096TIP3    H136231   5.003   7.111   6.758
12096TIP3    H236232   5.038   7.078   6.614
12097TIP3   OH236233   4.313   5.241   4.798
12097TIP3    H136234   4.347   5.330   4.803
12097TIP3    H236235   4.312   5.210   4.889
12098TIP3   OH236236   5.973   2.241   3.343
12098TIP3    H136237   5.914   2.316   3.336
12098TIP3    H236238   5.992   2.234   3.437
12099TIP3   OH236239   1.447   3.441   4.108
12099TIP3    H136240   1.508   3.515   4.109
12099TIP3    H236241   1.467   3.392   4.188
12100TIP3   OH236242   0.403   1.017   5.808
12100TIP3    H136243   0.484   1.047   5.767
12100TIP3    H236244   0.386   0.932   5.767
12101TIP3   OH236245   4.838   4.477   0.543
12101TIP3    H136246   4.819   4.398   0.593
12101TIP3    H236247   4.757   4.527   0.544
12102TIP3   OH236248   8.034   4.532   4.273
12102TIP3    H136249   8.105   4.491   4.324
12102TIP3    H236250   8.050   4.626   4.281
12103TIP3   OH236251   7.838   6.674   6.487
12103TIP3    H136252   7.929   6.701   6.496
12103TIP3    H236253   7.842   6.591   6.439
12104TIP3   OH236254   4.543   7.355   0.898
12104TIP3    H136255   4.524   7.343   0.805
12104TIP3    H236256   4.629   7.316   0.911
12105TIP3   OH236257   2.157   7.089   3.906
12105TIP3    H136258   2.138   7.114   3.816
12105TIP3    H236259   2.078   7.111   3.955
12106TIP3   OH236260   4.917   1.875   4.315
12106TIP3    H136261   5.002   1.833   4.312
12106TIP3    H236262   4.929   1.951   4.372
12107TIP3   OH236263   1.704   4.132   3.202
12107TIP3    H136264   1.734   4.187   3.129
12107TIP3    H236265   1.689   4.046   3.163
12108TIP3   OH236266   5.518   6.091   1.615
12108TIP3    H136267   5.496   6.032   1.687
12108TIP3    H236268   5.542   6.173   1.658
12109TIP3   OH236269   4.672   4.066   3.983
12109TIP3    H136270   4.609   4.052   3.912
12109TIP3    H236271   4.735   4.128   3.948
12110TIP3   OH236272   3.537   6.877   1.424
12110TIP3    H136273   3.605   6.945   1.421
12110TIP3    H236274   3.456   6.925   1.439
12111TIP3   OH236275   7.209   7.729   5.888
12111TIP3    H136276   7.281   7.792   5.896
12111TIP3    H236277   7.218   7.692   5.800
12112TIP3   OH236278   4.983   7.177   5.714
12112TIP3    H136279   5.058   7.155   5.770
12112TIP3    H236280   4.908   7.179   5.774
12113TIP3   OH236281   2.554   7.433   4.422
12113TIP3    H136282   2.619   7.480   4.370
12113TIP3    H236283   2.475   7.435   4.368
12114TIP3   OH236284   1.285   5.506   3.915
12114TIP3    H136285   1.267   5.600   3.903
12114TIP3    H236286   1.297   5.473   3.826
12115TIP3   OH236287   2.248   1.026   1.682
12115TIP3    H136288   2.226   0.940   1.718
12115TIP3    H236289   2.164   1.066   1.661
12116TIP3   OH236290   7.915   4.420   0.228
12116TIP3    H136291   7.899   4.496   0.172
12116TIP3    H236292   7.983   4.370   0.182
12117TIP3   OH236293   1.038   6.753   5.975
12117TIP3    H136294   0.988   6.781   6.051
12117TIP3    H236295   0.973   6.738   5.906
12118TIP3   OH236296   6.705   3.762   3.245
12118TIP3    H136297   6.657   3.713   3.178
12118TIP3    H236298   6.637   3.795   3.304
12119TIP3   OH236299   3.038   6.021   0.320
12119TIP3    H136300   3.026   6.040   0.413
12119TIP3    H236301   2.958   5.975   0.294
12120TIP3   OH236302   0.555   7.408   3.132
12120TIP3    H136303   0.625   7.472   3.146
12120TIP3    H236304   0.572   7.339   3.197
12121TIP3   OH236305   2.327   0.633   1.445
12121TIP3    H136306   2.307   0.540   1.441
12121TIP3    H236307   2.319   0.663   1.354
12122TIP3   OH236308   4.677   1.867   6.337
12122TIP3    H136309   4.698   1.959   6.352
12122TIP3    H236310   4.760   1.820   6.352
12123TIP3   OH236311   7.776   1.391   2.963
12123TIP3    H136312   7.822   1.459   2.913
12123TIP3    H236313   7.797   1.410   3.055
12124TIP3   OH236314   0.693   4.783   6.175
12124TIP3    H136315   0.750   4.857   6.198
12124TIP3    H236316   0.753   4.709   6.168
12125TIP3   OH236317   6.866   7.327   1.692
12125TIP3    H136318   6.868   7.321   1.596
12125TIP3    H236319   6.882   7.419   1.711
12126TIP3   OH236320   7.085   6.986   4.439
12126TIP3    H136321   7.118   6.912   4.388
12126TIP3    H236322   6.999   6.958   4.469
12127TIP3   OH236323   2.670   6.498   4.685
12127TIP3    H136324   2.580   6.519   4.659
12127TIP3    H236325   2.725   6.551   4.627
12128TIP3   OH236326   6.473   0.546   1.763
12128TIP3    H136327   6.445   0.535   1.854
12128TIP3    H236328   6.448   0.635   1.741
12129TIP3   OH236329   3.525   6.289   2.213
12129TIP3    H136330   3.552   6.354   2.148
12129TIP3    H236331   3.541   6.331   2.297
12130TIP3   OH236332   7.207   5.330   1.893
12130TIP3    H136333   7.223   5.366   1.806
12130TIP3    H236334   7.160   5.248   1.877
12131TIP3   OH236335   4.242   5.024   3.643
12131TIP3    H136336   4.148   5.006   3.637
12131TIP3    H236337   4.255   5.052   3.733
12132TIP3   OH236338   4.018   2.742   2.708
12132TIP3    H136339   4.068   2.759   2.788
12132TIP3    H236340   4.044   2.811   2.648
12133TIP3   OH236341   0.300   7.057   2.451
12133TIP3    H136342   0.301   7.135   2.396
12133TIP3    H236343   0.330   7.086   2.537
12134TIP3   OH236344   6.088   1.140   4.359
12134TIP3    H136345   6.181   1.159   4.349
12134TIP3    H236346   6.060   1.196   4.431
12135TIP3   OH236347   8.024   1.503   1.735
12135TIP3    H136348   8.115   1.484   1.758
12135TIP3    H236349   7.988   1.418   1.710
12136TIP3   OH236350   1.267   7.597   2.424
12136TIP3    H136351   1.242   7.661   2.357
12136TIP3    H236352   1.265   7.647   2.506
12137TIP3   OH236353   6.518   3.822   1.990
12137TIP3    H136354   6.550   3.798   2.077
12137TIP3    H236355   6.596   3.857   1.945
12138TIP3   OH236356   0.277   0.829   3.828
12138TIP3    H136357   0.194   0.807   3.787
12138TIP3    H236358   0.277   0.778   3.910
12139TIP3   OH236359   3.662   6.274   5.042
12139TIP3    H136360   3.670   6.290   4.948
12139TIP3    H236361   3.688   6.182   5.053
12140TIP3   OH236362   6.105   5.083   1.362
12140TIP3    H136363   6.093   5.047   1.450
12140TIP3    H236364   6.191   5.052   1.335
12141TIP3   OH236365   2.967   2.869   3.559
12141TIP3    H136366   2.915   2.928   3.507
12141TIP3    H236367   3.052   2.913   3.569
12142TIP3   OH236368   2.882   1.212   4.538
12142TIP3    H136369   2.897   1.303   4.562
12142TIP3    H236370   2.853   1.216   4.447
12143TIP3   OH236371   8.204   2.527   3.659
12143TIP3    H136372   8.226   2.587   3.731
12143TIP3    H236373   8.225   2.441   3.694
12144TIP3   OH236374   1.087   3.658   4.548
12144TIP3    H136375   1.143   3.587   4.579
12144TIP3    H236376   1.094   3.725   4.616
12145TIP3   OH236377   4.904   1.839   4.668
12145TIP3    H136378   4.879   1.931   4.666
12145TIP3    H236379   4.835   1.793   4.620
12146TIP3   OH236380   2.188   3.548   1.646
12146TIP3    H136381   2.253   3.609   1.680
12146TIP3    H236382   2.212   3.463   1.684
12147TIP3   OH236383   7.483   3.529   3.899
12147TIP3    H136384   7.503   3.558   3.988
12147TIP3    H236385   7.510   3.603   3.844
12148TIP3   OH236386   7.060   3.134   5.344
12148TIP3    H136387   7.030   3.221   5.319
12148TIP3    H236388   7.120   3.108   5.274
12149TIP3   OH236389   6.652   0.716   5.497
12149TIP3    H136390   6.728   0.667   5.466
12149TIP3    H236391   6.579   0.654   5.494
12150TIP3   OH236392   5.705   5.523   5.471
12150TIP3    H136393   5.634   5.528   5.535
12150TIP3    H236394   5.783   5.506   5.524
12151TIP3   OH236395   5.063   3.507   1.901
12151TIP3    H136396   5.138   3.530   1.847
12151TIP3    H236397   4.999   3.472   1.840
12152TIP3   OH236398   4.430   3.796   5.490
12152TIP3    H136399   4.398   3.877   5.450
12152TIP3    H236400   4.433   3.814   5.584
12153TIP3   OH236401   6.705   5.824   4.314
12153TIP3    H136402   6.743   5.783   4.392
12153TIP3    H236403   6.762   5.900   4.297
12154TIP3   OH236404   7.812   2.138   4.541
12154TIP3    H136405   7.732   2.150   4.490
12154TIP3    H236406   7.818   2.043   4.556
12155TIP3   OH236407   5.127   6.207   2.723
12155TIP3    H136408   5.108   6.116   2.747
12155TIP3    H236409   5.059   6.231   2.661
12156TIP3   OH236410   0.631   5.444   5.412
12156TIP3    H136411   0.550   5.425   5.364
12156TIP3    H236412   0.616   5.531   5.449
12157TIP3   OH236413   2.642   5.677   0.227
12157TIP3    H136414   2.616   5.587   0.245
12157TIP3    H236415   2.560   5.721   0.205
12158TIP3   OH236416   7.569   3.688   2.466
12158TIP3    H136417   7.590   3.781   2.460
12158TIP3    H236418   7.473   3.685   2.463
12159TIP3   OH236419   1.221   7.362   0.966
12159TIP3    H136420   1.290   7.428   0.971
12159TIP3    H236421   1.246   7.307   0.892
12160TIP3   OH236422   1.481   2.449   6.299
12160TIP3    H136423   1.540   2.391   6.252
12160TIP3    H236424   1.489   2.533   6.254
12161TIP3   OH236425   5.539   6.252   6.421
12161TIP3    H136426   5.451   6.223   6.445
12161TIP3    H236427   5.598   6.193   6.469
12162TIP3   OH236428   3.259   5.282   0.723
12162TIP3    H136429   3.234   5.375   0.723
12162TIP3    H236430   3.326   5.275   0.655
12163TIP3   OH236431   2.657   4.436   6.138
12163TIP3    H136432   2.620   4.509   6.189
12163TIP3    H236433   2.703   4.479   6.066
12164TIP3   OH236434   5.535   3.800   3.265
12164TIP3    H136435   5.524   3.877   3.209
12164TIP3    H236436   5.590   3.741   3.214
12165TIP3   OH236437   6.633   0.564   3.669
12165TIP3    H136438   6.692   0.614   3.612
12165TIP3    H236439   6.622   0.480   3.625
12166TIP3   OH236440   4.475   3.127   5.130
12166TIP3    H136441   4.485   3.088   5.217
12166TIP3    H236442   4.551   3.095   5.081
12167TIP3   OH236443   7.433   2.620   5.373
12167TIP3    H136444   7.462   2.540   5.329
12167TIP3    H236445   7.418   2.593   5.463
12168TIP3   OH236446   5.632   7.637   2.202
12168TIP3    H136447   5.547   7.681   2.203
12168TIP3    H236448   5.693   7.702   2.237
12169TIP3   OH236449   0.748   2.023   0.769
12169TIP3    H136450   0.705   1.939   0.752
12169TIP3    H236451   0.834   2.014   0.728
12170TIP3   OH236452   3.242   3.385   1.479
12170TIP3    H136453   3.256   3.399   1.573
12170TIP3    H236454   3.157   3.425   1.462
12171TIP3   OH236455   6.170   7.415   3.599
12171TIP3    H136456   6.086   7.461   3.610
12171TIP3    H236457   6.188   7.378   3.685
12172TIP3   OH236458   3.757   6.519   4.270
12172TIP3    H136459   3.741   6.533   4.363
12172TIP3    H236460   3.757   6.424   4.259
12173TIP3   OH236461   5.366   3.424   5.320
12173TIP3    H136462   5.441   3.447   5.375
12173TIP3    H236463   5.358   3.498   5.259
12174TIP3   OH236464   0.569   1.898   2.031
12174TIP3    H136465   0.600   1.986   2.048
12174TIP3    H236466   0.645   1.852   1.994
12175TIP3   OH236467   7.993   0.489   4.646
12175TIP3    H136468   8.067   0.471   4.588
12175TIP3    H236469   7.916   0.460   4.597
12176TIP3   OH236470   2.668   1.604   6.733
12176TIP3    H136471   2.645   1.536   6.671
12176TIP3    H236472   2.761   1.620   6.719
12177TIP3   OH236473   2.820   0.566   0.993
12177TIP3    H136474   2.816   0.509   0.916
12177TIP3    H236475   2.846   0.509   1.065
12178TIP3   OH236476   3.424   1.983   4.555
12178TIP3    H136477   3.414   2.034   4.475
12178TIP3    H236478   3.518   1.987   4.574
12179TIP3   OH236479   2.805   1.787   4.177
12179TIP3    H136480   2.822   1.705   4.131
12179TIP3    H236481   2.721   1.773   4.222
12180TIP3   OH236482   2.371   4.789   6.450
12180TIP3    H136483   2.281   4.780   6.418
12180TIP3    H236484   2.368   4.756   6.540
12181TIP3   OH236485   1.993   2.773   6.241
12181TIP3    H136486   2.073   2.750   6.287
12181TIP3    H236487   1.971   2.860   6.273
12182TIP3   OH236488   7.910   3.379   1.890
12182TIP3    H136489   7.984   3.378   1.830
12182TIP3    H236490   7.920   3.299   1.941
12183TIP3   OH236491   5.341   4.342   2.322
12183TIP3    H136492   5.339   4.417   2.382
12183TIP3    H236493   5.398   4.278   2.364
12184TIP3   OH236494   1.881   1.536   3.963
12184TIP3    H136495   1.974   1.521   3.981
12184TIP3    H236496   1.837   1.516   4.046
12185TIP3   OH236497   0.315   4.542   1.114
12185TIP3    H136498   0.401   4.517   1.149
12185TIP3    H236499   0.256   4.473   1.142
12186TIP3   OH236500   7.782   4.289   0.689
12186TIP3    H136501   7.795   4.260   0.599
12186TIP3    H236502   7.696   4.255   0.714
12187TIP3   OH236503   3.246   6.786   5.866
12187TIP3    H136504   3.194   6.825   5.937
12187TIP3    H236505   3.334   6.823   5.878
12188TIP3   OH236506   3.544   4.518   5.365
12188TIP3    H136507   3.487   4.570   5.309
12188TIP3    H236508   3.502   4.520   5.451
12189TIP3   OH236509   1.989   0.097   3.228
12189TIP3    H136510   2.059   0.134   3.174
12189TIP3    H236511   2.002   0.003   3.224
12190TIP3   OH236512   5.917   2.601   2.772
12190TIP3    H136513   5.872   2.529   2.728
12190TIP3    H236514   5.865   2.678   2.748
12191TIP3   OH236515   5.369   1.969   5.464
12191TIP3    H136516   5.444   2.011   5.422
12191TIP3    H236517   5.294   1.989   5.408
12192TIP3   OH236518   7.011   4.469   4.016
12192TIP3    H136519   6.939   4.415   4.050
12192TIP3    H236520   6.972   4.518   3.945
12193TIP3   OH236521   4.892   2.299   6.174
12193TIP3    H136522   4.906   2.311   6.267
12193TIP3    H236523   4.979   2.281   6.138
12194TIP3   OH236524   0.743   7.743   4.518
12194TIP3    H136525   0.815   7.804   4.501
12194TIP3    H236526   0.766   7.665   4.467
12195TIP3   OH236527   2.480   0.197   4.864
12195TIP3    H136528   2.390   0.185   4.895
12195TIP3    H236529   2.471   0.249   4.784
12196TIP3   OH236530   2.895   4.802   2.245
12196TIP3    H136531   2.813   4.778   2.289
12196TIP3    H236532   2.911   4.892   2.273
12197TIP3   OH236533   6.105   2.812   1.008
12197TIP3    H136534   6.183   2.864   1.024
12197TIP3    H236535   6.033   2.876   1.004
12198TIP3   OH236536   5.255   3.722   5.548
12198TIP3    H136537   5.232   3.759   5.462
12198TIP3    H236538   5.351   3.724   5.549
12199TIP3   OH236539   4.479   1.177   6.240
12199TIP3    H136540   4.517   1.095   6.269
12199TIP3    H236541   4.385   1.168   6.256
12200TIP3   OH236542   6.483   6.942   6.352
12200TIP3    H136543   6.488   6.860   6.402
12200TIP3    H236544   6.568   6.949   6.309
12201TIP3   OH236545   5.629   0.583   2.425
12201TIP3    H136546   5.690   0.510   2.421
12201TIP3    H236547   5.576   0.566   2.503
12202TIP3   OH236548   6.771   6.863   3.154
12202TIP3    H136549   6.749   6.802   3.083
12202TIP3    H236550   6.687   6.903   3.178
12203TIP3   OH236551   4.277   2.536   6.118
12203TIP3    H136552   4.358   2.516   6.070
12203TIP3    H236553   4.305   2.592   6.190
12204TIP3   OH236554   1.200   6.581   0.811
12204TIP3    H136555   1.257   6.526   0.757
12204TIP3    H236556   1.147   6.519   0.860
12205TIP3   OH236557   7.172   4.890   6.374
12205TIP3    H136558   7.172   4.794   6.373
12205TIP3    H236559   7.107   4.913   6.440
12206TIP3   OH236560   7.423   4.346   5.233
12206TIP3    H136561   7.348   4.294   5.202
12206TIP3    H236562   7.407   4.356   5.327
12207TIP3   OH236563   5.684   0.081   3.562
12207TIP3    H136564   5.647   0.127   3.486
12207TIP3    H236565   5.717  -0.002   3.527
12208TIP3   OH236566   4.530   0.824   3.790
12208TIP3    H136567   4.570   0.773   3.720
12208TIP3    H236568   4.435   0.815   3.776
12209TIP3   OH236569   1.093   7.632   5.688
12209TIP3    H136570   1.084   7.695   5.617
12209TIP3    H236571   1.004   7.600   5.704
12210TIP3   OH236572   7.412   7.337   0.493
12210TIP3    H136573   7.369   7.257   0.462
12210TIP3    H236574   7.344   7.384   0.541
12211TIP3   OH236575   3.095   3.951   1.782
12211TIP3    H136576   3.001   3.968   1.786
12211TIP3    H236577   3.136   4.031   1.816
12212TIP3   OH236578   2.822   4.927   0.449
12212TIP3    H136579   2.750   4.943   0.511
12212TIP3    H236580   2.886   4.996   0.469
12213TIP3   OH236581   5.398   3.196   0.864
12213TIP3    H136582   5.439   3.205   0.778
12213TIP3    H236583   5.465   3.224   0.926
12214TIP3   OH236584   1.274   5.423   2.575
12214TIP3    H136585   1.271   5.332   2.546
12214TIP3    H236586   1.207   5.467   2.522
12215TIP3   OH236587   7.915   7.716   2.675
12215TIP3    H136588   7.948   7.678   2.756
12215TIP3    H236589   7.894   7.640   2.619
12216TIP3   OH236590   4.321   0.122   1.465
12216TIP3    H136591   4.343   0.060   1.535
12216TIP3    H236592   4.404   0.133   1.418
12217TIP3   OH236593   6.158   5.887   1.116
12217TIP3    H136594   6.104   5.919   1.044
12217TIP3    H236595   6.246   5.880   1.079
12218TIP3   OH236596   6.153   3.555   3.972
12218TIP3    H136597   6.072   3.534   4.020
12218TIP3    H236598   6.146   3.506   3.890
12219TIP3   OH236599   4.369   4.219   5.899
12219TIP3    H136600   4.282   4.181   5.911
12219TIP3    H236601   4.429   4.149   5.925
12220TIP3   OH236602   5.558   7.287   0.008
12220TIP3    H136603   5.548   7.314   0.100
12220TIP3    H236604   5.610   7.206   0.012
12221TIP3   OH236605   6.708   4.985   6.489
12221TIP3    H136606   6.658   4.979   6.407
12221TIP3    H236607   6.692   5.075   6.519
12222TIP3   OH236608   4.020   7.345   1.283
12222TIP3    H136609   4.015   7.359   1.378
12222TIP3    H236610   3.929   7.334   1.256
12223TIP3   OH236611   7.130   7.798   0.000
12223TIP3    H136612   7.117   7.709  -0.032
12223TIP3    H236613   7.094   7.797   0.089
12224TIP3   OH236614   0.302   0.260   3.183
12224TIP3    H136615   0.322   0.208   3.105
12224TIP3    H236616   0.298   0.196   3.254
12225TIP3   OH236617   7.796   1.679   1.624
12225TIP3    H136618   7.882   1.638   1.636
12225TIP3    H236619   7.748   1.618   1.568
12226TIP3   OH236620   0.610   4.778   5.154
12226TIP3    H136621   0.692   4.825   5.171
12226TIP3    H236622   0.563   4.835   5.093
12227TIP3   OH236623   2.046   1.512   5.680
12227TIP3    H136624   2.030   1.564   5.601
12227TIP3    H236625   2.078   1.428   5.647
12228TIP3   OH236626   0.962   2.837   5.285
12228TIP3    H136627   1.045   2.881   5.303
12228TIP3    H236628   0.963   2.760   5.342
12229TIP3   OH236629   5.118   4.016   2.386
12229TIP3    H136630   5.156   4.047   2.304
12229TIP3    H236631   5.190   3.972   2.431
12230TIP3   OH236632   1.594   7.627   6.484
12230TIP3    H136633   1.623   7.547   6.529
12230TIP3    H236634   1.661   7.692   6.507
12231TIP3   OH236635   8.048   7.416   6.260
12231TIP3    H136636   8.129   7.424   6.210
12231TIP3    H236637   7.984   7.466   6.210
12232TIP3   OH236638   3.987   2.896   5.013
12232TIP3    H136639   3.999   2.803   5.029
12232TIP3    H236640   3.925   2.900   4.940
12233TIP3   OH236641   0.071   4.186   6.119
12233TIP3    H136642   0.162   4.213   6.133
12233TIP3    H236643   0.030   4.198   6.205
12234TIP3   OH236644   1.956   4.160   2.756
12234TIP3    H136645   1.956   4.080   2.810
12234TIP3    H236646   1.923   4.132   2.671
12235TIP3   OH236647   6.046   3.014   3.464
12235TIP3    H136648   5.997   2.957   3.523
12235TIP3    H236649   6.124   2.965   3.441
12236TIP3   OH236650   1.058   5.346   4.128
12236TIP3    H136651   1.056   5.430   4.081
12236TIP3    H236652   0.990   5.294   4.086
12237TIP3   OH236653   7.858   0.743   5.602
12237TIP3    H136654   7.840   0.685   5.676
12237TIP3    H236655   7.875   0.828   5.642
12238TIP3   OH236656   2.272   1.624   6.155
12238TIP3    H136657   2.316   1.661   6.079
12238TIP3    H236658   2.276   1.693   6.221
12239TIP3   OH236659   5.670   4.561   1.476
12239TIP3    H136660   5.755   4.522   1.497
12239TIP3    H236661   5.645   4.520   1.393
12240TIP3   OH236662   2.222   2.214   3.746
12240TIP3    H136663   2.292   2.216   3.681
12240TIP3    H236664   2.185   2.302   3.745
12241TIP3   OH236665   4.500   7.712   3.788
12241TIP3    H136666   4.458   7.637   3.745
12241TIP3    H236667   4.478   7.787   3.732
12242TIP3   OH236668   6.749   2.063   5.996
12242TIP3    H136669   6.791   2.108   5.923
12242TIP3    H236670   6.793   2.097   6.074
12243TIP3   OH236671   0.512   1.048   4.086
12243TIP3    H136672   0.420   1.061   4.064
12243TIP3    H236673   0.520   1.077   4.176
12244TIP3   OH236674   6.103   2.085   0.420
12244TIP3    H136675   6.185   2.105   0.466
12244TIP3    H236676   6.128   2.078   0.328
12245TIP3   OH236677   1.044   5.861   4.610
12245TIP3    H136678   0.959   5.896   4.584
12245TIP3    H236679   1.035   5.845   4.704
12246TIP3   OH236680   3.089   3.959   5.623
12246TIP3    H136681   3.167   3.939   5.675
12246TIP3    H236682   3.016   3.927   5.675
12247TIP3   OH236683   4.705   4.874   3.367
12247TIP3    H136684   4.736   4.901   3.281
12247TIP3    H236685   4.628   4.820   3.350
12248TIP3   OH236686   0.973   7.233   3.794
12248TIP3    H136687   1.001   7.142   3.795
12248TIP3    H236688   1.053   7.283   3.812
12249TIP3   OH236689   5.249   4.449   5.125
12249TIP3    H136690   5.232   4.536   5.088
12249TIP3    H236691   5.344   4.450   5.142
12250TIP3   OH236692   3.363   6.825   5.506
12250TIP3    H136693   3.273   6.818   5.537
12250TIP3    H236694   3.393   6.735   5.498
12251TIP3   OH236695   0.766   7.591   3.299
12251TIP3    H136696   0.795   7.673   3.338
12251TIP3    H236697   0.842   7.557   3.252
12252TIP3   OH236698   3.387   3.177   5.464
12252TIP3    H136699   3.303   3.204   5.501
12252TIP3    H236700   3.410   3.097   5.511
12253TIP3   OH236701   6.341   2.952   3.875
12253TIP3    H136702   6.389   2.887   3.927
12253TIP3    H236703   6.333   2.912   3.788
12254TIP3   OH236704   1.677   1.777   5.172
12254TIP3    H136705   1.591   1.808   5.145
12254TIP3    H236706   1.718   1.745   5.091
12255TIP3   OH236707   1.060   1.365   5.265
12255TIP3    H136708   1.143   1.394   5.228
12255TIP3    H236709   0.993   1.412   5.216
12256TIP3   OH236710   3.152   1.036   0.423
12256TIP3    H136711   3.083   0.972   0.404
12256TIP3    H236712   3.234   0.985   0.417
12257TIP3   OH236713   6.274   4.789   0.424
12257TIP3    H136714   6.206   4.735   0.464
12257TIP3    H236715   6.356   4.743   0.443
12258TIP3   OH236716   2.355   2.648   0.485
12258TIP3    H136717   2.287   2.713   0.471
12258TIP3    H236718   2.309   2.571   0.518
12259TIP3   OH236719   1.432   7.704   0.698
12259TIP3    H136720   1.414   7.770   0.631
12259TIP3    H236721   1.463   7.628   0.649
12260TIP3   OH236722   6.333   2.455   4.310
12260TIP3    H136723   6.348   2.484   4.400
12260TIP3    H236724   6.315   2.535   4.261
12261TIP3   OH236725   7.640   1.429   0.573
12261TIP3    H136726   7.602   1.403   0.657
12261TIP3    H236727   7.706   1.495   0.595
12262TIP3   OH236728   8.223   6.103   0.365
12262TIP3    H136729   8.165   6.081   0.292
12262TIP3    H236730   8.254   6.191   0.346
12263TIP3   OH236731   3.183   1.981   3.037
12263TIP3    H136732   3.169   2.046   2.967
12263TIP3    H236733   3.162   1.897   2.995
12264TIP3   OH236734   3.063   7.745   1.726
12264TIP3    H136735   3.073   7.693   1.646
12264TIP3    H236736   2.972   7.734   1.750
12265TIP3   OH236737   3.403   0.365   6.574
12265TIP3    H136738   3.422   0.323   6.657
12265TIP3    H236739   3.488   0.399   6.545
12266TIP3   OH236740   5.757   3.307   0.293
12266TIP3    H136741   5.773   3.245   0.222
12266TIP3    H236742   5.753   3.252   0.372
12267TIP3   OH236743   0.141   0.484   6.761
12267TIP3    H136744   0.095   0.567   6.772
12267TIP3    H236745   0.199   0.498   6.686
12268TIP3   OH236746   2.879   2.442   3.034
12268TIP3    H136747   2.910   2.391   3.109
12268TIP3    H236748   2.809   2.388   2.997
12269TIP3   OH236749   8.140   0.083   0.415
12269TIP3    H136750   8.195   0.030   0.474
12269TIP3    H236751   8.055   0.087   0.459
12270TIP3   OH236752   5.960   3.243   6.219
12270TIP3    H136753   5.885   3.199   6.258
12270TIP3    H236754   6.004   3.286   6.292
12271TIP3   OH236755   1.369   1.657   4.716
12271TIP3    H136756   1.322   1.664   4.633
12271TIP3    H236757   1.299   1.644   4.781
12272TIP3   OH236758   2.478   4.518   3.124
12272TIP3    H136759   2.558   4.465   3.132
12272TIP3    H236760   2.508   4.608   3.137
12273TIP3   OH236761   6.729   7.715   6.672
12273TIP3    H136762   6.754   7.629   6.708
12273TIP3    H236763   6.633   7.718   6.682
12274TIP3   OH236764   7.927   2.994   0.783
12274TIP3    H136765   7.925   2.937   0.706
12274TIP3    H236766   7.905   3.081   0.749
12275TIP3   OH236767   6.992   1.864   5.504
12275TIP3    H136768   6.942   1.812   5.441
12275TIP3    H236769   7.080   1.868   5.468
12276TIP3   OH236770   4.137   7.088   6.518
12276TIP3    H136771   4.171   7.105   6.430
12276TIP3    H236772   4.047   7.061   6.504
12277TIP3   OH236773   0.738   7.535   5.403
12277TIP3    H136774   0.674   7.573   5.343
12277TIP3    H236775   0.822   7.569   5.374
12278TIP3   OH236776   5.815   1.248   4.623
12278TIP3    H136777   5.794   1.159   4.596
12278TIP3    H236778   5.761   1.263   4.701
12279TIP3   OH236779   4.290   7.230   5.916
12279TIP3    H136780   4.294   7.277   5.833
12279TIP3    H236781   4.211   7.178   5.911
12280TIP3   OH236782   3.533   5.469   1.445
12280TIP3    H136783   3.552   5.394   1.501
12280TIP3    H236784   3.441   5.489   1.462
12281TIP3   OH236785   4.494   6.528   0.347
12281TIP3    H136786   4.463   6.522   0.257
12281TIP3    H236787   4.545   6.448   0.360
12282TIP3   OH236788   2.610   0.228   4.127
12282TIP3    H136789   2.585   0.144   4.088
12282TIP3    H236790   2.551   0.237   4.202
12283TIP3   OH236791   2.792   0.698   5.391
12283TIP3    H136792   2.874   0.708   5.343
12283TIP3    H236793   2.786   0.776   5.446
12284TIP3   OH236794   2.342   3.484   0.824
12284TIP3    H136795   2.285   3.538   0.878
12284TIP3    H236796   2.393   3.547   0.772
12285TIP3   OH236797   4.152   5.363   2.726
12285TIP3    H136798   4.110   5.322   2.651
12285TIP3    H236799   4.241   5.328   2.728
12286TIP3   OH236800   6.687   7.455   6.218
12286TIP3    H136801   6.724   7.372   6.189
12286TIP3    H236802   6.597   7.454   6.184
12287TIP3   OH236803   0.916   7.670   2.910
12287TIP3    H136804   0.849   7.737   2.925
12287TIP3    H236805   0.985   7.692   2.972
12288TIP3   OH236806   1.277   1.190   4.055
12288TIP3    H136807   1.305   1.260   4.114
12288TIP3    H236808   1.344   1.189   3.986
12289TIP3   OH236809   8.069   6.418   2.528
12289TIP3    H136810   7.983   6.443   2.492
12289TIP3    H236811   8.130   6.480   2.488
12290TIP3   OH236812   1.712  -0.001   1.456
12290TIP3    H136813   1.665  -0.022   1.537
12290TIP3    H236814   1.669   0.079   1.423
12291TIP3   OH236815   0.504   1.110   4.855
12291TIP3    H136816   0.585   1.092   4.903
12291TIP3    H236817   0.435   1.096   4.919
12292TIP3   OH236818   1.563   0.961   3.712
12292TIP3    H136819   1.543   0.884   3.659
12292TIP3    H236820   1.585   0.925   3.798
12293TIP3   OH236821   6.873   1.446   2.528
12293TIP3    H136822   6.914   1.502   2.462
12293TIP3    H236823   6.911   1.359   2.513
12294TIP3   OH236824   4.149   5.859   4.942
12294TIP3    H136825   4.076   5.854   5.004
12294TIP3    H236826   4.108   5.882   4.858
12295TIP3   OH236827   5.711   3.998   6.095
12295TIP3    H136828   5.807   3.989   6.095
12295TIP3    H236829   5.683   3.951   6.016
12296TIP3   OH236830   7.610   3.765   0.880
12296TIP3    H136831   7.663   3.796   0.806
12296TIP3    H236832   7.581   3.677   0.853
12297TIP3   OH236833   0.758   5.301   1.149
12297TIP3    H136834   0.837   5.287   1.201
12297TIP3    H236835   0.687   5.304   1.213
12298TIP3   OH236836   0.886   5.796   1.904
12298TIP3    H136837   0.898   5.816   1.811
12298TIP3    H236838   0.974   5.804   1.942
12299TIP3   OH236839   7.086   2.191   3.018
12299TIP3    H136840   7.015   2.166   2.959
12299TIP3    H236841   7.073   2.138   3.096
12300TIP3   OH236842   3.126   3.958   4.911
12300TIP3    H136843   3.136   3.868   4.881
12300TIP3    H236844   3.047   3.958   4.964
12301TIP3   OH236845   0.789   3.265   6.436
12301TIP3    H136846   0.746   3.326   6.497
12301TIP3    H236847   0.822   3.195   6.493
12302TIP3   OH236848   1.776   3.716   1.892
12302TIP3    H136849   1.770   3.686   1.983
12302TIP3    H236850   1.865   3.695   1.865
12303TIP3   OH236851   6.547   4.956   4.943
12303TIP3    H136852   6.472   4.930   4.996
12303TIP3    H236853   6.518   5.033   4.895
12304TIP3   OH236854   4.225   5.816   1.720
12304TIP3    H136855   4.190   5.902   1.743
12304TIP3    H236856   4.219   5.812   1.625
12305TIP3   OH236857   2.330   6.544   6.584
12305TIP3    H136858   2.350   6.637   6.587
12305TIP3    H236859   2.367   6.515   6.500
12306TIP3   OH236860   6.045   0.812   2.641
12306TIP3    H136861   6.013   0.875   2.576
12306TIP3    H236862   6.038   0.858   2.724
12307TIP3   OH236863   4.300   2.919   1.291
12307TIP3    H136864   4.298   2.824   1.307
12307TIP3    H236865   4.387   2.947   1.321
12308TIP3   OH236866   6.703   2.479   6.379
12308TIP3    H136867   6.745   2.510   6.299
12308TIP3    H236868   6.695   2.557   6.434
12309TIP3   OH236869   1.602   0.533   4.589
12309TIP3    H136870   1.634   0.618   4.556
12309TIP3    H236871   1.552   0.556   4.668
12310TIP3   OH236872   0.034   2.839   3.331
12310TIP3    H136873   0.033   2.831   3.236
12310TIP3    H236874   0.008   2.753   3.363
12311TIP3   OH236875   1.955   0.521   2.386
12311TIP3    H136876   1.963   0.425   2.390
12311TIP3    H236877   1.887   0.536   2.320
12312TIP3   OH236878   0.862   7.240   6.026
12312TIP3    H136879   0.805   7.284   6.088
12312TIP3    H236880   0.803   7.185   5.974
12313TIP3   OH236881   4.266   3.531   0.766
12313TIP3    H136882   4.357   3.531   0.735
12313TIP3    H236883   4.243   3.439   0.775
12314TIP3   OH236884   5.910   2.357   6.483
12314TIP3    H136885   5.828   2.392   6.448
12314TIP3    H236886   5.883   2.290   6.545
12315TIP3   OH236887   1.773   5.435   6.695
12315TIP3    H136888   1.692   5.388   6.714
12315TIP3    H236889   1.802   5.400   6.611
12316TIP3   OH236890   3.923   0.341   1.566
12316TIP3    H136891   3.846   0.301   1.525
12316TIP3    H236892   3.936   0.423   1.518
12317TIP3   OH236893   6.845   4.470   0.322
12317TIP3    H136894   6.900   4.424   0.259
12317TIP3    H236895   6.829   4.555   0.283
12318TIP3   OH236896   2.858   2.261   0.304
12318TIP3    H136897   2.868   2.335   0.243
12318TIP3    H236898   2.866   2.301   0.391
12319TIP3   OH236899   1.648   3.948   1.817
12319TIP3    H136900   1.715   3.885   1.845
12319TIP3    H236901   1.587   3.951   1.890
12320TIP3   OH236902   0.584   3.055   4.793
12320TIP3    H136903   0.493   3.074   4.768
12320TIP3    H236904   0.582   3.048   4.888
12321TIP3   OH236905   5.683   2.814   2.347
12321TIP3    H136906   5.620   2.747   2.372
12321TIP3    H236907   5.709   2.790   2.258
12322TIP3   OH236908   5.370   2.426   1.672
12322TIP3    H136909   5.429   2.494   1.704
12322TIP3    H236910   5.365   2.363   1.745
12323TIP3   OH236911   3.974   4.477   4.592
12323TIP3    H136912   3.990   4.499   4.499
12323TIP3    H236913   3.880   4.486   4.603
12324TIP3   OH236914   1.608   3.787   4.456
12324TIP3    H136915   1.544   3.847   4.493
12324TIP3    H236916   1.562   3.703   4.453
12325TIP3   OH236917   1.745   4.828   3.669
12325TIP3    H136918   1.667   4.884   3.667
12325TIP3    H236919   1.804   4.868   3.606
12326TIP3   OH236920   3.519   3.200   5.764
12326TIP3    H136921   3.494   3.217   5.855
12326TIP3    H236922   3.500   3.107   5.750
12327TIP3   OH236923   7.097   6.779   5.972
12327TIP3    H136924   7.165   6.742   5.916
12327TIP3    H236925   7.108   6.734   6.056
12328TIP3   OH236926   2.275   1.663   0.131
12328TIP3    H136927   2.239   1.575   0.118
12328TIP3    H236928   2.256   1.683   0.222
12329TIP3   OH236929   3.880   1.017   5.725
12329TIP3    H136930   3.831   1.079   5.780
12329TIP3    H236931   3.888   1.062   5.640
12330TIP3   OH236932   2.666   0.733   3.225
12330TIP3    H136933   2.673   0.756   3.318
12330TIP3    H236934   2.722   0.656   3.216
12331TIP3   OH236935   8.117   0.613   1.752
12331TIP3    H136936   8.098   0.695   1.798
12331TIP3    H236937   8.073   0.546   1.804
12332TIP3   OH236938   5.998   7.528   4.297
12332TIP3    H136939   5.913   7.489   4.281
12332TIP3    H236940   5.993   7.615   4.256
12333TIP3   OH236941   6.859   6.730   2.715
12333TIP3    H136942   6.828   6.820   2.714
12333TIP3    H236943   6.930   6.729   2.779
12334TIP3   OH236944   5.153   4.814   5.265
12334TIP3    H136945   5.237   4.858   5.281
12334TIP3    H236946   5.089   4.885   5.266
12335TIP3   OH236947   2.628   3.306   0.490
12335TIP3    H136948   2.602   3.329   0.579
12335TIP3    H236949   2.688   3.232   0.501
12336TIP3   OH236950   0.853   6.197   3.878
12336TIP3    H136951   0.857   6.124   3.940
12336TIP3    H236952   0.944   6.210   3.851
12337TIP3   OH236953   1.760   7.500   0.408
12337TIP3    H136954   1.806   7.540   0.482
12337TIP3    H236955   1.742   7.574   0.349
12338TIP3   OH236956   2.224   2.449   3.584
12338TIP3    H136957   2.290   2.386   3.556
12338TIP3    H236958   2.177   2.472   3.504
12339TIP3   OH236959   1.246   1.054   1.910
12339TIP3    H136960   1.251   1.149   1.921
12339TIP3    H236961   1.189   1.026   1.982
12340TIP3   OH236962   4.746   0.977   5.724
12340TIP3    H136963   4.735   0.970   5.819
12340TIP3    H236964   4.676   1.036   5.696
12341TIP3   OH236965   7.293   7.335   3.717
12341TIP3    H136966   7.213   7.283   3.711
12341TIP3    H236967   7.344   7.310   3.641
12342TIP3   OH236968   2.965   0.633   2.762
12342TIP3    H136969   2.960   0.729   2.765
12342TIP3    H236970   2.939   0.610   2.673
12343TIP3   OH236971   3.147   1.466   2.783
12343TIP3    H136972   3.157   1.371   2.776
12343TIP3    H236973   3.236   1.500   2.789
12344TIP3   OH236974   3.596   5.583   4.214
12344TIP3    H136975   3.632   5.656   4.164
12344TIP3    H236976   3.511   5.566   4.173
12345TIP3   OH236977   0.572   7.049   4.970
12345TIP3    H136978   0.630   6.992   5.020
12345TIP3    H236979   0.536   7.110   5.034
12346TIP3   OH236980   4.788   0.383   2.716
12346TIP3    H136981   4.806   0.297   2.678
12346TIP3    H236982   4.861   0.398   2.776
12347TIP3   OH236983   5.798   0.385   6.149
12347TIP3    H136984   5.877   0.428   6.115
12347TIP3    H236985   5.775   0.437   6.226
12348TIP3   OH236986   0.905   3.493   2.754
12348TIP3    H136987   0.840   3.441   2.800
12348TIP3    H236988   0.879   3.490   2.662
12349TIP3   OH236989   3.045   0.706   4.007
12349TIP3    H136990   3.041   0.716   4.102
12349TIP3    H236991   3.138   0.700   3.987
12350TIP3   OH236992   7.618   6.978   4.559
12350TIP3    H136993   7.698   6.955   4.606
12350TIP3    H236994   7.589   6.896   4.520
12351TIP3   OH236995   3.938   2.510   4.442
12351TIP3    H136996   3.992   2.558   4.379
12351TIP3    H236997   3.889   2.447   4.390
12352TIP3   OH236998   7.948   4.129   1.213
12352TIP3    H136999   7.957   4.040   1.177
12352TIP3    H237000   7.996   4.185   1.151
12353TIP3   OH237001   0.506   7.638   5.517
12353TIP3    H137002   0.485   7.623   5.609
12353TIP3    H237003   0.580   7.580   5.500
12354TIP3   OH237004   5.293   6.146   6.383
12354TIP3    H137005   5.288   6.217   6.318
12354TIP3    H237006   5.203   6.118   6.396
12355TIP3   OH237007   1.854   7.098   3.795
12355TIP3    H137008   1.882   7.047   3.871
12355TIP3    H237009   1.873   7.042   3.720
12356TIP3   OH237010   8.246   6.861   4.834
12356TIP3    H137011   8.338   6.847   4.812
12356TIP3    H237012   8.239   6.956   4.846
12357TIP3   OH237013   0.713   5.773   1.574
12357TIP3    H137014   0.649   5.819   1.628
12357TIP3    H237015   0.798   5.795   1.613
12358TIP3   OH237016   2.433   3.965   5.728
12358TIP3    H137017   2.376   3.900   5.686
12358TIP3    H237018   2.448   4.031   5.660
12359TIP3   OH237019   2.922   0.979   6.590
12359TIP3    H137020   2.979   1.003   6.663
12359TIP3    H237021   2.972   1.001   6.512
12360TIP3   OH237022   5.796   6.206   6.045
12360TIP3    H137023   5.854   6.209   6.122
12360TIP3    H237024   5.770   6.115   6.038
12361TIP3   OH237025   5.545   6.929   1.553
12361TIP3    H137026   5.562   6.952   1.644
12361TIP3    H237027   5.459   6.966   1.534
12362TIP3   OH237028   7.272   2.931   1.808
12362TIP3    H137029   7.266   2.849   1.857
12362TIP3    H237030   7.181   2.954   1.789
12363TIP3   OH237031   6.000   1.661   0.846
12363TIP3    H137032   6.030   1.750   0.829
12363TIP3    H237033   6.013   1.649   0.940
12364TIP3   OH237034   4.516   5.016   0.872
12364TIP3    H137035   4.490   4.976   0.789
12364TIP3    H237036   4.611   5.018   0.868
12365TIP3   OH237037   4.476   2.407   1.528
12365TIP3    H137038   4.539   2.473   1.555
12365TIP3    H237039   4.528   2.328   1.513
12366TIP3   OH237040   4.850   6.866   4.863
12366TIP3    H137041   4.843   6.943   4.806
12366TIP3    H237042   4.796   6.800   4.819
12367TIP3   OH237043   5.992   6.753   1.347
12367TIP3    H137044   5.977   6.659   1.355
12367TIP3    H237045   5.906   6.792   1.359
12368TIP3   OH237046   0.639   5.195   2.079
12368TIP3    H137047   0.613   5.119   2.027
12368TIP3    H237048   0.635   5.268   2.017
12369TIP3   OH237049   3.392   0.729   6.238
12369TIP3    H137050   3.392   0.772   6.152
12369TIP3    H237051   3.470   0.673   6.236
12370TIP3   OH237052   0.646   6.381   2.318
12370TIP3    H137053   0.671   6.289   2.308
12370TIP3    H237054   0.723   6.422   2.357
12371TIP3   OH237055   1.119   3.922   3.985
12371TIP3    H137056   1.162   3.994   3.939
12371TIP3    H237057   1.045   3.963   4.031
12372TIP3   OH237058   2.332   1.115   1.427
12372TIP3    H137059   2.312   1.067   1.508
12372TIP3    H237060   2.323   1.050   1.358
12373TIP3   OH237061   2.902   7.500   3.042
12373TIP3    H137062   2.880   7.471   3.131
12373TIP3    H237063   2.998   7.501   3.040
12374TIP3   OH237064   5.459   6.813   2.126
12374TIP3    H137065   5.511   6.741   2.163
12374TIP3    H237066   5.371   6.778   2.119
12375TIP3   OH237067   2.149   3.260   6.583
12375TIP3    H137068   2.100   3.295   6.657
12375TIP3    H237069   2.108   3.299   6.506
12376TIP3   OH237070   3.200   2.274   6.258
12376TIP3    H137071   3.154   2.349   6.221
12376TIP3    H237072   3.213   2.216   6.183
12377TIP3   OH237073   3.710   6.167   3.691
12377TIP3    H137074   3.686   6.254   3.660
12377TIP3    H237075   3.769   6.133   3.624
12378TIP3   OH237076   3.363   3.646   6.274
12378TIP3    H137077   3.388   3.691   6.355
12378TIP3    H237078   3.269   3.632   6.283
12379TIP3   OH237079   5.596   6.765   1.205
12379TIP3    H137080   5.631   6.682   1.171
12379TIP3    H237081   5.508   6.743   1.233
12380TIP3   OH237082   3.016   5.427   3.864
12380TIP3    H137083   3.069   5.389   3.935
12380TIP3    H237084   2.931   5.384   3.872
12381TIP3   OH237085   4.245   7.556   6.260
12381TIP3    H137086   4.323   7.505   6.283
12381TIP3    H237087   4.181   7.491   6.232
12382TIP3   OH237088   6.326   0.581   4.355
12382TIP3    H137089   6.418   0.584   4.383
12382TIP3    H237090   6.312   0.490   4.331
12383TIP3   OH237091   5.065   0.185   4.057
12383TIP3    H137092   4.981   0.209   4.096
12383TIP3    H237093   5.050   0.190   3.963
12384TIP3   OH237094   2.312   4.051   5.982
12384TIP3    H137095   2.365   4.059   5.903
12384TIP3    H237096   2.284   3.959   5.983
12385TIP3   OH237097   6.083   6.266   1.485
12385TIP3    H137098   6.126   6.293   1.566
12385TIP3    H237099   6.024   6.195   1.512
12386TIP3   OH237100   3.176   0.333   6.770
12386TIP3    H137101   3.084   0.309   6.767
12386TIP3    H237102   3.200   0.348   6.678
12387TIP3   OH237103   7.779   4.581   5.442
12387TIP3    H137104   7.766   4.515   5.374
12387TIP3    H237105   7.788   4.664   5.394
12388TIP3   OH237106   0.034   4.775   6.732
12388TIP3    H137107   0.124   4.806   6.734
12388TIP3    H237108   0.024   4.727   6.815
12389TIP3   OH237109   3.157   0.221   3.159
12389TIP3    H137110   3.209   0.229   3.239
12389TIP3    H237111   3.170   0.304   3.113
12390TIP3   OH237112   0.247   3.288   3.118
12390TIP3    H137113   0.266   3.368   3.166
12390TIP3    H237114   0.167   3.308   3.069
12391TIP3   OH237115   7.013   0.185   1.003
12391TIP3    H137116   6.951   0.241   1.050
12391TIP3    H237117   6.976   0.097   1.012
12392TIP3   OH237118   4.780   6.042   2.349
12392TIP3    H137119   4.761   6.060   2.441
12392TIP3    H237120   4.740   5.957   2.332
12393TIP3   OH237121   3.846   3.514   1.749
12393TIP3    H137122   3.927   3.525   1.700
12393TIP3    H237123   3.843   3.589   1.809
12394TIP3   OH237124   4.409   7.294   2.543
12394TIP3    H137125   4.359   7.370   2.512
12394TIP3    H237126   4.422   7.310   2.636
12395TIP3   OH237127   4.973   4.572   4.197
12395TIP3    H137128   5.003   4.598   4.284
12395TIP3    H237129   5.053   4.562   4.146
12396TIP3   OH237130   4.668   0.348   3.230
12396TIP3    H137131   4.703   0.275   3.180
12396TIP3    H237132   4.652   0.417   3.165
12397TIP3   OH237133   1.283   1.284   0.244
12397TIP3    H137134   1.372   1.302   0.274
12397TIP3    H237135   1.256   1.207   0.294
12398TIP3   OH237136   4.582   5.593   1.200
12398TIP3    H137137   4.673   5.624   1.200
12398TIP3    H237138   4.531   5.670   1.174
12399TIP3   OH237139   2.014   6.760   3.792
12399TIP3    H137140   2.094   6.777   3.840
12399TIP3    H237141   1.953   6.726   3.858
12400TIP3   OH237142   7.967   2.843   0.538
12400TIP3    H137143   7.954   2.768   0.480
12400TIP3    H237144   8.055   2.830   0.575
12401TIP3   OH237145   1.476   6.065   2.077
12401TIP3    H137146   1.520   6.059   2.162
12401TIP3    H237147   1.385   6.087   2.098
12402TIP3   OH237148   4.616   1.943   1.613
12402TIP3    H137149   4.664   2.001   1.555
12402TIP3    H237150   4.684   1.896   1.663
12403TIP3   OH237151   6.201   5.570   1.012
12403TIP3    H137152   6.115   5.597   0.978
12403TIP3    H237153   6.261   5.588   0.940
12404TIP3   OH237154   5.597   7.379   6.199
12404TIP3    H137155   5.631   7.296   6.232
12404TIP3    H237156   5.666   7.442   6.220
12405TIP3   OH237157   3.508   3.711   3.317
12405TIP3    H137158   3.447   3.772   3.360
12405TIP3    H237159   3.595   3.744   3.339
12406TIP3   OH237160   6.918   1.770   5.255
12406TIP3    H137161   6.941   1.833   5.187
12406TIP3    H237162   6.832   1.737   5.230
12407TIP3   OH237163   4.052   2.626   0.724
12407TIP3    H137164   4.024   2.693   0.787
12407TIP3    H237165   4.147   2.636   0.720
12408TIP3   OH237166   3.047   5.407   1.960
12408TIP3    H137167   3.017   5.317   1.951
12408TIP3    H237168   3.136   5.406   1.926
12409TIP3   OH237169   8.103   5.934   6.148
12409TIP3    H137170   8.162   5.984   6.205
12409TIP3    H237171   8.046   6.000   6.109
12410TIP3   OH237172   5.060   0.978   0.727
12410TIP3    H137173   5.145   0.989   0.770
12410TIP3    H237174   5.032   0.890   0.753
12411TIP3   OH237175   1.709   6.240   5.795
12411TIP3    H137176   1.793   6.285   5.787
12411TIP3    H237177   1.654   6.299   5.846
12412TIP3   OH237178   5.310   5.147   1.658
12412TIP3    H137179   5.319   5.241   1.675
12412TIP3    H237180   5.227   5.123   1.697
12413TIP3   OH237181   6.451   5.129   2.509
12413TIP3    H137182   6.523   5.187   2.534
12413TIP3    H237183   6.446   5.065   2.580
12414TIP3   OH237184   2.487   6.261   0.114
12414TIP3    H137185   2.477   6.332   0.178
12414TIP3    H237186   2.530   6.191   0.164
12415TIP3   OH237187   6.448   3.797   6.309
12415TIP3    H137188   6.524   3.739   6.312
12415TIP3    H237189   6.484   3.885   6.316
12416TIP3   OH237190   8.138   3.118   4.142
12416TIP3    H137191   8.069   3.081   4.197
12416TIP3    H237192   8.120   3.212   4.143
12417TIP3   OH237193   4.737   3.858   4.683
12417TIP3    H137194   4.774   3.917   4.749
12417TIP3    H237195   4.660   3.905   4.650
12418TIP3   OH237196   2.311   1.317   1.014
12418TIP3    H137197   2.345   1.232   1.044
12418TIP3    H237198   2.387   1.374   1.012
12419TIP3   OH237199   0.458   0.637   0.099
12419TIP3    H137200   0.418   0.550   0.098
12419TIP3    H237201   0.455   0.666   0.008
12420TIP3   OH237202   0.811   2.893   6.291
12420TIP3    H137203   0.816   2.943   6.209
12420TIP3    H237204   0.899   2.899   6.328
12421TIP3   OH237205   5.907   3.340   0.677
12421TIP3    H137206   5.890   3.418   0.625
12421TIP3    H237207   5.975   3.366   0.739
12422TIP3   OH237208   7.063   2.995   1.630
12422TIP3    H137209   7.060   3.081   1.587
12422TIP3    H237210   7.107   2.938   1.567
12423TIP3   OH237211   1.959   5.119   2.700
12423TIP3    H137212   1.882   5.092   2.749
12423TIP3    H237213   1.941   5.092   2.610
12424TIP3   OH237214   1.188   4.404   2.515
12424TIP3    H137215   1.249   4.416   2.443
12424TIP3    H237216   1.155   4.492   2.533
12425TIP3   OH237217   7.262   0.198   6.300
12425TIP3    H137218   7.195   0.248   6.348
12425TIP3    H237219   7.255   0.231   6.210
12426TIP3   OH237220   5.717   6.002   3.558
12426TIP3    H137221   5.772   5.925   3.547
12426TIP3    H237222   5.630   5.967   3.574
12427TIP3   OH237223   0.749   1.734   2.596
12427TIP3    H137224   0.817   1.800   2.584
12427TIP3    H237225   0.720   1.713   2.507
12428TIP3   OH237226   5.848   5.727   0.263
12428TIP3    H137227   5.870   5.669   0.190
12428TIP3    H237228   5.783   5.679   0.313
12429TIP3   OH237229   7.626   3.021   0.126
12429TIP3    H137230   7.651   3.112   0.107
12429TIP3    H237231   7.696   2.989   0.183
12430TIP3   OH237232   3.064   0.686   2.014
12430TIP3    H137233   3.133   0.749   1.994
12430TIP3    H237234   2.986   0.721   1.970
12431TIP3   OH237235   3.982   1.455   2.823
12431TIP3    H137236   4.051   1.485   2.881
12431TIP3    H237237   3.905   1.505   2.850
12432TIP3   OH237238   7.237   3.680   2.581
12432TIP3    H137239   7.248   3.605   2.640
12432TIP3    H237240   7.275   3.651   2.498
12433TIP3   OH237241   6.446   7.426   2.916
12433TIP3    H137242   6.501   7.484   2.968
12433TIP3    H237243   6.391   7.485   2.863
12434TIP3   OH237244   2.096   1.798   1.280
12434TIP3    H137245   2.125   1.771   1.367
12434TIP3    H237246   2.105   1.719   1.226
12435TIP3   OH237247   7.753   1.909   4.841
12435TIP3    H137248   7.826   1.935   4.899
12435TIP3    H237249   7.706   1.842   4.891
12436TIP3   OH237250   2.743   2.502   3.716
12436TIP3    H137251   2.775   2.416   3.689
12436TIP3    H237252   2.797   2.526   3.791
12437TIP3   OH237253   2.978   0.339   4.552
12437TIP3    H137254   2.994   0.255   4.593
12437TIP3    H237255   2.916   0.321   4.481
12438TIP3   OH237256   1.530   2.119   0.082
12438TIP3    H137257   1.585   2.196   0.098
12438TIP3    H237258   1.445   2.156   0.059
12439TIP3   OH237259   3.474   3.580   0.834
12439TIP3    H137260   3.519   3.560   0.915
12439TIP3    H237261   3.453   3.673   0.839
12440TIP3   OH237262   6.425   1.936   0.986
12440TIP3    H137263   6.423   1.997   0.912
12440TIP3    H237264   6.510   1.893   0.980
12441TIP3   OH237265   0.419   4.686   6.199
12441TIP3    H137266   0.477   4.745   6.247
12441TIP3    H237267   0.477   4.640   6.139
12442TIP3   OH237268   2.207   7.221   0.927
12442TIP3    H137269   2.224   7.130   0.953
12442TIP3    H237270   2.280   7.243   0.869
12443TIP3   OH237271   4.567   0.067   3.776
12443TIP3    H137272   4.485   0.088   3.821
12443TIP3    H237273   4.540   0.042   3.687
12444TIP3   OH237274   5.054   2.478   2.739
12444TIP3    H137275   5.033   2.501   2.648
12444TIP3    H237276   5.068   2.383   2.737
12445TIP3   OH237277   1.421   0.129   4.033
12445TIP3    H137278   1.375   0.046   4.043
12445TIP3    H237279   1.455   0.148   4.121
12446TIP3   OH237280   2.313   0.250   3.826
12446TIP3    H137281   2.318   0.292   3.740
12446TIP3    H237282   2.238   0.190   3.818
12447TIP3   OH237283   3.592   5.761   2.332
12447TIP3    H137284   3.505   5.787   2.304
12447TIP3    H237285   3.585   5.751   2.427
12448TIP3   OH237286   6.738   1.795   1.169
12448TIP3    H137287   6.689   1.821   1.247
12448TIP3    H237288   6.830   1.797   1.197
12449TIP3   OH237289   7.686   7.185   6.430
12449TIP3    H137290   7.714   7.276   6.423
12449TIP3    H237291   7.691   7.166   6.523
12450TIP3   OH237292   6.207   2.510   5.877
12450TIP3    H137293   6.178   2.446   5.942
12450TIP3    H237294   6.158   2.487   5.798
12451TIP3   OH237295   5.368   4.004   1.809
12451TIP3    H137296   5.426   4.049   1.871
12451TIP3    H237297   5.346   3.922   1.853
12452TIP3   OH237298   7.269   1.272   4.981
12452TIP3    H137299   7.177   1.291   4.998
12452TIP3    H237300   7.297   1.339   4.919
12453TIP3   OH237301   0.221   4.920   5.812
12453TIP3    H137302   0.243   4.827   5.822
12453TIP3    H237303   0.126   4.924   5.822
12454TIP3   OH237304   4.836   2.892   2.053
12454TIP3    H137305   4.891   2.969   2.041
12454TIP3    H237306   4.855   2.837   1.977
12455TIP3   OH237307   1.518   2.984   3.010
12455TIP3    H137308   1.601   2.941   2.990
12455TIP3    H237309   1.538   3.078   3.005
12456TIP3   OH237310   7.956   5.322   1.156
12456TIP3    H137311   7.953   5.259   1.229
12456TIP3    H237312   8.048   5.346   1.149
12457TIP3   OH237313   8.178   2.706   5.453
12457TIP3    H137314   8.102   2.761   5.431
12457TIP3    H237315   8.253   2.760   5.430
12458TIP3   OH237316   0.804   5.919   5.446
12458TIP3    H137317   0.763   5.873   5.374
12458TIP3    H237318   0.838   5.850   5.503
12459TIP3   OH237319   0.453   0.457   1.961
12459TIP3    H137320   0.546   0.444   1.947
12459TIP3    H237321   0.423   0.376   2.002
12460TIP3   OH237322   3.416   4.024   1.777
12460TIP3    H137323   3.333   3.984   1.801
12460TIP3    H237324   3.437   4.081   1.851
12461TIP3   OH237325   1.897   7.017   1.498
12461TIP3    H137326   1.983   6.979   1.514
12461TIP3    H237327   1.840   6.976   1.562
12462TIP3   OH237328   0.419   2.129   2.631
12462TIP3    H137329   0.344   2.118   2.572
12462TIP3    H237330   0.431   2.044   2.672
12463TIP3   OH237331   2.148   1.119   0.478
12463TIP3    H137332   2.088   1.149   0.547
12463TIP3    H237333   2.148   1.190   0.414
12464TIP3   OH237334   1.729   3.269   2.457
12464TIP3    H137335   1.686   3.257   2.372
12464TIP3    H237336   1.819   3.291   2.435
12465TIP3   OH237337   2.435   0.476   5.761
12465TIP3    H137338   2.410   0.547   5.820
12465TIP3    H237339   2.489   0.417   5.815
12466TIP3   OH237340   3.847   0.910   4.524
12466TIP3    H137341   3.767   0.962   4.538
12466TIP3    H237342   3.918   0.973   4.534
12467TIP3   OH237343   6.309   3.278   0.263
12467TIP3    H137344   6.349   3.358   0.298
12467TIP3    H237345   6.224   3.306   0.229
12468TIP3   OH237346   1.024   5.514   2.479
12468TIP3    H137347   0.948   5.455   2.484
12468TIP3    H237348   1.009   5.563   2.398
12469TIP3   OH237349   6.281   5.283   0.646
12469TIP3    H137350   6.347   5.301   0.712
12469TIP3    H237351   6.209   5.242   0.694
12470TIP3   OH237352   7.550   6.350   4.056
12470TIP3    H137353   7.470   6.373   4.104
12470TIP3    H237354   7.567   6.259   4.079
12471TIP3   OH237355   7.154   0.858   0.458
12471TIP3    H137356   7.141   0.790   0.524
12471TIP3    H237357   7.239   0.896   0.481
12472TIP3   OH237358   0.632   1.737   4.339
12472TIP3    H137359   0.692   1.783   4.397
12472TIP3    H237360   0.684   1.665   4.303
12473TIP3   OH237361   1.975   5.976   0.936
12473TIP3    H137362   2.016   5.926   1.007
12473TIP3    H237363   1.922   6.041   0.981
12474TIP3   OH237364   3.916   6.715   3.672
12474TIP3    H137365   3.960   6.661   3.736
12474TIP3    H237366   3.874   6.653   3.612
12475TIP3   OH237367   4.581   5.647   6.710
12475TIP3    H137368   4.595   5.707   6.638
12475TIP3    H237369   4.491   5.662   6.739
12476TIP3   OH237370   6.164   4.047   1.059
12476TIP3    H137371   6.168   4.053   1.154
12476TIP3    H237372   6.166   4.138   1.029
12477TIP3   OH237373   3.700   3.021   1.282
12477TIP3    H137374   3.621   3.020   1.336
12477TIP3    H237375   3.759   2.959   1.324
12478TIP3   OH237376   4.049   0.356   0.530
12478TIP3    H137377   4.048   0.314   0.616
12478TIP3    H237378   3.977   0.419   0.533
12479TIP3   OH237379   0.425   1.203   0.428
12479TIP3    H137380   0.399   1.235   0.514
12479TIP3    H237381   0.517   1.226   0.421
12480TIP3   OH237382   2.761   1.971   2.854
12480TIP3    H137383   2.720   1.996   2.937
12480TIP3    H237384   2.829   2.036   2.840
12481TIP3   OH237385   7.516   3.580   4.248
12481TIP3    H137386   7.523   3.660   4.300
12481TIP3    H237387   7.607   3.554   4.231
12482TIP3   OH237388   3.471   3.280   4.750
12482TIP3    H137389   3.464   3.295   4.656
12482TIP3    H237390   3.388   3.240   4.775
12483TIP3   OH237391   7.648   6.912   5.510
12483TIP3    H137392   7.604   6.995   5.528
12483TIP3    H237393   7.587   6.863   5.456
12484TIP3   OH237394   0.715   2.476   1.449
12484TIP3    H137395   0.676   2.561   1.429
12484TIP3    H237396   0.683   2.418   1.380
12485TIP3   OH237397   1.505   6.773   6.577
12485TIP3    H137398   1.468   6.760   6.490
12485TIP3    H237399   1.472   6.859   6.604
12486TIP3   OH237400   7.166   0.350   2.628
12486TIP3    H137401   7.178   0.380   2.538
12486TIP3    H237402   7.080   0.308   2.628
12487TIP3   OH237403   4.949   2.932   2.772
12487TIP3    H137404   4.957   2.935   2.867
12487TIP3    H237405   4.856   2.915   2.756
12488TIP3   OH237406   1.256   2.674   4.529
12488TIP3    H137407   1.337   2.636   4.495
12488TIP3    H237408   1.273   2.768   4.532
12489TIP3   OH237409   4.220   3.651   0.275
12489TIP3    H137410   4.154   3.620   0.338
12489TIP3    H237411   4.267   3.719   0.323
12490TIP3   OH237412   7.039   3.008   2.959
12490TIP3    H137413   6.997   2.934   2.916
12490TIP3    H237414   6.977   3.081   2.947
12491TIP3   OH237415   7.182   2.680   6.181
12491TIP3    H137416   7.136   2.759   6.152
12491TIP3    H237417   7.265   2.682   6.135
12492TIP3   OH237418   1.195   2.903   4.179
12492TIP3    H137419   1.110   2.867   4.201
12492TIP3    H237420   1.187   2.997   4.199
12493TIP3   OH237421   2.472   7.175   1.407
12493TIP3    H137422   2.475   7.182   1.311
12493TIP3    H237423   2.507   7.259   1.438
12494TIP3   OH237424   1.881   6.079   3.165
12494TIP3    H137425   1.827   6.003   3.142
12494TIP3    H237426   1.825   6.132   3.221
12495TIP3   OH237427   3.283   3.621   1.909
12495TIP3    H137428   3.345   3.554   1.938
12495TIP3    H237429   3.249   3.659   1.990
12496TIP3   OH237430   6.066   6.631   3.150
12496TIP3    H137431   6.030   6.677   3.226
12496TIP3    H237432   6.126   6.567   3.187
12497TIP3   OH237433   7.156   2.261   3.655
12497TIP3    H137434   7.172   2.168   3.672
12497TIP3    H237435   7.157   2.302   3.742
12498TIP3   OH237436   6.938   7.124   4.188
12498TIP3    H137437   6.927   7.051   4.249
12498TIP3    H237438   6.868   7.185   4.211
12499TIP3   OH237439   1.572   6.012   2.494
12499TIP3    H137440   1.657   5.992   2.454
12499TIP3    H237441   1.521   6.050   2.422
12500TIP3   OH237442   3.793   5.060   6.080
12500TIP3    H137443   3.807   5.015   6.164
12500TIP3    H237444   3.783   5.152   6.103
12501TIP3   OH237445   2.333   2.951   0.038
12501TIP3    H137446   2.239   2.966   0.027
12501TIP3    H237447   2.345   2.943   0.133
12502TIP3   OH237448   5.087   4.819   2.481
12502TIP3    H137449   5.062   4.728   2.496
12502TIP3    H237450   5.066   4.836   2.389
12503TIP3   OH237451   1.604   7.334   4.297
12503TIP3    H137452   1.553   7.343   4.377
12503TIP3    H237453   1.598   7.241   4.275
12504TIP3   OH237454   1.252   1.390   4.244
12504TIP3    H137455   1.180   1.451   4.226
12504TIP3    H237456   1.310   1.438   4.303
12505TIP3   OH237457   4.825   1.889   0.429
12505TIP3    H137458   4.831   1.858   0.339
12505TIP3    H237459   4.818   1.985   0.421
12506TIP3   OH237460   0.198   1.608   2.501
12506TIP3    H137461   0.253   1.608   2.579
12506TIP3    H237462   0.221   1.688   2.455
12507TIP3   OH237463   6.957   2.826   2.310
12507TIP3    H137464   6.989   2.738   2.288
12507TIP3    H237465   7.030   2.867   2.357
12508TIP3   OH237466   2.193   0.997   4.322
12508TIP3    H137467   2.187   0.993   4.226
12508TIP3    H237468   2.177   1.089   4.342
12509TIP3   OH237469   4.714   4.366   0.769
12509TIP3    H137470   4.654   4.427   0.724
12509TIP3    H237471   4.700   4.282   0.725
12510TIP3   OH237472   6.163   6.641   3.745
12510TIP3    H137473   6.123   6.581   3.682
12510TIP3    H237474   6.201   6.584   3.811
12511TIP3   OH237475   1.690   5.976   3.913
12511TIP3    H137476   1.765   5.931   3.874
12511TIP3    H237477   1.728   6.034   3.979
12512TIP3   OH237478   2.372   5.410   2.424
12512TIP3    H137479   2.400   5.457   2.346
12512TIP3    H237480   2.365   5.477   2.492
12513TIP3   OH237481   6.185   2.447   2.109
12513TIP3    H137482   6.173   2.506   2.034
12513TIP3    H237483   6.254   2.387   2.082
12514TIP3   OH237484   4.710   1.023   1.387
12514TIP3    H137485   4.697   1.070   1.304
12514TIP3    H237486   4.783   1.070   1.429
12515TIP3   OH237487   2.382   2.535   2.053
12515TIP3    H137488   2.288   2.523   2.068
12515TIP3    H237489   2.387   2.583   1.970
12516TIP3   OH237490   5.739   7.422   4.240
12516TIP3    H137491   5.720   7.333   4.268
12516TIP3    H237492   5.710   7.425   4.149
12517TIP3   OH237493   1.802   6.005   6.638
12517TIP3    H137494   1.884   6.022   6.592
12517TIP3    H237495   1.809   5.915   6.670
12518TIP3   OH237496   0.360   4.565   1.699
12518TIP3    H137497   0.428   4.597   1.759
12518TIP3    H237498   0.347   4.474   1.725
12519TIP3   OH237499   4.863   2.434   5.740
12519TIP3    H137500   4.905   2.377   5.675
12519TIP3    H237501   4.812   2.496   5.689
12520TIP3   OH237502   8.041   2.204   5.136
12520TIP3    H137503   7.976   2.165   5.194
12520TIP3    H237504   8.028   2.299   5.144
12521TIP3   OH237505   7.977   4.066   3.091
12521TIP3    H137506   7.967   4.159   3.072
12521TIP3    H237507   7.891   4.039   3.123
12522TIP3   OH237508   5.581   0.850   1.005
12522TIP3    H137509   5.490   0.823   0.997
12522TIP3    H237510   5.593   0.914   0.935
12523TIP3   OH237511   0.863   0.709   3.984
12523TIP3    H137512   0.862   0.613   3.989
12523TIP3    H237513   0.783   0.736   4.028
12524TIP3   OH237514   1.058   5.499   3.301
12524TIP3    H137515   1.110   5.550   3.363
12524TIP3    H237516   0.972   5.541   3.301
12525TIP3   OH237517   1.109   6.104   3.882
12525TIP3    H137518   1.202   6.113   3.864
12525TIP3    H237519   1.102   6.112   3.978
12526TIP3   OH237520   1.052   4.422   0.649
12526TIP3    H137521   1.109   4.429   0.726
12526TIP3    H237522   1.016   4.334   0.655
12527TIP3   OH237523   6.012   1.043   3.586
12527TIP3    H137524   5.984   0.997   3.506
12527TIP3    H237525   5.946   1.019   3.651
12528TIP3   OH237526   4.808   7.640   0.118
12528TIP3    H137527   4.899   7.622   0.095
12528TIP3    H237528   4.788   7.580   0.190
12529TIP3   OH237529   3.891   6.296   3.947
12529TIP3    H137530   3.929   6.227   4.001
12529TIP3    H237531   3.845   6.249   3.877
12530TIP3   OH237532   1.583   4.885   5.345
12530TIP3    H137533   1.506   4.912   5.396
12530TIP3    H237534   1.654   4.882   5.409
12531TIP3   OH237535   6.878   7.817   5.685
12531TIP3    H137536   6.885   7.723   5.668
12531TIP3    H237537   6.786   7.838   5.670
12532TIP3   OH237538   0.252   2.335   4.575
12532TIP3    H137539   0.317   2.283   4.622
12532TIP3    H237540   0.231   2.407   4.635
12533TIP3   OH237541   2.684   4.835   3.847
12533TIP3    H137542   2.767   4.815   3.803
12533TIP3    H237543   2.648   4.909   3.798
12534TIP3   OH237544   0.211   5.618   3.087
12534TIP3    H137545   0.240   5.544   3.139
12534TIP3    H237546   0.283   5.634   3.025
12535TIP3   OH237547   5.389   2.234   4.978
12535TIP3    H137548   5.381   2.139   4.986
12535TIP3    H237549   5.302   2.267   5.000
12536TIP3   OH237550   4.244   6.872   6.180
12536TIP3    H137551   4.290   6.797   6.218
12536TIP3    H237552   4.265   6.944   6.239
12537TIP3   OH237553   4.165   3.240   5.159
12537TIP3    H137554   4.248   3.280   5.136
12537TIP3    H237555   4.181   3.146   5.153
12538TIP3   OH237556   1.795   0.544   3.026
12538TIP3    H137557   1.712   0.566   2.983
12538TIP3    H237558   1.781   0.456   3.062
12539TIP3   OH237559   2.904   6.295   2.821
12539TIP3    H137560   2.889   6.241   2.898
12539TIP3    H237561   2.817   6.307   2.783
12540TIP3   OH237562   4.170   2.052   4.499
12540TIP3    H137563   4.085   2.042   4.456
12540TIP3    H237564   4.175   2.145   4.519
12541TIP3   OH237565   1.679   4.253   2.160
12541TIP3    H137566   1.589   4.262   2.130
12541TIP3    H237567   1.677   4.280   2.252
12542TIP3   OH237568   3.154   1.556   4.683
12542TIP3    H137569   3.177   1.646   4.707
12542TIP3    H237570   3.233   1.505   4.700
12543TIP3   OH237571   4.980   0.863   5.337
12543TIP3    H137572   5.001   0.829   5.250
12543TIP3    H237573   5.054   0.919   5.359
12544TIP3   OH237574   0.372   0.314   4.818
12544TIP3    H137575   0.291   0.356   4.789
12544TIP3    H237576   0.363   0.309   4.913
12545TIP3   OH237577   0.062   5.970   0.840
12545TIP3    H137578  -0.011   5.972   0.777
12545TIP3    H237579   0.139   5.953   0.787
12546TIP3   OH237580   0.137   2.403   5.725
12546TIP3    H137581   0.101   2.373   5.808
12546TIP3    H237582   0.067   2.456   5.686
12547TIP3   OH237583   2.409   7.383   3.450
12547TIP3    H137584   2.435   7.419   3.535
12547TIP3    H237585   2.490   7.348   3.413
12548TIP3   OH237586   4.667   0.983   1.886
12548TIP3    H137587   4.672   1.042   1.962
12548TIP3    H237588   4.754   0.945   1.879
12549TIP3   OH237589   8.115   4.122   4.411
12549TIP3    H137590   8.025   4.110   4.380
12549TIP3    H237591   8.128   4.217   4.411
12550TIP3   OH237592   7.298   7.624   6.723
12550TIP3    H137593   7.254   7.709   6.719
12550TIP3    H237594   7.376   7.640   6.776
12551TIP3   OH237595   7.504   7.196   1.172
12551TIP3    H137596   7.436   7.263   1.160
12551TIP3    H237597   7.564   7.235   1.236
12552TIP3   OH237598   8.174   1.528   3.780
12552TIP3    H137599   8.116   1.594   3.740
12552TIP3    H237600   8.257   1.538   3.735
12553TIP3   OH237601   5.726   4.450   3.110
12553TIP3    H137602   5.652   4.510   3.116
12553TIP3    H237603   5.766   4.471   3.026
12554TIP3   OH237604   6.770   2.536   2.782
12554TIP3    H137605   6.779   2.480   2.858
12554TIP3    H237606   6.756   2.476   2.709
12555TIP3   OH237607   1.933   5.079   0.023
12555TIP3    H137608   1.899   5.083   0.112
12555TIP3    H237609   1.892   5.154  -0.022
12556TIP3   OH237610   5.276   5.414   0.664
12556TIP3    H137611   5.305   5.361   0.589
12556TIP3    H237612   5.182   5.400   0.667
12557TIP3   OH237613   2.470   0.615   0.392
12557TIP3    H137614   2.468   0.692   0.335
12557TIP3    H237615   2.418   0.641   0.469
12558TIP3   OH237616   1.464   4.267   4.398
12558TIP3    H137617   1.416   4.347   4.374
12558TIP3    H237618   1.459   4.264   4.494
12559TIP3   OH237619   4.549   3.438   1.076
12559TIP3    H137620   4.569   3.525   1.042
12559TIP3    H237621   4.573   3.442   1.168
12560TIP3   OH237622   6.851   5.460   4.360
12560TIP3    H137623   6.891   5.525   4.303
12560TIP3    H237624   6.879   5.484   4.448
12561TIP3   OH237625   0.653   0.902   2.473
12561TIP3    H137626   0.663   0.947   2.557
12561TIP3    H237627   0.742   0.883   2.444
12562TIP3   OH237628   5.766   2.434   4.181
12562TIP3    H137629   5.783   2.480   4.263
12562TIP3    H237630   5.734   2.349   4.208
12563TIP3   OH237631   0.458   3.879   1.366
12563TIP3    H137632   0.486   3.788   1.375
12563TIP3    H237633   0.528   3.920   1.315
12564TIP3   OH237634   1.315   2.005   5.255
12564TIP3    H137635   1.270   1.950   5.320
12564TIP3    H237636   1.384   2.049   5.305
12565TIP3   OH237637   5.391   1.115   4.713
12565TIP3    H137638   5.299   1.141   4.717
12565TIP3    H237639   5.432   1.158   4.788
12566TIP3   OH237640   5.047   5.579   4.082
12566TIP3    H137641   5.062   5.650   4.020
12566TIP3    H237642   5.134   5.540   4.095
12567TIP3   OH237643   0.410   6.892   4.576
12567TIP3    H137644   0.393   6.887   4.670
12567TIP3    H237645   0.489   6.838   4.564
12568TIP3   OH237646   3.202   4.394   5.618
12568TIP3    H137647   3.129   4.335   5.599
12568TIP3    H237648   3.279   4.337   5.621
12569TIP3   OH237649   1.472   4.316   4.935
12569TIP3    H137650   1.523   4.397   4.940
12569TIP3    H237651   1.498   4.267   5.012
12570TIP3   OH237652   6.361   7.786   1.244
12570TIP3    H137653   6.300   7.747   1.306
12570TIP3    H237654   6.420   7.714   1.220
12571TIP3   OH237655   5.970   2.574   4.057
12571TIP3    H137656   5.947   2.602   3.968
12571TIP3    H237657   5.891   2.532   4.090
12572TIP3   OH237658   3.935   7.467   6.044
12572TIP3    H137659   4.011   7.430   6.088
12572TIP3    H237660   3.900   7.532   6.106
12573TIP3   OH237661   2.918   4.855   1.777
12573TIP3    H137662   2.896   4.930   1.721
12573TIP3    H237663   2.833   4.818   1.802
12574TIP3   OH237664   3.903   5.526   5.338
12574TIP3    H137665   3.958   5.453   5.311
12574TIP3    H237666   3.944   5.559   5.418
12575TIP3   OH237667   4.331   2.616   3.871
12575TIP3    H137668   4.341   2.597   3.778
12575TIP3    H237669   4.247   2.577   3.894
12576TIP3   OH237670   0.639   1.594   0.973
12576TIP3    H137671   0.718   1.599   1.027
12576TIP3    H237672   0.596   1.514   1.002
12577TIP3   OH237673   4.769   2.249   1.385
12577TIP3    H137674   4.726   2.296   1.314
12577TIP3    H237675   4.827   2.313   1.425
12578TIP3   OH237676   8.096   2.281   0.179
12578TIP3    H137677   8.082   2.186   0.179
12578TIP3    H237678   8.187   2.292   0.153
12579TIP3   OH237679   4.567   4.083   4.631
12579TIP3    H137680   4.491   4.100   4.576
12579TIP3    H237681   4.637   4.136   4.593
12580TIP3   OH237682   2.040   1.360   6.387
12580TIP3    H137683   2.121   1.355   6.338
12580TIP3    H237684   2.022   1.454   6.393
12581TIP3   OH237685   2.340   3.978   4.088
12581TIP3    H137686   2.334   3.882   4.087
12581TIP3    H237687   2.325   4.002   4.179
12582TIP3   OH237688   6.097   3.089   6.582
12582TIP3    H137689   6.014   3.137   6.576
12582TIP3    H237690   6.094   3.025   6.511
12583TIP3   OH237691   0.292   6.172   6.442
12583TIP3    H137692   0.315   6.208   6.357
12583TIP3    H237693   0.210   6.216   6.466
12584TIP3   OH237694   3.163   6.846   2.082
12584TIP3    H137695   3.198   6.783   2.146
12584TIP3    H237696   3.086   6.802   2.047
12585TIP3   OH237697   2.919   2.060   6.748
12585TIP3    H137698   2.891   2.046   6.838
12585TIP3    H237699   2.838   2.074   6.699
12586TIP3   OH237700   6.479   4.062   0.397
12586TIP3    H137701   6.535   4.127   0.354
12586TIP3    H237702   6.437   4.016   0.325
12587TIP3   OH237703   0.315   5.486   2.616
12587TIP3    H137704   0.224   5.459   2.620
12587TIP3    H237705   0.342   5.468   2.526
12588TIP3   OH237706   7.386   1.568   6.375
12588TIP3    H137707   7.437   1.491   6.399
12588TIP3    H237708   7.295   1.543   6.392
12589TIP3   OH237709   5.849   0.574   5.790
12589TIP3    H137710   5.845   0.614   5.703
12589TIP3    H237711   5.911   0.629   5.838
12590TIP3   OH237712   2.882   7.761   2.373
12590TIP3    H137713   2.877   7.812   2.453
12590TIP3    H237714   2.833   7.681   2.392
12591TIP3   OH237715   4.634   5.218   1.877
12591TIP3    H137716   4.628   5.127   1.851
12591TIP3    H237717   4.697   5.256   1.815
12592TIP3   OH237718   7.969   5.772   4.854
12592TIP3    H137719   7.985   5.858   4.816
12592TIP3    H237720   8.055   5.743   4.884
12593TIP3   OH237721   4.597   1.629   2.880
12593TIP3    H137722   4.565   1.615   2.969
12593TIP3    H237723   4.686   1.663   2.891
12594TIP3   OH237724   1.432   1.375   0.827
12594TIP3    H137725   1.378   1.296   0.834
12594TIP3    H237726   1.521   1.344   0.845
12595TIP3   OH237727   5.078   4.102   1.315
12595TIP3    H137728   5.101   4.191   1.289
12595TIP3    H237729   5.078   4.052   1.233
12596TIP3   OH237730   5.796   4.898   1.797
12596TIP3    H137731   5.786   4.960   1.725
12596TIP3    H237732   5.736   4.928   1.864
12597TIP3   OH237733   3.522   4.241   1.373
12597TIP3    H137734   3.468   4.238   1.453
12597TIP3    H237735   3.562   4.328   1.375
12598TIP3   OH237736   6.166   6.036   6.721
12598TIP3    H137737   6.216   5.990   6.654
12598TIP3    H237738   6.081   5.992   6.721
12599TIP3   OH237739   2.624   1.613   4.592
12599TIP3    H137740   2.682   1.630   4.666
12599TIP3    H237741   2.554   1.559   4.629
12600TIP3   OH237742   6.701   7.281   4.243
12600TIP3    H137743   6.622   7.254   4.197
12600TIP3    H237744   6.683   7.265   4.336
12601TIP3   OH237745   2.624   6.615   2.178
12601TIP3    H137746   2.603   6.613   2.272
12601TIP3    H237747   2.592   6.700   2.149
12602TIP3   OH237748   1.799   3.041   5.450
12602TIP3    H137749   1.890   3.010   5.447
12602TIP3    H237750   1.787   3.070   5.540
12603TIP3   OH237751   1.340   3.000   2.604
12603TIP3    H137752   1.315   2.908   2.601
12603TIP3    H237753   1.430   3.002   2.571
12604TIP3   OH237754   4.658   7.259   2.822
12604TIP3    H137755   4.722   7.324   2.852
12604TIP3    H237756   4.579   7.278   2.873
12605TIP3   OH237757   4.690   4.964   2.874
12605TIP3    H137758   4.627   4.934   2.810
12605TIP3    H237759   4.691   5.059   2.864
12606TIP3   OH237760   6.127   3.444   0.862
12606TIP3    H137761   6.074   3.521   0.881
12606TIP3    H237762   6.216   3.469   0.887
12607TIP3   OH237763   1.367   0.027   1.560
12607TIP3    H137764   1.372  -0.041   1.494
12607TIP3    H237765   1.432   0.002   1.626
12608TIP3   OH237766   6.617   3.493   2.390
12608TIP3    H137767   6.613   3.565   2.327
12608TIP3    H237768   6.691   3.440   2.362
12609TIP3   OH237769   5.967   1.016   2.029
12609TIP3    H137770   5.949   0.935   2.076
12609TIP3    H237771   5.883   1.039   1.989
12610TIP3   OH237772   5.034   3.341   5.098
12610TIP3    H137773   5.000   3.400   5.030
12610TIP3    H237774   4.968   3.346   5.168
12611TIP3   OH237775   3.652   4.206   5.034
12611TIP3    H137776   3.581   4.228   5.095
12611TIP3    H237777   3.730   4.243   5.075
12612TIP3   OH237778   4.595   3.527   4.922
12612TIP3    H137779   4.519   3.497   4.973
12612TIP3    H237780   4.665   3.467   4.946
12613TIP3   OH237781   5.446   7.429   4.726
12613TIP3    H137782   5.420   7.454   4.638
12613TIP3    H237783   5.370   7.452   4.780
12614TIP3   OH237784   0.560   6.507   6.342
12614TIP3    H137785   0.492   6.535   6.280
12614TIP3    H237786   0.602   6.588   6.370
12615TIP3   OH237787   5.499   7.374   5.252
12615TIP3    H137788   5.562   7.370   5.179
12615TIP3    H237789   5.533   7.444   5.308
12616TIP3   OH237790   7.168   5.149   6.406
12616TIP3    H137791   7.195   5.059   6.388
12616TIP3    H237792   7.249   5.194   6.428
12617TIP3   OH237793   2.193   3.263   5.046
12617TIP3    H137794   2.222   3.324   4.978
12617TIP3    H237795   2.261   3.267   5.113
12618TIP3   OH237796   6.067   3.363   1.817
12618TIP3    H137797   5.992   3.315   1.851
12618TIP3    H237798   6.128   3.367   1.891
12619TIP3   OH237799   5.393   2.445   3.452
12619TIP3    H137800   5.408   2.351   3.458
12619TIP3    H237801   5.309   2.459   3.497
12620TIP3   OH237802   6.102   5.081   2.998
12620TIP3    H137803   6.072   5.170   3.017
12620TIP3    H237804   6.107   5.078   2.902
12621TIP3   OH237805   7.512   2.124   3.087
12621TIP3    H137806   7.476   2.129   3.175
12621TIP3    H237807   7.450   2.069   3.039
12622TIP3   OH237808   0.408   3.123   6.054
12622TIP3    H137809   0.349   3.050   6.074
12622TIP3    H237810   0.431   3.160   6.139
12623TIP3   OH237811   0.667   4.956   5.713
12623TIP3    H137812   0.701   5.044   5.732
12623TIP3    H237813   0.574   4.969   5.697
12624TIP3   OH237814   3.049   5.707   3.072
12624TIP3    H137815   3.131   5.732   3.029
12624TIP3    H237816   3.048   5.758   3.153
12625TIP3   OH237817   2.778   4.331   2.446
12625TIP3    H137818   2.779   4.411   2.500
12625TIP3    H237819   2.830   4.268   2.496
12626TIP3   OH237820   4.390   2.150   0.561
12626TIP3    H137821   4.389   2.142   0.465
12626TIP3    H237822   4.479   2.128   0.586
12627TIP3   OH237823   0.908   1.047   3.820
12627TIP3    H137824   0.942   1.089   3.900
12627TIP3    H237825   0.816   1.030   3.839
12628TIP3   OH237826   7.597   3.254   2.616
12628TIP3    H137827   7.671   3.215   2.662
12628TIP3    H237828   7.612   3.233   2.523
12629TIP3   OH237829   6.115   5.214   4.000
12629TIP3    H137830   6.169   5.142   4.033
12629TIP3    H237831   6.032   5.206   4.047
12630TIP3   OH237832   4.006   5.862   6.689
12630TIP3    H137833   4.029   5.804   6.761
12630TIP3    H237834   3.950   5.809   6.632
12631TIP3   OH237835   1.737   3.926   0.896
12631TIP3    H137836   1.830   3.939   0.877
12631TIP3    H237837   1.704   3.877   0.821
12632TIP3   OH237838   3.295   3.911   6.525
12632TIP3    H137839   3.348   3.988   6.504
12632TIP3    H237840   3.358   3.844   6.548
12633TIP3   OH237841   4.078   3.095   6.152
12633TIP3    H137842   4.016   3.105   6.224
12633TIP3    H237843   4.056   3.010   6.113
12634TIP3   OH237844   1.697   2.776   6.229
12634TIP3    H137845   1.750   2.698   6.250
12634TIP3    H237846   1.751   2.824   6.166
12635TIP3   OH237847   3.612   6.039   3.411
12635TIP3    H137848   3.528   6.024   3.455
12635TIP3    H237849   3.673   5.980   3.455
12636TIP3   OH237850   0.122   6.172   1.902
12636TIP3    H137851   0.177   6.233   1.950
12636TIP3    H237852   0.111   6.211   1.815
12637TIP3   OH237853   7.314   2.237   5.119
12637TIP3    H137854   7.354   2.281   5.044
12637TIP3    H237855   7.277   2.156   5.082
12638TIP3   OH237856   6.359   6.794   2.124
12638TIP3    H137857   6.419   6.858   2.162
12638TIP3    H237858   6.373   6.800   2.030
12639TIP3   OH237859   5.411   5.676   2.227
12639TIP3    H137860   5.400   5.758   2.179
12639TIP3    H237861   5.505   5.659   2.223
12640TIP3   OH237862   1.433   6.209   6.041
12640TIP3    H137863   1.490   6.284   6.023
12640TIP3    H237864   1.376   6.203   5.965
12641TIP3   OH237865   4.976   7.043   2.213
12641TIP3    H137866   4.931   7.127   2.202
12641TIP3    H237867   4.914   6.979   2.179
12642TIP3   OH237868   0.718   5.663   4.098
12642TIP3    H137869   0.813   5.654   4.101
12642TIP3    H237870   0.685   5.592   4.154
12643TIP3   OH237871   2.399   5.154   0.270
12643TIP3    H137872   2.472   5.145   0.209
12643TIP3    H237873   2.388   5.066   0.307
12644TIP3   OH237874   8.242   0.256   4.701
12644TIP3    H137875   8.189   0.259   4.622
12644TIP3    H237876   8.308   0.325   4.689
12645TIP3   OH237877   7.094   2.143   5.926
12645TIP3    H137878   7.050   2.072   5.878
12645TIP3    H237879   7.057   2.138   6.015
12646TIP3   OH237880   2.973   4.206   1.580
12646TIP3    H137881   3.022   4.265   1.638
12646TIP3    H237882   2.899   4.258   1.549
12647TIP3   OH237883   8.086   5.633   5.204
12647TIP3    H137884   8.037   5.715   5.212
12647TIP3    H237885   8.178   5.659   5.215
12648TIP3   OH237886   1.275   0.718   2.507
12648TIP3    H137887   1.326   0.798   2.517
12648TIP3    H237888   1.263   0.708   2.413
12649TIP3   OH237889   3.798   7.646   3.194
12649TIP3    H137890   3.849   7.571   3.163
12649TIP3    H237891   3.707   7.618   3.185
12650TIP3   OH237892   2.873   0.631   1.367
12650TIP3    H137893   2.939   0.619   1.299
12650TIP3    H237894   2.913   0.691   1.430
12651TIP3   OH237895   3.552   7.417   4.098
12651TIP3    H137896   3.619   7.438   4.034
12651TIP3    H237897   3.479   7.382   4.046
12652TIP3   OH237898   2.231   0.926   2.936
12652TIP3    H137899   2.251   0.874   3.014
12652TIP3    H237900   2.314   0.970   2.915
12653TIP3   OH237901   7.595   7.480   1.986
12653TIP3    H137902   7.524   7.500   1.925
12653TIP3    H237903   7.577   7.391   2.016
12654TIP3   OH237904   5.337   5.383   1.784
12654TIP3    H137905   5.267   5.446   1.797
12654TIP3    H237906   5.402   5.403   1.852
12655TIP3   OH237907   6.892   5.220   5.773
12655TIP3    H137908   6.958   5.181   5.716
12655TIP3    H237909   6.847   5.283   5.718
12656TIP3   OH237910   7.260   4.281   2.556
12656TIP3    H137911   7.262   4.186   2.568
12656TIP3    H237912   7.168   4.301   2.535
12657TIP3   OH237913   3.609   4.177   6.651
12657TIP3    H137914   3.609   4.113   6.722
12657TIP3    H237915   3.702   4.188   6.630
12658TIP3   OH237916   7.558   4.289   2.421
12658TIP3    H137917   7.554   4.233   2.499
12658TIP3    H237918   7.480   4.345   2.427
12659TIP3   OH237919   2.398   3.765   0.420
12659TIP3    H137920   2.451   3.689   0.395
12659TIP3    H237921   2.454   3.840   0.403
12660TIP3   OH237922   2.008   0.028   0.513
12660TIP3    H137923   2.101   0.047   0.497
12660TIP3    H237924   1.964   0.057   0.433
12661TIP3   OH237925   1.085   2.710   0.447
12661TIP3    H137926   0.990   2.722   0.443
12661TIP3    H237927   1.121   2.782   0.396
12662TIP3   OH237928   0.025   6.277   1.125
12662TIP3    H137929   0.019   6.350   1.063
12662TIP3    H237930   0.093   6.220   1.090
12663TIP3   OH237931   2.305   5.324   5.680
12663TIP3    H137932   2.359   5.289   5.751
12663TIP3    H237933   2.215   5.306   5.707
12664TIP3   OH237934   6.694   1.618   2.678
12664TIP3    H137935   6.674   1.563   2.754
12664TIP3    H237936   6.754   1.565   2.625
12665TIP3   OH237937   1.226   4.341   5.822
12665TIP3    H137938   1.247   4.251   5.797
12665TIP3    H237939   1.249   4.346   5.915
12666TIP3   OH237940   0.879   7.625   6.359
12666TIP3    H137941   0.828   7.683   6.415
12666TIP3    H237942   0.970   7.635   6.389
12667TIP3   OH237943   4.828   3.623   2.803
12667TIP3    H137944   4.782   3.683   2.745
12667TIP3    H237945   4.779   3.542   2.799
12668TIP3   OH237946   5.047   6.497   5.266
12668TIP3    H137947   4.993   6.421   5.288
12668TIP3    H237948   4.985   6.571   5.270
12669TIP3   OH237949   5.045   4.149   2.896
12669TIP3    H137950   5.016   4.189   2.978
12669TIP3    H237951   4.965   4.121   2.854
12670TIP3   OH237952   0.222   1.638   1.469
12670TIP3    H137953   0.256   1.575   1.405
12670TIP3    H237954   0.270   1.719   1.450
12671TIP3   OH237955   3.063   3.541   0.101
12671TIP3    H137956   2.969   3.543   0.118
12671TIP3    H237957   3.072   3.494   0.018
12672TIP3   OH237958   7.989   0.402   1.857
12672TIP3    H137959   7.912   0.457   1.869
12672TIP3    H237960   7.956   0.313   1.863
12673TIP3   OH237961   3.590   0.336   4.210
12673TIP3    H137962   3.639   0.391   4.271
12673TIP3    H237963   3.557   0.397   4.144
12674TIP3   OH237964   3.921   6.421   5.952
12674TIP3    H137965   3.895   6.417   6.044
12674TIP3    H237966   3.872   6.496   5.917
12675TIP3   OH237967   2.326   0.284   6.133
12675TIP3    H137968   2.288   0.353   6.186
12675TIP3    H237969   2.420   0.305   6.130
12676TIP3   OH237970   7.083   5.449   6.587
12676TIP3    H137971   7.173   5.439   6.618
12676TIP3    H237972   7.059   5.362   6.554
12677TIP3   OH237973   5.610   6.424   5.318
12677TIP3    H137974   5.580   6.513   5.300
12677TIP3    H237975   5.682   6.410   5.257
12678TIP3   OH237976   5.043   3.881   5.630
12678TIP3    H137977   5.111   3.824   5.595
12678TIP3    H237978   5.041   3.956   5.571
12679TIP3   OH237979   2.336   0.843   3.519
12679TIP3    H137980   2.310   0.767   3.467
12679TIP3    H237981   2.428   0.826   3.541
12680TIP3   OH237982   2.026   7.536   6.103
12680TIP3    H137983   2.034   7.536   6.007
12680TIP3    H237984   2.034   7.628   6.127
12681TIP3   OH237985   4.359   1.609   1.732
12681TIP3    H137986   4.370   1.704   1.733
12681TIP3    H237987   4.350   1.586   1.825
12682TIP3   OH237988   5.589   4.400   4.639
12682TIP3    H137989   5.501   4.382   4.673
12682TIP3    H237990   5.648   4.361   4.704
12683TIP3   OH237991   0.589   0.369   3.351
12683TIP3    H137992   0.622   0.296   3.403
12683TIP3    H237993   0.537   0.421   3.414
12684TIP3   OH237994   1.717   4.207   5.974
12684TIP3    H137995   1.783   4.139   5.987
12684TIP3    H237996   1.635   4.158   5.962
12685TIP3   OH237997   5.457   4.392   6.083
12685TIP3    H137998   5.458   4.485   6.106
12685TIP3    H237999   5.449   4.347   6.168
12686TIP3   OH238000   3.291   3.883   5.806
12686TIP3    H138001   3.327   3.823   5.872
12686TIP3    H238002   3.358   3.885   5.737
12687TIP3   OH238003   1.085   7.135   6.643
12687TIP3    H138004   1.172   7.174   6.634
12687TIP3    H238005   1.063   7.147   6.736
12688TIP3   OH238006   2.470   5.164   3.906
12688TIP3    H138007   2.397   5.226   3.902
12688TIP3    H238008   2.439   5.094   3.964
12689TIP3   OH238009   5.940   5.454   4.976
12689TIP3    H138010   6.027   5.421   4.955
12689TIP3    H238011   5.896   5.380   5.020
12690TIP3   OH238012   4.137   6.728   6.451
12690TIP3    H138013   4.083   6.680   6.387
12690TIP3    H238014   4.079   6.739   6.527
12691TIP3   OH238015   1.654   6.750   3.042
12691TIP3    H138016   1.617   6.818   2.986
12691TIP3    H238017   1.749   6.762   3.035
12692TIP3   OH238018   0.228   1.264   4.827
12692TIP3    H138019   0.221   1.178   4.869
12692TIP3    H238020   0.311   1.260   4.778
12693TIP3   OH238021   4.965   6.447   3.957
12693TIP3    H138022   5.000   6.456   3.868
12693TIP3    H238023   5.039   6.465   4.015
12694TIP3   OH238024   0.955   5.101   5.229
12694TIP3    H138025   0.903   5.087   5.150
12694TIP3    H238026   0.891   5.120   5.297
12695TIP3   OH238027   1.988   0.843   3.940
12695TIP3    H138028   1.933   0.853   4.017
12695TIP3    H238029   2.045   0.920   3.941
12696TIP3   OH238030   0.591   2.636   0.109
12696TIP3    H138031   0.550   2.705   0.161
12696TIP3    H238032   0.605   2.676   0.023
12697TIP3   OH238033   4.170   4.115   6.414
12697TIP3    H138034   4.197   4.084   6.327
12697TIP3    H238035   4.252   4.126   6.462
12698TIP3   OH238036   6.101   5.991   2.483
12698TIP3    H138037   6.124   6.077   2.448
12698TIP3    H238038   6.154   5.982   2.562
12699TIP3   OH238039   8.078   7.643   0.395
12699TIP3    H138040   8.167   7.609   0.386
12699TIP3    H238041   8.075   7.677   0.484
12700TIP3   OH238042   6.730   4.695   0.207
12700TIP3    H138043   6.652   4.638   0.202
12700TIP3    H238044   6.704   4.766   0.265
12701TIP3   OH238045   7.610   1.463   0.069
12701TIP3    H138046   7.522   1.427   0.057
12701TIP3    H238047   7.618   1.478   0.163
12702TIP3   OH238048   8.198   4.413   4.086
12702TIP3    H138049   8.173   4.357   4.160
12702TIP3    H238050   8.118   4.422   4.035
12703TIP3   OH238051   0.061   4.177   4.046
12703TIP3    H138052   0.021   4.264   4.047
12703TIP3    H238053   0.081   4.159   4.138
12704TIP3   OH238054   3.936   6.269   3.120
12704TIP3    H138055   3.936   6.174   3.107
12704TIP3    H238056   3.878   6.283   3.194
12705TIP3   OH238057   3.570   1.495   2.616
12705TIP3    H138058   3.499   1.528   2.672
12705TIP3    H238059   3.537   1.504   2.527
12706TIP3   OH238060   3.115   3.651   4.236
12706TIP3    H138061   3.131   3.728   4.289
12706TIP3    H238062   3.020   3.651   4.222
12707TIP3   OH238063   4.676   2.930   3.970
12707TIP3    H138064   4.762   2.947   3.929
12707TIP3    H238065   4.690   2.850   4.021
12708TIP3   OH238066   4.305   0.071   2.801
12708TIP3    H138067   4.369   0.111   2.860
12708TIP3    H238068   4.222   0.111   2.826
12709TIP3   OH238069   5.431   4.860   3.718
12709TIP3    H138070   5.357   4.917   3.699
12709TIP3    H238071   5.410   4.820   3.802
12710TIP3   OH238072   6.492   7.276   2.425
12710TIP3    H138073   6.431   7.349   2.417
12710TIP3    H238074   6.438   7.202   2.452
12711TIP3   OH238075   1.856   3.367   2.072
12711TIP3    H138076   1.865   3.278   2.107
12711TIP3    H238077   1.768   3.394   2.100
12712TIP3   OH238078   6.357   3.824   3.005
12712TIP3    H138079   6.352   3.894   3.070
12712TIP3    H238080   6.295   3.850   2.936
12713TIP3   OH238081   6.581   1.971   6.709
12713TIP3    H138082   6.489   1.995   6.714
12713TIP3    H238083   6.606   1.952   6.799
12714TIP3   OH238084   4.994   7.461   5.650
12714TIP3    H138085   5.018   7.369   5.665
12714TIP3    H238086   5.073   7.500   5.614
12715TIP3   OH238087   4.307   2.043   5.952
12715TIP3    H138088   4.240   2.065   5.887
12715TIP3    H238089   4.296   2.110   6.020
12716TIP3   OH238090   2.362   0.407   6.753
12716TIP3    H138091   2.278   0.373   6.722
12716TIP3    H238092   2.412   0.423   6.673
12717TIP3   OH238093   7.715   1.790   1.851
12717TIP3    H138094   7.756   1.762   1.769
12717TIP3    H238095   7.778   1.765   1.918
12718TIP3   OH238096   5.844   3.569   2.501
12718TIP3    H138097   5.856   3.481   2.464
12718TIP3    H238098   5.787   3.556   2.577
12719TIP3   OH238099   7.591   2.639   5.817
12719TIP3    H138100   7.601   2.732   5.836
12719TIP3    H238101   7.651   2.623   5.745
12720TIP3   OH238102   4.448   6.724   5.309
12720TIP3    H138103   4.376   6.786   5.317
12720TIP3    H238104   4.412   6.641   5.338
12721TIP3   OH238105   3.529   1.640   1.653
12721TIP3    H138106   3.554   1.683   1.735
12721TIP3    H238107   3.458   1.580   1.677
12722TIP3   OH238108   7.830   2.099   2.090
12722TIP3    H138109   7.795   2.125   2.176
12722TIP3    H238110   7.839   2.004   2.096
12723TIP3   OH238111   5.091   7.224   0.609
12723TIP3    H138112   5.187   7.228   0.603
12723TIP3    H238113   5.072   7.248   0.699
12724TIP3   OH238114   3.199   1.392   5.175
12724TIP3    H138115   3.139   1.461   5.203
12724TIP3    H238116   3.155   1.310   5.200
12725TIP3   OH238117   1.645   0.547   3.346
12725TIP3    H138118   1.557   0.533   3.381
12725TIP3    H238119   1.697   0.474   3.381
12726TIP3   OH238120   5.633   2.325   5.989
12726TIP3    H138121   5.592   2.388   6.048
12726TIP3    H238122   5.611   2.356   5.901
12727TIP3   OH238123   1.584   6.166   6.588
12727TIP3    H138124   1.528   6.117   6.648
12727TIP3    H238125   1.667   6.117   6.587
12728TIP3   OH238126   4.951   6.837   4.323
12728TIP3    H138127   5.034   6.832   4.275
12728TIP3    H238128   4.884   6.832   4.255
12729TIP3   OH238129   6.077   3.511   0.094
12729TIP3    H138130   6.144   3.579   0.094
12729TIP3    H238131   6.038   3.515   0.007
12730TIP3   OH238132   7.914   0.859   2.864
12730TIP3    H138133   7.998   0.878   2.823
12730TIP3    H238134   7.931   0.866   2.958
12731TIP3   OH238135   5.761   3.399   3.694
12731TIP3    H138136   5.713   3.358   3.765
12731TIP3    H238137   5.842   3.348   3.686
12732TIP3   OH238138   7.622   1.875   5.269
12732TIP3    H138139   7.701   1.836   5.231
12732TIP3    H238140   7.559   1.804   5.271
12733TIP3   OH238141   3.280   6.765   3.552
12733TIP3    H138142   3.277   6.710   3.474
12733TIP3    H238143   3.255   6.852   3.520
12734TIP3   OH238144   1.190   2.274   4.576
12734TIP3    H138145   1.237   2.334   4.634
12734TIP3    H238146   1.169   2.199   4.631
12735TIP3   OH238147   2.142   7.303   2.413
12735TIP3    H138148   2.094   7.256   2.344
12735TIP3    H238149   2.078   7.366   2.447
12736TIP3   OH238150   8.172   2.814   4.274
12736TIP3    H138151   8.112   2.742   4.290
12736TIP3    H238152   8.164   2.832   4.180
12737TIP3   OH238153   6.577   3.123   2.768
12737TIP3    H138154   6.510   3.137   2.700
12737TIP3    H238155   6.660   3.137   2.723
12738TIP3   OH238156   1.103   5.549   0.280
12738TIP3    H138157   1.097   5.495   0.359
12738TIP3    H238158   1.137   5.633   0.312
12739TIP3   OH238159   0.884   4.705   3.285
12739TIP3    H138160   0.936   4.772   3.242
12739TIP3    H238161   0.947   4.637   3.309
12740TIP3   OH238162   2.811   5.970   6.478
12740TIP3    H138163   2.731   5.973   6.426
12740TIP3    H238164   2.844   5.881   6.467
12741TIP3   OH238165   2.201   6.438   3.147
12741TIP3    H138166   2.154   6.377   3.091
12741TIP3    H238167   2.180   6.524   3.111
12742TIP3   OH238168   3.310   7.630   4.290
12742TIP3    H138169   3.346   7.710   4.330
12742TIP3    H238170   3.376   7.563   4.308
12743TIP3   OH238171   2.448   3.553   3.415
12743TIP3    H138172   2.451   3.636   3.367
12743TIP3    H238173   2.450   3.486   3.347
12744TIP3   OH238174   2.009   4.568   6.711
12744TIP3    H138175   2.084   4.616   6.745
12744TIP3    H238176   1.933   4.611   6.749
12745TIP3   OH238177   8.172   0.482   5.872
12745TIP3    H138178   8.161   0.576   5.865
12745TIP3    H238179   8.178   0.466   5.967
12746TIP3   OH238180   4.614   3.381   6.085
12746TIP3    H138181   4.570   3.345   6.007
12746TIP3    H238182   4.692   3.424   6.051
12747TIP3   OH238183   3.588   5.014   0.936
12747TIP3    H138184   3.571   5.047   0.847
12747TIP3    H238185   3.623   5.089   0.983
12748TIP3   OH238186   4.312   6.063   4.735
12748TIP3    H138187   4.273   5.984   4.772
12748TIP3    H238188   4.323   6.042   4.642
12749TIP3   OH238189   6.564   3.760   1.443
12749TIP3    H138190   6.536   3.741   1.533
12749TIP3    H238191   6.483   3.757   1.391
12750TIP3   OH238192   0.001   0.042   1.935
12750TIP3    H138193   0.040   0.128   1.952
12750TIP3    H238194   0.074  -0.019   1.942
12751TIP3   OH238195   7.327   1.163   4.705
12751TIP3    H138196   7.358   1.243   4.663
12751TIP3    H238197   7.286   1.194   4.787
12752TIP3   OH238198   6.054   2.976   4.593
12752TIP3    H138199   6.084   3.049   4.539
12752TIP3    H238200   5.962   2.963   4.567
12753TIP3   OH238201   1.399   4.042   4.250
12753TIP3    H138202   1.337   3.987   4.298
12753TIP3    H238203   1.424   4.110   4.313
12754TIP3   OH238204   3.288   6.980   1.440
12754TIP3    H138205   3.301   6.995   1.347
12754TIP3    H238206   3.195   7.000   1.455
12755TIP3   OH238207   2.850   4.940   5.294
12755TIP3    H138208   2.781   4.990   5.251
12755TIP3    H238209   2.808   4.902   5.371
12756TIP3   OH238210   6.983   5.940   5.265
12756TIP3    H138211   7.022   5.862   5.303
12756TIP3    H238212   6.925   5.974   5.334
12757TIP3   OH238213   2.418   2.845   5.379
12757TIP3    H138214   2.496   2.881   5.335
12757TIP3    H238215   2.442   2.844   5.472
12758TIP3   OH238216   2.978   4.758   4.581
12758TIP3    H138217   3.043   4.810   4.535
12758TIP3    H238218   2.978   4.792   4.671
12759TIP3   OH238219   7.726   4.795   2.116
12759TIP3    H138220   7.691   4.789   2.205
12759TIP3    H238221   7.681   4.870   2.078
12760TIP3   OH238222   3.616   6.875   4.661
12760TIP3    H138223   3.520   6.871   4.665
12760TIP3    H238224   3.634   6.954   4.610
12761TIP3   OH238225   2.647   0.907   0.604
12761TIP3    H138226   2.675   0.930   0.515
12761TIP3    H238227   2.552   0.904   0.599
12762TIP3   OH238228   4.291   0.245   2.068
12762TIP3    H138229   4.340   0.327   2.071
12762TIP3    H238230   4.200   0.271   2.062
12763TIP3   OH238231   3.534   1.844   4.908
12763TIP3    H138232   3.516   1.761   4.953
12763TIP3    H238233   3.449   1.889   4.906
12764TIP3   OH238234   0.208   2.858   1.527
12764TIP3    H138235   0.179   2.917   1.457
12764TIP3    H238236   0.284   2.903   1.565
12765TIP3   OH238237   0.401   2.289   3.279
12765TIP3    H138238   0.410   2.344   3.358
12765TIP3    H238239   0.486   2.296   3.236
12766TIP3   OH238240   3.199   7.007   3.435
12766TIP3    H138241   3.156   6.972   3.357
12766TIP3    H238242   3.207   7.101   3.418
12767TIP3   OH238243   1.914   5.840   4.494
12767TIP3    H138244   1.864   5.850   4.575
12767TIP3    H238245   1.958   5.924   4.482
12768TIP3   OH238246   4.305   4.742   6.756
12768TIP3    H138247   4.274   4.651   6.760
12768TIP3    H238248   4.397   4.735   6.733
12769TIP3   OH238249   3.869   0.043   3.362
12769TIP3    H138250   3.821   0.078   3.287
12769TIP3    H238251   3.869  -0.052   3.349
12770TIP3   OH238252   4.672   1.515   6.237
12770TIP3    H138253   4.634   1.449   6.178
12770TIP3    H238254   4.618   1.593   6.224
12771TIP3   OH238255   0.256   7.329   3.952
12771TIP3    H138256   0.280   7.354   3.863
12771TIP3    H238257   0.253   7.233   3.950
12772TIP3   OH238258   0.940   3.294   0.709
12772TIP3    H138259   0.923   3.354   0.637
12772TIP3    H238260   0.854   3.258   0.732
12773TIP3   OH238261   0.846   6.308   0.625
12773TIP3    H138262   0.816   6.228   0.669
12773TIP3    H238263   0.766   6.355   0.602
12774TIP3   OH238264   6.119   6.864   2.241
12774TIP3    H138265   6.205   6.828   2.219
12774TIP3    H238266   6.136   6.925   2.313
12775TIP3   OH238267   2.585   6.710   3.673
12775TIP3    H138268   2.505   6.733   3.627
12775TIP3    H238269   2.633   6.792   3.683
12776TIP3   OH238270   8.109   2.284   3.480
12776TIP3    H138271   8.125   2.315   3.569
12776TIP3    H238272   8.085   2.191   3.492
12777TIP3   OH238273   2.199   5.182   2.449
12777TIP3    H138274   2.203   5.275   2.427
12777TIP3    H238275   2.224   5.179   2.542
12778TIP3   OH238276   1.474   7.113   5.000
12778TIP3    H138277   1.482   7.167   4.921
12778TIP3    H238278   1.544   7.144   5.057
12779TIP3   OH238279   4.579   0.944   5.275
12779TIP3    H138280   4.524   0.969   5.349
12779TIP3    H238281   4.657   0.998   5.285
12780TIP3   OH238282   5.535   3.840   2.885
12780TIP3    H138283   5.551   3.889   2.966
12780TIP3    H238284   5.460   3.784   2.907
12781TIP3   OH238285   4.494   5.450   4.913
12781TIP3    H138286   4.453   5.402   4.985
12781TIP3    H238287   4.549   5.515   4.956
12782TIP3   OH238288   0.058   6.254   6.506
12782TIP3    H138289  -0.005   6.212   6.447
12782TIP3    H238290   0.005   6.311   6.561
12783TIP3   OH238291   5.171   4.132   1.646
12783TIP3    H138292   5.217   4.089   1.718
12783TIP3    H238293   5.176   4.225   1.667
12784TIP3   OH238294   2.538   7.153   6.663
12784TIP3    H138295   2.605   7.102   6.709
12784TIP3    H238296   2.561   7.144   6.570
12785TIP3   OH238297   6.188   7.312   4.100
12785TIP3    H138298   6.153   7.284   4.185
12785TIP3    H238299   6.175   7.407   4.100
12786TIP3   OH238300   2.086   0.287   4.194
12786TIP3    H138301   2.076   0.307   4.287
12786TIP3    H238302   2.116   0.196   4.192
12787TIP3   OH238303   3.284   5.827   0.171
12787TIP3    H138304   3.299   5.806   0.079
12787TIP3    H238305   3.200   5.874   0.171
12788TIP3   OH238306   8.104   0.275   3.803
12788TIP3    H138307   8.115   0.242   3.714
12788TIP3    H238308   8.079   0.367   3.791
12789TIP3   OH238309   1.378   1.560   1.014
12789TIP3    H138310   1.414   1.520   1.094
12789TIP3    H238311   1.400   1.497   0.945
12790TIP3   OH238312   3.804   2.560   3.919
12790TIP3    H138313   3.745   2.488   3.942
12790TIP3    H238314   3.764   2.600   3.841
12791TIP3   OH238315   2.426   6.109   1.291
12791TIP3    H138316   2.389   6.039   1.237
12791TIP3    H238317   2.422   6.075   1.380
12792TIP3   OH238318   7.632   0.853   5.998
12792TIP3    H138319   7.680   0.785   6.045
12792TIP3    H238320   7.566   0.884   6.060
12793TIP3   OH238321   0.248   7.809   4.001
12793TIP3    H138322   0.313   7.745   4.032
12793TIP3    H238323   0.178   7.756   3.965
12794TIP3   OH238324   2.962   2.265   1.742
12794TIP3    H138325   3.001   2.245   1.657
12794TIP3    H238326   3.036   2.294   1.796
12795TIP3   OH238327   6.808   0.106   6.274
12795TIP3    H138328   6.830   0.199   6.271
12795TIP3    H238329   6.892   0.061   6.270
12796TIP3   OH238330   1.785   5.539   4.423
12796TIP3    H138331   1.814   5.509   4.337
12796TIP3    H238332   1.833   5.620   4.438
12797TIP3   OH238333   6.771   3.398   0.466
12797TIP3    H138334   6.706   3.465   0.487
12797TIP3    H238335   6.820   3.435   0.392
12798TIP3   OH238336   2.696   3.088   0.764
12798TIP3    H138337   2.695   3.058   0.855
12798TIP3    H238338   2.633   3.160   0.761
12799TIP3   OH238339   1.808   2.823   3.122
12799TIP3    H138340   1.877   2.769   3.162
12799TIP3    H238341   1.727   2.784   3.153
12800TIP3   OH238342   5.229   2.823   0.468
12800TIP3    H138343   5.204   2.836   0.376
12800TIP3    H238344   5.291   2.893   0.487
12801TIP3   OH238345   2.188   7.139   1.522
12801TIP3    H138346   2.137   7.149   1.442
12801TIP3    H238347   2.268   7.190   1.505
12802TIP3   OH238348   7.847   6.953   6.390
12802TIP3    H138349   7.808   6.918   6.310
12802TIP3    H238350   7.784   7.018   6.421
12803TIP3   OH238351   1.337   4.697   2.230
12803TIP3    H138352   1.295   4.705   2.145
12803TIP3    H238353   1.349   4.787   2.260
12804TIP3   OH238354   6.451   5.716   3.103
12804TIP3    H138355   6.481   5.802   3.134
12804TIP3    H238356   6.461   5.720   3.008
12805TIP3   OH238357   2.653   1.877   3.941
12805TIP3    H138358   2.698   1.852   4.022
12805TIP3    H238359   2.676   1.969   3.928
12806TIP3   OH238360   3.984   3.524   4.862
12806TIP3    H138361   3.996   3.589   4.932
12806TIP3    H238362   3.940   3.571   4.792
12807TIP3   OH238363   7.986   6.005   4.626
12807TIP3    H138364   7.929   6.031   4.554
12807TIP3    H238365   7.996   6.085   4.678
12808TIP3   OH238366   3.938   3.109   0.432
12808TIP3    H138367   3.931   3.038   0.496
12808TIP3    H238368   3.848   3.126   0.405
12809TIP3   OH238369   2.497   6.583   3.198
12809TIP3    H138370   2.432   6.634   3.150
12809TIP3    H238371   2.563   6.648   3.224
12810TIP3   OH238372   4.097   2.216   5.819
12810TIP3    H138373   4.047   2.262   5.887
12810TIP3    H238374   4.164   2.279   5.792
12811TIP3   OH238375   5.428   1.871   2.209
12811TIP3    H138376   5.335   1.849   2.205
12811TIP3    H238377   5.473   1.790   2.186
12812TIP3   OH238378   5.181   3.975   6.584
12812TIP3    H138379   5.233   4.035   6.636
12812TIP3    H238380   5.091   4.007   6.592
12813TIP3   OH238381   6.004   4.888   3.149
12813TIP3    H138382   6.050   4.953   3.096
12813TIP3    H238383   6.051   4.806   3.133
12814TIP3   OH238384   1.106   3.599   0.316
12814TIP3    H138385   1.073   3.685   0.291
12814TIP3    H238386   1.199   3.603   0.297
12815TIP3   OH238387   2.185   6.433   3.415
12815TIP3    H138388   2.206   6.340   3.417
12815TIP3    H238389   2.178   6.454   3.321
12816TIP3   OH238390   6.630   0.641   5.044
12816TIP3    H138391   6.557   0.618   5.101
12816TIP3    H238392   6.596   0.711   4.988
12817TIP3   OH238393   1.976   2.134   5.331
12817TIP3    H138394   2.067   2.147   5.360
12817TIP3    H238395   1.969   2.040   5.316
12818TIP3   OH238396   0.725   7.722   0.833
12818TIP3    H138397   0.684   7.788   0.777
12818TIP3    H238398   0.791   7.770   0.883
12819TIP3   OH238399   5.482   3.143   5.405
12819TIP3    H138400   5.459   3.091   5.328
12819TIP3    H238401   5.450   3.231   5.385
12820TIP3   OH238402   1.359   5.036   1.079
12820TIP3    H138403   1.372   4.944   1.103
12820TIP3    H238404   1.408   5.085   1.144
12821TIP3   OH238405   4.020   2.579   6.018
12821TIP3    H138406   3.953   2.511   6.016
12821TIP3    H238407   4.097   2.537   6.054
12822TIP3   OH238408   1.843   1.292   5.777
12822TIP3    H138409   1.929   1.327   5.802
12822TIP3    H238410   1.856   1.197   5.777
12823TIP3   OH238411   5.941   6.933   1.597
12823TIP3    H138412   5.926   6.880   1.675
12823TIP3    H238413   5.879   6.899   1.532
12824TIP3   OH238414   7.857   1.334   2.629
12824TIP3    H138415   7.870   1.254   2.680
12824TIP3    H238416   7.811   1.306   2.550
12825TIP3   OH238417   3.679   4.331   6.262
12825TIP3    H138418   3.770   4.302   6.267
12825TIP3    H238419   3.680   4.406   6.203
12826TIP3   OH238420   6.965   1.948   5.041
12826TIP3    H138421   7.053   1.980   5.059
12826TIP3    H238422   6.975   1.890   4.965
12827TIP3   OH238423   5.202   4.662   3.508
12827TIP3    H138424   5.149   4.676   3.429
12827TIP3    H238425   5.287   4.699   3.486
12828TIP3   OH238426   5.761   2.979   6.061
12828TIP3    H138427   5.743   3.068   6.091
12828TIP3    H238428   5.778   2.930   6.141
12829TIP3   OH238429   1.239   0.962   1.208
12829TIP3    H138430   1.216   0.907   1.283
12829TIP3    H238431   1.292   0.905   1.152
12830TIP3   OH238432   7.815   4.839   0.418
12830TIP3    H138433   7.774   4.804   0.339
12830TIP3    H238434   7.744   4.883   0.464
12831TIP3   OH238435   0.664   6.534   0.235
12831TIP3    H138436   0.706   6.554   0.151
12831TIP3    H238437   0.734   6.541   0.299
12832TIP3   OH238438   0.953   2.661   5.494
12832TIP3    H138439   1.044   2.661   5.523
12832TIP3    H238440   0.918   2.576   5.522
12833TIP3   OH238441   5.817   2.805   5.192
12833TIP3    H138442   5.858   2.866   5.130
12833TIP3    H238443   5.746   2.856   5.231
12834TIP3   OH238444   7.493   5.002   5.668
12834TIP3    H138445   7.564   4.965   5.616
12834TIP3    H238446   7.414   4.979   5.620
12835TIP3   OH238447   5.913   4.426   2.405
12835TIP3    H138448   5.860   4.347   2.416
12835TIP3    H238449   5.992   4.396   2.360
12836TIP3   OH238450   3.178   6.284   6.672
12836TIP3    H138451   3.138   6.295   6.586
12836TIP3    H238452   3.197   6.190   6.678
12837TIP3   OH238453   3.536   0.737   2.381
12837TIP3    H138454   3.555   0.829   2.402
12837TIP3    H238455   3.614   0.690   2.409
12838TIP3   OH238456   3.771   5.175   0.388
12838TIP3    H138457   3.709   5.248   0.388
12838TIP3    H238458   3.855   5.214   0.414
12839TIP3   OH238459   3.479   1.789   2.434
12839TIP3    H138460   3.393   1.759   2.465
12839TIP3    H238461   3.495   1.735   2.356
12840TIP3   OH238462   8.112   4.181   0.252
12840TIP3    H138463   8.196   4.210   0.217
12840TIP3    H238464   8.114   4.086   0.245
12841TIP3   OH238465   5.283   1.475   2.837
12841TIP3    H138466   5.333   1.412   2.889
12841TIP3    H238467   5.349   1.524   2.788
12842TIP3   OH238468   2.658   6.444   2.986
12842TIP3    H138469   2.705   6.379   3.038
12842TIP3    H238470   2.588   6.475   3.044
12843TIP3   OH238471   2.115   0.980   6.323
12843TIP3    H138472   2.144   1.046   6.260
12843TIP3    H238473   2.037   0.942   6.284
12844TIP3   OH238474   7.820   7.708   3.971
12844TIP3    H138475   7.730   7.686   3.948
12844TIP3    H238476   7.812   7.780   4.034
12845TIP3   OH238477   0.074   1.541   3.578
12845TIP3    H138478   0.159   1.496   3.571
12845TIP3    H238479   0.050   1.561   3.488
12846TIP3   OH238480   3.962   4.763   5.936
12846TIP3    H138481   4.021   4.707   5.885
12846TIP3    H238482   3.966   4.848   5.893
12847TIP3   OH238483   0.263   7.708   4.424
12847TIP3    H138484   0.352   7.731   4.398
12847TIP3    H238485   0.267   7.615   4.446
12848TIP3   OH238486   2.355   2.193   4.486
12848TIP3    H138487   2.261   2.209   4.489
12848TIP3    H238488   2.365   2.101   4.512
12849TIP3   OH238489   0.928   0.196   0.435
12849TIP3    H138490   0.966   0.130   0.493
12849TIP3    H238491   0.896   0.264   0.493
12850TIP3   OH238492   4.950   6.057   3.544
12850TIP3    H138493   4.855   6.049   3.555
12850TIP3    H238494   4.960   6.114   3.467
12851TIP3   OH238495   7.117   6.122   0.895
12851TIP3    H138496   7.133   6.178   0.971
12851TIP3    H238497   7.057   6.054   0.928
12852TIP3   OH238498   6.229   4.205   6.412
12852TIP3    H138499   6.213   4.299   6.414
12852TIP3    H238500   6.276   4.186   6.493
12853TIP3   OH238501   8.044   1.246   3.877
12853TIP3    H138502   8.079   1.333   3.894
12853TIP3    H238503   8.113   1.201   3.828
12854TIP3   OH238504   0.994   2.266   0.255
12854TIP3    H138505   1.007   2.306   0.341
12854TIP3    H238506   0.992   2.172   0.273
12855TIP3   OH238507   1.001   1.976   3.111
12855TIP3    H138508   0.992   1.977   3.015
12855TIP3    H238509   1.095   1.987   3.126
12856TIP3   OH238510   6.895   6.004   4.242
12856TIP3    H138511   6.903   5.970   4.153
12856TIP3    H238512   6.979   5.984   4.283
12857TIP3   OH238513   3.063   0.380   3.708
12857TIP3    H138514   3.082   0.336   3.790
12857TIP3    H238515   2.978   0.422   3.722
12858TIP3   OH238516   4.543   5.431   4.368
12858TIP3    H138517   4.609   5.491   4.332
12858TIP3    H238518   4.470   5.488   4.392
12859TIP3   OH238519   4.105   5.293   0.707
12859TIP3    H138520   4.169   5.222   0.705
12859TIP3    H238521   4.030   5.257   0.753
12860TIP3   OH238522   6.406   0.040   2.915
12860TIP3    H138523   6.379  -0.047   2.886
12860TIP3    H238524   6.343   0.064   2.983
12861TIP3   OH238525   0.967   0.181   4.600
12861TIP3    H138526   0.873   0.201   4.598
12861TIP3    H238527   1.008   0.256   4.558
12862TIP3   OH238528   7.293   4.219   0.616
12862TIP3    H138529   7.312   4.238   0.524
12862TIP3    H238530   7.253   4.132   0.614
12863TIP3   OH238531   3.955   1.002   4.864
12863TIP3    H138532   3.949   0.920   4.816
12863TIP3    H238533   4.049   1.011   4.884
12864TIP3   OH238534   4.473   4.353   3.687
12864TIP3    H138535   4.476   4.439   3.645
12864TIP3    H238536   4.504   4.369   3.777
12865TIP3   OH238537   7.427   0.522   6.763
12865TIP3    H138538   7.418   0.432   6.794
12865TIP3    H238539   7.515   0.547   6.792
12866TIP3   OH238540   3.656   7.167   4.251
12866TIP3    H138541   3.593   7.112   4.296
12866TIP3    H238542   3.604   7.215   4.186
12867TIP3   OH238543   4.671   3.710   0.403
12867TIP3    H138544   4.719   3.695   0.485
12867TIP3    H238545   4.629   3.626   0.384
12868TIP3   OH238546   6.060   6.141   5.219
12868TIP3    H138547   5.985   6.156   5.162
12868TIP3    H238548   6.067   6.046   5.227
12869TIP3   OH238549   5.513   3.575   5.950
12869TIP3    H138550   5.430   3.588   5.904
12869TIP3    H238551   5.552   3.662   5.955
12870TIP3   OH238552   7.728   3.277   3.272
12870TIP3    H138553   7.720   3.368   3.244
12870TIP3    H238554   7.748   3.283   3.365
12871TIP3   OH238555   5.295   1.356   3.440
12871TIP3    H138556   5.379   1.381   3.479
12871TIP3    H238557   5.279   1.267   3.474
12872TIP3   OH238558   0.685   7.030   2.670
12872TIP3    H138559   0.683   7.126   2.676
12872TIP3    H238560   0.632   7.001   2.744
12873TIP3   OH238561   6.137   6.402   1.119
12873TIP3    H138562   6.066   6.398   1.056
12873TIP3    H238563   6.171   6.492   1.111
12874TIP3   OH238564   5.217   0.911   2.955
12874TIP3    H138565   5.179   0.997   2.938
12874TIP3    H238566   5.142   0.851   2.947
12875TIP3   OH238567   2.577   2.646   2.500
12875TIP3    H138568   2.580   2.725   2.446
12875TIP3    H238569   2.507   2.593   2.460
12876TIP3   OH238570   6.380   4.030   0.662
12876TIP3    H138571   6.344   4.056   0.578
12876TIP3    H238572   6.445   4.097   0.682
12877TIP3   OH238573   4.895   2.147   0.370
12877TIP3    H138574   4.839   2.217   0.405
12877TIP3    H238575   4.968   2.194   0.329
12878TIP3   OH238576   5.034   2.817   5.024
12878TIP3    H138577   5.051   2.824   5.118
12878TIP3    H238578   5.093   2.881   4.984
12879TIP3   OH238579   4.012   1.642   5.749
12879TIP3    H138580   3.982   1.605   5.832
12879TIP3    H238581   4.077   1.579   5.717
12880TIP3   OH238582   2.505   4.252   5.781
12880TIP3    H138583   2.576   4.302   5.740
12880TIP3    H238584   2.425   4.283   5.737
12881TIP3   OH238585   4.908   4.905   4.988
12881TIP3    H138586   4.862   4.842   4.934
12881TIP3    H238587   4.915   4.984   4.934
12882TIP3   OH238588   4.948   4.995   4.445
12882TIP3    H138589   4.862   4.964   4.473
12882TIP3    H238590   4.951   5.087   4.473
12883TIP3   OH238591   7.910   3.980   3.711
12883TIP3    H138592   7.849   3.943   3.648
12883TIP3    H238593   7.997   3.960   3.677
12884TIP3   OH238594   0.613   1.098   5.643
12884TIP3    H138595   0.668   1.138   5.710
12884TIP3    H238596   0.673   1.046   5.590
12885TIP3   OH238597   0.993   6.093   1.866
12885TIP3    H138598   1.034   6.053   1.942
12885TIP3    H238599   0.998   6.187   1.883
12886TIP3   OH238600   3.312   5.909   5.378
12886TIP3    H138601   3.240   5.969   5.396
12886TIP3    H238602   3.383   5.964   5.345
12887TIP3   OH238603   3.453   1.360   1.439
12887TIP3    H138604   3.467   1.298   1.511
12887TIP3    H238605   3.413   1.436   1.481
12888TIP3   OH238606   5.938   6.895   4.000
12888TIP3    H138607   5.886   6.918   4.077
12888TIP3    H238608   6.020   6.861   4.036
12889TIP3   OH238609   3.215   2.944   3.888
12889TIP3    H138610   3.240   2.852   3.887
12889TIP3    H238611   3.123   2.944   3.915
12890TIP3   OH238612   7.034   6.684   2.452
12890TIP3    H138613   6.989   6.655   2.531
12890TIP3    H238614   7.029   6.779   2.455
12891TIP3   OH238615   2.872   5.734   1.920
12891TIP3    H138616   2.789   5.782   1.916
12891TIP3    H238617   2.854   5.660   1.977
12892TIP3   OH238618   7.837   5.794   1.166
12892TIP3    H138619   7.873   5.810   1.079
12892TIP3    H238620   7.799   5.878   1.192
12893TIP3   OH238621   1.936   7.316   4.141
12893TIP3    H138622   2.025   7.351   4.152
12893TIP3    H238623   1.898   7.368   4.070
12894TIP3   OH238624   2.023   4.009   1.169
12894TIP3    H138625   2.060   3.961   1.094
12894TIP3    H238626   1.929   4.016   1.148
12895TIP3   OH238627   7.203   4.652   5.069
12895TIP3    H138628   7.155   4.644   4.987
12895TIP3    H238629   7.136   4.643   5.137
12896TIP3   OH238630   5.044   1.613   2.762
12896TIP3    H138631   5.132   1.579   2.772
12896TIP3    H238632   5.038   1.638   2.670
12897TIP3   OH238633   2.131   6.380   2.527
12897TIP3    H138634   2.053   6.393   2.579
12897TIP3    H238635   2.195   6.343   2.588
12898TIP3   OH238636   2.940   2.100   0.671
12898TIP3    H138637   2.924   2.064   0.758
12898TIP3    H238638   3.027   2.138   0.677
12899TIP3   OH238639   3.393   0.712   6.607
12899TIP3    H138640   3.364   0.787   6.557
12899TIP3    H238641   3.489   0.713   6.600
12900TIP3   OH238642   7.066   2.320   1.517
12900TIP3    H138643   7.116   2.392   1.476
12900TIP3    H238644   6.975   2.337   1.492
12901TIP3   OH238645   2.544   3.052   2.656
12901TIP3    H138646   2.502   3.099   2.585
12901TIP3    H238647   2.599   3.117   2.699
12902TIP3   OH238648   5.812   3.452   6.058
12902TIP3    H138649   5.866   3.375   6.071
12902TIP3    H238650   5.824   3.504   6.137
12903TIP3   OH238651   3.847  -0.042   5.193
12903TIP3    H138652   3.804  -0.082   5.117
12903TIP3    H238653   3.830   0.052   5.184
12904TIP3   OH238654   1.376   7.209   0.780
12904TIP3    H138655   1.370   7.118   0.810
12904TIP3    H238656   1.354   7.205   0.687
12905TIP3   OH238657   2.638   3.154   4.392
12905TIP3    H138658   2.590   3.138   4.311
12905TIP3    H238659   2.578   3.208   4.445
12906TIP3   OH238660   0.146   4.153   0.546
12906TIP3    H138661   0.106   4.117   0.626
12906TIP3    H238662   0.084   4.220   0.517
12907TIP3   OH238663   0.358   5.415   3.249
12907TIP3    H138664   0.344   5.415   3.344
12907TIP3    H238665   0.422   5.346   3.233
12908TIP3   OH238666   4.643   6.962   4.429
12908TIP3    H138667   4.694   6.952   4.349
12908TIP3    H238668   4.562   6.913   4.413
12909TIP3   OH238669   3.543   7.517   2.368
12909TIP3    H138670   3.633   7.494   2.392
12909TIP3    H238671   3.490   7.446   2.404
12910TIP3   OH238672   2.254   7.681   6.803
12910TIP3    H138673   2.245   7.589   6.827
12910TIP3    H238674   2.266   7.681   6.708
12911TIP3   OH238675   7.749   7.222   5.475
12911TIP3    H138676   7.773   7.312   5.498
12911TIP3    H238677   7.795   7.168   5.540
12912TIP3   OH238678   1.570   3.539   0.309
12912TIP3    H138679   1.514   3.516   0.383
12912TIP3    H238680   1.659   3.531   0.342
12913TIP3   OH238681   2.609   7.278   3.325
12913TIP3    H138682   2.583   7.301   3.235
12913TIP3    H238683   2.654   7.193   3.316
12914TIP3   OH238684   1.923   6.378   5.497
12914TIP3    H138685   1.833   6.387   5.465
12914TIP3    H238686   1.970   6.450   5.455
12915TIP3   OH238687   1.308   6.532   2.632
12915TIP3    H138688   1.377   6.552   2.695
12915TIP3    H238689   1.255   6.612   2.629
12916TIP3   OH238690   7.363   0.994   1.206
12916TIP3    H138691   7.272   1.002   1.235
12916TIP3    H238692   7.375   1.068   1.146
12917TIP3   OH238693   1.911   3.370   1.797
12917TIP3    H138694   1.870   3.373   1.883
12917TIP3    H238695   2.004   3.383   1.814
12918TIP3   OH238696   7.863   7.647   5.104
12918TIP3    H138697   7.921   7.574   5.127
12918TIP3    H238698   7.852   7.638   5.009
12919TIP3   OH238699   7.403   4.653   3.308
12919TIP3    H138700   7.399   4.708   3.387
12919TIP3    H238701   7.324   4.600   3.313
12920TIP3   OH238702   7.739   6.766   0.664
12920TIP3    H138703   7.678   6.707   0.709
12920TIP3    H238704   7.701   6.853   0.676
12921TIP3   OH238705   0.197   0.830   4.326
12921TIP3    H138706   0.268   0.786   4.278
12921TIP3    H238707   0.117   0.793   4.290
12922TIP3   OH238708   0.341   5.160   0.485
12922TIP3    H138709   0.356   5.223   0.415
12922TIP3    H238710   0.247   5.143   0.483
12923TIP3   OH238711   0.356   2.505   1.631
12923TIP3    H138712   0.315   2.514   1.545
12923TIP3    H238713   0.318   2.425   1.668
12924TIP3   OH238714   7.803   1.154   3.265
12924TIP3    H138715   7.879   1.124   3.215
12924TIP3    H238716   7.734   1.092   3.242
12925TIP3   OH238717   6.798   6.435   3.059
12925TIP3    H138718   6.838   6.462   2.977
12925TIP3    H238719   6.872   6.413   3.116
12926TIP3   OH238720   5.874   4.843   5.020
12926TIP3    H138721   5.858   4.825   4.928
12926TIP3    H238722   5.903   4.934   5.022
12927TIP3   OH238723   4.688   3.124   3.589
12927TIP3    H138724   4.640   3.064   3.646
12927TIP3    H238725   4.747   3.171   3.647
12928TIP3   OH238726   5.182   3.908   4.764
12928TIP3    H138727   5.205   3.994   4.728
12928TIP3    H238728   5.244   3.894   4.835
12929TIP3   OH238729   6.936   1.473   5.360
12929TIP3    H138730   6.880   1.490   5.435
12929TIP3    H238731   6.875   1.463   5.287
12930TIP3   OH238732   5.662   3.901   3.673
12930TIP3    H138733   5.666   3.864   3.585
12930TIP3    H238734   5.646   3.994   3.660
12931TIP3   OH238735   7.038   3.175   3.412
12931TIP3    H138736   7.022   3.107   3.346
12931TIP3    H238737   7.122   3.149   3.452
12932TIP3   OH238738   3.549   2.420   2.305
12932TIP3    H138739   3.507   2.351   2.356
12932TIP3    H238740   3.640   2.394   2.299
12933TIP3   OH238741   3.411   7.156   1.716
12933TIP3    H138742   3.490   7.173   1.766
12933TIP3    H238743   3.387   7.066   1.739
12934TIP3   OH238744   0.255   3.790   4.387
12934TIP3    H138745   0.210   3.807   4.304
12934TIP3    H238746   0.291   3.874   4.414
12935TIP3   OH238747   3.206   6.263   2.681
12935TIP3    H138748   3.277   6.319   2.714
12935TIP3    H238749   3.132   6.280   2.738
12936TIP3   OH238750   4.963   2.445   1.458
12936TIP3    H138751   4.988   2.492   1.537
12936TIP3    H238752   4.928   2.513   1.400
12937TIP3   OH238753   7.922   7.410   3.299
12937TIP3    H138754   7.851   7.364   3.256
12937TIP3    H238755   8.001   7.384   3.251
12938TIP3   OH238756   5.915   4.517   4.496
12938TIP3    H138757   5.828   4.555   4.505
12938TIP3    H238758   5.921   4.491   4.404
12939TIP3   OH238759   4.038   7.087   5.863
12939TIP3    H138760   4.035   7.116   5.772
12939TIP3    H238761   3.965   7.132   5.905
12940TIP3   OH238762   7.154   4.503   3.330
12940TIP3    H138763   7.075   4.486   3.383
12940TIP3    H238764   7.122   4.551   3.254
12941TIP3   OH238765   2.123   3.947   4.779
12941TIP3    H138766   2.046   3.920   4.829
12941TIP3    H238767   2.131   4.041   4.797
12942TIP3   OH238768   6.680   5.545   2.841
12942TIP3    H138769   6.638   5.560   2.757
12942TIP3    H238770   6.637   5.466   2.876
12943TIP3   OH238771   1.746   1.231   1.711
12943TIP3    H138772   1.663   1.197   1.746
12943TIP3    H238773   1.745   1.324   1.736
12944TIP3   OH238774   6.403   1.794   1.931
12944TIP3    H138775   6.482   1.762   1.887
12944TIP3    H238776   6.375   1.721   1.987
12945TIP3   OH238777   5.605   7.051   1.799
12945TIP3    H138778   5.627   7.068   1.891
12945TIP3    H238779   5.516   7.087   1.790
12946TIP3   OH238780   5.795   4.912   3.596
12946TIP3    H138781   5.880   4.882   3.563
12946TIP3    H238782   5.764   4.840   3.651
12947TIP3   OH238783   5.144   0.079   1.856
12947TIP3    H138784   5.126   0.127   1.775
12947TIP3    H238785   5.164   0.147   1.920
12948TIP3   OH238786   2.637   7.123   0.193
12948TIP3    H138787   2.717   7.146   0.241
12948TIP3    H238788   2.667   7.059   0.128
12949TIP3   OH238789   2.187   0.667   2.220
12949TIP3    H138790   2.174   0.675   2.314
12949TIP3    H238791   2.191   0.573   2.203
12950TIP3   OH238792   5.085   5.810   2.506
12950TIP3    H138793   5.139   5.748   2.456
12950TIP3    H238794   5.006   5.760   2.529
12951TIP3   OH238795   3.149   5.174   1.172
12951TIP3    H138796   3.164   5.080   1.188
12951TIP3    H238797   3.218   5.199   1.111
12952TIP3   OH238798   1.766   5.247   1.100
12952TIP3    H138799   1.696   5.304   1.131
12952TIP3    H238800   1.810   5.218   1.180
12953TIP3   OH238801   4.125   4.060   1.085
12953TIP3    H138802   4.200   4.098   1.130
12953TIP3    H238803   4.051   4.115   1.110
12954TIP3   OH238804   4.258   0.631   2.276
12954TIP3    H138805   4.349   0.659   2.283
12954TIP3    H238806   4.262   0.543   2.238
12955TIP3   OH238807   7.985   1.658   4.797
12955TIP3    H138808   7.937   1.676   4.717
12955TIP3    H238809   8.028   1.574   4.781
12956TIP3   OH238810   6.754   0.628   6.440
12956TIP3    H138811   6.725   0.542   6.470
12956TIP3    H238812   6.808   0.611   6.363
12957TIP3   OH238813   8.259   6.371   0.257
12957TIP3    H138814   8.321   6.408   0.319
12957TIP3    H238815   8.180   6.425   0.267
12958TIP3   OH238816   6.332   3.231   6.770
12958TIP3    H138817   6.318   3.312   6.722
12958TIP3    H238818   6.244   3.200   6.790
12959TIP3   OH238819   0.210   1.385   2.330
12959TIP3    H138820   0.265   1.336   2.391
12959TIP3    H238821   0.189   1.466   2.378
12960TIP3   OH238822   2.381   0.882   2.589
12960TIP3    H138823   2.309   0.945   2.588
12960TIP3    H238824   2.409   0.876   2.497
12961TIP3   OH238825   4.266   2.223   6.157
12961TIP3    H138826   4.326   2.197   6.227
12961TIP3    H238827   4.243   2.314   6.178
12962TIP3   OH238828   2.777   2.362   1.949
12962TIP3    H138829   2.814   2.318   1.872
12962TIP3    H238830   2.684   2.342   1.944
12963TIP3   OH238831   7.523   4.729   1.030
12963TIP3    H138832   7.482   4.744   0.945
12963TIP3    H238833   7.613   4.705   1.009
12964TIP3   OH238834   8.029   4.354   6.539
12964TIP3    H138835   7.968   4.406   6.591
12964TIP3    H238836   8.013   4.263   6.566
12965TIP3   OH238837   1.229   6.712   3.551
12965TIP3    H138838   1.253   6.630   3.507
12965TIP3    H238839   1.212   6.774   3.480
12966TIP3   OH238840   4.636   0.848   1.000
12966TIP3    H138841   4.636   0.886   0.911
12966TIP3    H238842   4.724   0.813   1.011
12967TIP3   OH238843   3.273   4.582   6.605
12967TIP3    H138844   3.317   4.500   6.584
12967TIP3    H238845   3.205   4.591   6.537
12968TIP3   OH238846   4.945   3.860   6.175
12968TIP3    H138847   4.900   3.776   6.171
12968TIP3    H238848   4.884   3.918   6.221
12969TIP3   OH238849   5.400   5.556   6.686
12969TIP3    H138850   5.420   5.650   6.693
12969TIP3    H238851   5.439   5.517   6.764
12970TIP3   OH238852   6.387   4.333   2.402
12970TIP3    H138853   6.453   4.348   2.470
12970TIP3    H238854   6.431   4.276   2.339
12971TIP3   OH238855   3.227   0.167   2.888
12971TIP3    H138856   3.214   0.257   2.860
12971TIP3    H238857   3.174   0.158   2.967
12972TIP3   OH238858   6.310   5.169   2.090
12972TIP3    H138859   6.318   5.211   2.005
12972TIP3    H238860   6.220   5.136   2.093
12973TIP3   OH238861   3.018   6.238   1.303
12973TIP3    H138862   3.015   6.252   1.209
12973TIP3    H238863   2.934   6.198   1.324
12974TIP3   OH238864   2.488   6.310   3.267
12974TIP3    H138865   2.481   6.403   3.245
12974TIP3    H238866   2.402   6.286   3.299
12975TIP3   OH238867   1.605   2.664   2.902
12975TIP3    H138868   1.621   2.570   2.891
12975TIP3    H238869   1.524   2.670   2.953
12976TIP3   OH238870   8.014   5.284   6.214
12976TIP3    H138871   8.034   5.283   6.120
12976TIP3    H238872   7.922   5.260   6.219
12977TIP3   OH238873   4.201   1.481   3.890
12977TIP3    H138874   4.289   1.518   3.903
12977TIP3    H238875   4.212   1.419   3.818
12978TIP3   OH238876   1.911   6.798   5.515
12978TIP3    H138877   1.976   6.729   5.498
12978TIP3    H238878   1.827   6.757   5.495
12979TIP3   OH238879   6.977   0.697   3.636
12979TIP3    H138880   6.919   0.768   3.662
12979TIP3    H238881   6.950   0.674   3.547
12980TIP3   OH238882   0.643   7.006   5.928
12980TIP3    H138883   0.644   6.964   6.014
12980TIP3    H238884   0.597   7.089   5.942
12981TIP3   OH238885   3.734   2.726   1.796
12981TIP3    H138886   3.767   2.815   1.781
12981TIP3    H238887   3.734   2.685   1.710
12982TIP3   OH238888   6.137   7.709   6.150
12982TIP3    H138889   6.094   7.643   6.204
12982TIP3    H238890   6.181   7.766   6.213
12983TIP3   OH238891   5.903   2.493   1.156
12983TIP3    H138892   5.892   2.400   1.176
12983TIP3    H238893   5.862   2.539   1.229
12984TIP3   OH238894   5.100   2.485   0.508
12984TIP3    H138895   5.090   2.442   0.423
12984TIP3    H238896   5.187   2.525   0.506
12985TIP3   OH238897   5.334   4.652   2.311
12985TIP3    H138898   5.262   4.658   2.248
12985TIP3    H238899   5.296   4.682   2.394
12986TIP3   OH238900   3.565   5.551   1.862
12986TIP3    H138901   3.643   5.532   1.811
12986TIP3    H238902   3.549   5.645   1.847
12987TIP3   OH238903   7.172   4.827   5.825
12987TIP3    H138904   7.253   4.836   5.874
12987TIP3    H238905   7.108   4.877   5.876
12988TIP3   OH238906   3.586   2.866   2.046
12988TIP3    H138907   3.615   2.792   1.993
12988TIP3    H238908   3.656   2.878   2.110
12989TIP3   OH238909   5.006   6.590   0.239
12989TIP3    H138910   5.006   6.656   0.309
12989TIP3    H238911   4.915   6.560   0.236
12990TIP3   OH238912   2.128   4.341   2.058
12990TIP3    H138913   2.176   4.422   2.041
12990TIP3    H238914   2.064   4.365   2.124
12991TIP3   OH238915   3.098   0.959   5.558
12991TIP3    H138916   3.188   0.971   5.588
12991TIP3    H238917   3.096   0.869   5.525
12992TIP3   OH238918   0.305   2.563   6.383
12992TIP3    H138919   0.225   2.578   6.333
12992TIP3    H238920   0.298   2.622   6.458
12993TIP3   OH238921   1.492   2.939   4.198
12993TIP3    H138922   1.397   2.938   4.194
12993TIP3    H238923   1.520   2.873   4.134
12994TIP3   OH238924   2.634   6.879   0.023
12994TIP3    H138925   2.727   6.866   0.038
12994TIP3    H238926   2.591   6.810   0.073
12995TIP3   OH238927   8.236   2.011   4.157
12995TIP3    H138928   8.162   1.956   4.180
12995TIP3    H238929   8.313   1.957   4.175
12996TIP3   OH238930   7.517   0.099   0.152
12996TIP3    H138931   7.516   0.004   0.155
12996TIP3    H238932   7.549   0.120   0.064
12997TIP3   OH238933   7.821   4.609   3.719
12997TIP3    H138934   7.867   4.601   3.636
12997TIP3    H238935   7.858   4.687   3.761
12998TIP3   OH238936   2.769   2.000   2.543
12998TIP3    H138937   2.716   1.972   2.618
12998TIP3    H238938   2.830   2.064   2.580
12999TIP3   OH238939   0.472   0.676   4.744
12999TIP3    H138940   0.411   0.711   4.680
12999TIP3    H238941   0.484   0.584   4.718
13000TIP3   OH238942   5.646   5.694   2.627
13000TIP3    H138943   5.715   5.759   2.639
13000TIP3    H238944   5.673   5.620   2.682
13001TIP3   OH238945   3.135   2.182   4.425
13001TIP3    H138946   3.149   2.196   4.331
13001TIP3    H238947   3.051   2.136   4.430
13002TIP3   OH238948   0.364   0.383   1.138
13002TIP3    H138949   0.353   0.289   1.120
13002TIP3    H238950   0.275   0.414   1.156
13003TIP3   OH238951   1.257   4.745   6.693
13003TIP3    H138952   1.245   4.674   6.631
13003TIP3    H238953   1.173   4.790   6.695
13004TIP3   OH238954   6.110   1.756   3.179
13004TIP3    H138955   6.106   1.725   3.088
13004TIP3    H238956   6.042   1.823   3.185
13005TIP3   OH238957   5.646   5.742   2.099
13005TIP3    H138958   5.614   5.735   2.009
13005TIP3    H238959   5.728   5.692   2.099
13006TIP3   OH238960   1.910   5.229   4.846
13006TIP3    H138961   1.951   5.312   4.870
13006TIP3    H238962   1.883   5.241   4.755
13007TIP3   OH238963   1.400   1.235   4.710
13007TIP3    H138964   1.351   1.285   4.645
13007TIP3    H238965   1.333   1.195   4.766
13008TIP3   OH238966   2.134   5.743   4.647
13008TIP3    H138967   2.083   5.748   4.729
13008TIP3    H238968   2.069   5.755   4.578
13009TIP3   OH238969   2.737   2.137   3.933
13009TIP3    H138970   2.825   2.167   3.913
13009TIP3    H238971   2.681   2.181   3.869
13010TIP3   OH238972   0.308   4.640   0.826
13010TIP3    H138973   0.348   4.725   0.845
13010TIP3    H238974   0.289   4.604   0.913
13011TIP3   OH238975   6.577   5.414   0.047
13011TIP3    H138976   6.543   5.430  -0.042
13011TIP3    H238977   6.602   5.322   0.047
13012TIP3   OH238978   7.763   0.820   2.058
13012TIP3    H138979   7.855   0.797   2.044
13012TIP3    H238980   7.734   0.852   1.972
13013TIP3   OH238981   6.179   2.665   1.943
13013TIP3    H138982   6.214   2.745   1.981
13013TIP3    H238983   6.089   2.688   1.917
13014TIP3   OH238984   1.285   0.595   3.698
13014TIP3    H138985   1.195   0.564   3.713
13014TIP3    H238986   1.275   0.675   3.646
13015TIP3   OH238987   1.015   7.286   1.674
13015TIP3    H138988   0.969   7.213   1.632
13015TIP3    H238989   1.022   7.259   1.766
13016TIP3   OH238990   2.920   1.117   1.640
13016TIP3    H138991   2.843   1.158   1.600
13016TIP3    H238992   2.885   1.067   1.714
13017TIP3   OH238993   2.330   2.258   0.441
13017TIP3    H138994   2.313   2.235   0.350
13017TIP3    H238995   2.400   2.198   0.468
13018TIP3   OH238996   4.125   6.655   6.024
13018TIP3    H138997   4.144   6.719   6.092
13018TIP3    H238998   4.045   6.688   5.981
13019TIP3   OH238999   7.669   4.409   4.714
13019TIP3    H139000   7.593   4.352   4.728
13019TIP3    H239001   7.640   4.471   4.647
13020TIP3   OH239002   6.416   3.962   4.048
13020TIP3    H139003   6.399   3.968   3.954
13020TIP3    H239004   6.365   4.034   4.086
13021TIP3   OH239005   0.351   3.277   1.737
13021TIP3    H139006   0.297   3.265   1.815
13021TIP3    H239007   0.424   3.330   1.767
13022TIP3   OH239008   1.450   3.485   0.556
13022TIP3    H139009   1.507   3.510   0.628
13022TIP3    H239010   1.401   3.410   0.589
13023TIP3   OH239011   7.186   4.734   3.621
13023TIP3    H139012   7.155   4.701   3.705
13023TIP3    H239013   7.193   4.829   3.634
13024TIP3   OH239014   5.446   2.365   0.046
13024TIP3    H139015   5.377   2.389   0.108
13024TIP3    H239016   5.511   2.320   0.099
13025TIP3   OH239017   0.965   2.451   3.899
13025TIP3    H139018   0.927   2.451   3.811
13025TIP3    H239019   1.051   2.411   3.888
13026TIP3   OH239020   3.597   5.867   5.976
13026TIP3    H139021   3.574   5.794   5.918
13026TIP3    H239022   3.552   5.943   5.938
13027TIP3   OH239023   8.281   2.796   4.647
13027TIP3    H139024   8.192   2.828   4.636
13027TIP3    H239025   8.329   2.831   4.572
13028TIP3   OH239026   1.927   0.249   0.730
13028TIP3    H139027   1.860   0.286   0.787
13028TIP3    H239028   1.930   0.307   0.654
13029TIP3   OH239029   6.006   7.495   1.591
13029TIP3    H139030   6.051   7.415   1.618
13029TIP3    H239031   6.042   7.563   1.647
13030TIP3   OH239032   2.995   4.473   2.812
13030TIP3    H139033   3.054   4.542   2.782
13030TIP3    H239034   2.911   4.496   2.773
13031TIP3   OH239035   6.574   3.772   3.800
13031TIP3    H139036   6.637   3.755   3.870
13031TIP3    H239037   6.493   3.732   3.831
13032TIP3   OH239038   3.712   3.876   0.471
13032TIP3    H139039   3.625   3.839   0.482
13032TIP3    H239040   3.764   3.835   0.540
13033TIP3   OH239041   5.478   5.712   5.804
13033TIP3    H139042   5.405   5.651   5.792
13033TIP3    H239043   5.439   5.787   5.849
13034TIP3   OH239044   5.574   2.095   2.335
13034TIP3    H139045   5.622   2.147   2.271
13034TIP3    H239046   5.498   2.061   2.288
13035TIP3   OH239047   7.009   7.408   3.932
13035TIP3    H139048   7.087   7.387   3.985
13035TIP3    H239049   7.020   7.357   3.852
13036TIP3   OH239050   8.143   6.827   6.233
13036TIP3    H139051   8.120   6.911   6.273
13036TIP3    H239052   8.214   6.793   6.288
13037TIP3   OH239053   2.201   3.674   2.973
13037TIP3    H139054   2.129   3.654   2.914
13037TIP3    H239055   2.225   3.764   2.952
13038TIP3   OH239056   3.647   5.195   1.128
13038TIP3    H139057   3.589   5.186   1.203
13038TIP3    H239058   3.687   5.282   1.138
13039TIP3   OH239059   2.299   2.322   5.813
13039TIP3    H139060   2.356   2.395   5.790
13039TIP3    H239061   2.239   2.358   5.879
13040TIP3   OH239062   6.731   6.247   2.670
13040TIP3    H139063   6.726   6.329   2.719
13040TIP3    H239064   6.651   6.245   2.617
13041TIP3   OH239065   1.234   2.729   3.411
13041TIP3    H139066   1.201   2.791   3.477
13041TIP3    H239067   1.289   2.782   3.354
13042TIP3   OH239068   5.173   2.806   6.463
13042TIP3    H139069   5.145   2.835   6.376
13042TIP3    H239070   5.168   2.711   6.459
13043TIP3   OH239071   1.955   6.703   1.464
13043TIP3    H139072   1.956   6.608   1.472
13043TIP3    H239073   1.862   6.727   1.462
13044TIP3   OH239074   0.083   2.107   2.813
13044TIP3    H139075  -0.006   2.137   2.833
13044TIP3    H239076   0.106   2.152   2.732
13045TIP3   OH239077   7.722   7.354   1.275
13045TIP3    H139078   7.718   7.362   1.180
13045TIP3    H239079   7.788   7.419   1.301
13046TIP3   OH239080   3.744   1.199   2.915
13046TIP3    H139081   3.728   1.106   2.904
13046TIP3    H239082   3.735   1.215   3.009
13047TIP3   OH239083   0.861   6.454   2.482
13047TIP3    H139084   0.850   6.387   2.549
13047TIP3    H239085   0.836   6.536   2.525
13048TIP3   OH239086   6.580   5.968   1.050
13048TIP3    H139087   6.501   5.952   1.000
13048TIP3    H239088   6.555   6.035   1.114
13049TIP3   OH239089   2.881   0.116   0.988
13049TIP3    H139090   2.902   0.064   1.066
13049TIP3    H239091   2.890   0.207   1.017
13050TIP3   OH239092   8.116   2.907   2.745
13050TIP3    H139093   8.211   2.912   2.759
13050TIP3    H239094   8.097   2.814   2.741
13051TIP3   OH239095   2.895   1.223   3.955
13051TIP3    H139096   2.893   1.206   4.050
13051TIP3    H239097   2.973   1.178   3.925
13052TIP3   OH239098   7.761   3.074   1.195
13052TIP3    H139099   7.716   3.150   1.160
13052TIP3    H239100   7.698   3.031   1.253
13053TIP3   OH239101   6.846   0.704   0.447
13053TIP3    H139102   6.912   0.660   0.500
13053TIP3    H239103   6.789   0.748   0.510
13054TIP3   OH239104   6.018   4.522   5.702
13054TIP3    H139105   6.010   4.612   5.670
13054TIP3    H239106   5.944   4.512   5.763
13055TIP3   OH239107   2.381   4.213   4.780
13055TIP3    H139108   2.309   4.244   4.725
13055TIP3    H239109   2.382   4.272   4.855
13056TIP3   OH239110   0.910   5.196   3.968
13056TIP3    H139111   0.875   5.198   3.879
13056TIP3    H239112   0.967   5.119   3.969
13057TIP3   OH239113   0.380   3.999   6.545
13057TIP3    H139114   0.317   4.043   6.602
13057TIP3    H239115   0.463   4.006   6.591
13058TIP3   OH239116   7.667   2.850   3.428
13058TIP3    H139117   7.715   2.791   3.370
13058TIP3    H239118   7.645   2.797   3.504
13059TIP3   OH239119   1.398   6.948   0.257
13059TIP3    H139120   1.472   6.922   0.201
13059TIP3    H239121   1.340   6.872   0.258
13060TIP3   OH239122   7.640   1.068   2.281
13060TIP3    H139123   7.731   1.040   2.292
13060TIP3    H239124   7.589   0.988   2.295
13061TIP3   OH239125   0.810   4.401   1.668
13061TIP3    H139126   0.898   4.419   1.637
13061TIP3    H239127   0.788   4.316   1.630
13062TIP3   OH239128   1.180   3.028   1.567
13062TIP3    H139129   1.106   2.982   1.526
13062TIP3    H239130   1.220   3.077   1.495
13063TIP3   OH239131   0.771   7.230   3.977
13063TIP3    H139132   0.705   7.217   3.908
13063TIP3    H239133   0.854   7.234   3.929
13064TIP3   OH239134   2.780   0.597   4.478
13064TIP3    H139135   2.768   0.548   4.559
13064TIP3    H239136   2.826   0.536   4.420
13065TIP3   OH239137   1.048   4.906   2.529
13065TIP3    H139138   1.131   4.954   2.530
13065TIP3    H239139   1.031   4.886   2.621
13066TIP3   OH239140   6.108   2.038   5.498
13066TIP3    H139141   6.201   2.030   5.522
13066TIP3    H239142   6.064   2.059   5.580
13067TIP3   OH239143   0.519   4.017   0.783
13067TIP3    H139144   0.487   4.084   0.844
13067TIP3    H239145   0.583   4.062   0.729
13068TIP3   OH239146   7.549   3.735   6.338
13068TIP3    H139147   7.589   3.784   6.410
13068TIP3    H239148   7.530   3.801   6.271
13069TIP3   OH239149   2.816   0.856   0.974
13069TIP3    H139150   2.811   0.761   0.983
13069TIP3    H239151   2.750   0.889   1.035
13070TIP3   OH239152   4.429   3.239   2.908
13070TIP3    H139153   4.399   3.164   2.856
13070TIP3    H239154   4.349   3.288   2.927
13071TIP3   OH239155   3.064   5.078   5.620
13071TIP3    H139156   3.026   5.114   5.539
13071TIP3    H239157   3.038   5.142   5.688
13072TIP3   OH239158   0.822   0.362   5.163
13072TIP3    H139159   0.792   0.452   5.156
13072TIP3    H239160   0.845   0.352   5.256
13073TIP3   OH239161   2.123   7.279   6.212
13073TIP3    H139162   2.079   7.224   6.147
13073TIP3    H239163   2.109   7.369   6.182
13074TIP3   OH239164   4.510   1.001   4.404
13074TIP3    H139165   4.464   0.998   4.488
13074TIP3    H239166   4.508   0.911   4.371
13075TIP3   OH239167   2.895   6.372   4.822
13075TIP3    H139168   2.957   6.382   4.749
13075TIP3    H239169   2.851   6.456   4.829
13076TIP3   OH239170   7.173   0.822   1.023
13076TIP3    H139171   7.118   0.900   1.032
13076TIP3    H239172   7.250   0.840   1.077
13077TIP3   OH239173   0.347   3.940   5.988
13077TIP3    H139174   0.407   3.979   5.924
13077TIP3    H239175   0.405   3.902   6.054
13078TIP3   OH239176   5.968   4.740   3.438
13078TIP3    H139177   5.988   4.800   3.366
13078TIP3    H239178   5.965   4.653   3.397
13079TIP3   OH239179   8.074   3.232   5.232
13079TIP3    H139180   8.102   3.219   5.322
13079TIP3    H239181   7.989   3.275   5.239
13080TIP3   OH239182   6.459   5.283   2.810
13080TIP3    H139183   6.442   5.195   2.844
13080TIP3    H239184   6.399   5.291   2.736
13081TIP3   OH239185   4.679   7.138   5.521
13081TIP3    H139186   4.622   7.111   5.593
13081TIP3    H239187   4.692   7.058   5.470
13082TIP3   OH239188   5.732   3.251   2.846
13082TIP3    H139189   5.743   3.279   2.755
13082TIP3    H239190   5.800   3.185   2.859
13083TIP3   OH239191   3.549   6.061   0.140
13083TIP3    H139192   3.628   6.009   0.160
13083TIP3    H239193   3.502   6.009   0.075
13084TIP3   OH239194   6.324   1.565   2.079
13084TIP3    H139195   6.384   1.572   2.154
13084TIP3    H239196   6.244   1.529   2.116
13085TIP3   OH239197   4.352   4.981   2.877
13085TIP3    H139198   4.446   4.980   2.893
13085TIP3    H239199   4.312   4.965   2.963
13086TIP3   OH239200   0.530   6.811   5.241
13086TIP3    H139201   0.606   6.868   5.237
13086TIP3    H239202   0.547   6.753   5.315
13087TIP3   OH239203   3.906   7.048   2.141
13087TIP3    H139204   3.822   7.087   2.165
13087TIP3    H239205   3.957   7.048   2.222
13088TIP3   OH239206   7.318   2.416   4.005
13088TIP3    H139207   7.374   2.492   3.989
13088TIP3    H239208   7.362   2.368   4.076
13089TIP3   OH239209   7.849   4.068   4.644
13089TIP3    H139210   7.925   4.016   4.620
13089TIP3    H239211   7.821   4.033   4.729
13090TIP3   OH239212   4.193   2.304   0.055
13090TIP3    H139213   4.264   2.269   0.107
13090TIP3    H239214   4.136   2.229   0.037
13091TIP3   OH239215   2.588   4.078   3.681
13091TIP3    H139216   2.618   4.119   3.600
13091TIP3    H239217   2.505   4.121   3.701
13092TIP3   OH239218   2.212   1.780   1.551
13092TIP3    H139219   2.275   1.776   1.623
13092TIP3    H239220   2.141   1.835   1.585
13093TIP3   OH239221   1.193   4.374   0.421
13093TIP3    H139222   1.162   4.423   0.497
13093TIP3    H239223   1.115   4.357   0.369
13094TIP3   OH239224   3.426   1.504   5.226
13094TIP3    H139225   3.343   1.463   5.203
13094TIP3    H239226   3.416   1.529   5.318
13095TIP3   OH239227   2.493   0.504   4.224
13095TIP3    H139228   2.464   0.416   4.249
13095TIP3    H239229   2.589   0.498   4.222
13096TIP3   OH239230   3.210   4.750   4.865
13096TIP3    H139231   3.222   4.673   4.921
13096TIP3    H239232   3.119   4.776   4.879
13097TIP3   OH239233   3.511   2.721   3.936
13097TIP3    H139234   3.549   2.804   3.963
13097TIP3    H239235   3.553   2.702   3.852
13098TIP3   OH239236   5.336   6.355   4.301
13098TIP3    H139237   5.345   6.268   4.338
13098TIP3    H239238   5.276   6.400   4.361
13099TIP3   OH239239   6.429   6.744   0.719
13099TIP3    H139240   6.407   6.699   0.637
13099TIP3    H239241   6.524   6.748   0.720
13100TIP3   OH239242   1.479   0.525   0.971
13100TIP3    H139243   1.387   0.551   0.983
13100TIP3    H239244   1.519   0.536   1.057
13101TIP3   OH239245   4.025   4.406   5.667
13101TIP3    H139246   4.004   4.459   5.590
13101TIP3    H239247   3.999   4.317   5.642
13102TIP3   OH239248   1.946   0.876   2.941
13102TIP3    H139249   1.940   0.805   3.005
13102TIP3    H239250   2.032   0.916   2.958
13103TIP3   OH239251   0.818   0.615   1.249
13103TIP3    H139252   0.829   0.576   1.162
13103TIP3    H239253   0.731   0.587   1.277
13104TIP3   OH239254   2.750   7.608   6.724
13104TIP3    H139255   2.808   7.572   6.656
13104TIP3    H239256   2.699   7.533   6.754
13105TIP3   OH239257   1.410   6.819   2.878
13105TIP3    H139258   1.317   6.807   2.858
13105TIP3    H239259   1.447   6.857   2.798
13106TIP3   OH239260   4.611   2.439   6.399
13106TIP3    H139261   4.687   2.496   6.406
13106TIP3    H239262   4.561   2.475   6.325
13107TIP3   OH239263   6.459   1.918   0.412
13107TIP3    H139264   6.467   1.837   0.464
13107TIP3    H239265   6.476   1.890   0.322
13108TIP3   OH239266   8.286   2.228   2.206
13108TIP3    H139267   8.206   2.209   2.255
13108TIP3    H239268   8.330   2.144   2.197
13109TIP3   OH239269   5.361   5.615   1.144
13109TIP3    H139270   5.379   5.559   1.219
13109TIP3    H239271   5.389   5.563   1.068
13110TIP3   OH239272   3.211   3.120   6.109
13110TIP3    H139273   3.137   3.060   6.115
13110TIP3    H239274   3.252   3.116   6.195
13111TIP3   OH239275   1.313   2.187   1.376
13111TIP3    H139276   1.331   2.105   1.422
13111TIP3    H239277   1.252   2.234   1.433
13112TIP3   OH239278   5.150   6.105   4.629
13112TIP3    H139279   5.147   6.054   4.711
13112TIP3    H239280   5.102   6.051   4.566
13113TIP3   OH239281   1.777   6.627   5.852
13113TIP3    H139282   1.728   6.699   5.893
13113TIP3    H239283   1.712   6.583   5.797
13114TIP3   OH239284   7.594   4.502   3.510
13114TIP3    H139285   7.503   4.476   3.525
13114TIP3    H239286   7.592   4.598   3.514
13115TIP3   OH239287   7.274   4.519   2.216
13115TIP3    H139288   7.301   4.436   2.176
13115TIP3    H239289   7.198   4.547   2.164
13116TIP3   OH239290   5.998   5.297   3.748
13116TIP3    H139291   6.052   5.255   3.815
13116TIP3    H239292   5.911   5.258   3.760
13117TIP3   OH239293   2.929   5.502   5.414
13117TIP3    H139294   2.909   5.525   5.504
13117TIP3    H239295   2.856   5.535   5.363
13118TIP3   OH239296   1.841   1.734   0.686
13118TIP3    H139297   1.863   1.642   0.698
13118TIP3    H239298   1.747   1.734   0.666
13119TIP3   OH239299   3.075   7.742   5.465
13119TIP3    H139300   2.987   7.771   5.491
13119TIP3    H239301   3.129   7.820   5.469
13120TIP3   OH239302   5.083   3.564   4.900
13120TIP3    H139303   4.997   3.592   4.930
13120TIP3    H239304   5.095   3.609   4.816
13121TIP3   OH239305   6.285   4.669   1.536
13121TIP3    H139306   6.269   4.690   1.444
13121TIP3    H239307   6.377   4.690   1.550
13122TIP3   OH239308   1.435   0.988   5.421
13122TIP3    H139309   1.516   1.035   5.443
13122TIP3    H239310   1.454   0.897   5.443
13123TIP3   OH239311   2.321   3.094   0.742
13123TIP3    H139312   2.371   3.145   0.805
13123TIP3    H239313   2.342   3.132   0.657
13124TIP3   OH239314   5.188   6.067   3.339
13124TIP3    H139315   5.099   6.046   3.366
13124TIP3    H239316   5.218   6.132   3.403
13125TIP3   OH239317   2.823   1.842   0.206
13125TIP3    H139318   2.731   1.855   0.228
13125TIP3    H239319   2.832   1.747   0.195
13126TIP3   OH239320   3.176   1.809   5.250
13126TIP3    H139321   3.160   1.716   5.237
13126TIP3    H239322   3.271   1.816   5.259
13127TIP3   OH239323   1.065   4.557   6.306
13127TIP3    H139324   1.137   4.548   6.367
13127TIP3    H239325   0.992   4.588   6.360
13128TIP3   OH239326   7.872   2.421   1.517
13128TIP3    H139327   7.876   2.372   1.435
13128TIP3    H239328   7.934   2.493   1.505
13129TIP3   OH239329   7.831   3.662   6.549
13129TIP3    H139330   7.771   3.732   6.573
13129TIP3    H239331   7.775   3.590   6.521
13130TIP3   OH239332   4.370   0.146   3.948
13130TIP3    H139333   4.382   0.102   4.032
13130TIP3    H239334   4.276   0.140   3.931
13131TIP3   OH239335   5.768   7.374   5.150
13131TIP3    H139336   5.748   7.316   5.077
13131TIP3    H239337   5.863   7.383   5.148
13132TIP3   OH239338   0.658   4.578   3.140
13132TIP3    H139339   0.710   4.614   3.212
13132TIP3    H239340   0.610   4.653   3.105
13133TIP3   OH239341   5.044   5.279   3.182
13133TIP3    H139342   5.009   5.227   3.109
13133TIP3    H239343   5.130   5.241   3.199
13134TIP3   OH239344   7.631   7.583   3.601
13134TIP3    H139345   7.633   7.655   3.538
13134TIP3    H239346   7.624   7.505   3.547
13135TIP3   OH239347   3.600   6.476   0.344
13135TIP3    H139348   3.611   6.559   0.297
13135TIP3    H239349   3.653   6.414   0.294
13136TIP3   OH239350   7.895   4.917   0.072
13136TIP3    H139351   7.931   4.920  -0.017
13136TIP3    H239352   7.804   4.889   0.060
13137TIP3   OH239353   0.195   7.299   1.762
13137TIP3    H139354   0.183   7.242   1.686
13137TIP3    H239355   0.117   7.284   1.815
13138TIP3   OH239356   6.518   0.862   2.738
13138TIP3    H139357   6.442   0.829   2.689
13138TIP3    H239358   6.591   0.811   2.704
13139TIP3   OH239359   7.932   4.049   3.994
13139TIP3    H139360   7.909   4.035   3.902
13139TIP3    H239361   7.925   4.144   4.006
13140TIP3   OH239362   0.770   7.464   4.129
13140TIP3    H139363   0.783   7.387   4.073
13140TIP3    H239364   0.677   7.459   4.154
13141TIP3   OH239365   5.025   4.035   4.460
13141TIP3    H139366   5.028   3.984   4.380
13141TIP3    H239367   4.954   3.995   4.511
13142TIP3   OH239368   6.814   1.606   2.252
13142TIP3    H139369   6.854   1.519   2.259
13142TIP3    H239370   6.887   1.667   2.265
13143TIP3   OH239371   1.582   4.482   1.569
13143TIP3    H139372   1.601   4.483   1.663
13143TIP3    H239373   1.668   4.480   1.527
13144TIP3   OH239374   7.649   4.971   2.453
13144TIP3    H139375   7.599   5.049   2.430
13144TIP3    H239376   7.594   4.898   2.427
13145TIP3   OH239377   6.744   7.765   3.728
13145TIP3    H139378   6.768   7.752   3.820
13145TIP3    H239379   6.651   7.743   3.724
13146TIP3   OH239380   8.161   2.510   5.997
13146TIP3    H139381   8.168   2.436   6.057
13146TIP3    H239382   8.220   2.486   5.925
13147TIP3   OH239383   7.243   3.449   2.992
13147TIP3    H139384   7.334   3.431   2.965
13147TIP3    H239385   7.237   3.544   2.994
13148TIP3   OH239386   1.137   4.156   1.705
13148TIP3    H139387   1.169   4.113   1.626
13148TIP3    H239388   1.100   4.086   1.757
13149TIP3   OH239389   7.312   1.425   6.042
13149TIP3    H139390   7.360   1.354   6.001
13149TIP3    H239391   7.249   1.381   6.099
13150TIP3   OH239392   6.968   4.918   6.589
13150TIP3    H139393   6.974   4.913   6.684
13150TIP3    H239394   6.874   4.915   6.571
13151TIP3   OH239395   3.005   3.636   3.203
13151TIP3    H139396   3.006   3.595   3.116
13151TIP3    H239397   3.083   3.602   3.247
13152TIP3   OH239398   7.798   1.121   0.883
13152TIP3    H139399   7.737   1.192   0.862
13152TIP3    H239400   7.803   1.069   0.802
13153TIP3   OH239401   7.809   7.692   2.998
13153TIP3    H139402   7.864   7.732   2.931
13153TIP3    H239403   7.720   7.712   2.971
13154TIP3   OH239404   0.969   0.904   1.939
13154TIP3    H139405   0.889   0.855   1.960
13154TIP3    H239406   1.037   0.838   1.933
13155TIP3   OH239407   1.206   7.529   4.822
13155TIP3    H139408   1.277   7.582   4.858
13155TIP3    H239409   1.198   7.456   4.884
13156TIP3   OH239410   2.290   0.705   0.581
13156TIP3    H139411   2.279   0.695   0.676
13156TIP3    H239412   2.309   0.798   0.569
13157TIP3   OH239413   0.985   2.053   0.626
13157TIP3    H139414   1.046   1.980   0.634
13157TIP3    H239415   1.035   2.129   0.654
13158TIP3   OH239416   6.926   4.008   4.717
13158TIP3    H139417   6.832   4.028   4.716
13158TIP3    H239418   6.967   4.089   4.685
13159TIP3   OH239419   5.694   5.221   4.691
13159TIP3    H139420   5.623   5.173   4.649
13159TIP3    H239421   5.689   5.196   4.783
13160TIP3   OH239422   4.417   6.656   6.244
13160TIP3    H139423   4.504   6.687   6.219
13160TIP3    H239424   4.418   6.562   6.225
13161TIP3   OH239425   7.371   2.636   3.291
13161TIP3    H139426   7.392   2.560   3.345
13161TIP3    H239427   7.391   2.609   3.202
13162TIP3   OH239428   4.872   2.349   0.079
13162TIP3    H139429   4.824   2.275   0.042
13162TIP3    H239430   4.939   2.310   0.135
13163TIP3   OH239431   2.064   3.365   1.238
13163TIP3    H139432   2.025   3.411   1.313
13163TIP3    H239433   2.025   3.278   1.240
13164TIP3   OH239434   1.535   2.788   3.704
13164TIP3    H139435   1.543   2.856   3.772
13164TIP3    H239436   1.565   2.832   3.624
13165TIP3   OH239437   1.103   2.061   5.449
13165TIP3    H139438   1.137   2.120   5.516
13165TIP3    H239439   1.092   2.115   5.371
13166TIP3   OH239440   2.539   3.124   1.415
13166TIP3    H139441   2.490   3.202   1.438
13166TIP3    H239442   2.624   3.135   1.459
13167TIP3   OH239443   1.965   7.087   4.362
13167TIP3    H139444   2.029   7.121   4.300
13167TIP3    H239445   2.014   7.073   4.443
13168TIP3   OH239446   4.519   2.269   2.854
13168TIP3    H139447   4.438   2.226   2.825
13168TIP3    H239448   4.539   2.330   2.783
13169TIP3   OH239449   0.063   7.490   4.994
13169TIP3    H139450  -0.008   7.533   5.043
13169TIP3    H239451   0.080   7.410   5.044
13170TIP3   OH239452   3.900   7.037   1.474
13170TIP3    H139453   3.896   6.998   1.386
13170TIP3    H239454   3.866   6.968   1.532
13171TIP3   OH239455   5.615   4.726   1.668
13171TIP3    H139456   5.696   4.754   1.712
13171TIP3    H239457   5.644   4.664   1.602
13172TIP3   OH239458   4.028   6.769   0.397
13172TIP3    H139459   4.106   6.774   0.452
13172TIP3    H239460   3.982   6.691   0.427
13173TIP3   OH239461   0.716   0.796   4.672
13173TIP3    H139462   0.756   0.825   4.754
13173TIP3    H239463   0.636   0.751   4.699
13174TIP3   OH239464   1.780   5.715   0.125
13174TIP3    H139465   1.850   5.700   0.189
13174TIP3    H239466   1.770   5.810   0.123
13175TIP3   OH239467   1.463   7.805   4.448
13175TIP3    H139468   1.459   7.858   4.527
13175TIP3    H239469   1.427   7.720   4.475
13176TIP3   OH239470   5.261   0.012   4.161
13176TIP3    H139471   5.227   0.021   4.250
13176TIP3    H239472   5.200   0.062   4.106
13177TIP3   OH239473   2.933   6.019   2.692
13177TIP3    H139474   2.977   6.105   2.688
13177TIP3    H239475   2.842   6.038   2.670
13178TIP3   OH239476   0.068   1.615   4.005
13178TIP3    H139477  -0.017   1.632   4.046
13178TIP3    H239478   0.068   1.521   3.986
13179TIP3   OH239479   6.975   4.394   2.096
13179TIP3    H139480   6.925   4.446   2.160
13179TIP3    H239481   7.034   4.457   2.055
13180TIP3   OH239482   4.336   5.589   2.902
13180TIP3    H139483   4.417   5.572   2.855
13180TIP3    H239484   4.290   5.655   2.850
13181TIP3   OH239485   7.683   4.365   3.285
13181TIP3    H139486   7.651   4.409   3.364
13181TIP3    H239487   7.691   4.273   3.311
13182TIP3   OH239488   4.358   7.523   5.705
13182TIP3    H139489   4.403   7.526   5.620
13182TIP3    H239490   4.406   7.584   5.760
13183TIP3   OH239491   6.591   2.345   2.235
13183TIP3    H139492   6.641   2.283   2.182
13183TIP3    H239493   6.640   2.427   2.231
13184TIP3   OH239494   0.210   2.355   4.293
13184TIP3    H139495   0.138   2.418   4.299
13184TIP3    H239496   0.255   2.361   4.377
13185TIP3   OH239497   2.887   0.799   0.704
13185TIP3    H139498   2.863   0.803   0.797
13185TIP3    H239499   2.806   0.816   0.657
13186TIP3   OH239500   1.192   0.302   2.966
13186TIP3    H139501   1.162   0.219   2.930
13186TIP3    H239502   1.206   0.284   3.059
13187TIP3   OH239503   6.299   3.418   2.016
13187TIP3    H139504   6.298   3.511   2.037
13187TIP3    H239505   6.343   3.377   2.090
13188TIP3   OH239506   6.731   2.503   5.698
13188TIP3    H139507   6.665   2.478   5.763
13188TIP3    H239508   6.708   2.452   5.620
13189TIP3   OH239509   1.428   3.230   5.600
13189TIP3    H139510   1.444   3.202   5.510
13189TIP3    H239511   1.338   3.263   5.600
13190TIP3   OH239512   3.824   0.789   2.265
13190TIP3    H139513   3.808   0.708   2.216
13190TIP3    H239514   3.873   0.844   2.204
13191TIP3   OH239515   6.501   6.330   0.881
13191TIP3    H139516   6.448   6.378   0.945
13191TIP3    H239517   6.476   6.366   0.796
13192TIP3   OH239518   1.646   3.206   1.024
13192TIP3    H139519   1.643   3.301   1.036
13192TIP3    H239520   1.707   3.192   0.952
13193TIP3   OH239521   7.865   3.872   4.835
13193TIP3    H139522   7.831   3.803   4.779
13193TIP3    H239523   7.960   3.864   4.828
13194TIP3   OH239524   4.884   0.818   1.830
13194TIP3    H139525   4.931   0.745   1.871
13194TIP3    H239526   4.935   0.838   1.751
13195TIP3   OH239527   6.433   7.464   3.499
13195TIP3    H139528   6.348   7.437   3.534
13195TIP3    H239529   6.412   7.531   3.434
13196TIP3   OH239530   7.152   1.258   1.594
13196TIP3    H139531   7.183   1.348   1.582
13196TIP3    H239532   7.091   1.244   1.522
13197TIP3   OH239533   2.658   4.542   2.855
13197TIP3    H139534   2.649   4.452   2.824
13197TIP3    H239535   2.576   4.585   2.830
13198TIP3   OH239536   0.181   6.321   3.256
13198TIP3    H139537   0.239   6.336   3.181
13198TIP3    H239538   0.171   6.407   3.297
13199TIP3   OH239539   5.814   0.155   6.441
13199TIP3    H139540   5.877   0.118   6.379
13199TIP3    H239541   5.856   0.235   6.473
13200TIP3   OH239542   0.742   4.082   3.127
13200TIP3    H139543   0.676   4.032   3.175
13200TIP3    H239544   0.820   4.027   3.129
13201TIP3   OH239545   1.960   4.629   2.371
13201TIP3    H139546   1.913   4.545   2.372
13201TIP3    H239547   2.052   4.605   2.373
13202TIP3   OH239548   3.765   0.963   1.392
13202TIP3    H139549   3.684   0.936   1.435
13202TIP3    H239550   3.738   0.987   1.303
13203TIP3   OH239551   4.908   5.490   5.780
13203TIP3    H139552   4.980   5.460   5.837
13203TIP3    H239553   4.913   5.433   5.704
13204TIP3   OH239554   6.001   2.981   3.896
13204TIP3    H139555   5.920   2.967   3.946
13204TIP3    H239556   5.994   2.922   3.822
13205TIP3   OH239557   2.851   6.898   5.484
13205TIP3    H139558   2.796   6.917   5.560
13205TIP3    H239559   2.837   6.973   5.425
13206TIP3   OH239560   7.634   3.540   5.484
13206TIP3    H139561   7.612   3.604   5.552
13206TIP3    H239562   7.598   3.578   5.404
13207TIP3   OH239563   5.756   1.540   4.910
13207TIP3    H139564   5.720   1.559   4.997
13207TIP3    H239565   5.771   1.445   4.911
13208TIP3   OH239566   6.367   0.600   3.282
13208TIP3    H139567   6.416   0.546   3.345
13208TIP3    H239568   6.395   0.690   3.301
13209TIP3   OH239569   3.203   4.145   1.967
13209TIP3    H139570   3.265   4.217   1.953
13209TIP3    H239571   3.176   4.155   2.058
13210TIP3   OH239572   6.403   7.554   2.141
13210TIP3    H139573   6.371   7.575   2.229
13210TIP3    H239574   6.355   7.476   2.115
13211TIP3   OH239575   0.252   5.348   4.848
13211TIP3    H139576   0.160   5.346   4.875
13211TIP3    H239577   0.251   5.392   4.763
13212TIP3   OH239578   2.118   5.541   1.927
13212TIP3    H139579   2.121   5.450   1.957
13212TIP3    H239580   2.067   5.587   1.994
13213TIP3   OH239581   0.675   4.187   2.232
13213TIP3    H139582   0.592   4.163   2.274
13213TIP3    H239583   0.683   4.281   2.248
13214TIP3   OH239584   1.129   1.194   2.484
13214TIP3    H139585   1.168   1.121   2.532
13214TIP3    H239586   1.167   1.187   2.396
13215TIP3   OH239587   8.168   2.290   3.207
13215TIP3    H139588   8.172   2.272   3.301
13215TIP3    H239589   8.254   2.327   3.187
13216TIP3   OH239590   2.948   5.329   2.448
13216TIP3    H139591   2.908   5.404   2.492
13216TIP3    H239592   3.036   5.359   2.426
13217TIP3   OH239593   5.488   1.290   0.086
13217TIP3    H139594   5.419   1.251   0.139
13217TIP3    H239595   5.499   1.229   0.013
13218TIP3   OH239596   2.009   6.492   1.686
13218TIP3    H139597   1.947   6.564   1.695
13218TIP3    H239598   1.957   6.418   1.654
13219TIP3   OH239599   7.144   1.676   3.567
13219TIP3    H139600   7.147   1.727   3.648
13219TIP3    H239601   7.051   1.667   3.547
13220TIP3   OH239602   6.165   3.102   4.383
13220TIP3    H139603   6.161   3.041   4.309
13220TIP3    H239604   6.242   3.156   4.366
13221TIP3   OH239605   1.376   6.866   5.065
13221TIP3    H139606   1.369   6.892   5.157
13221TIP3    H239607   1.410   6.943   5.021
13222TIP3   OH239608   1.193   7.174   3.518
13222TIP3    H139609   1.281   7.138   3.514
13222TIP3    H239610   1.206   7.269   3.521
13223TIP3   OH239611   4.528   0.372   5.455
13223TIP3    H139612   4.590   0.397   5.386
13223TIP3    H239613   4.464   0.442   5.457
13224TIP3   OH239614   6.828   1.048   1.680
13224TIP3    H139615   6.875   1.126   1.707
13224TIP3    H239616   6.834   1.047   1.585
13225TIP3   OH239617   5.662   2.348   5.206
13225TIP3    H139618   5.644   2.304   5.123
13225TIP3    H239619   5.670   2.441   5.183
13226TIP3   OH239620   4.182   5.887   2.933
13226TIP3    H139621   4.204   5.910   3.023
13226TIP3    H239622   4.267   5.869   2.892
13227TIP3   OH239623   7.811   6.438   4.122
13227TIP3    H139624   7.762   6.425   4.041
13227TIP3    H239625   7.766   6.382   4.186
13228TIP3   OH239626   4.625   7.054   2.011
13228TIP3    H139627   4.662   6.988   2.070
13228TIP3    H239628   4.679   7.132   2.026
13229TIP3   OH239629   7.883   1.984   1.595
13229TIP3    H139630   7.878   2.049   1.524
13229TIP3    H239631   7.893   1.900   1.551
13230TIP3   OH239632   3.567   4.464   6.764
13230TIP3    H139633   3.636   4.403   6.790
13230TIP3    H239634   3.568   4.463   6.669
13231TIP3   OH239635   0.799   6.946   0.442
13231TIP3    H139636   0.835   6.924   0.356
13231TIP3    H239637   0.739   7.018   0.425
13232TIP3   OH239638   1.764   1.328   5.041
13232TIP3    H139639   1.735   1.237   5.047
13232TIP3    H239640   1.683   1.379   5.043
13233TIP3   OH239641   5.643   1.577   5.162
13233TIP3    H139642   5.666   1.666   5.189
13233TIP3    H239643   5.574   1.551   5.223
13234TIP3   OH239644   5.000   1.297   0.789
13234TIP3    H139645   5.050   1.328   0.714
13234TIP3    H239646   5.054   1.321   0.865
13235TIP3   OH239647   3.381   2.443   4.254
13235TIP3    H139648   3.348   2.479   4.337
13235TIP3    H239649   3.450   2.504   4.228
13236TIP3   OH239650   4.095   1.572   1.221
13236TIP3    H139651   4.140   1.590   1.138
13236TIP3    H239652   4.157   1.598   1.289
13237TIP3   OH239653   2.036   2.846   1.754
13237TIP3    H139654   2.037   2.909   1.826
13237TIP3    H239655   2.100   2.879   1.692
13238TIP3   OH239656   0.924   3.124   1.984
13238TIP3    H139657   1.003   3.153   2.030
13238TIP3    H239658   0.853   3.138   2.047
13239TIP3   OH239659   4.623   3.729   5.957
13239TIP3    H139660   4.686   3.698   6.022
13239TIP3    H239661   4.601   3.818   5.984
13240TIP3   OH239662   5.920   3.237   3.401
13240TIP3    H139663   5.839   3.216   3.448
13240TIP3    H239664   5.980   3.166   3.425
13241TIP3   OH239665   3.283   0.442   6.313
13241TIP3    H139666   3.333   0.460   6.392
13241TIP3    H239667   3.236   0.523   6.295
13242TIP3   OH239668   4.346   7.745   6.610
13242TIP3    H139669   4.442   7.750   6.603
13242TIP3    H239670   4.321   7.831   6.644
13243TIP3   OH239671   3.387   3.041   6.336
13243TIP3    H139672   3.333   3.009   6.409
13243TIP3    H239673   3.459   2.978   6.331
13244TIP3   OH239674   5.329   7.689   1.394
13244TIP3    H139675   5.274   7.678   1.472
13244TIP3    H239676   5.282   7.643   1.324
13245TIP3   OH239677   6.319   0.692   4.710
13245TIP3    H139678   6.259   0.622   4.736
13245TIP3    H239679   6.276   0.733   4.634
13246TIP3   OH239680   6.721   6.341   6.379
13246TIP3    H139681   6.660   6.381   6.442
13246TIP3    H239682   6.671   6.269   6.341
13247TIP3   OH239683   2.516   0.256   5.613
13247TIP3    H139684   2.552   0.174   5.579
13247TIP3    H239685   2.470   0.231   5.693
13248TIP3   OH239686   5.326   5.896   2.076
13248TIP3    H139687   5.355   5.981   2.109
13248TIP3    H239688   5.231   5.897   2.089
13249TIP3   OH239689   4.444   7.534   4.804
13249TIP3    H139690   4.404   7.600   4.860
13249TIP3    H239691   4.498   7.481   4.863
13250TIP3   OH239692   7.038   5.841   6.193
13250TIP3    H139693   6.999   5.779   6.255
13250TIP3    H239694   7.081   5.906   6.248
13251TIP3   OH239695   4.161   3.682   0.532
13251TIP3    H139696   4.074   3.647   0.550
13251TIP3    H239697   4.218   3.639   0.596
13252TIP3   OH239698   4.242   3.663   0.002
13252TIP3    H139699   4.210   3.673   0.092
13252TIP3    H239700   4.331   3.698   0.005
13253TIP3   OH239701   4.164   1.911   4.735
13253TIP3    H139702   4.184   1.933   4.644
13253TIP3    H239703   4.196   1.821   4.745
13254TIP3   OH239704   7.135   1.509   0.938
13254TIP3    H139705   7.219   1.491   0.898
13254TIP3    H239706   7.076   1.527   0.865
13255TIP3   OH239707   3.679   4.582   2.092
13255TIP3    H139708   3.674   4.494   2.128
13255TIP3    H239709   3.602   4.627   2.127
13256TIP3   OH239710   1.170   7.212   4.902
13256TIP3    H139711   1.195   7.295   4.943
13256TIP3    H239712   1.234   7.149   4.933
13257TIP3   OH239713   3.334   1.021   3.521
13257TIP3    H139714   3.277   1.093   3.545
13257TIP3    H239715   3.292   0.942   3.556
13258TIP3   OH239716   0.920   4.842   0.281
13258TIP3    H139717   0.920   4.755   0.322
13258TIP3    H239718   0.894   4.902   0.351
13259TIP3   OH239719   3.478   3.108   3.069
13259TIP3    H139720   3.574   3.103   3.078
13259TIP3    H239721   3.446   3.093   3.158
13260TIP3   OH239722   6.451   4.660   4.842
13260TIP3    H139723   6.416   4.651   4.931
13260TIP3    H239724   6.409   4.589   4.793
13261TIP3   OH239725   0.145   0.243   2.119
13261TIP3    H139726   0.089   0.314   2.089
13261TIP3    H239727   0.096   0.202   2.191
13262TIP3   OH239728   5.278   2.865   4.307
13262TIP3    H139729   5.213   2.901   4.247
13262TIP3    H239730   5.243   2.882   4.394
13263TIP3   OH239731   5.003   4.883   0.086
13263TIP3    H139732   5.039   4.887   0.175
13263TIP3    H239733   5.043   4.805   0.047
13264TIP3   OH239734   6.737   4.131   6.701
13264TIP3    H139735   6.676   4.197   6.668
13264TIP3    H239736   6.819   4.149   6.655
13265TIP3   OH239737   1.835   6.268   0.337
13265TIP3    H139738   1.829   6.362   0.352
13265TIP3    H239739   1.906   6.239   0.395
13266TIP3   OH239740   5.227   2.465   1.237
13266TIP3    H139741   5.176   2.439   1.160
13266TIP3    H239742   5.171   2.526   1.283
13267TIP3   OH239743   6.210   5.329   5.211
13267TIP3    H139744   6.137   5.348   5.270
13267TIP3    H239745   6.268   5.405   5.220
13268TIP3   OH239746   7.574   6.357   0.872
13268TIP3    H139747   7.527   6.378   0.792
13268TIP3    H239748   7.544   6.422   0.936
13269TIP3   OH239749   5.697   2.255   0.689
13269TIP3    H139750   5.718   2.307   0.766
13269TIP3    H239751   5.780   2.214   0.665
13270TIP3   OH239752   5.211   6.307   6.183
13270TIP3    H139753   5.229   6.302   6.090
13270TIP3    H239754   5.116   6.299   6.190
13271TIP3   OH239755   4.384   3.932   1.188
13271TIP3    H139756   4.395   4.023   1.160
13271TIP3    H239757   4.289   3.918   1.186
13272TIP3   OH239758   1.205   6.480   0.030
13272TIP3    H139759   1.180   6.398  -0.013
13272TIP3    H239760   1.254   6.451   0.108
13273TIP3   OH239761   0.361   4.910   1.845
13273TIP3    H139762   0.294   4.946   1.786
13273TIP3    H239763   0.312   4.876   1.919
13274TIP3   OH239764   4.601   3.696   0.963
13274TIP3    H139765   4.563   3.722   0.880
13274TIP3    H239766   4.659   3.768   0.987
13275TIP3   OH239767   3.203   7.789   2.240
13275TIP3    H139768   3.207   7.722   2.171
13275TIP3    H239769   3.114   7.783   2.274
13276TIP3   OH239770   5.804   0.983   5.787
13276TIP3    H139771   5.889   1.026   5.786
13276TIP3    H239772   5.813   0.909   5.727
13277TIP3   OH239773   2.482   7.414   5.513
13277TIP3    H139774   2.463   7.508   5.518
13277TIP3    H239775   2.401   7.375   5.482
13278TIP3   OH239776   1.768   6.111   2.813
13278TIP3    H139777   1.741   6.198   2.844
13278TIP3    H239778   1.750   6.053   2.887
13279TIP3   OH239779   7.981   0.750   2.452
13279TIP3    H139780   7.974   0.703   2.535
13279TIP3    H239781   8.072   0.741   2.427
13280TIP3   OH239782   2.407   7.762   3.358
13280TIP3    H139783   2.494   7.747   3.394
13280TIP3    H239784   2.408   7.854   3.330
13281TIP3   OH239785   6.507   2.809   1.657
13281TIP3    H139786   6.492   2.784   1.748
13281TIP3    H239787   6.585   2.864   1.659
13282TIP3   OH239788   2.582   6.846   4.771
13282TIP3    H139789   2.622   6.877   4.690
13282TIP3    H239790   2.642   6.876   4.840
13283TIP3   OH239791   5.484   2.429   2.533
13283TIP3    H139792   5.410   2.485   2.511
13283TIP3    H239793   5.557   2.466   2.483
13284TIP3   OH239794   5.946   5.220   0.532
13284TIP3    H139795   6.024   5.223   0.476
13284TIP3    H239796   5.906   5.134   0.514
13285TIP3   OH239797   3.938   5.876   5.125
13285TIP3    H139798   3.970   5.865   5.214
13285TIP3    H239799   3.843   5.864   5.132
13286TIP3   OH239800   0.386   5.680   3.404
13286TIP3    H139801   0.362   5.591   3.429
13286TIP3    H239802   0.372   5.683   3.309
13287TIP3   OH239803   2.426   5.206   5.894
13287TIP3    H139804   2.402   5.138   5.957
13287TIP3    H239805   2.522   5.210   5.898
13288TIP3   OH239806   5.504   0.281   2.619
13288TIP3    H139807   5.410   0.277   2.638
13288TIP3    H239808   5.531   0.368   2.649
13289TIP3   OH239809   6.072   1.782   2.319
13289TIP3    H139810   6.160   1.811   2.343
13289TIP3    H239811   6.068   1.794   2.224
13290TIP3   OH239812   7.514   5.939   4.124
13290TIP3    H139813   7.484   5.851   4.103
13290TIP3    H239814   7.507   5.988   4.042
13291TIP3   OH239815   4.813   0.308   6.201
13291TIP3    H139816   4.722   0.307   6.172
13291TIP3    H239817   4.862   0.268   6.129
13292TIP3   OH239818   7.932   3.253   0.551
13292TIP3    H139819   8.022   3.223   0.564
13292TIP3    H239820   7.940   3.348   0.539
13293TIP3   OH239821   2.276   4.526   4.563
13293TIP3    H139822   2.244   4.600   4.613
13293TIP3    H239823   2.361   4.555   4.528
13294TIP3   OH239824   7.295   4.947   1.805
13294TIP3    H139825   7.320   4.915   1.891
13294TIP3    H239826   7.207   4.982   1.816
13295TIP3   OH239827   3.779   1.308   4.821
13295TIP3    H139828   3.852   1.276   4.768
13295TIP3    H239829   3.710   1.327   4.758
13296TIP3   OH239830   2.058   1.294   5.079
13296TIP3    H139831   1.963   1.298   5.066
13296TIP3    H239832   2.086   1.386   5.077
13297TIP3   OH239833   1.441   1.756   1.989
13297TIP3    H139834   1.346   1.752   1.999
13297TIP3    H239835   1.458   1.844   1.956
13298TIP3   OH239836   4.126   5.377   3.079
13298TIP3    H139837   4.148   5.373   2.986
13298TIP3    H239838   4.103   5.468   3.094
13299TIP3   OH239839   4.377   0.089   4.960
13299TIP3    H139840   4.431   0.020   4.998
13299TIP3    H239841   4.440   0.157   4.934
13300TIP3   OH239842   0.298   4.654   6.481
13300TIP3    H139843   0.280   4.628   6.571
13300TIP3    H239844   0.285   4.574   6.429
13301TIP3   OH239845   4.973   6.620   5.543
13301TIP3    H139846   4.923   6.696   5.573
13301TIP3    H239847   4.930   6.545   5.584
13302TIP3   OH239848   7.583   2.357   4.685
13302TIP3    H139849   7.591   2.293   4.614
13302TIP3    H239850   7.672   2.385   4.702
13303TIP3   OH239851   2.773   2.882   2.611
13303TIP3    H139852   2.697   2.939   2.603
13303TIP3    H239853   2.737   2.793   2.610
13304TIP3   OH239854   4.275   4.908   3.112
13304TIP3    H139855   4.254   4.969   3.183
13304TIP3    H239856   4.241   4.823   3.142
13305TIP3   OH239857   1.363   3.670   0.193
13305TIP3    H139858   1.361   3.764   0.210
13305TIP3    H239859   1.451   3.642   0.218
13306TIP3   OH239860   2.691   3.762   1.421
13306TIP3    H139861   2.724   3.696   1.360
13306TIP3    H239862   2.750   3.756   1.497
13307TIP3   OH239863   2.303   3.818   2.028
13307TIP3    H139864   2.334   3.844   2.115
13307TIP3    H239865   2.214   3.785   2.043
13308TIP3   OH239866   7.428   1.218   5.899
13308TIP3    H139867   7.505   1.162   5.902
13308TIP3    H239868   7.430   1.256   5.811
13309TIP3   OH239869   2.113   0.401   3.938
13309TIP3    H139870   2.121   0.385   4.032
13309TIP3    H239871   2.180   0.345   3.898
13310TIP3   OH239872   1.982   4.701   0.195
13310TIP3    H139873   1.990   4.729   0.286
13310TIP3    H239874   1.889   4.678   0.186
13311TIP3   OH239875   4.684   4.956   5.754
13311TIP3    H139876   4.606   4.989   5.709
13311TIP3    H239877   4.661   4.960   5.847
13312TIP3   OH239878   3.946   5.409   3.571
13312TIP3    H139879   3.950   5.335   3.511
13312TIP3    H239880   3.989   5.481   3.524
13313TIP3   OH239881   5.148   0.305   6.697
13313TIP3    H139882   5.196   0.362   6.756
13313TIP3    H239883   5.194   0.221   6.701
13314TIP3   OH239884   0.877   0.863   6.365
13314TIP3    H139885   0.784   0.857   6.346
13314TIP3    H239886   0.896   0.957   6.363
13315TIP3   OH239887   0.186   7.384   4.220
13315TIP3    H139888   0.244   7.355   4.149
13315TIP3    H239889   0.119   7.436   4.177
13316TIP3   OH239890   8.238   4.603   1.723
13316TIP3    H139891   8.256   4.565   1.809
13316TIP3    H239892   8.167   4.549   1.687
13317TIP3   OH239893   0.585   1.158   4.324
13317TIP3    H139894   0.666   1.207   4.310
13317TIP3    H239895   0.555   1.186   4.410
13318TIP3   OH239896   1.371   5.312   0.429
13318TIP3    H139897   1.327   5.228   0.413
13318TIP3    H239898   1.374   5.355   0.344
13319TIP3   OH239899   7.081   3.660   2.186
13319TIP3    H139900   7.014   3.595   2.165
13319TIP3    H239901   7.038   3.744   2.172
13320TIP3   OH239902   2.597   1.985   6.364
13320TIP3    H139903   2.530   2.050   6.344
13320TIP3    H239904   2.641   2.020   6.442
13321TIP3   OH239905   0.098   1.002   2.674
13321TIP3    H139906   0.095   1.097   2.683
13321TIP3    H239907   0.156   0.987   2.600
13322TIP3   OH239908   2.500   3.519   2.036
13322TIP3    H139909   2.540   3.604   2.019
13322TIP3    H239910   2.406   3.537   2.038
13323TIP3   OH239911   6.082   1.372   0.392
13323TIP3    H139912   6.171   1.367   0.427
13323TIP3    H239913   6.092   1.351   0.299
13324TIP3   OH239914   3.304   2.511   2.615
13324TIP3    H139915   3.391   2.470   2.618
13324TIP3    H239916   3.309   2.571   2.541
13325TIP3   OH239917   6.085   5.806   3.069
13325TIP3    H139918   6.063   5.784   3.160
13325TIP3    H239919   6.001   5.808   3.024
13326TIP3   OH239920   7.760   4.385   2.833
13326TIP3    H139921   7.810   4.454   2.877
13326TIP3    H239922   7.709   4.430   2.767
13327TIP3   OH239923   7.831   5.811   5.583
13327TIP3    H139924   7.747   5.848   5.610
13327TIP3    H239925   7.808   5.731   5.535
13328TIP3   OH239926   2.501   6.636   0.106
13328TIP3    H139927   2.413   6.602   0.091
13328TIP3    H239928   2.538   6.578   0.173
13329TIP3   OH239929  -0.024   4.605   0.766
13329TIP3    H139930   0.021   4.612   0.850
13329TIP3    H239931   0.000   4.684   0.719
13330TIP3   OH239932   0.161   3.564   0.215
13330TIP3    H139933   0.183   3.501   0.147
13330TIP3    H239934   0.191   3.523   0.297
13331TIP3   OH239935   0.396   3.396   4.363
13331TIP3    H139936   0.314   3.425   4.323
13331TIP3    H239937   0.455   3.380   4.289
13332TIP3   OH239938   2.084   2.061   4.181
13332TIP3    H139939   2.137   2.029   4.254
13332TIP3    H239940   1.994   2.041   4.207
13333TIP3   OH239941   0.895   5.089   2.367
13333TIP3    H139942   0.850   5.025   2.312
13333TIP3    H239943   0.941   5.036   2.433
13334TIP3   OH239944   5.258   5.537   1.988
13334TIP3    H139945   5.313   5.562   2.062
13334TIP3    H239946   5.175   5.511   2.028
13335TIP3   OH239947   0.294   1.983   5.153
13335TIP3    H139948   0.350   2.037   5.208
13335TIP3    H239949   0.221   1.959   5.211
13336TIP3   OH239950   1.196   5.814   1.657
13336TIP3    H139951   1.174   5.733   1.703
13336TIP3    H239952   1.288   5.829   1.677
13337TIP3   OH239953   6.200   1.273   0.118
13337TIP3    H139954   6.283   1.272   0.166
13337TIP3    H239955   6.164   1.185   0.132
13338TIP3   OH239956   0.915   1.846   4.088
13338TIP3    H139957   0.837   1.897   4.064
13338TIP3    H239958   0.955   1.823   4.004
13339TIP3   OH239959   4.020   5.282   0.437
13339TIP3    H139960   4.093   5.248   0.386
13339TIP3    H239961   4.061   5.324   0.513
13340TIP3   OH239962   8.131   4.965   0.443
13340TIP3    H139963   8.079   4.991   0.520
13340TIP3    H239964   8.110   5.031   0.377
13341TIP3   OH239965   7.446   3.382   1.731
13341TIP3    H139966   7.414   3.302   1.774
13341TIP3    H239967   7.520   3.352   1.677
13342TIP3   OH239968   7.141   6.035   3.550
13342TIP3    H139969   7.203   6.108   3.545
13342TIP3    H239970   7.062   6.067   3.508
13343TIP3   OH239971   5.622   4.691   6.710
13343TIP3    H139972   5.608   4.603   6.745
13343TIP3    H239973   5.563   4.697   6.635
13344TIP3   OH239974   2.762   4.269   4.215
13344TIP3    H139975   2.854   4.245   4.229
13344TIP3    H239976   2.714   4.223   4.283
13345TIP3   OH239977   7.730   0.333   6.030
13345TIP3    H139978   7.713   0.313   5.938
13345TIP3    H239979   7.768   0.252   6.065
13346TIP3   OH239980   1.300   2.192   6.409
13346TIP3    H139981   1.221   2.227   6.369
13346TIP3    H239982   1.313   2.107   6.366
13347TIP3   OH239983   3.547   5.965   2.529
13347TIP3    H139984   3.452   5.970   2.520
13347TIP3    H239985   3.564   5.993   2.619
13348TIP3   OH239986   1.581   4.653   2.913
13348TIP3    H139987   1.613   4.652   2.823
13348TIP3    H239988   1.550   4.743   2.925
13349TIP3   OH239989   0.220   1.561   6.034
13349TIP3    H139990   0.234   1.600   6.120
13349TIP3    H239991   0.309   1.551   5.998
13350TIP3   OH239992   1.172   0.656   1.866
13350TIP3    H139993   1.253   0.639   1.914
13350TIP3    H239994   1.107   0.599   1.907
13351TIP3   OH239995   6.168   5.203   5.917
13351TIP3    H139996   6.244   5.162   5.876
13351TIP3    H239997   6.205   5.271   5.973
13352TIP3   OH239998   6.952   7.674   6.013
13352TIP3    H139999   7.045   7.682   5.990
13352TIP3    H240000   6.946   7.712   6.101
13353TIP3   OH240001   5.954   3.267   4.753
13353TIP3    H140002   5.994   3.205   4.814
13353TIP3    H240003   6.018   3.277   4.683
13354TIP3   OH240004   6.782   4.403   2.825
13354TIP3    H140005   6.822   4.317   2.838
13354TIP3    H240006   6.851   4.455   2.784
13355TIP3   OH240007   2.922   5.386   0.059
13355TIP3    H140008   2.831   5.388   0.029
13355TIP3    H240009   2.934   5.470   0.104
13356TIP3   OH240010   2.509   5.536   3.128
13356TIP3    H140011   2.588   5.587   3.114
13356TIP3    H240012   2.534   5.468   3.190
13357TIP3   OH240013   7.233   2.773   5.553
13357TIP3    H140014   7.140   2.752   5.562
13357TIP3    H240015   7.276   2.687   5.553
13358TIP3   OH240016   2.218   2.774   6.394
13358TIP3    H140017   2.205   2.855   6.444
13358TIP3    H240018   2.313   2.766   6.387
13359TIP3   OH240019   0.065   7.626   6.319
13359TIP3    H140020   0.048   7.564   6.248
13359TIP3    H240021   0.049   7.712   6.280
13360TIP3   OH240022   2.120   3.320   4.424
13360TIP3    H140023   2.125   3.226   4.438
13360TIP3    H240024   2.033   3.344   4.455
13361TIP3   OH240025   7.045   3.238   2.371
13361TIP3    H140026   7.084   3.150   2.363
13361TIP3    H240027   7.106   3.287   2.425
13362TIP3   OH240028   6.446   5.702   4.622
13362TIP3    H140029   6.389   5.736   4.691
13362TIP3    H240030   6.513   5.651   4.668
13363TIP3   OH240031   6.015   7.856   0.053
13363TIP3    H140032   6.066   7.932   0.081
13363TIP3    H240033   6.075   7.782   0.065
13364TIP3   OH240034   5.529   2.136   5.307
13364TIP3    H140035   5.593   2.107   5.372
13364TIP3    H240036   5.541   2.231   5.302
13365TIP3   OH240037   6.313   5.440   2.614
13365TIP3    H140038   6.378   5.474   2.552
13365TIP3    H240039   6.305   5.509   2.680
13366TIP3   OH240040   7.042   6.306   5.825
13366TIP3    H140041   7.014   6.215   5.835
13366TIP3    H240042   7.075   6.311   5.735
13367TIP3   OH240043   5.631   4.326   2.424
13367TIP3    H140044   5.644   4.421   2.418
13367TIP3    H240045   5.612   4.299   2.334
13368TIP3   OH240046   6.177   3.162   5.451
13368TIP3    H140047   6.124   3.095   5.408
13368TIP3    H240048   6.173   3.140   5.544
13369TIP3   OH240049   3.964   7.297   6.761
13369TIP3    H140050   3.912   7.275   6.684
13369TIP3    H240051   3.922   7.376   6.796
13370TIP3   OH240052   6.506   2.776   1.931
13370TIP3    H140053   6.525   2.683   1.941
13370TIP3    H240054   6.450   2.797   2.005
13371TIP3   OH240055   3.636   2.160   1.348
13371TIP3    H140056   3.559   2.214   1.361
13371TIP3    H240057   3.710   2.214   1.375
13372TIP3   OH240058   6.956   6.324   4.248
13372TIP3    H140059   7.019   6.273   4.197
13372TIP3    H240060   6.913   6.260   4.304
13373TIP3   OH240061   2.433   1.079   3.735
13373TIP3    H140062   2.498   1.035   3.791
13373TIP3    H240063   2.471   1.165   3.718
13374TIP3   OH240064   3.098   5.077   3.167
13374TIP3    H140065   3.171   5.116   3.120
13374TIP3    H240066   3.052   5.025   3.101
13375TIP3   OH240067   1.971   7.705   3.485
13375TIP3    H140068   2.046   7.693   3.544
13375TIP3    H240069   2.008   7.745   3.406
13376TIP3   OH240070   3.725   5.310   5.834
13376TIP3    H140071   3.774   5.312   5.752
13376TIP3    H240072   3.665   5.236   5.824
13377TIP3   OH240073   2.757   1.047   4.717
13377TIP3    H140074   2.751   1.123   4.775
13377TIP3    H240075   2.778   1.084   4.631
13378TIP3   OH240076   6.148   6.559   4.469
13378TIP3    H140077   6.238   6.587   4.453
13378TIP3    H240078   6.139   6.563   4.564
13379TIP3   OH240079   0.532   3.075   3.114
13379TIP3    H140080   0.471   3.002   3.105
13379TIP3    H240081   0.595   3.062   3.043
13380TIP3   OH240082   1.673   3.067   6.295
13380TIP3    H140083   1.650   3.079   6.387
13380TIP3    H240084   1.601   3.107   6.247
13381TIP3   OH240085   4.998   6.250   5.841
13381TIP3    H140086   5.084   6.253   5.798
13381TIP3    H240087   4.959   6.169   5.809
13382TIP3   OH240088   7.001   6.484   3.362
13382TIP3    H140089   7.030   6.523   3.280
13382TIP3    H240090   7.073   6.499   3.423
13383TIP3   OH240091   4.409   7.726   5.237
13383TIP3    H140092   4.410   7.818   5.263
13383TIP3    H240093   4.499   7.697   5.246
13384TIP3   OH240094   1.971   1.962   1.507
13384TIP3    H140095   2.043   1.972   1.444
13384TIP3    H240096   1.908   2.029   1.482
13385TIP3   OH240097   4.226   7.423   2.756
13385TIP3    H140098   4.164   7.466   2.814
13385TIP3    H240099   4.306   7.412   2.808
13386TIP3   OH240100   4.105   2.982   1.809
13386TIP3    H140101   4.183   2.968   1.862
13386TIP3    H240102   4.138   3.021   1.728
13387TIP3   OH240103   2.825   0.550   4.757
13387TIP3    H140104   2.919   0.568   4.747
13387TIP3    H240105   2.792   0.628   4.803
13388TIP3   OH240106   2.380   5.033   6.097
13388TIP3    H140107   2.314   4.979   6.052
13388TIP3    H240108   2.331   5.075   6.168
13389TIP3   OH240109   7.745   2.143   5.817
13389TIP3    H140110   7.696   2.224   5.809
13389TIP3    H240111   7.819   2.154   5.758
13390TIP3   OH240112   2.723   2.463   0.870
13390TIP3    H140113   2.686   2.469   0.958
13390TIP3    H240114   2.737   2.369   0.857
13391TIP3   OH240115   4.990   4.859   2.946
13391TIP3    H140116   5.009   4.931   2.886
13391TIP3    H240117   5.040   4.785   2.912
13392TIP3   OH240118   7.526   2.880   2.894
13392TIP3    H140119   7.603   2.855   2.946
13392TIP3    H240120   7.499   2.965   2.931
13393TIP3   OH240121   4.711   5.718   6.459
13393TIP3    H140122   4.797   5.709   6.419
13393TIP3    H240123   4.667   5.635   6.442
13394TIP3   OH240124   5.418   3.831   3.760
13394TIP3    H140125   5.393   3.761   3.700
13394TIP3    H240126   5.508   3.851   3.737
13395TIP3   OH240127   0.392   0.238   5.081
13395TIP3    H140128   0.347   0.200   5.156
13395TIP3    H240129   0.466   0.180   5.065
13396TIP3   OH240130   0.628   2.688   5.116
13396TIP3    H140131   0.719   2.670   5.094
13396TIP3    H240132   0.579   2.656   5.040
13397TIP3   OH240133   2.645   6.359   1.422
13397TIP3    H140134   2.567   6.399   1.461
13397TIP3    H240135   2.706   6.432   1.411
13398TIP3   OH240136   1.956   2.479   2.407
13398TIP3    H140137   1.979   2.550   2.468
13398TIP3    H240138   2.006   2.404   2.438
13399TIP3   OH240139   6.556   3.326   0.125
13399TIP3    H140140   6.474   3.289   0.158
13399TIP3    H240141   6.564   3.410   0.169
13400TIP3   OH240142   5.751   0.504   6.388
13400TIP3    H140143   5.721   0.571   6.450
13400TIP3    H240144   5.842   0.489   6.412
13401TIP3   OH240145   4.062   7.195   4.116
13401TIP3    H140146   4.055   7.128   4.185
13401TIP3    H240147   4.135   7.250   4.144
13402TIP3   OH240148   2.514   5.649   1.464
13402TIP3    H140149   2.585   5.585   1.456
13402TIP3    H240150   2.553   5.722   1.511
13403TIP3   OH240151   0.617   0.845   1.051
13403TIP3    H140152   0.697   0.793   1.059
13403TIP3    H240153   0.548   0.781   1.035
13404TIP3   OH240154   7.657   2.324   2.454
13404TIP3    H140155   7.591   2.257   2.475
13404TIP3    H240156   7.606   2.403   2.435
13405TIP3   OH240157   7.444   5.231   2.601
13405TIP3    H140158   7.457   5.156   2.659
13405TIP3    H240159   7.528   5.278   2.603
13406TIP3   OH240160   7.225   0.116   3.628
13406TIP3    H140161   7.167   0.191   3.617
13406TIP3    H240162   7.288   0.122   3.556
13407TIP3   OH240163   6.135   3.258   6.016
13407TIP3    H140164   6.072   3.243   6.087
13407TIP3    H240165   6.207   3.306   6.058
13408TIP3   OH240166   3.512   4.374   0.739
13408TIP3    H140167   3.428   4.415   0.759
13408TIP3    H240168   3.548   4.429   0.669
13409TIP3   OH240169   3.045   1.363   1.024
13409TIP3    H140170   2.966   1.314   1.044
13409TIP3    H240171   3.107   1.340   1.094
13410TIP3   OH240172   3.726   5.044   3.125
13410TIP3    H140173   3.755   4.967   3.174
13410TIP3    H240174   3.796   5.108   3.138
13411TIP3   OH240175   7.479   6.517   6.019
13411TIP3    H140176   7.547   6.562   6.068
13411TIP3    H240177   7.417   6.487   6.086
13412TIP3   OH240178   4.957   2.515   6.013
13412TIP3    H140179   4.915   2.449   6.068
13412TIP3    H240180   4.932   2.491   5.923
13413TIP3   OH240181   3.884   2.933   4.759
13413TIP3    H140182   3.828   3.010   4.764
13413TIP3    H240183   3.829   2.864   4.722
13414TIP3   OH240184   1.068   5.274   5.549
13414TIP3    H140185   1.160   5.254   5.530
13414TIP3    H240186   1.025   5.189   5.554
13415TIP3   OH240187   7.177   2.527   1.098
13415TIP3    H140188   7.268   2.550   1.079
13415TIP3    H240189   7.181   2.441   1.138
13416TIP3   OH240190   5.116   4.969   1.200
13416TIP3    H140191   5.025   4.993   1.213
13416TIP3    H240192   5.152   5.041   1.147
13417TIP3   OH240193   6.045   5.077   2.717
13417TIP3    H140194   6.049   4.983   2.734
13417TIP3    H240195   6.063   5.085   2.624
13418TIP3   OH240196   7.519   3.174   6.293
13418TIP3    H140197   7.519   3.261   6.332
13418TIP3    H240198   7.612   3.153   6.282
13419TIP3   OH240199   5.127   7.726   2.449
13419TIP3    H140200   5.047   7.674   2.441
13419TIP3    H240201   5.099   7.815   2.428
13420TIP3   OH240202   4.724   0.546   4.460
13420TIP3    H140203   4.779   0.615   4.420
13420TIP3    H240204   4.673   0.512   4.387
13421TIP3   OH240205   0.464   6.942   6.536
13421TIP3    H140206   0.482   6.898   6.620
13421TIP3    H240207   0.422   7.024   6.560
13422TIP3   OH240208   6.461   4.985   6.621
13422TIP3    H140209   6.424   4.913   6.671
13422TIP3    H240210   6.551   4.958   6.603
13423TIP3   OH240211   6.271   0.486   2.408
13423TIP3    H140212   6.356   0.464   2.371
13423TIP3    H240213   6.211   0.482   2.333
13424TIP3   OH240214   6.612   5.009   3.130
13424TIP3    H140215   6.676   4.953   3.174
13424TIP3    H240216   6.531   4.994   3.179
13425TIP3   OH240217   0.168   0.786   0.074
13425TIP3    H140218   0.189   0.725   0.003
13425TIP3    H240219   0.231   0.857   0.065
13426TIP3   OH240220   4.175   1.679   2.237
13426TIP3    H140221   4.265   1.702   2.261
13426TIP3    H240222   4.122   1.710   2.310
13427TIP3   OH240223   1.288   2.799   2.856
13427TIP3    H140224   1.204   2.843   2.871
13427TIP3    H240225   1.350   2.870   2.841
13428TIP3   OH240226   1.314   5.142   1.834
13428TIP3    H140227   1.297   5.212   1.771
13428TIP3    H240228   1.392   5.171   1.882
13429TIP3   OH240229   7.617   7.642   0.723
13429TIP3    H140230   7.665   7.562   0.701
13429TIP3    H240231   7.656   7.672   0.805
13430TIP3   OH240232   7.528   1.622   1.262
13430TIP3    H140233   7.513   1.567   1.186
13430TIP3    H240234   7.499   1.569   1.336
13431TIP3   OH240235   2.568   6.275   6.626
13431TIP3    H140236   2.655   6.235   6.621
13431TIP3    H240237   2.583   6.358   6.672
13432TIP3   OH240238   6.891   3.802   0.215
13432TIP3    H140239   6.879   3.884   0.262
13432TIP3    H240240   6.809   3.754   0.228
13433TIP3   OH240241   0.104   5.176   3.238
13433TIP3    H140242   0.138   5.209   3.155
13433TIP3    H240243   0.095   5.253   3.293
13434TIP3   OH240244   5.690   7.015   5.588
13434TIP3    H140245   5.657   7.085   5.532
13434TIP3    H240246   5.616   6.992   5.644
13435TIP3   OH240247   7.786   3.422   4.152
13435TIP3    H140248   7.800   3.397   4.244
13435TIP3    H240249   7.728   3.355   4.117
13436TIP3   OH240250   3.251   2.673   6.303
13436TIP3    H140251   3.237   2.754   6.353
13436TIP3    H240252   3.289   2.612   6.366
13437TIP3   OH240253   6.723   7.056   3.495
13437TIP3    H140254   6.698   7.140   3.535
13437TIP3    H240255   6.639   7.015   3.473
13438TIP3   OH240256   4.367   1.246   0.871
13438TIP3    H140257   4.304   1.213   0.806
13438TIP3    H240258   4.335   1.211   0.954
13439TIP3   OH240259   7.173   2.951   2.422
13439TIP3    H140260   7.241   2.936   2.356
13439TIP3    H240261   7.222   2.967   2.503
13440TIP3   OH240262   8.270   3.955   3.904
13440TIP3    H140263   8.195   3.905   3.936
13440TIP3    H240264   8.270   4.035   3.956
13441TIP3   OH240265   1.990   4.475   4.774
13441TIP3    H140266   1.895   4.465   4.763
13441TIP3    H240267   2.016   4.531   4.702
13442TIP3   OH240268   7.392   4.273   3.374
13442TIP3    H140269   7.436   4.250   3.292
13442TIP3    H240270   7.314   4.322   3.346
13443TIP3   OH240271   3.465   1.746   3.052
13443TIP3    H140272   3.445   1.840   3.049
13443TIP3    H240273   3.558   1.741   3.032
13444TIP3   OH240274   5.911   3.104   2.581
13444TIP3    H140275   5.905   3.015   2.549
13444TIP3    H240276   5.942   3.095   2.671
13445TIP3   OH240277   7.043   1.472   1.875
13445TIP3    H140278   6.961   1.440   1.836
13445TIP3    H240279   7.087   1.393   1.907
13446TIP3   OH240280   5.915   4.459   1.567
13446TIP3    H140281   5.994   4.448   1.513
13446TIP3    H240282   5.883   4.369   1.579
13447TIP3   OH240283   6.747   2.985   1.289
13447TIP3    H140284   6.672   3.031   1.253
13447TIP3    H240285   6.806   3.054   1.318
13448TIP3   OH240286   2.096   1.826   4.539
13448TIP3    H140287   2.011   1.864   4.560
13448TIP3    H240288   2.101   1.747   4.593
13449TIP3   OH240289   4.509   5.918   0.203
13449TIP3    H140290   4.530   5.991   0.144
13449TIP3    H240291   4.480   5.960   0.283
13450TIP3   OH240292   2.425   3.263   2.125
13450TIP3    H140293   2.355   3.318   2.160
13450TIP3    H240294   2.484   3.325   2.081
13451TIP3   OH240295   3.641   7.070   1.868
13451TIP3    H140296   3.601   7.068   1.955
13451TIP3    H240297   3.654   6.977   1.846
13452TIP3   OH240298   6.125   3.438   3.725
13452TIP3    H140299   6.090   3.355   3.693
13452TIP3    H240300   6.156   3.483   3.646
13453TIP3   OH240301   4.463   3.804   2.181
13453TIP3    H140302   4.512   3.763   2.109
13453TIP3    H240303   4.490   3.895   2.180
13454TIP3   OH240304   4.474   0.588   3.329
13454TIP3    H140305   4.533   0.578   3.254
13454TIP3    H240306   4.496   0.516   3.387
13455TIP3   OH240307   2.021   4.792   1.095
13455TIP3    H140308   1.991   4.801   1.005
13455TIP3    H240309   2.072   4.871   1.111
13456TIP3   OH240310   2.822   6.670   2.535
13456TIP3    H140311   2.810   6.757   2.495
13456TIP3    H240312   2.877   6.687   2.611
13457TIP3   OH240313   1.602   0.888   3.164
13457TIP3    H140314   1.659   0.850   3.230
13457TIP3    H240315   1.644   0.971   3.140
13458TIP3   OH240316   3.013   2.992   0.764
13458TIP3    H140317   3.045   3.082   0.755
13458TIP3    H240318   2.920   3.001   0.783
13459TIP3   OH240319   6.790   1.334   1.822
13459TIP3    H140320   6.742   1.253   1.835
13459TIP3    H240321   6.740   1.400   1.871
13460TIP3   OH240322   4.800   7.527   4.189
13460TIP3    H140323   4.802   7.518   4.285
13460TIP3    H240324   4.708   7.526   4.167
13461TIP3   OH240325   8.155   1.024   0.861
13461TIP3    H140326   8.239   1.041   0.817
13461TIP3    H240327   8.097   0.994   0.792
13462TIP3   OH240328   5.911   2.119   2.760
13462TIP3    H140329   5.885   2.153   2.674
13462TIP3    H240330   5.975   2.183   2.792
13463TIP3   OH240331   7.387   2.067   4.021
13463TIP3    H140332   7.372   2.104   3.934
13463TIP3    H240333   7.461   2.117   4.055
13464TIP3   OH240334   6.644   6.110   4.569
13464TIP3    H140335   6.686   6.032   4.532
13464TIP3    H240336   6.639   6.092   4.663
13465TIP3   OH240337   7.682   0.296   4.749
13465TIP3    H140338   7.662   0.213   4.793
13465TIP3    H240339   7.772   0.316   4.773
13466TIP3   OH240340   3.229   1.616   6.185
13466TIP3    H140341   3.281   1.695   6.199
13466TIP3    H240342   3.145   1.634   6.227
13467TIP3   OH240343   0.511   7.695   6.295
13467TIP3    H140344   0.573   7.713   6.225
13467TIP3    H240345   0.563   7.654   6.364
13468TIP3   OH240346   6.522   3.616   3.495
13468TIP3    H140347   6.612   3.596   3.470
13468TIP3    H240348   6.529   3.692   3.552
13469TIP3   OH240349   0.217   4.387   6.396
13469TIP3    H140350   0.123   4.367   6.398
13469TIP3    H240351   0.241   4.380   6.303
13470TIP3   OH240352   1.642   5.896   0.879
13470TIP3    H140353   1.729   5.918   0.846
13470TIP3    H240354   1.582   5.926   0.811
13471TIP3   OH240355   5.944   0.127   0.848
13471TIP3    H140356   5.942   0.138   0.753
13471TIP3    H240357   6.026   0.170   0.875
13472TIP3   OH240358   6.612   0.113   4.057
13472TIP3    H140359   6.682   0.106   3.992
13472TIP3    H240360   6.550   0.176   4.019
13473TIP3   OH240361   5.007   0.313   0.491
13473TIP3    H140362   4.990   0.403   0.464
13473TIP3    H240363   4.927   0.285   0.535
13474TIP3   OH240364   1.702   3.156   6.554
13474TIP3    H140365   1.768   3.137   6.621
13474TIP3    H240366   1.657   3.234   6.586
13475TIP3   OH240367   6.211   4.542   5.478
13475TIP3    H140368   6.182   4.518   5.566
13475TIP3    H240369   6.305   4.558   5.487
13476TIP3   OH240370   4.745   2.643   3.264
13476TIP3    H140371   4.764   2.635   3.170
13476TIP3    H240372   4.691   2.566   3.284
13477TIP3   OH240373   3.319   3.382   3.166
13477TIP3    H140374   3.406   3.374   3.203
13477TIP3    H240375   3.306   3.299   3.118
13478TIP3   OH240376   7.586   1.684   4.618
13478TIP3    H140377   7.523   1.719   4.680
13478TIP3    H240378   7.559   1.593   4.605
13479TIP3   OH240379   4.249   2.103   4.148
13479TIP3    H140380   4.184   2.170   4.127
13479TIP3    H240381   4.314   2.148   4.202
13480TIP3   OH240382   2.700   6.098   3.536
13480TIP3    H140383   2.647   6.018   3.528
13480TIP3    H240384   2.670   6.138   3.618
13481TIP3   OH240385   5.995   0.390   6.441
13481TIP3    H140386   6.051   0.368   6.367
13481TIP3    H240387   6.055   0.425   6.507
13482TIP3   OH240388   4.823   1.095   6.316
13482TIP3    H140389   4.915   1.073   6.329
13482TIP3    H240390   4.822   1.190   6.307
13483TIP3   OH240391   0.213   5.561   3.763
13483TIP3    H140392   0.253   5.566   3.850
13483TIP3    H240393   0.214   5.651   3.731
13484TIP3   OH240394   2.520   2.759   0.693
13484TIP3    H140395   2.461   2.769   0.619
13484TIP3    H240396   2.560   2.673   0.681
13485TIP3   OH240397   2.230   7.312   5.454
13485TIP3    H140398   2.215   7.328   5.547
13485TIP3    H240399   2.178   7.379   5.409
13486TIP3   OH240400   8.189   5.649   0.965
13486TIP3    H140401   8.191   5.714   1.036
13486TIP3    H240402   8.269   5.599   0.976
13487TIP3   OH240403   8.054   5.269   1.720
13487TIP3    H140404   8.118   5.216   1.673
13487TIP3    H240405   8.096   5.353   1.733
13488TIP3   OH240406   2.216   2.443   0.599
13488TIP3    H140407   2.254   2.366   0.557
13488TIP3    H240408   2.254   2.444   0.686
13489TIP3   OH240409   2.728   0.204   3.346
13489TIP3    H140410   2.682   0.151   3.412
13489TIP3    H240411   2.819   0.173   3.350
13490TIP3   OH240412   5.341   4.336   4.415
13490TIP3    H140413   5.336   4.316   4.321
13490TIP3    H240414   5.346   4.432   4.418
13491TIP3   OH240415   3.977   1.399   1.441
13491TIP3    H140416   3.882   1.408   1.430
13491TIP3    H240417   4.013   1.451   1.369
13492TIP3   OH240418   0.750   3.639   3.875
13492TIP3    H140419   0.841   3.651   3.848
13492TIP3    H240420   0.704   3.612   3.796
13493TIP3   OH240421   5.557   1.147   4.514
13493TIP3    H140422   5.583   1.238   4.530
13493TIP3    H240423   5.488   1.131   4.578
13494TIP3   OH240424   6.922   1.977   2.889
13494TIP3    H140425   6.948   1.894   2.849
13494TIP3    H240426   6.839   1.959   2.931
13495TIP3   OH240427   4.215   4.660   2.523
13495TIP3    H140428   4.207   4.725   2.593
13495TIP3    H240429   4.260   4.706   2.452
13496TIP3   OH240430   8.114   1.186   5.306
13496TIP3    H140431   8.041   1.223   5.355
13496TIP3    H240432   8.190   1.237   5.336
13497TIP3   OH240433   1.909   2.845   4.638
13497TIP3    H140434   1.918   2.751   4.628
13497TIP3    H240435   1.848   2.856   4.711
13498TIP3   OH240436   8.111   3.539   5.103
13498TIP3    H140437   8.035   3.574   5.056
13498TIP3    H240438   8.088   3.548   5.195
13499TIP3   OH240439   3.724   4.141   1.005
13499TIP3    H140440   3.809   4.163   1.043
13499TIP3    H240441   3.683   4.226   0.988
13500TIP3   OH240442   8.018   6.142   4.323
13500TIP3    H140443   7.991   6.210   4.385
13500TIP3    H240444   7.992   6.177   4.237
13501TIP3   OH240445   3.520   4.570   4.976
13501TIP3    H140446   3.511   4.634   4.906
13501TIP3    H240447   3.433   4.565   5.015
13502TIP3   OH240448   6.129   5.959   4.642
13502TIP3    H140449   6.095   5.988   4.727
13502TIP3    H240450   6.180   6.034   4.611
13503TIP3   OH240451   3.981   4.709   4.118
13503TIP3    H140452   4.062   4.729   4.071
13503TIP3    H240453   4.008   4.690   4.207
13504TIP3   OH240454  -0.017   6.070   3.903
13504TIP3    H140455  -0.044   6.117   3.982
13504TIP3    H240456   0.070   6.104   3.883
13505TIP3   OH240457   3.254   7.196   0.263
13505TIP3    H140458   3.245   7.111   0.306
13505TIP3    H240459   3.207   7.257   0.319
13506TIP3   OH240460   0.736   0.908   0.395
13506TIP3    H140461   0.766   0.886   0.307
13506TIP3    H240462   0.642   0.894   0.392
13507TIP3   OH240463   5.335   4.263   6.450
13507TIP3    H140464   5.292   4.348   6.456
13507TIP3    H240465   5.427   4.282   6.468
13508TIP3   OH240466   2.958   4.498   4.765
13508TIP3    H140467   2.946   4.558   4.692
13508TIP3    H240468   2.893   4.525   4.830
13509TIP3   OH240469   2.488   0.713   1.969
13509TIP3    H140470   2.427   0.726   1.897
13509TIP3    H240471   2.547   0.643   1.938
13510TIP3   OH240472   4.010   5.029   6.439
13510TIP3    H140473   4.103   5.008   6.448
13510TIP3    H240474   3.996   5.032   6.345
13511TIP3   OH240475   2.512   1.040   4.319
13511TIP3    H140476   2.506   1.099   4.394
13511TIP3    H240477   2.605   1.017   4.313
13512TIP3   OH240478   4.030   1.029   1.246
13512TIP3    H140479   3.958   1.039   1.309
13512TIP3    H240480   4.069   1.116   1.241
13513TIP3   OH240481   0.085   3.949   5.986
13513TIP3    H140482   0.179   3.940   5.976
13513TIP3    H240483   0.073   4.028   6.039
13514TIP3   OH240484   1.544   5.489   2.594
13514TIP3    H140485   1.535   5.580   2.566
13514TIP3    H240486   1.454   5.459   2.606
13515TIP3   OH240487   5.334   1.317   0.755
13515TIP3    H140488   5.340   1.406   0.791
13515TIP3    H240489   5.293   1.328   0.669
13516TIP3   OH240490   4.968   7.527   4.773
13516TIP3    H140491   4.911   7.566   4.839
13516TIP3    H240492   4.979   7.596   4.707
13517TIP3   OH240493   8.266   4.547   3.257
13517TIP3    H140494   8.189   4.595   3.227
13517TIP3    H240495   8.260   4.549   3.353
13518TIP3   OH240496   0.893   7.727   6.079
13518TIP3    H140497   0.975   7.685   6.056
13518TIP3    H240498   0.877   7.700   6.169
13519TIP3   OH240499   7.542   1.969   5.845
13519TIP3    H140500   7.593   2.049   5.834
13519TIP3    H240501   7.605   1.898   5.837
13520TIP3   OH240502   4.530   5.197   5.911
13520TIP3    H140503   4.595   5.198   5.981
13520TIP3    H240504   4.577   5.229   5.834
13521TIP3   OH240505   2.825   3.760   0.955
13521TIP3    H140506   2.811   3.853   0.971
13521TIP3    H240507   2.914   3.754   0.922
13522TIP3   OH240508   1.613   5.102   6.711
13522TIP3    H140509   1.697   5.098   6.664
13522TIP3    H240510   1.590   5.011   6.727
13523TIP3   OH240511   6.511   2.403   5.893
13523TIP3    H140512   6.424   2.433   5.867
13523TIP3    H240513   6.532   2.457   5.969
13524TIP3   OH240514   2.644   0.525   3.637
13524TIP3    H140515   2.677   0.444   3.676
13524TIP3    H240516   2.606   0.498   3.553
13525TIP3   OH240517   2.844   2.775   1.340
13525TIP3    H140518   2.884   2.838   1.401
13525TIP3    H240519   2.852   2.690   1.384
13526TIP3   OH240520   6.813   0.376   1.088
13526TIP3    H140521   6.834   0.440   1.020
13526TIP3    H240522   6.724   0.399   1.115
13527TIP3   OH240523   5.484   4.794   2.888
13527TIP3    H140524   5.431   4.871   2.903
13527TIP3    H240525   5.572   4.820   2.915
13528TIP3   OH240526   5.976   6.332   4.510
13528TIP3    H140527   6.034   6.408   4.496
13528TIP3    H240528   5.996   6.274   4.437
13529TIP3   OH240529   0.221   3.971   3.200
13529TIP3    H140530   0.260   4.001   3.118
13529TIP3    H240531   0.210   4.051   3.251
13530TIP3   OH240532   1.996   3.739   5.239
13530TIP3    H140533   1.979   3.829   5.211
13530TIP3    H240534   2.004   3.690   5.158
13531TIP3   OH240535   1.565   2.837   0.968
13531TIP3    H140536   1.521   2.754   0.947
13531TIP3    H240537   1.501   2.904   0.944
13532TIP3   OH240538   1.525   0.056   1.038
13532TIP3    H140539   1.472   0.125   1.076
13532TIP3    H240540   1.603   0.053   1.092
13533TIP3   OH240541   6.907   5.046   2.967
13533TIP3    H140542   6.870   5.105   2.902
13533TIP3    H240543   6.853   5.060   3.045
13534TIP3   OH240544   0.992   1.870   4.554
13534TIP3    H140545   1.045   1.917   4.619
13534TIP3    H240546   1.031   1.894   4.470
13535TIP3   OH240547   0.627   6.332   3.941
13535TIP3    H140548   0.707   6.286   3.915
13535TIP3    H240549   0.649   6.372   4.025
13536TIP3   OH240550   3.910   5.296   5.047
13536TIP3    H140551   3.897   5.202   5.039
13536TIP3    H240552   3.968   5.306   5.123
13537TIP3   OH240553   4.741   4.413   4.301
13537TIP3    H140554   4.815   4.458   4.261
13537TIP3    H240555   4.731   4.332   4.250
13538TIP3   OH240556   1.966   0.441   2.846
13538TIP3    H140557   1.927   0.443   2.933
13538TIP3    H240558   1.902   0.486   2.790
13539TIP3   OH240559   7.547   2.369   2.136
13539TIP3    H140560   7.570   2.284   2.172
13539TIP3    H240561   7.517   2.350   2.048
13540TIP3   OH240562   5.783   3.220   5.406
13540TIP3    H140563   5.704   3.203   5.355
13540TIP3    H240564   5.846   3.155   5.375
13541TIP3   OH240565   0.463   3.563   4.558
13541TIP3    H140566   0.443   3.478   4.519
13541TIP3    H240567   0.507   3.612   4.488
13542TIP3   OH240568   7.164   1.539   5.517
13542TIP3    H140569   7.150   1.632   5.533
13542TIP3    H240570   7.076   1.504   5.499
13543TIP3   OH240571   5.720   6.176   0.459
13543TIP3    H140572   5.655   6.151   0.524
13543TIP3    H240573   5.800   6.131   0.487
13544TIP3   OH240574   5.523   3.183   6.693
13544TIP3    H140575   5.533   3.181   6.788
13544TIP3    H240576   5.482   3.099   6.671
13545TIP3   OH240577   1.588   0.248   0.453
13545TIP3    H140578   1.513   0.231   0.511
13545TIP3    H240579   1.637   0.317   0.497
13546TIP3   OH240580   2.400   6.934   0.356
13546TIP3    H140581   2.348   6.967   0.429
13546TIP3    H240582   2.472   6.887   0.397
13547TIP3   OH240583   7.407   4.762   0.791
13547TIP3    H140584   7.428   4.856   0.788
13547TIP3    H240585   7.314   4.757   0.769
13548TIP3   OH240586   2.435   5.910   4.994
13548TIP3    H140587   2.524   5.912   4.957
13548TIP3    H240588   2.427   5.993   5.042
13549TIP3   OH240589   5.003   2.998   1.538
13549TIP3    H140590   5.087   3.040   1.520
13549TIP3    H240591   4.992   2.936   1.465
13550TIP3   OH240592   3.418   1.051   3.187
13550TIP3    H140593   3.494   1.042   3.129
13550TIP3    H240594   3.359   0.981   3.160
13551TIP3   OH240595   0.958   7.150   0.628
13551TIP3    H140596   1.009   7.071   0.611
13551TIP3    H240597   0.900   7.159   0.553
13552TIP3   OH240598   3.095   4.635   5.510
13552TIP3    H140599   3.009   4.596   5.494
13552TIP3    H240600   3.148   4.563   5.544
13553TIP3   OH240601   1.567   3.365   6.651
13553TIP3    H140602   1.620   3.437   6.684
13553TIP3    H240603   1.478   3.399   6.648
13554TIP3   OH240604   4.688   6.353   6.157
13554TIP3    H140605   4.699   6.336   6.064
13554TIP3    H240606   4.734   6.435   6.173
13555TIP3   OH240607   5.312   6.761   1.235
13555TIP3    H140608   5.274   6.812   1.306
13555TIP3    H240609   5.297   6.670   1.260
13556TIP3   OH240610   0.386   4.239   4.129
13556TIP3    H140611   0.305   4.257   4.179
13556TIP3    H240612   0.376   4.149   4.100
13557TIP3   OH240613   1.242   0.720   0.276
13557TIP3    H140614   1.291   0.801   0.265
13557TIP3    H240615   1.296   0.667   0.334
13558TIP3   OH240616   0.555   7.766   4.069
13558TIP3    H140617   0.527   7.677   4.048
13558TIP3    H240618   0.550   7.772   4.164
13559TIP3   OH240619   3.320   3.640   0.088
13559TIP3    H140620   3.246   3.603   0.137
13559TIP3    H240621   3.281   3.713   0.039
13560TIP3   OH240622   1.485   1.542   1.754
13560TIP3    H140623   1.570   1.499   1.758
13560TIP3    H240624   1.482   1.595   1.834
13561TIP3   OH240625   5.449   3.733   0.283
13561TIP3    H140626   5.398   3.693   0.353
13561TIP3    H240627   5.391   3.729   0.206
13562TIP3   OH240628   5.816   7.285   6.628
13562TIP3    H140629   5.902   7.243   6.624
13562TIP3    H240630   5.765   7.230   6.687
13563TIP3   OH240631   8.240   1.398   2.548
13563TIP3    H140632   8.325   1.382   2.588
13563TIP3    H240633   8.198   1.463   2.604
13564TIP3   OH240634   5.293   0.373   1.774
13564TIP3    H140635   5.291   0.376   1.679
13564TIP3    H240636   5.352   0.444   1.799
13565TIP3   OH240637   3.700   2.838   0.764
13565TIP3    H140638   3.703   2.891   0.844
13565TIP3    H240639   3.655   2.894   0.700
13566TIP3   OH240640   3.847   1.817   4.911
13566TIP3    H140641   3.937   1.839   4.888
13566TIP3    H240642   3.852   1.727   4.943
13567TIP3   OH240643   0.515   4.750   4.775
13567TIP3    H140644   0.491   4.662   4.804
13567TIP3    H240645   0.456   4.808   4.824
13568TIP3   OH240646   5.853   7.022   4.284
13568TIP3    H140647   5.782   7.083   4.264
13568TIP3    H240648   5.809   6.938   4.298
13569TIP3   OH240649   7.535   4.161   4.797
13569TIP3    H140650   7.571   4.096   4.858
13569TIP3    H240651   7.565   4.132   4.711
13570TIP3   OH240652   6.777   7.463   3.796
13570TIP3    H140653   6.841   7.424   3.856
13570TIP3    H240654   6.693   7.451   3.840
13571TIP3   OH240655   1.391   3.471   5.311
13571TIP3    H140656   1.448   3.417   5.256
13571TIP3    H240657   1.401   3.432   5.399
13572TIP3   OH240658   7.200   2.955   1.376
13572TIP3    H140659   7.247   2.936   1.295
13572TIP3    H240660   7.130   3.015   1.350
13573TIP3   OH240661   7.947   0.364   0.756
13573TIP3    H140662   8.005   0.429   0.716
13573TIP3    H240663   8.006   0.295   0.787
13574TIP3   OH240664   2.388   5.997   3.627
13574TIP3    H140665   2.466   5.946   3.604
13574TIP3    H240666   2.315   5.945   3.596
13575TIP3   OH240667   1.337   3.510   6.581
13575TIP3    H140668   1.338   3.599   6.544
13575TIP3    H240669   1.335   3.523   6.676
13576TIP3   OH240670   0.184   3.752   3.880
13576TIP3    H140671   0.128   3.720   3.810
13576TIP3    H240672   0.127   3.810   3.932
13577TIP3   OH240673   3.767   6.559   3.390
13577TIP3    H140674   3.841   6.579   3.333
13577TIP3    H240675   3.771   6.465   3.402
13578TIP3   OH240676   6.643   3.720   2.228
13578TIP3    H140677   6.687   3.798   2.262
13578TIP3    H240678   6.714   3.666   2.193
13579TIP3   OH240679   5.058   1.891   1.393
13579TIP3    H140680   5.139   1.866   1.438
13579TIP3    H240681   5.050   1.828   1.321
13580TIP3   OH240682   4.961   7.192   1.911
13580TIP3    H140683   4.936   7.277   1.876
13580TIP3    H240684   4.916   7.187   1.996
13581TIP3   OH240685   6.264   6.956   5.269
13581TIP3    H140686   6.231   6.869   5.248
13581TIP3    H240687   6.194   7.015   5.243
13582TIP3   OH240688   3.874   6.689   4.084
13582TIP3    H140689   3.834   6.610   4.121
13582TIP3    H240690   3.847   6.759   4.143
13583TIP3   OH240691   8.181   1.152   2.935
13583TIP3    H140692   8.206   1.240   2.961
13583TIP3    H240693   8.150   1.161   2.845
13584TIP3   OH240694   0.300   2.672   4.602
13584TIP3    H140695   0.339   2.613   4.537
13584TIP3    H240696   0.206   2.669   4.583
13585TIP3   OH240697   5.814   6.789   0.363
13585TIP3    H140698   5.834   6.878   0.393
13585TIP3    H240699   5.883   6.769   0.300
13586TIP3   OH240700   1.953   2.875   2.606
13586TIP3    H140701   1.919   2.863   2.695
13586TIP3    H240702   2.021   2.809   2.598
13587TIP3   OH240703   3.486   2.976   6.032
13587TIP3    H140704   3.578   2.996   6.018
13587TIP3    H240705   3.479   2.957   6.125
13588TIP3   OH240706   6.527   1.136   4.065
13588TIP3    H140707   6.592   1.094   4.009
13588TIP3    H240708   6.446   1.132   4.016
13589TIP3   OH240709   2.251   0.350   1.173
13589TIP3    H140710   2.227   0.331   1.082
13589TIP3    H240711   2.176   0.322   1.224
13590TIP3   OH240712   3.979   0.829   0.140
13590TIP3    H140713   3.896   0.871   0.165
13590TIP3    H240714   4.044   0.898   0.146
13591TIP3   OH240715   4.637   6.042   3.295
13591TIP3    H140716   4.691   5.968   3.321
13591TIP3    H240717   4.555   6.031   3.345
13592TIP3   OH240718   1.319   3.131   1.778
13592TIP3    H140719   1.293   3.120   1.687
13592TIP3    H240720   1.240   3.159   1.823
13593TIP3   OH240721   7.318   6.195   2.058
13593TIP3    H140722   7.390   6.250   2.088
13593TIP3    H240723   7.243   6.224   2.110
13594TIP3   OH240724   2.153   7.636   5.871
13594TIP3    H140725   2.151   7.700   5.942
13594TIP3    H240726   2.241   7.642   5.835
13595TIP3   OH240727   2.648   0.803   2.624
13595TIP3    H140728   2.554   0.788   2.621
13595TIP3    H240729   2.672   0.789   2.715
13596TIP3   OH240730   3.249   7.705   1.158
13596TIP3    H140731   3.255   7.771   1.226
13596TIP3    H240732   3.172   7.730   1.107
13597TIP3   OH240733   6.817   3.860   5.818
13597TIP3    H140734   6.819   3.949   5.782
13597TIP3    H240735   6.808   3.873   5.913
13598TIP3   OH240736   3.187   1.482   3.682
13598TIP3    H140737   3.119   1.545   3.706
13598TIP3    H240738   3.215   1.508   3.594
13599TIP3   OH240739   3.799   6.010   6.360
13599TIP3    H140740   3.742   5.957   6.304
13599TIP3    H240741   3.784   5.978   6.448
13600TIP3   OH240742   0.084   0.375   0.274
13600TIP3    H140743   0.084   0.463   0.312
13600TIP3    H240744   0.175   0.359   0.251
13601TIP3   OH240745   1.234   4.077   3.576
13601TIP3    H140746   1.142   4.103   3.574
13601TIP3    H240747   1.252   4.043   3.489
13602TIP3   OH240748   1.017   2.840   6.718
13602TIP3    H140749   0.952   2.786   6.673
13602TIP3    H240750   1.099   2.791   6.710
13603TIP3   OH240751   3.184   6.637   6.484
13603TIP3    H140752   3.197   6.729   6.461
13603TIP3    H240753   3.268   6.610   6.521
13604TIP3   OH240754   5.888   0.581   0.871
13604TIP3    H140755   5.867   0.657   0.816
13604TIP3    H240756   5.813   0.523   0.861
13605TIP3   OH240757   4.256   4.354   1.351
13605TIP3    H140758   4.184   4.331   1.410
13605TIP3    H240759   4.213   4.401   1.279
13606TIP3   OH240760   3.469   5.173   1.346
13606TIP3    H140761   3.375   5.173   1.361
13606TIP3    H240762   3.507   5.202   1.429
13607TIP3   OH240763   2.173   1.293   5.602
13607TIP3    H140764   2.127   1.229   5.546
13607TIP3    H240765   2.258   1.254   5.617
13608TIP3   OH240766   2.368   3.234   0.489
13608TIP3    H140767   2.334   3.320   0.512
13608TIP3    H240768   2.458   3.250   0.463
13609TIP3   OH240769   4.867   1.014   4.817
13609TIP3    H140770   4.932   0.955   4.778
13609TIP3    H240771   4.803   1.028   4.747
13610TIP3   OH240772   0.186   0.613   1.228
13610TIP3    H140773   0.185   0.638   1.135
13610TIP3    H240774   0.266   0.652   1.262
13611TIP3   OH240775   4.064   4.076   5.276
13611TIP3    H140776   3.973   4.079   5.244
13611TIP3    H240777   4.079   4.163   5.312
13612TIP3   OH240778   2.031   4.491   2.628
13612TIP3    H140779   1.994   4.425   2.569
13612TIP3    H240780   2.092   4.540   2.573
13613TIP3   OH240781   0.645   0.719   1.630
13613TIP3    H140782   0.555   0.733   1.602
13613TIP3    H240783   0.647   0.630   1.665
13614TIP3   OH240784   5.170   5.740   3.603
13614TIP3    H140785   5.150   5.773   3.515
13614TIP3    H240786   5.260   5.770   3.620
13615TIP3   OH240787   3.822   4.811   2.556
13615TIP3    H140788   3.789   4.805   2.466
13615TIP3    H240789   3.917   4.818   2.547
13616TIP3   OH240790   3.518   2.363   6.166
13616TIP3    H140791   3.493   2.293   6.106
13616TIP3    H240792   3.480   2.443   6.127
13617TIP3   OH240793   2.028   0.261   1.307
13617TIP3    H140794   2.038   0.257   1.402
13617TIP3    H240795   2.023   0.170   1.279
13618TIP3   OH240796   7.247   3.063   3.564
13618TIP3    H140797   7.331   3.063   3.518
13618TIP3    H240798   7.208   2.978   3.541
13619TIP3   OH240799   6.061   5.980   1.355
13619TIP3    H140800   6.060   6.073   1.378
13619TIP3    H240801   6.053   5.979   1.260
13620TIP3   OH240802   6.962   2.615   5.346
13620TIP3    H140803   6.983   2.644   5.435
13620TIP3    H240804   7.041   2.633   5.295
13621TIP3   OH240805   7.218   4.500   6.696
13621TIP3    H140806   7.140   4.541   6.735
13621TIP3    H240807   7.291   4.544   6.739
13622TIP3   OH240808   0.859   5.405   5.712
13622TIP3    H140809   0.933   5.355   5.677
13622TIP3    H240810   0.814   5.345   5.770
13623TIP3   OH240811   6.948   3.576   1.381
13623TIP3    H140812   6.929   3.533   1.464
13623TIP3    H240813   6.862   3.604   1.348
13624TIP3   OH240814   0.162   1.347   3.857
13624TIP3    H140815   0.207   1.370   3.776
13624TIP3    H240816   0.076   1.317   3.828
13625TIP3   OH240817   6.256   1.631   5.485
13625TIP3    H140818   6.256   1.611   5.392
13625TIP3    H240819   6.163   1.636   5.509
13626TIP3   OH240820   4.679   0.525   0.622
13626TIP3    H140821   4.708   0.533   0.712
13626TIP3    H240822   4.586   0.548   0.624
13627TIP3   OH240823   3.666   7.609   3.482
13627TIP3    H140824   3.704   7.633   3.398
13627TIP3    H240825   3.726   7.648   3.547
13628TIP3   OH240826   4.121   0.778   6.761
13628TIP3    H140827   4.076   0.770   6.845
13628TIP3    H240828   4.061   0.829   6.706
13629TIP3   OH240829   7.855   4.311   2.531
13629TIP3    H140830   7.779   4.276   2.485
13629TIP3    H240831   7.836   4.404   2.543
13630TIP3   OH240832   4.355   5.526   6.044
13630TIP3    H140833   4.366   5.569   6.128
13630TIP3    H240834   4.435   5.549   5.995
13631TIP3   OH240835   3.823   0.745   1.025
13631TIP3    H140836   3.847   0.803   0.953
13631TIP3    H240837   3.870   0.664   1.007
13632TIP3   OH240838   3.168   1.414   2.284
13632TIP3    H140839   3.190   1.462   2.205
13632TIP3    H240840   3.223   1.336   2.281
13633TIP3   OH240841   7.849   0.474   4.384
13633TIP3    H140842   7.875   0.549   4.330
13633TIP3    H240843   7.824   0.406   4.320
13634TIP3   OH240844   3.238   6.539   0.273
13634TIP3    H140845   3.220   6.452   0.309
13634TIP3    H240846   3.297   6.522   0.200
13635TIP3   OH240847   4.693   1.451   2.393
13635TIP3    H140848   4.666   1.382   2.453
13635TIP3    H240849   4.632   1.443   2.319
13636TIP3   OH240850   4.190   6.004   4.272
13636TIP3    H140851   4.257   5.993   4.339
13636TIP3    H240852   4.118   5.949   4.301
13637TIP3   OH240853   2.081   2.278   4.520
13637TIP3    H140854   2.116   2.307   4.604
13637TIP3    H240855   2.071   2.359   4.469
13638TIP3   OH240856   4.475   1.318   1.808
13638TIP3    H140857   4.513   1.405   1.802
13638TIP3    H240858   4.507   1.272   1.731
13639TIP3   OH240859   7.592   4.632   6.407
13639TIP3    H140860   7.579   4.632   6.312
13639TIP3    H240861   7.684   4.658   6.419
13640TIP3   OH240862   6.368   1.882   4.765
13640TIP3    H140863   6.289   1.841   4.801
13640TIP3    H240864   6.353   1.976   4.776
13641TIP3   OH240865   1.370   3.018   0.891
13641TIP3    H140866   1.292   2.964   0.893
13641TIP3    H240867   1.348   3.096   0.942
13642TIP3   OH240868   0.550   0.529   1.280
13642TIP3    H140869   0.565   0.476   1.358
13642TIP3    H240870   0.474   0.488   1.238
13643TIP3   OH240871   1.913   0.689   0.219
13643TIP3    H140872   1.914   0.711   0.126
13643TIP3    H240873   2.006   0.679   0.242
13644TIP3   OH240874   4.856   0.569   0.387
13644TIP3    H140875   4.806   0.568   0.469
13644TIP3    H240876   4.832   0.488   0.343
13645TIP3   OH240877   6.707   1.163   6.416
13645TIP3    H140878   6.715   1.184   6.323
13645TIP3    H240879   6.640   1.224   6.448
13646TIP3   OH240880   3.555   3.945   1.229
13646TIP3    H140881   3.600   3.884   1.288
13646TIP3    H240882   3.616   3.960   1.157
13647TIP3   OH240883   1.583   6.255   4.355
13647TIP3    H140884   1.538   6.332   4.390
13647TIP3    H240885   1.512   6.195   4.329
13648TIP3   OH240886   1.601   2.268   6.547
13648TIP3    H140887   1.666   2.209   6.509
13648TIP3    H240888   1.546   2.294   6.473
13649TIP3   OH240889   6.169   0.120   0.338
13649TIP3    H140890   6.149   0.027   0.331
13649TIP3    H240891   6.244   0.134   0.281
13650TIP3   OH240892   2.540   4.783   3.182
13650TIP3    H140893   2.584   4.837   3.248
13650TIP3    H240894   2.448   4.785   3.207
13651TIP3   OH240895   6.119   0.894   4.813
13651TIP3    H140896   6.071   0.823   4.770
13651TIP3    H240897   6.051   0.945   4.858
13652TIP3   OH240898   3.192   1.542   5.663
13652TIP3    H140899   3.173   1.539   5.757
13652TIP3    H240900   3.155   1.461   5.629
13653TIP3   OH240901   6.082   7.641   0.637
13653TIP3    H140902   6.028   7.716   0.661
13653TIP3    H240903   6.168   7.660   0.674
13654TIP3   OH240904   5.059   7.035   1.092
13654TIP3    H140905   5.152   7.030   1.071
13654TIP3    H240906   5.056   7.070   1.181
13655TIP3   OH240907   6.111   3.911   0.400
13655TIP3    H140908   6.120   3.915   0.495
13655TIP3    H240909   6.131   3.999   0.370
13656TIP3   OH240910   6.021   5.809   3.334
13656TIP3    H140911   5.963   5.805   3.411
13656TIP3    H240912   6.098   5.758   3.359
13657TIP3   OH240913   1.151   6.751   1.392
13657TIP3    H140914   1.074   6.803   1.372
13657TIP3    H240915   1.151   6.681   1.327
13658TIP3   OH240916   2.029   2.984   0.378
13658TIP3    H140917   1.945   2.976   0.334
13658TIP3    H240918   2.007   2.994   0.470
13659TIP3   OH240919   4.662   6.481   4.235
13659TIP3    H140920   4.598   6.521   4.293
13659TIP3    H240921   4.746   6.518   4.264
13660TIP3   OH240922   8.168   1.566   2.858
13660TIP3    H140923   8.209   1.499   2.913
13660TIP3    H240924   8.239   1.626   2.835
13661TIP3   OH240925   0.334   1.451   4.043
13661TIP3    H140926   0.322   1.400   4.123
13661TIP3    H240927   0.310   1.390   3.973
13662TIP3   OH240928   2.407   7.273   2.306
13662TIP3    H140929   2.326   7.318   2.281
13662TIP3    H240930   2.382   7.181   2.316
13663TIP3   OH240931   7.838   3.735   6.094
13663TIP3    H140932   7.846   3.672   6.165
13663TIP3    H240933   7.912   3.717   6.037
13664TIP3   OH240934   3.435   2.614   2.862
13664TIP3    H140935   3.450   2.535   2.809
13664TIP3    H240936   3.479   2.596   2.945
13665TIP3   OH240937   0.859   3.260   5.469
13665TIP3    H140938   0.775   3.222   5.495
13665TIP3    H240939   0.878   3.324   5.538
13666TIP3   OH240940   6.115   1.429   6.050
13666TIP3    H140941   6.172   1.503   6.068
13666TIP3    H240942   6.110   1.381   6.132
13667TIP3   OH240943   4.874   5.086   5.593
13667TIP3    H140944   4.803   5.049   5.646
13667TIP3    H240945   4.886   5.023   5.522
13668TIP3   OH240946   2.272   5.586   3.479
13668TIP3    H140947   2.181   5.560   3.491
13668TIP3    H240948   2.272   5.681   3.495
13669TIP3   OH240949   1.041   6.980   3.971
13669TIP3    H140950   0.954   6.941   3.977
13669TIP3    H240951   1.084   6.936   3.898
13670TIP3   OH240952   6.018   5.500   5.331
13670TIP3    H140953   5.964   5.482   5.408
13670TIP3    H240954   6.091   5.553   5.363
13671TIP3   OH240955   2.142   4.189   6.416
13671TIP3    H140956   2.100   4.219   6.496
13671TIP3    H240957   2.092   4.112   6.389
13672TIP3   OH240958   7.956   0.163   6.375
13672TIP3    H140959   7.962   0.082   6.426
13672TIP3    H240960   7.919   0.227   6.437
13673TIP3   OH240961   0.872   5.507   5.294
13673TIP3    H140962   0.781   5.477   5.291
13673TIP3    H240963   0.886   5.533   5.385
13674TIP3   OH240964   8.141   6.277   4.006
13674TIP3    H140965   8.067   6.275   3.945
13674TIP3    H240966   8.131   6.361   4.052
13675TIP3   OH240967   7.262   1.623   5.755
13675TIP3    H140968   7.167   1.623   5.757
13675TIP3    H240969   7.284   1.679   5.680
13676TIP3   OH240970   7.096   6.379   2.869
13676TIP3    H140971   7.108   6.425   2.952
13676TIP3    H240972   7.107   6.286   2.891
13677TIP3   OH240973   6.918   1.077   4.375
13677TIP3    H140974   6.901   0.992   4.333
13677TIP3    H240975   6.917   1.140   4.303
13678TIP3   OH240976   6.314   6.141   4.555
13678TIP3    H140977   6.341   6.233   4.550
13678TIP3    H240978   6.395   6.091   4.550
13679TIP3   OH240979   7.354   5.757   6.146
13679TIP3    H140980   7.269   5.765   6.188
13679TIP3    H240981   7.378   5.846   6.122
13680TIP3   OH240982   1.355   6.555   3.998
13680TIP3    H140983   1.366   6.533   3.906
13680TIP3    H240984   1.349   6.651   4.000
13681TIP3   OH240985   2.163   4.474   3.839
13681TIP3    H140986   2.104   4.507   3.907
13681TIP3    H240987   2.178   4.382   3.863
13682TIP3   OH240988   2.796   3.085   6.602
13682TIP3    H140989   2.830   3.067   6.690
13682TIP3    H240990   2.702   3.069   6.609
13683TIP3   OH240991   5.251   0.474   2.254
13683TIP3    H140992   5.186   0.465   2.323
13683TIP3    H240993   5.281   0.385   2.238
13684TIP3   OH240994   6.372   5.252   0.392
13684TIP3    H140995   6.382   5.334   0.342
13684TIP3    H240996   6.359   5.281   0.482
13685TIP3   OH240997   0.912   1.969   2.582
13685TIP3    H140998   0.985   1.998   2.527
13685TIP3    H240999   0.846   2.037   2.572
13686TIP3   OH241000   4.881   5.454   5.007
13686TIP3    H141001   4.968   5.427   4.978
13686TIP3    H241002   4.857   5.390   5.074
13687TIP3   OH241003   7.381   2.572   5.633
13687TIP3    H141004   7.421   2.633   5.696
13687TIP3    H241005   7.364   2.493   5.684
13688TIP3   OH241006   5.605   1.992   2.643
13688TIP3    H141007   5.600   1.933   2.568
13688TIP3    H241008   5.533   2.053   2.631
13689TIP3   OH241009   1.594   0.691   5.025
13689TIP3    H141010   1.545   0.662   4.949
13689TIP3    H241011   1.535   0.675   5.099
13690TIP3   OH241012   6.944   3.379   3.239
13690TIP3    H141013   6.876   3.354   3.176
13690TIP3    H241014   6.968   3.296   3.281
13691TIP3   OH241015   0.179   5.311   0.733
13691TIP3    H141016   0.256   5.280   0.781
13691TIP3    H241017   0.210   5.386   0.683
13692TIP3   OH241018   3.835   2.506   2.925
13692TIP3    H141019   3.856   2.413   2.919
13692TIP3    H241020   3.819   2.532   2.834
13693TIP3   OH241021   1.914   5.905   5.700
13693TIP3    H141022   1.952   5.986   5.667
13693TIP3    H241023   1.840   5.933   5.754
13694TIP3   OH241024   8.116   3.589   2.965
13694TIP3    H141025   8.034   3.561   2.924
13694TIP3    H241026   8.128   3.679   2.935
13695TIP3   OH241027   5.294   3.964   0.999
13695TIP3    H141028   5.202   3.959   0.973
13695TIP3    H241029   5.331   3.879   0.973
13696TIP3   OH241030   0.123   0.979   5.817
13696TIP3    H141031   0.209   1.011   5.844
13696TIP3    H241032   0.087   0.937   5.896
13697TIP3   OH241033   7.857   2.628   4.577
13697TIP3    H141034   7.831   2.562   4.641
13697TIP3    H241035   7.923   2.681   4.623
13698TIP3   OH241036   8.312   6.977   6.510
13698TIP3    H141037   8.234   6.963   6.564
13698TIP3    H241038   8.347   7.061   6.540
13699TIP3   OH241039   3.789   0.864   5.994
13699TIP3    H141040   3.869   0.813   5.981
13699TIP3    H241041   3.719   0.800   5.987
13700TIP3   OH241042   1.073   3.879   0.334
13700TIP3    H141043   1.133   3.921   0.396
13700TIP3    H241044   0.987   3.913   0.356
13701TIP3   OH241045   5.822   1.255   4.909
13701TIP3    H141046   5.916   1.239   4.908
13701TIP3    H241047   5.793   1.224   4.994
13702TIP3   OH241048   7.862   2.826   6.006
13702TIP3    H141049   7.777   2.857   5.976
13702TIP3    H241050   7.911   2.906   6.025
13703TIP3   OH241051   5.861   1.038   4.229
13703TIP3    H141052   5.808   0.997   4.298
13703TIP3    H241053   5.951   1.032   4.261
13704TIP3   OH241054   1.200   1.181   0.008
13704TIP3    H141055   1.237   1.222   0.086
13704TIP3    H241056   1.266   1.118  -0.020
13705TIP3   OH241057   3.519   1.921   3.467
13705TIP3    H141058   3.486   1.989   3.408
13705TIP3    H241059   3.590   1.880   3.419
13706TIP3   OH241060   8.174   3.895   2.939
13706TIP3    H141061   8.144   3.985   2.945
13706TIP3    H241062   8.213   3.876   3.024
13707TIP3   OH241063   5.164   7.117   5.921
13707TIP3    H141064   5.249   7.157   5.939
13707TIP3    H241065   5.184   7.033   5.881
13708TIP3   OH241066   6.004   7.342   2.769
13708TIP3    H141067   5.960   7.291   2.701
13708TIP3    H241068   5.974   7.432   2.756
13709TIP3   OH241069   0.042   0.053   1.425
13709TIP3    H141070   0.092   0.030   1.503
13709TIP3    H241071  -0.023  -0.016   1.416
13710TIP3   OH241072   3.745   5.419   2.495
13710TIP3    H141073   3.827   5.452   2.532
13710TIP3    H241074   3.770   5.376   2.414
13711TIP3   OH241075   5.188   7.405   3.484
13711TIP3    H141076   5.259   7.373   3.430
13711TIP3    H241077   5.159   7.329   3.534
13712TIP3   OH241078   4.787   0.541   6.344
13712TIP3    H141079   4.782   0.462   6.292
13712TIP3    H241080   4.860   0.526   6.405
13713TIP3   OH241081   0.310   5.457   6.263
13713TIP3    H141082   0.274   5.394   6.202
13713TIP3    H241083   0.279   5.542   6.231
13714TIP3   OH241084   6.855   4.771   4.676
13714TIP3    H141085   6.887   4.799   4.590
13714TIP3    H241086   6.806   4.846   4.709
13715TIP3   OH241087   4.634   0.742   3.540
13715TIP3    H141088   4.670   0.829   3.521
13715TIP3    H241089   4.559   0.734   3.481
13716TIP3   OH241090   4.935   3.187   5.711
13716TIP3    H141091   4.846   3.159   5.688
13716TIP3    H241092   4.982   3.186   5.627
13717TIP3   OH241093   1.198   0.187   3.213
13717TIP3    H141094   1.115   0.148   3.240
13717TIP3    H241095   1.236   0.219   3.295
13718TIP3   OH241096   2.241   2.996   1.628
13718TIP3    H141097   2.304   3.033   1.689
13718TIP3    H241098   2.295   2.955   1.560
13719TIP3   OH241099   3.050   5.366   0.992
13719TIP3    H141100   3.138   5.354   0.957
13719TIP3    H241101   3.036   5.289   1.047
13720TIP3   OH241102   3.403   5.357   3.130
13720TIP3    H141103   3.470   5.302   3.090
13720TIP3    H241104   3.389   5.427   3.066
13721TIP3   OH241105   4.770   1.768   4.113
13721TIP3    H141106   4.821   1.789   4.192
13721TIP3    H241107   4.783   1.674   4.100
13722TIP3   OH241108   2.178   4.293   4.449
13722TIP3    H141109   2.114   4.253   4.508
13722TIP3    H241110   2.208   4.371   4.496
13723TIP3   OH241111   2.511   0.345   1.218
13723TIP3    H141112   2.519   0.275   1.283
13723TIP3    H241113   2.419   0.343   1.191
13724TIP3   OH241114   5.321   3.629   4.574
13724TIP3    H141115   5.411   3.660   4.575
13724TIP3    H241116   5.316   3.572   4.497
13725TIP3   OH241117   5.646   6.028   4.283
13725TIP3    H141118   5.724   6.051   4.334
13725TIP3    H241119   5.629   6.106   4.230
13726TIP3   OH241120   7.717   0.932   3.973
13726TIP3    H141121   7.729   0.843   3.942
13726TIP3    H241122   7.676   0.921   4.059
13727TIP3   OH241123   6.733   4.844   0.732
13727TIP3    H141124   6.806   4.782   0.731
13727TIP3    H241125   6.669   4.805   0.791
13728TIP3   OH241126   1.799   5.739   3.375
13728TIP3    H141127   1.804   5.818   3.429
13728TIP3    H241128   1.883   5.736   3.328
13729TIP3   OH241129   5.284   7.152   4.621
13729TIP3    H141130   5.203   7.120   4.581
13729TIP3    H241131   5.323   7.208   4.554
13730TIP3   OH241132   1.415   2.768   5.271
13730TIP3    H141133   1.473   2.735   5.340
13730TIP3    H241134   1.343   2.704   5.268
13731TIP3   OH241135   5.585   3.414   4.303
13731TIP3    H141136   5.671   3.377   4.280
13731TIP3    H241137   5.590   3.431   4.397
13732TIP3   OH241138   2.002   5.390   0.192
13732TIP3    H141139   2.078   5.361   0.243
13732TIP3    H241140   2.038   5.448   0.126
13733TIP3   OH241141   4.828   7.163   3.229
13733TIP3    H141142   4.850   7.200   3.314
13733TIP3    H241143   4.826   7.239   3.170
13734TIP3   OH241144   8.249   1.011   1.376
13734TIP3    H141145   8.339   1.022   1.405
13734TIP3    H241146   8.237   0.916   1.372
13735TIP3   OH241147   4.266   5.100   5.026
13735TIP3    H141148   4.318   5.165   5.073
13735TIP3    H241149   4.262   5.025   5.086
13736TIP3   OH241150   4.839   7.053   1.510
13736TIP3    H141151   4.868   6.964   1.531
13736TIP3    H241152   4.766   7.069   1.571
13737TIP3   OH241153   2.216   5.325   3.254
13737TIP3    H141154   2.244   5.372   3.332
13737TIP3    H241155   2.273   5.249   3.250
13738TIP3   OH241156   7.987   6.414   5.375
13738TIP3    H141157   8.066   6.391   5.325
13738TIP3    H241158   8.021   6.448   5.458
13739TIP3   OH241159   1.055   2.884   1.054
13739TIP3    H141160   1.058   2.975   1.024
13739TIP3    H241161   1.077   2.832   0.977
13740TIP3   OH241162   7.218   0.383   1.975
13740TIP3    H141163   7.241   0.476   1.972
13740TIP3    H241164   7.301   0.337   1.959
13741TIP3   OH241165   4.233   0.255   1.236
13741TIP3    H141166   4.303   0.319   1.221
13741TIP3    H241167   4.254   0.215   1.320
13742TIP3   OH241168   7.647   5.878   1.500
13742TIP3    H141169   7.650   5.902   1.408
13742TIP3    H241170   7.625   5.784   1.500
13743TIP3   OH241171   4.275   4.888   2.346
13743TIP3    H141172   4.350   4.934   2.383
13743TIP3    H241173   4.282   4.903   2.251
13744TIP3   OH241174   3.845   2.026   3.402
13744TIP3    H141175   3.780   1.958   3.386
13744TIP3    H241176   3.929   1.984   3.385
13745TIP3   OH241177   2.300   2.924   5.932
13745TIP3    H141178   2.378   2.937   5.986
13745TIP3    H241179   2.228   2.961   5.983
13746TIP3   OH241180   5.524   1.995   0.045
13746TIP3    H141181   5.607   2.016   0.002
13746TIP3    H241182   5.550   1.943   0.122
13747TIP3   OH241183   2.545   1.636   4.996
13747TIP3    H141184   2.619   1.580   5.019
13747TIP3    H241185   2.572   1.724   5.023
13748TIP3   OH241186   1.758   3.775   1.419
13748TIP3    H141187   1.714   3.827   1.352
13748TIP3    H241188   1.848   3.805   1.417
13749TIP3   OH241189   6.176   2.072   1.043
13749TIP3    H141190   6.180   2.168   1.046
13749TIP3    H241191   6.253   2.047   0.992
13750TIP3   OH241192   6.541   6.152   1.568
13750TIP3    H141193   6.530   6.185   1.657
13750TIP3    H241194   6.585   6.223   1.521
13751TIP3   OH241195   6.664   2.534   4.003
13751TIP3    H141196   6.627   2.446   4.002
13751TIP3    H241197   6.747   2.526   3.955
13752TIP3   OH241198   1.573   6.808   5.920
13752TIP3    H141199   1.553   6.893   5.880
13752TIP3    H241200   1.488   6.772   5.943
13753TIP3   OH241201   2.645   2.550   2.175
13753TIP3    H141202   2.694   2.470   2.157
13753TIP3    H241203   2.559   2.535   2.136
13754TIP3   OH241204   4.461   4.083   2.913
13754TIP3    H141205   4.367   4.098   2.921
13754TIP3    H241206   4.473   3.990   2.934
13755TIP3   OH241207   7.923   0.753   0.941
13755TIP3    H141208   7.872   0.813   0.996
13755TIP3    H241209   7.899   0.776   0.851
13756TIP3   OH241210   2.482   4.218   0.214
13756TIP3    H141211   2.404   4.199   0.162
13756TIP3    H241212   2.545   4.254   0.151
13757TIP3   OH241213   2.251   1.117   4.991
13757TIP3    H141214   2.265   1.086   5.081
13757TIP3    H241215   2.193   1.193   5.001
13758TIP3   OH241216   5.194   4.834   5.594
13758TIP3    H141217   5.130   4.840   5.664
13758TIP3    H241218   5.208   4.925   5.566
13759TIP3   OH241219   3.253   4.522   0.736
13759TIP3    H141220   3.256   4.574   0.816
13759TIP3    H241221   3.291   4.580   0.669
13760TIP3   OH241222   1.844   1.855   4.660
13760TIP3    H141223   1.802   1.941   4.645
13760TIP3    H241224   1.772   1.798   4.688
13761TIP3   OH241225   5.320   6.002   3.775
13761TIP3    H141226   5.381   6.053   3.830
13761TIP3    H241227   5.374   5.971   3.702
13762TIP3   OH241228   1.349   4.021   4.909
13762TIP3    H141229   1.293   4.089   4.949
13762TIP3    H241230   1.346   3.949   4.971
13763TIP3   OH241231   2.729   2.119   4.212
13763TIP3    H141232   2.755   2.137   4.122
13763TIP3    H241233   2.634   2.105   4.208
13764TIP3   OH241234   4.508   0.356   3.486
13764TIP3    H141235   4.533   0.311   3.566
13764TIP3    H241236   4.576   0.332   3.423
13765TIP3   OH241237   2.608   5.680   4.121
13765TIP3    H141238   2.694   5.640   4.107
13765TIP3    H241239   2.607   5.701   4.215
13766TIP3   OH241240   3.688   0.737   4.928
13766TIP3    H141241   3.630   0.787   4.870
13766TIP3    H241242   3.680   0.782   5.012
13767TIP3   OH241243   3.699   3.266   6.237
13767TIP3    H141244   3.647   3.346   6.240
13767TIP3    H241245   3.759   3.273   6.311
13768TIP3   OH241246   6.148   0.390   2.175
13768TIP3    H141247   6.077   0.353   2.122
13768TIP3    H241248   6.205   0.434   2.111
13769TIP3   OH241249   6.855   7.602   1.789
13769TIP3    H141250   6.846   7.625   1.696
13769TIP3    H241251   6.768   7.617   1.826
13770TIP3   OH241252   3.958   3.149   0.926
13770TIP3    H141253   3.917   3.227   0.965
13770TIP3    H241254   4.005   3.109   0.999
13771TIP3   OH241255   1.306   2.343   0.554
13771TIP3    H141256   1.315   2.272   0.490
13771TIP3    H241257   1.213   2.365   0.552
13772TIP3   OH241258   2.424   7.632   3.772
13772TIP3    H141259   2.454   7.543   3.755
13772TIP3    H241260   2.446   7.647   3.864
13773TIP3   OH241261   4.852   6.106   0.803
13773TIP3    H141262   4.933   6.056   0.815
13773TIP3    H241263   4.822   6.126   0.892
13774TIP3   OH241264   5.250   7.794   2.860
13774TIP3    H141265   5.287   7.879   2.837
13774TIP3    H241266   5.273   7.737   2.787
13775TIP3   OH241267   2.754   1.180   5.632
13775TIP3    H141268   2.792   1.195   5.718
13775TIP3    H241269   2.666   1.218   5.637
13776TIP3   OH241270   6.723   6.678   0.828
13776TIP3    H141271   6.676   6.644   0.904
13776TIP3    H241272   6.746   6.768   0.851
13777TIP3   OH241273   0.635   7.305   2.568
13777TIP3    H141274   0.646   7.344   2.481
13777TIP3    H241275   0.693   7.355   2.625
13778TIP3   OH241276   3.061   1.869   3.271
13778TIP3    H141277   3.096   1.917   3.195
13778TIP3    H241278   3.087   1.778   3.255
13779TIP3   OH241279   4.212   0.627   2.928
13779TIP3    H141280   4.171   0.710   2.954
13779TIP3    H241281   4.263   0.649   2.850
13780TIP3   OH241282   4.290   7.483   3.438
13780TIP3    H141283   4.242   7.408   3.404
13780TIP3    H241284   4.371   7.485   3.387
13781TIP3   OH241285   1.874   0.096   0.260
13781TIP3    H141286   1.890   0.063   0.171
13781TIP3    H241287   1.817   0.172   0.247
13782TIP3   OH241288   7.379   1.808   1.569
13782TIP3    H141289   7.420   1.795   1.654
13782TIP3    H241290   7.301   1.751   1.571
13783TIP3   OH241291   5.066   3.467   3.170
13783TIP3    H141292   5.117   3.500   3.244
13783TIP3    H241293   5.124   3.479   3.094
13784TIP3   OH241294   4.546   3.907   3.483
13784TIP3    H141295   4.487   3.936   3.413
13784TIP3    H241296   4.614   3.857   3.438
13785TIP3   OH241297   4.632   1.729   4.563
13785TIP3    H141298   4.638   1.644   4.520
13785TIP3    H241299   4.550   1.767   4.531
13786TIP3   OH241300   5.760   3.021   4.109
13786TIP3    H141301   5.797   2.971   4.182
13786TIP3    H241302   5.666   3.021   4.125
13787TIP3   OH241303   0.167   2.514   3.007
13787TIP3    H141304   0.235   2.457   2.971
13787TIP3    H241305   0.155   2.485   3.097
13788TIP3   OH241306   7.295   6.388   1.501
13788TIP3    H141307   7.344   6.305   1.504
13788TIP3    H241308   7.239   6.386   1.578
13789TIP3   OH241309   2.595   0.988   3.090
13789TIP3    H141310   2.614   0.905   3.135
13789TIP3    H241311   2.524   1.027   3.141
13790TIP3   OH241312   7.604   5.501   4.653
13790TIP3    H141313   7.689   5.457   4.662
13790TIP3    H241314   7.590   5.508   4.559
13791TIP3   OH241315   3.747   3.576   4.363
13791TIP3    H141316   3.737   3.495   4.412
13791TIP3    H241317   3.762   3.643   4.430
13792TIP3   OH241318   6.257   7.215   2.743
13792TIP3    H141319   6.162   7.207   2.741
13792TIP3    H241320   6.277   7.292   2.690
13793TIP3   OH241321   4.601   4.800   1.506
13793TIP3    H141322   4.621   4.890   1.479
13793TIP3    H241323   4.673   4.776   1.563
13794TIP3   OH241324   4.725   4.885   4.560
13794TIP3    H141325   4.743   4.797   4.594
13794TIP3    H241326   4.685   4.931   4.634
13795TIP3   OH241327   6.581   1.529   4.381
13795TIP3    H141328   6.496   1.547   4.340
13795TIP3    H241329   6.573   1.440   4.415
13796TIP3   OH241330   4.582   2.198   1.931
13796TIP3    H141331   4.546   2.282   1.958
13796TIP3    H241332   4.576   2.198   1.835
13797TIP3   OH241333   5.570   6.067   6.707
13797TIP3    H141334   5.629   6.071   6.632
13797TIP3    H241335   5.629   6.069   6.783
13798TIP3   OH241336   2.131   2.847   1.287
13798TIP3    H141337   2.214   2.893   1.277
13798TIP3    H241338   2.155   2.755   1.298
13799TIP3   OH241339   5.402   3.838   1.406
13799TIP3    H141340   5.325   3.877   1.447
13799TIP3    H241341   5.418   3.892   1.330
13800TIP3   OH241342   7.970   6.362   5.964
13800TIP3    H141343   7.994   6.449   5.995
13800TIP3    H241344   8.054   6.317   5.951
13801TIP3   OH241345   6.689   5.166   5.306
13801TIP3    H141346   6.698   5.114   5.386
13801TIP3    H241347   6.632   5.239   5.332
13802TIP3   OH241348   0.419   6.799   4.972
13802TIP3    H141349   0.448   6.804   5.063
13802TIP3    H241350   0.444   6.884   4.934
13803TIP3   OH241351   2.591   1.048   3.981
13803TIP3    H141352   2.669   0.996   3.999
13803TIP3    H241353   2.548   1.057   4.066
13804TIP3   OH241354   2.319   0.350   2.882
13804TIP3    H141355   2.390   0.347   2.946
13804TIP3    H241356   2.348   0.417   2.819
13805TIP3   OH241357   4.424   0.911   2.991
13805TIP3    H141358   4.375   0.991   2.969
13805TIP3    H241359   4.393   0.887   3.078
13806TIP3   OH241360   4.377   4.293   0.124
13806TIP3    H141361   4.311   4.352   0.089
13806TIP3    H241362   4.413   4.249   0.047
13807TIP3   OH241363   1.268   1.933   2.508
13807TIP3    H141364   1.212   1.869   2.463
13807TIP3    H241365   1.355   1.917   2.473
13808TIP3   OH241366   6.490   6.205   6.342
13808TIP3    H141367   6.502   6.152   6.421
13808TIP3    H241368   6.465   6.143   6.274
13809TIP3   OH241369   6.860   6.852   1.594
13809TIP3    H141370   6.871   6.911   1.519
13809TIP3    H241371   6.840   6.910   1.668
13810TIP3   OH241372   4.780   2.258   2.108
13810TIP3    H141373   4.727   2.211   2.043
13810TIP3    H241374   4.782   2.348   2.077
13811TIP3   OH241375   1.325   5.796   4.677
13811TIP3    H141376   1.272   5.783   4.598
13811TIP3    H241377   1.397   5.852   4.649
13812TIP3   OH241378   3.627   4.544   6.090
13812TIP3    H141379   3.533   4.533   6.097
13812TIP3    H241380   3.639   4.616   6.028
13813TIP3   OH241381   3.088   0.823   2.311
13813TIP3    H141382   3.156   0.756   2.306
13813TIP3    H241383   3.007   0.777   2.292
13814TIP3   OH241384   6.584   5.624   6.664
13814TIP3    H141385   6.640   5.659   6.734
13814TIP3    H241386   6.645   5.582   6.604
13815TIP3   OH241387   2.713   5.494   1.561
13815TIP3    H141388   2.775   5.521   1.628
13815TIP3    H241389   2.759   5.427   1.511
13816TIP3   OH241390   5.658   4.994   3.962
13816TIP3    H141391   5.664   4.898   3.968
13816TIP3    H241392   5.568   5.014   3.988
13817TIP3   OH241393   0.059   3.751   4.179
13817TIP3    H141394  -0.019   3.725   4.130
13817TIP3    H241395   0.025   3.793   4.258
13818TIP3   OH241396   5.892   2.873   4.306
13818TIP3    H141397   5.975   2.854   4.350
13818TIP3    H241398   5.841   2.792   4.315
13819TIP3   OH241399   1.517   0.231   4.286
13819TIP3    H141400   1.545   0.218   4.376
13819TIP3    H241401   1.577   0.297   4.251
13820TIP3   OH241402   1.150   7.818   5.467
13820TIP3    H141403   1.161   7.913   5.461
13820TIP3    H241404   1.120   7.791   5.380
13821TIP3   OH241405   3.693   0.031   1.668
13821TIP3    H141406   3.646   0.114   1.658
13821TIP3    H241407   3.772   0.053   1.717
13822TIP3   OH241408   8.025   1.283   0.788
13822TIP3    H141409   7.966   1.235   0.846
13822TIP3    H241410   8.070   1.215   0.737
13823TIP3   OH241411   0.938   2.159   4.154
13823TIP3    H141412   1.006   2.207   4.201
13823TIP3    H241413   0.985   2.099   4.096
13824TIP3   OH241414   1.608   0.291   5.295
13824TIP3    H141415   1.698   0.265   5.314
13824TIP3    H241416   1.580   0.340   5.372
13825TIP3   OH241417   0.641   5.707   3.443
13825TIP3    H141418   0.548   5.688   3.437
13825TIP3    H241419   0.684   5.627   3.411
13826TIP3   OH241420   2.543   3.012   4.811
13826TIP3    H141421   2.562   3.095   4.854
13826TIP3    H241422   2.470   3.032   4.752
13827TIP3   OH241423   7.581   5.651   4.138
13827TIP3    H141424   7.655   5.673   4.194
13827TIP3    H241425   7.612   5.665   4.049
13828TIP3   OH241426   2.952   0.434   0.354
13828TIP3    H141427   2.898   0.510   0.335
13828TIP3    H241428   2.899   0.379   0.411
13829TIP3   OH241429   4.247   6.897   5.334
13829TIP3    H141430   4.211   6.986   5.338
13829TIP3    H241431   4.185   6.848   5.280
13830TIP3   OH241432   6.390   5.052   3.711
13830TIP3    H141433   6.355   5.140   3.726
13830TIP3    H241434   6.468   5.065   3.658
13831TIP3   OH241435   0.754   4.057   5.159
13831TIP3    H141436   0.715   4.026   5.241
13831TIP3    H241437   0.807   4.133   5.184
13832TIP3   OH241438   5.665   6.585   1.502
13832TIP3    H141439   5.654   6.528   1.577
13832TIP3    H241440   5.755   6.569   1.473
13833TIP3   OH241441   7.253   7.490   6.114
13833TIP3    H141442   7.339   7.492   6.155
13833TIP3    H241443   7.249   7.569   6.061
13834TIP3   OH241444   7.817   6.808   0.018
13834TIP3    H141445   7.856   6.720   0.023
13834TIP3    H241446   7.734   6.800   0.064
13835TIP3   OH241447   7.373   1.196   6.399
13835TIP3    H141448   7.393   1.106   6.424
13835TIP3    H241449   7.459   1.237   6.387
13836TIP3   OH241450   5.432   6.190   0.250
13836TIP3    H141451   5.467   6.163   0.335
13836TIP3    H241452   5.368   6.123   0.229
13837TIP3   OH241453   2.722   6.161   4.723
13837TIP3    H141454   2.755   6.233   4.777
13837TIP3    H241455   2.758   6.178   4.636
13838TIP3   OH241456   3.417   6.271   0.267
13838TIP3    H141457   3.453   6.199   0.214
13838TIP3    H241458   3.474   6.346   0.247
13839TIP3   OH241459   0.605   2.642   3.127
13839TIP3    H141460   0.582   2.726   3.167
13839TIP3    H241461   0.576   2.576   3.190
13840TIP3   OH241462   3.377   0.545   2.618
13840TIP3    H141463   3.453   0.593   2.651
13840TIP3    H241464   3.350   0.593   2.540
13841TIP3   OH241465   1.995   0.254   4.457
13841TIP3    H141466   1.937   0.234   4.530
13841TIP3    H241467   2.008   0.170   4.413
13842TIP3   OH241468   0.694   6.056   2.732
13842TIP3    H141469   0.739   5.994   2.789
13842TIP3    H241470   0.764   6.108   2.692
13843TIP3   OH241471   6.135   2.483   4.843
13843TIP3    H141472   6.096   2.395   4.845
13843TIP3    H241473   6.125   2.511   4.752
13844TIP3   OH241474   1.640   6.603   3.404
13844TIP3    H141475   1.671   6.689   3.375
13844TIP3    H241476   1.648   6.605   3.499
13845TIP3   OH241477   2.015   4.581   4.048
13845TIP3    H141478   1.930   4.598   4.089
13845TIP3    H241479   2.079   4.594   4.119
13846TIP3   OH241480   1.111   1.403   5.554
13846TIP3    H141481   1.171   1.415   5.481
13846TIP3    H241482   1.134   1.317   5.591
13847TIP3   OH241483   2.890   6.787   0.044
13847TIP3    H141484   2.931   6.775   0.130
13847TIP3    H241485   2.855   6.700   0.022
13848TIP3   OH241486   5.033   1.117   0.489
13848TIP3    H141487   5.088   1.192   0.512
13848TIP3    H241488   5.042   1.056   0.563
13849TIP3   OH241489   6.700   2.004   5.126
13849TIP3    H141490   6.666   1.919   5.096
13849TIP3    H241491   6.779   2.018   5.075
13850TIP3   OH241492   3.446   4.745   4.251
13850TIP3    H141493   3.485   4.822   4.209
13850TIP3    H241494   3.357   4.742   4.217
13851TIP3   OH241495   4.464   6.794   2.454
13851TIP3    H141496   4.485   6.713   2.500
13851TIP3    H241497   4.389   6.771   2.399
13852TIP3   OH241498   5.038   7.078   4.424
13852TIP3    H141499   5.088   7.139   4.369
13852TIP3    H241500   5.012   7.008   4.364
13853TIP3   OH241501   7.354   0.656   5.720
13853TIP3    H141502   7.319   0.568   5.709
13853TIP3    H241503   7.445   0.649   5.691
13854TIP3   OH241504   0.991   6.813   6.690
13854TIP3    H141505   0.942   6.874   6.744
13854TIP3    H241506   1.045   6.868   6.634
13855TIP3   OH241507   7.658   6.673   4.794
13855TIP3    H141508   7.643   6.612   4.722
13855TIP3    H241509   7.680   6.618   4.869
13856TIP3   OH241510   5.945   1.926   4.656
13856TIP3    H141511   5.882   1.942   4.586
13856TIP3    H241512   6.005   2.000   4.652
13857TIP3   OH241513   3.957   5.186   3.154
13857TIP3    H141514   4.026   5.246   3.124
13857TIP3    H241515   3.989   5.153   3.238
13858TIP3   OH241516   8.092   7.149   5.337
13858TIP3    H141517   8.029   7.101   5.391
13858TIP3    H241518   8.072   7.122   5.247
13859TIP3   OH241519   5.343   3.790   6.726
13859TIP3    H141520   5.293   3.858   6.681
13859TIP3    H241521   5.390   3.745   6.655
13860TIP3   OH241522   4.881   3.423   5.872
13860TIP3    H141523   4.819   3.478   5.824
13860TIP3    H241524   4.885   3.342   5.821
13861TIP3   OH241525   2.676   2.205   2.393
13861TIP3    H141526   2.754   2.233   2.345
13861TIP3    H241527   2.704   2.126   2.439
13862TIP3   OH241528   4.536   3.929   0.508
13862TIP3    H141529   4.559   3.838   0.487
13862TIP3    H241530   4.518   3.969   0.423
13863TIP3   OH241531   3.126   5.313   4.782
13863TIP3    H141532   3.033   5.302   4.798
13863TIP3    H241533   3.139   5.407   4.772
13864TIP3   OH241534   5.135   3.934   0.491
13864TIP3    H141535   5.052   3.888   0.503
13864TIP3    H241536   5.150   3.978   0.575
13865TIP3   OH241537   6.239   0.093   6.060
13865TIP3    H141538   6.321   0.089   6.012
13865TIP3    H241539   6.202   0.179   6.039
13866TIP3   OH241540   1.183   6.180   5.840
13866TIP3    H141541   1.200   6.102   5.787
13866TIP3    H241542   1.091   6.201   5.822
13867TIP3   OH241543   2.354   1.142   0.089
13867TIP3    H141544   2.407   1.147   0.168
13867TIP3    H241545   2.292   1.071   0.107
13868TIP3   OH241546   3.990   0.953   2.116
13868TIP3    H141547   4.024   1.023   2.171
13868TIP3    H241548   4.066   0.923   2.065
13869TIP3   OH241549   4.926   3.038   6.324
13869TIP3    H141550   4.877   3.084   6.256
13869TIP3    H241551   5.014   3.030   6.288
13870TIP3   OH241552   0.392   0.477   1.634
13870TIP3    H141553   0.458   0.417   1.599
13870TIP3    H241554   0.380   0.449   1.725
13871TIP3   OH241555   5.499   7.517   4.133
13871TIP3    H141556   5.499   7.526   4.229
13871TIP3    H241557   5.408   7.499   4.111
13872TIP3   OH241558   3.575   1.007   5.810
13872TIP3    H141559   3.596   1.100   5.802
13872TIP3    H241560   3.655   0.968   5.844
13873TIP3   OH241561   5.334   4.927   2.507
13873TIP3    H141562   5.364   4.912   2.417
13873TIP3    H241563   5.239   4.927   2.501
13874TIP3   OH241564   2.788   7.119   6.426
13874TIP3    H141565   2.717   7.066   6.388
13874TIP3    H241566   2.846   7.055   6.467
13875TIP3   OH241567   0.304   3.740   2.047
13875TIP3    H141568   0.229   3.796   2.068
13875TIP3    H241569   0.265   3.654   2.028
13876TIP3   OH241570   8.008   2.302   2.070
13876TIP3    H141571   7.944   2.230   2.065
13876TIP3    H241572   8.091   2.262   2.043
13877TIP3   OH241573   6.267   0.510   1.128
13877TIP3    H141574   6.202   0.469   1.185
13877TIP3    H241575   6.234   0.496   1.039
13878TIP3   OH241576   0.536   2.617   3.717
13878TIP3    H141577   0.497   2.562   3.785
13878TIP3    H241578   0.582   2.686   3.765
13879TIP3   OH241579   4.762   1.000   4.204
13879TIP3    H141580   4.701   0.945   4.155
13879TIP3    H241581   4.799   1.059   4.138
13880TIP3   OH241582   3.048   2.029   6.096
13880TIP3    H141583   2.954   2.041   6.113
13880TIP3    H241584   3.067   2.089   6.025
13881TIP3   OH241585   4.394   0.135   4.222
13881TIP3    H141586   4.364   0.081   4.295
13881TIP3    H241587   4.339   0.213   4.226
13882TIP3   OH241588   0.525   4.660   5.657
13882TIP3    H141589   0.508   4.726   5.724
13882TIP3    H241590   0.525   4.577   5.704
13883TIP3   OH241591   5.577   3.730   4.618
13883TIP3    H141592   5.611   3.786   4.549
13883TIP3    H241593   5.619   3.645   4.602
13884TIP3   OH241594   0.208   2.919   2.203
13884TIP3    H141595   0.234   2.910   2.112
13884TIP3    H241596   0.113   2.923   2.201
13885TIP3   OH241597   1.343   6.585   1.800
13885TIP3    H141598   1.339   6.575   1.705
13885TIP3    H241599   1.416   6.645   1.815
13886TIP3   OH241600   0.321   7.254   6.290
13886TIP3    H141601   0.275   7.218   6.366
13886TIP3    H241602   0.313   7.349   6.299
13887TIP3   OH241603   4.877   3.413   4.009
13887TIP3    H141604   4.868   3.327   4.049
13887TIP3    H241605   4.841   3.474   4.073
13888TIP3   OH241606   3.193   4.450   4.239
13888TIP3    H141607   3.288   4.460   4.249
13888TIP3    H241608   3.159   4.461   4.327
13889TIP3   OH241609   6.211   6.213   0.786
13889TIP3    H141610   6.243   6.276   0.721
13889TIP3    H241611   6.284   6.152   0.797
13890TIP3   OH241612   2.210   3.988   2.361
13890TIP3    H141613   2.183   3.910   2.409
13890TIP3    H241614   2.301   4.002   2.386
13891TIP3   OH241615   3.280   1.331   6.207
13891TIP3    H141616   3.221   1.283   6.148
13891TIP3    H241617   3.247   1.421   6.206
13892TIP3   OH241618   0.308   0.003   2.275
13892TIP3    H141619   0.376  -0.056   2.244
13892TIP3    H241620   0.328   0.087   2.233
13893TIP3   OH241621   2.831   5.681   3.404
13893TIP3    H141622   2.912   5.729   3.390
13893TIP3    H241623   2.854   5.589   3.393
13894TIP3   OH241624   3.627   1.049   4.005
13894TIP3    H141625   3.603   1.135   4.040
13894TIP3    H241626   3.564   1.033   3.935
13895TIP3   OH241627   7.178   2.753   6.449
13895TIP3    H141628   7.133   2.677   6.484
13895TIP3    H241629   7.183   2.737   6.355
13896TIP3   OH241630   6.233   0.482   5.989
13896TIP3    H141631   6.207   0.476   5.897
13896TIP3    H241632   6.320   0.442   5.991
13897TIP3   OH241633   7.788   6.240   5.457
13897TIP3    H141634   7.859   6.299   5.431
13897TIP3    H241635   7.727   6.242   5.383
13898TIP3   OH241636   6.828   3.773   2.430
13898TIP3    H141637   6.866   3.687   2.413
13898TIP3    H241638   6.867   3.801   2.513
13899TIP3   OH241639   0.278   7.042   3.899
13899TIP3    H141640   0.230   7.047   3.817
13899TIP3    H241641   0.229   6.979   3.952
13900TIP3   OH241642   6.764   0.788   2.624
13900TIP3    H141643   6.744   0.856   2.559
13900TIP3    H241644   6.857   0.770   2.612
13901TIP3   OH241645   6.056   5.383   2.495
13901TIP3    H141646   6.146   5.409   2.514
13901TIP3    H241647   6.002   5.454   2.530
13902TIP3   OH241648   4.756   4.766   3.069
13902TIP3    H141649   4.686   4.821   3.034
13902TIP3    H241650   4.837   4.806   3.035
13903TIP3   OH241651   1.506   5.021   3.596
13903TIP3    H141652   1.421   4.979   3.604
13903TIP3    H241653   1.532   5.008   3.505
13904TIP3   OH241654   5.387   1.631   6.594
13904TIP3    H141655   5.358   1.547   6.630
13904TIP3    H241656   5.475   1.643   6.632
13905TIP3   OH241657   3.331   7.710   2.980
13905TIP3    H141658   3.340   7.677   2.891
13905TIP3    H241659   3.237   7.705   2.998
13906TIP3   OH241660   7.064   0.781   1.895
13906TIP3    H141661   7.050   0.737   1.979
13906TIP3    H241662   6.976   0.796   1.861
13907TIP3   OH241663   5.020   1.466   2.012
13907TIP3    H141664   5.100   1.503   1.975
13907TIP3    H241665   5.049   1.417   2.089
13908TIP3   OH241666   0.813   0.187   1.922
13908TIP3    H141667   0.811   0.169   2.016
13908TIP3    H241668   0.864   0.115   1.885
13909TIP3   OH241669   7.971   2.728   2.269
13909TIP3    H141670   7.935   2.785   2.337
13909TIP3    H241671   7.910   2.655   2.262
13910TIP3   OH241672   1.404   7.697   4.886
13910TIP3    H141673   1.396   7.792   4.885
13910TIP3    H241674   1.489   7.681   4.927
13911TIP3   OH241675   5.726   1.907   5.216
13911TIP3    H141676   5.677   1.982   5.182
13911TIP3    H241677   5.814   1.918   5.181
13912TIP3   OH241678   0.847   3.061   0.453
13912TIP3    H141679   0.903   3.119   0.505
13912TIP3    H241680   0.759   3.081   0.483
13913TIP3   OH241681   2.132   1.468   0.504
13913TIP3    H141682   2.041   1.483   0.527
13913TIP3    H241683   2.180   1.541   0.544
13914TIP3   OH241684   4.834   1.515   5.370
13914TIP3    H141685   4.799   1.593   5.325
13914TIP3    H241686   4.928   1.531   5.375
13915TIP3   OH241687   4.222   4.806   5.549
13915TIP3    H141688   4.257   4.883   5.595
13915TIP3    H241689   4.252   4.732   5.602
13916TIP3   OH241690   3.633   7.617   5.628
13916TIP3    H141691   3.554   7.564   5.636
13916TIP3    H241692   3.699   7.569   5.678
13917TIP3   OH241693   4.600   3.373   5.415
13917TIP3    H141694   4.529   3.346   5.473
13917TIP3    H241695   4.594   3.469   5.412
13918TIP3   OH241696   7.526   3.790   5.609
13918TIP3    H141697   7.600   3.851   5.614
13918TIP3    H241698   7.452   3.845   5.582
13919TIP3   OH241699   3.551   4.719   2.618
13919TIP3    H141700   3.644   4.709   2.598
13919TIP3    H241701   3.506   4.676   2.545
13920TIP3   OH241702   7.726   6.086   3.270
13920TIP3    H141703   7.673   6.116   3.196
13920TIP3    H241704   7.663   6.075   3.341
13921TIP3   OH241705   7.374   5.136   4.546
13921TIP3    H141706   7.346   5.223   4.574
13921TIP3    H241707   7.305   5.078   4.578
13922TIP3   OH241708   3.706   5.383   4.872
13922TIP3    H141709   3.668   5.297   4.855
13922TIP3    H241710   3.769   5.368   4.943
13923TIP3   OH241711   3.279   0.537   3.645
13923TIP3    H141712   3.364   0.495   3.659
13923TIP3    H241713   3.216   0.465   3.654
13924TIP3   OH241714   5.473   6.417   0.718
13924TIP3    H141715   5.516   6.464   0.790
13924TIP3    H241716   5.439   6.485   0.661
13925TIP3   OH241717   5.542   7.188   1.298
13925TIP3    H141718   5.615   7.125   1.293
13925TIP3    H241719   5.557   7.234   1.380
13926TIP3   OH241720   2.443   3.308   4.492
13926TIP3    H141721   2.349   3.296   4.477
13926TIP3    H241722   2.465   3.388   4.445
13927TIP3   OH241723   4.460   6.021   1.919
13927TIP3    H141724   4.492   6.100   1.875
13927TIP3    H241725   4.366   6.021   1.902
13928TIP3   OH241726   5.951   3.827   3.637
13928TIP3    H141727   5.934   3.827   3.543
13928TIP3    H241728   5.869   3.856   3.676
13929TIP3   OH241729   0.729   6.984   3.732
13929TIP3    H141730   0.765   6.954   3.816
13929TIP3    H241731   0.694   6.905   3.692
13930TIP3   OH241732   0.164   4.601   5.803
13930TIP3    H141733   0.102   4.606   5.876
13930TIP3    H241734   0.118   4.551   5.735
13931TIP3   OH241735   2.030   6.896   5.034
13931TIP3    H141736   2.032   6.932   5.123
13931TIP3    H241737   2.036   6.801   5.046
13932TIP3   OH241738   1.968   2.067   3.830
13932TIP3    H141739   2.014   2.026   3.756
13932TIP3    H241740   1.940   2.152   3.796
13933TIP3   OH241741   7.616   4.797   0.180
13933TIP3    H141742   7.604   4.881   0.136
13933TIP3    H241743   7.542   4.789   0.239
13934TIP3   OH241744   1.010   2.197   6.029
13934TIP3    H141745   0.996   2.211   6.123
13934TIP3    H241746   0.946   2.255   5.987
13935TIP3   OH241747   5.673   7.035   4.699
13935TIP3    H141748   5.732   6.960   4.685
13935TIP3    H241749   5.692   7.064   4.788
13936TIP3   OH241750   7.951   1.631   1.109
13936TIP3    H141751   7.916   1.572   1.042
13936TIP3    H241752   7.984   1.707   1.060
13937TIP3   OH241753   2.778   0.319   1.404
13937TIP3    H141754   2.839   0.278   1.465
13937TIP3    H241755   2.765   0.407   1.439
13938TIP3   OH241756   4.532   1.229   4.037
13938TIP3    H141757   4.468   1.173   4.081
13938TIP3    H241758   4.523   1.208   3.944
13939TIP3   OH241759   4.116   3.886   3.895
13939TIP3    H141760   4.178   3.813   3.888
13939TIP3    H241761   4.047   3.866   3.831
13940TIP3   OH241762   6.693   2.701   6.546
13940TIP3    H141763   6.683   2.796   6.560
13940TIP3    H241764   6.681   2.664   6.634
13941TIP3   OH241765   6.477   5.937   2.050
13941TIP3    H141766   6.544   5.906   2.111
13941TIP3    H241767   6.475   6.032   2.063
13942TIP3   OH241768   4.147   6.324   0.667
13942TIP3    H141769   4.105   6.256   0.615
13942TIP3    H241770   4.189   6.381   0.602
13943TIP3   OH241771   6.088   4.021   1.346
13943TIP3    H141772   6.127   4.000   1.430
13943TIP3    H241773   6.015   4.080   1.367
13944TIP3   OH241774   7.365   7.101   4.699
13944TIP3    H141775   7.370   7.033   4.766
13944TIP3    H241776   7.424   7.072   4.630
13945TIP3   OH241777   3.629   1.940   5.510
13945TIP3    H141778   3.695   1.879   5.542
13945TIP3    H241779   3.667   2.027   5.526
13946TIP3   OH241780   6.881   7.081   1.788
13946TIP3    H141781   6.975   7.073   1.802
13946TIP3    H241782   6.872   7.156   1.729
13947TIP3   OH241783   4.005   6.259   1.519
13947TIP3    H141784   4.001   6.163   1.515
13947TIP3    H241785   3.955   6.287   1.442
13948TIP3   OH241786   4.975   6.985   6.442
13948TIP3    H141787   4.977   7.049   6.371
13948TIP3    H241788   4.883   6.981   6.468
13949TIP3   OH241789   7.678   0.571   1.372
13949TIP3    H141790   7.741   0.512   1.412
13949TIP3    H241791   7.593   0.541   1.405
13950TIP3   OH241792   5.682   3.246   4.755
13950TIP3    H141793   5.776   3.250   4.768
13950TIP3    H241794   5.645   3.243   4.843
13951TIP3   OH241795   0.392   2.843   3.057
13951TIP3    H141796   0.375   2.776   3.123
13951TIP3    H241797   0.372   2.802   2.974
13952TIP3   OH241798   1.746   5.961   4.277
13952TIP3    H141799   1.829   5.937   4.318
13952TIP3    H241800   1.681   5.954   4.347
13953TIP3   OH241801   3.599   0.368   1.674
13953TIP3    H141802   3.512   0.360   1.713
13953TIP3    H241803   3.584   0.363   1.579
13954TIP3   OH241804   3.173   0.993   2.516
13954TIP3    H141805   3.234   1.035   2.455
13954TIP3    H241806   3.120   0.936   2.461
13955TIP3   OH241807   3.133   1.818   3.882
13955TIP3    H141808   3.141   1.731   3.922
13955TIP3    H241809   3.103   1.874   3.954
13956TIP3   OH241810   5.671   4.292   2.075
13956TIP3    H141811   5.764   4.267   2.083
13956TIP3    H241812   5.670   4.361   2.009
13957TIP3   OH241813   1.913   2.376   1.025
13957TIP3    H141814   1.907   2.334   1.111
13957TIP3    H241815   1.843   2.440   1.025
13958TIP3   OH241816   6.525   2.996   3.158
13958TIP3    H141817   6.575   2.983   3.077
13958TIP3    H241818   6.553   2.925   3.215
13959TIP3   OH241819   2.923   0.228   2.228
13959TIP3    H141820   2.978   0.293   2.184
13959TIP3    H241821   2.892   0.273   2.307
13960TIP3   OH241822   6.661   4.273   3.201
13960TIP3    H141823   6.596   4.236   3.141
13960TIP3    H241824   6.717   4.199   3.224
13961TIP3   OH241825   7.661   5.032   4.480
13961TIP3    H141826   7.717   5.044   4.557
13961TIP3    H241827   7.578   5.074   4.504
13962TIP3   OH241828   5.843   5.426   6.744
13962TIP3    H141829   5.799   5.509   6.763
13962TIP3    H241830   5.793   5.388   6.672
13963TIP3   OH241831   1.766   6.903   1.174
13963TIP3    H141832   1.692   6.934   1.225
13963TIP3    H241833   1.728   6.871   1.092
13964TIP3   OH241834   5.947   0.191   3.784
13964TIP3    H141835   5.906   0.255   3.842
13964TIP3    H241836   5.898   0.197   3.702
13965TIP3   OH241837   2.364   3.829   4.893
13965TIP3    H141838   2.277   3.855   4.864
13965TIP3    H241839   2.410   3.804   4.813
13966TIP3   OH241840   0.691   4.486   2.159
13966TIP3    H141841   0.769   4.494   2.214
13966TIP3    H241842   0.719   4.431   2.086
13967TIP3   OH241843   5.272   3.817   0.076
13967TIP3    H141844   5.343   3.815   0.011
13967TIP3    H241845   5.300   3.882   0.139
13968TIP3   OH241846   5.789   1.479   0.013
13968TIP3    H141847   5.850   1.551   0.029
13968TIP3    H241848   5.795   1.463  -0.081
13969TIP3   OH241849   4.613   4.148   1.372
13969TIP3    H141850   4.684   4.213   1.375
13969TIP3    H241851   4.533   4.200   1.385
13970TIP3   OH241852   0.220   2.621   5.457
13970TIP3    H141853   0.260   2.609   5.371
13970TIP3    H241854   0.187   2.711   5.457
13971TIP3   OH241855   5.888   5.262   0.975
13971TIP3    H141856   5.951   5.306   1.032
13971TIP3    H241857   5.876   5.176   1.015
13972TIP3   OH241858   6.246   7.371   0.383
13972TIP3    H141859   6.197   7.307   0.331
13972TIP3    H241860   6.281   7.321   0.456
13973TIP3   OH241861   5.996   1.347   5.768
13973TIP3    H141862   5.980   1.401   5.846
13973TIP3    H241863   6.015   1.260   5.803
13974TIP3   OH241864   1.064   2.857   4.804
13974TIP3    H141865   1.108   2.917   4.744
13974TIP3    H241866   0.978   2.843   4.765
13975TIP3   OH241867   6.727   4.382   4.336
13975TIP3    H141868   6.793   4.319   4.366
13975TIP3    H241869   6.743   4.461   4.387
13976TIP3   OH241870   7.041   5.191   6.683
13976TIP3    H141871   7.029   5.147   6.599
13976TIP3    H241872   7.135   5.193   6.697
13977TIP3   OH241873   4.701   6.894   4.161
13977TIP3    H141874   4.621   6.858   4.124
13977TIP3    H241875   4.691   6.989   4.153
13978TIP3   OH241876   4.788   0.526   0.927
13978TIP3    H141877   4.730   0.503   0.999
13978TIP3    H241878   4.855   0.582   0.966
13979TIP3   OH241879   3.868   6.100   4.912
13979TIP3    H141880   3.957   6.069   4.926
13979TIP3    H241881   3.815   6.020   4.906
13980TIP3   OH241882   6.947   3.188   4.711
13980TIP3    H141883   6.915   3.202   4.800
13980TIP3    H241884   7.029   3.237   4.707
13981TIP3   OH241885   2.111   7.521   1.671
13981TIP3    H141886   2.166   7.563   1.737
13981TIP3    H241887   2.135   7.564   1.589
13982TIP3   OH241888   6.917   0.556   6.247
13982TIP3    H141889   6.908   0.585   6.157
13982TIP3    H241890   6.994   0.603   6.281
13983TIP3   OH241891   5.790   5.258   5.064
13983TIP3    H141892   5.763   5.203   5.137
13983TIP3    H241893   5.710   5.270   5.012
13984TIP3   OH241894   6.070   1.229   3.115
13984TIP3    H141895   6.097   1.202   3.203
13984TIP3    H241896   6.077   1.325   3.116
13985TIP3   OH241897   3.698   6.505   6.753
13985TIP3    H141898   3.767   6.547   6.702
13985TIP3    H241899   3.621   6.559   6.737
13986TIP3   OH241900   4.060   5.002   5.837
13986TIP3    H141901   4.073   5.021   5.744
13986TIP3    H241902   4.111   5.068   5.883
13987TIP3   OH241903   7.522   6.845   5.937
13987TIP3    H141904   7.462   6.907   5.895
13987TIP3    H241905   7.479   6.760   5.927
13988TIP3   OH241906   2.480   0.639   2.959
13988TIP3    H141907   2.534   0.716   2.981
13988TIP3    H241908   2.474   0.641   2.864
13989TIP3   OH241909   3.942   7.599   6.747
13989TIP3    H141910   3.982   7.606   6.661
13989TIP3    H241911   4.013   7.569   6.804
13990TIP3   OH241912   3.613   4.511   1.446
13990TIP3    H141913   3.542   4.566   1.478
13990TIP3    H241914   3.661   4.567   1.384
13991TIP3   OH241915   5.221   2.641   6.750
13991TIP3    H141916   5.180   2.555   6.740
13991TIP3    H241917   5.262   2.658   6.666
13992TIP3   OH241918   3.493   6.809   6.176
13992TIP3    H141919   3.532   6.880   6.126
13992TIP3    H241920   3.484   6.737   6.112
13993TIP3   OH241921   6.870   2.768   0.881
13993TIP3    H141922   6.925   2.691   0.897
13993TIP3    H241923   6.905   2.807   0.802
13994TIP3   OH241924   8.195   0.467   1.155
13994TIP3    H141925   8.117   0.495   1.106
13994TIP3    H241926   8.260   0.535   1.136
13995TIP3   OH241927   8.079   6.897   3.911
13995TIP3    H141928   7.984   6.907   3.909
13995TIP3    H241929   8.100   6.896   4.005
13996TIP3   OH241930   2.015   4.091   0.544
13996TIP3    H141931   2.053   4.131   0.623
13996TIP3    H241932   1.923   4.117   0.547
13997TIP3   OH241933   0.602   0.331   6.340
13997TIP3    H141934   0.587   0.271   6.412
13997TIP3    H241935   0.648   0.405   6.379
13998TIP3   OH241936   1.083   2.394   3.154
13998TIP3    H141937   1.032   2.325   3.198
13998TIP3    H241938   1.078   2.469   3.214
13999TIP3   OH241939   7.609   2.811   6.254
13999TIP3    H141940   7.696   2.772   6.269
13999TIP3    H241941   7.627   2.902   6.231
14000TIP3   OH241942   6.450   7.680   4.321
14000TIP3    H141943   6.461   7.586   4.337
14000TIP3    H241944   6.361   7.688   4.287
14001TIP3   OH241945   6.722   3.520   2.884
14001TIP3    H141946   6.737   3.453   2.951
14001TIP3    H241947   6.677   3.590   2.931
14002TIP3   OH241948   8.330   5.946   2.820
14002TIP3    H141949   8.338   5.889   2.744
14002TIP3    H241950   8.243   5.927   2.855
14003TIP3   OH241951   5.862   3.326   3.095
14003TIP3    H141952   5.810   3.278   3.159
14003TIP3    H241953   5.884   3.260   3.029
14004TIP3   OH241954   2.243   0.982   4.050
14004TIP3    H141955   2.276   1.024   3.970
14004TIP3    H241956   2.321   0.945   4.091
14005TIP3   OH241957   4.392   5.789   2.564
14005TIP3    H141958   4.421   5.744   2.485
14005TIP3    H241959   4.330   5.728   2.605
14006TIP3   OH241960   4.381   1.299   0.347
14006TIP3    H141961   4.332   1.271   0.424
14006TIP3    H241962   4.469   1.319   0.380
14007TIP3   OH241963   0.062   7.651   0.500
14007TIP3    H141964   0.130   7.707   0.538
14007TIP3    H241965   0.018   7.612   0.575
14008TIP3   OH241966   0.831   6.874   5.499
14008TIP3    H141967   0.887   6.951   5.487
14008TIP3    H241968   0.742   6.909   5.507
14009TIP3   OH241969   3.024   2.462   5.724
14009TIP3    H141970   2.972   2.383   5.707
14009TIP3    H241971   3.025   2.508   5.640
14010TIP3   OH241972   1.650   7.171   5.508
14010TIP3    H141973   1.739   7.149   5.536
14010TIP3    H241974   1.641   7.264   5.529
14011TIP3   OH241975   7.929   6.901   4.619
14011TIP3    H141976   7.969   6.987   4.604
14011TIP3    H241977   7.938   6.856   4.535
14012TIP3   OH241978   6.445   3.459   1.293
14012TIP3    H141979   6.531   3.444   1.253
14012TIP3    H241980   6.437   3.389   1.358
14013TIP3   OH241981   4.853   1.862   1.964
14013TIP3    H141982   4.873   1.851   1.871
14013TIP3    H241983   4.873   1.954   1.982
14014TIP3   OH241984   2.941   0.614   6.044
14014TIP3    H141985   2.974   0.525   6.027
14014TIP3    H241986   2.868   0.625   5.983
14015TIP3   OH241987   7.549   2.268   6.465
14015TIP3    H141988   7.480   2.219   6.419
14015TIP3    H241989   7.609   2.200   6.497
14016TIP3   OH241990   5.544   6.978   3.539
14016TIP3    H141991   5.611   6.968   3.607
14016TIP3    H241992   5.584   6.939   3.461
14017TIP3   OH241993   7.993   0.076   0.926
14017TIP3    H141994   8.014  -0.004   0.974
14017TIP3    H241995   7.978   0.142   0.994
14018TIP3   OH241996   8.024   4.867   6.253
14018TIP3    H141997   8.061   4.900   6.172
14018TIP3    H241998   8.100   4.850   6.309
14019TIP3   OH241999   6.776   2.162   2.173
14019TIP3    H142000   6.737   2.075   2.178
14019TIP3    H242001   6.848   2.153   2.110
14020TIP3   OH242002   5.145   1.805   6.198
14020TIP3    H142003   5.176   1.768   6.116
14020TIP3    H242004   5.073   1.863   6.173
14021TIP3   OH242005   6.418   1.869   4.514
14021TIP3    H142006   6.413   1.862   4.610
14021TIP3    H242007   6.417   1.778   4.484
14022TIP3   OH242008   3.796   0.248   5.584
14022TIP3    H142009   3.820   0.324   5.532
14022TIP3    H242010   3.728   0.203   5.533
14023TIP3   OH242011   7.708   7.134   5.929
14023TIP3    H142012   7.690   7.213   5.879
14023TIP3    H242013   7.625   7.086   5.929
14024TIP3   OH242014   6.895   5.140   6.345
14024TIP3    H142015   6.855   5.078   6.406
14024TIP3    H242016   6.985   5.149   6.376
14025TIP3   OH242017   5.059   6.939   2.523
14025TIP3    H142018   5.107   6.856   2.532
14025TIP3    H242019   5.032   6.940   2.431
14026TIP3   OH242020   6.471   2.369   3.035
14026TIP3    H142021   6.560   2.387   3.003
14026TIP3    H242022   6.456   2.277   3.011
14027TIP3   OH242023   0.469   3.200   5.801
14027TIP3    H142024   0.555   3.159   5.789
14027TIP3    H242025   0.451   3.189   5.895
14028TIP3   OH242026   3.661   5.708   2.726
14028TIP3    H142027   3.633   5.800   2.729
14028TIP3    H242028   3.757   5.712   2.730
14029TIP3   OH242029   6.873   0.872   0.179
14029TIP3    H142030   6.926   0.798   0.210
14029TIP3    H242031   6.841   0.844   0.093
14030TIP3   OH242032   6.596   6.435   6.622
14030TIP3    H142033   6.680   6.392   6.640
14030TIP3    H242034   6.530   6.368   6.642
14031TIP3   OH242035   8.106   1.592   0.258
14031TIP3    H142036   8.126   1.520   0.318
14031TIP3    H242037   8.172   1.584   0.188
14032TIP3   OH242038   5.331   0.645   5.820
14032TIP3    H142039   5.425   0.630   5.810
14032TIP3    H242040   5.298   0.653   5.730
14033TIP3   OH242041   4.293   3.207   4.353
14033TIP3    H142042   4.235   3.134   4.335
14033TIP3    H242043   4.242   3.266   4.409
14034TIP3   OH242044   0.041   7.178   1.230
14034TIP3    H142045   0.054   7.271   1.246
14034TIP3    H242046  -0.052   7.163   1.245
14035TIP3   OH242047   4.168   4.705   1.912
14035TIP3    H142048   4.175   4.697   1.817
14035TIP3    H242049   4.096   4.647   1.936
14036TIP3   OH242050   1.599   7.640   6.092
14036TIP3    H142051   1.601   7.571   6.026
14036TIP3    H242052   1.552   7.712   6.049
14037TIP3   OH242053   5.368   5.482   6.406
14037TIP3    H142054   5.368   5.525   6.492
14037TIP3    H242055   5.293   5.520   6.360
14038TIP3   OH242056   6.285   0.245   0.046
14038TIP3    H142057   6.317   0.258  -0.043
14038TIP3    H242058   6.273   0.334   0.080
14039TIP3   OH242059   5.982   5.814   2.325
14039TIP3    H142060   6.015   5.890   2.372
14039TIP3    H242061   6.043   5.743   2.346
14040TIP3   OH242062   5.376   7.479   0.499
14040TIP3    H142063   5.372   7.401   0.554
14040TIP3    H242064   5.285   7.493   0.470
14041TIP3   OH242065   2.898   1.585   3.645
14041TIP3    H142066   2.871   1.544   3.563
14041TIP3    H242067   2.866   1.675   3.639
14042TIP3   OH242068   3.236   4.282   0.328
14042TIP3    H142069   3.328   4.258   0.324
14042TIP3    H242070   3.214   4.309   0.238
14043TIP3   OH242071   3.206   6.065   5.663
14043TIP3    H142072   3.142   6.062   5.593
14043TIP3    H242073   3.163   6.020   5.737
14044TIP3   OH242074   7.256   5.930   5.675
14044TIP3    H142075   7.277   6.021   5.653
14044TIP3    H242076   7.161   5.924   5.663
14045TIP3   OH242077   7.376   2.055   4.781
14045TIP3    H142078   7.447   2.107   4.818
14045TIP3    H242079   7.297   2.104   4.800
14046TIP3   OH242080   0.230   2.759   3.562
14046TIP3    H142081   0.154   2.714   3.525
14046TIP3    H242082   0.217   2.754   3.656
14047TIP3   OH242083   6.850   4.064   3.612
14047TIP3    H142084   6.887   4.035   3.696
14047TIP3    H242085   6.767   4.017   3.605
14048TIP3   OH242086   3.990   4.378   6.360
14048TIP3    H142087   4.033   4.319   6.298
14048TIP3    H242088   3.970   4.456   6.309
14049TIP3   OH242089   5.285   7.237   0.088
14049TIP3    H142090   5.286   7.172   0.158
14049TIP3    H242091   5.356   7.211   0.030
14050TIP3   OH242092   3.602   6.979   5.687
14050TIP3    H142093   3.536   6.959   5.620
14050TIP3    H242094   3.554   6.977   5.769
14051TIP3   OH242095   5.006   2.580   4.631
14051TIP3    H142096   5.030   2.668   4.604
14051TIP3    H242097   5.086   2.543   4.669
14052TIP3   OH242098   6.283   6.564   2.251
14052TIP3    H142099   6.224   6.529   2.185
14052TIP3    H242100   6.313   6.648   2.216
14053TIP3   OH242101   6.443   0.926   3.755
14053TIP3    H142102   6.537   0.930   3.773
14053TIP3    H242103   6.419   0.835   3.774
14054TIP3   OH242104   6.962   3.528   4.840
14054TIP3    H142105   6.999   3.464   4.901
14054TIP3    H242106   7.034   3.590   4.824
14055TIP3   OH242107   7.162   5.721   0.919
14055TIP3    H142108   7.187   5.781   0.848
14055TIP3    H242109   7.098   5.662   0.878
14056TIP3   OH242110   4.636   7.709   0.896
14056TIP3    H142111   4.550   7.703   0.940
14056TIP3    H242112   4.623   7.663   0.813
14057TIP3   OH242113   6.183   3.967   5.867
14057TIP3    H142114   6.129   3.894   5.835
14057TIP3    H242115   6.262   3.964   5.812
14058TIP3   OH242116   3.379   3.822   0.869
14058TIP3    H142117   3.285   3.840   0.872
14058TIP3    H242118   3.417   3.900   0.829
14059TIP3   OH242119   8.122   0.878   1.913
14059TIP3    H142120   8.142   0.968   1.936
14059TIP3    H242121   8.127   0.831   1.997
14060TIP3   OH242122   6.033   0.284   4.154
14060TIP3    H142123   6.058   0.202   4.112
14060TIP3    H242124   5.970   0.323   4.094
14061TIP3   OH242125   5.492   5.437   2.495
14061TIP3    H142126   5.436   5.479   2.561
14061TIP3    H242127   5.555   5.505   2.470
14062TIP3   OH242128   0.867   7.646   0.342
14062TIP3    H142129   0.812   7.722   0.325
14062TIP3    H242130   0.823   7.599   0.413
14063TIP3   OH242131   7.575   0.043   4.012
14063TIP3    H142132   7.610   0.041   3.923
14063TIP3    H242133   7.507   0.110   4.010
14064TIP3   OH242134   0.312   0.513   2.925
14064TIP3    H142135   0.362   0.484   2.849
14064TIP3    H242136   0.339   0.453   2.996
14065TIP3   OH242137   3.174   4.004   3.713
14065TIP3    H142138   3.084   4.033   3.699
14065TIP3    H242139   3.170   3.950   3.792
14066TIP3   OH242140   5.072   3.536   6.038
14066TIP3    H142141   5.072   3.473   6.111
14066TIP3    H242142   5.031   3.488   5.965
14067TIP3   OH242143   0.369   7.786   1.382
14067TIP3    H142144   0.372   7.811   1.474
14067TIP3    H242145   0.448   7.734   1.368
14068TIP3   OH242146   4.598   6.657   1.430
14068TIP3    H142147   4.677   6.671   1.379
14068TIP3    H242148   4.539   6.729   1.404
14069TIP3   OH242149   3.233   4.665   0.970
14069TIP3    H142150   3.285   4.620   1.036
14069TIP3    H242151   3.258   4.757   0.978
14070TIP3   OH242152   3.556   0.458   5.615
14070TIP3    H142153   3.535   0.489   5.527
14070TIP3    H242154   3.635   0.508   5.639
14071TIP3   OH242155   3.227   2.684   3.751
14071TIP3    H142156   3.290   2.753   3.729
14071TIP3    H242157   3.202   2.646   3.667
14072TIP3   OH242158   3.622   4.316   2.115
14072TIP3    H142159   3.547   4.319   2.174
14072TIP3    H242160   3.603   4.243   2.056
14073TIP3   OH242161   3.964   5.520   2.886
14073TIP3    H142162   3.953   5.610   2.855
14073TIP3    H242163   4.017   5.477   2.818
14074TIP3   OH242164   6.888   7.542   5.630
14074TIP3    H142165   6.930   7.494   5.559
14074TIP3    H242166   6.798   7.509   5.630
14075TIP3   OH242167   2.321   5.091   3.503
14075TIP3    H142168   2.239   5.137   3.519
14075TIP3    H242169   2.339   5.106   3.410
14076TIP3   OH242170   1.739   7.550   3.197
14076TIP3    H142171   1.678   7.482   3.225
14076TIP3    H242172   1.720   7.564   3.105
14077TIP3   OH242173   3.545   7.167   1.441
14077TIP3    H142174   3.624   7.219   1.454
14077TIP3    H242175   3.486   7.194   1.512
14078TIP3   OH242176   0.490   7.279   2.171
14078TIP3    H142177   0.487   7.296   2.077
14078TIP3    H242178   0.403   7.303   2.203
14079TIP3   OH242179   0.633   5.631   2.548
14079TIP3    H142180   0.563   5.573   2.520
14079TIP3    H242181   0.660   5.677   2.468
14080TIP3   OH242182   6.288   0.550   2.668
14080TIP3    H142183   6.278   0.504   2.585
14080TIP3    H242184   6.294   0.642   2.644
14081TIP3   OH242185   5.083   5.565   3.131
14081TIP3    H142186   5.076   5.470   3.139
14081TIP3    H242187   5.119   5.594   3.215
14082TIP3   OH242188   2.943   5.652   4.561
14082TIP3    H142189   3.037   5.645   4.575
14082TIP3    H242190   2.926   5.597   4.485
14083TIP3   OH242191   4.608   1.979   0.627
14083TIP3    H142192   4.622   1.893   0.664
14083TIP3    H242193   4.684   2.031   0.655
14084TIP3   OH242194   5.444   2.686   0.593
14084TIP3    H142195   5.459   2.749   0.663
14084TIP3    H242196   5.364   2.715   0.550
14085TIP3   OH242197   8.007   3.742   6.764
14085TIP3    H142198   7.955   3.679   6.714
14085TIP3    H242199   7.942   3.792   6.814
14086TIP3   OH242200   6.589   5.619   4.177
14086TIP3    H142201   6.564   5.554   4.242
14086TIP3    H242202   6.625   5.692   4.229
14087TIP3   OH242203   2.797   4.516   6.424
14087TIP3    H142204   2.743   4.559   6.358
14087TIP3    H242205   2.744   4.442   6.454
14088TIP3   OH242206   4.619   2.147   3.520
14088TIP3    H142207   4.614   2.242   3.530
14088TIP3    H242208   4.534   2.122   3.485
14089TIP3   OH242209   7.722   5.339   5.976
14089TIP3    H142210   7.706   5.306   6.064
14089TIP3    H242211   7.670   5.282   5.919
14090TIP3   OH242212   7.241   4.982   3.235
14090TIP3    H142213   7.218   5.002   3.326
14090TIP3    H242214   7.287   5.060   3.204
14091TIP3   OH242215   1.379   6.436   4.395
14091TIP3    H142216   1.315   6.418   4.326
14091TIP3    H242217   1.399   6.529   4.385
14092TIP3   OH242218   6.457   6.781   1.374
14092TIP3    H142219   6.533   6.809   1.323
14092TIP3    H242220   6.473   6.689   1.393
14093TIP3   OH242221   5.951   3.774   1.136
14093TIP3    H142222   6.024   3.758   1.076
14093TIP3    H242223   5.974   3.856   1.181
14094TIP3   OH242224   2.972   0.855   5.834
14094TIP3    H142225   3.005   0.894   5.753
14094TIP3    H242226   3.008   0.767   5.836
14095TIP3   OH242227   6.978   7.438   5.890
14095TIP3    H142228   6.978   7.496   5.967
14095TIP3    H242229   6.918   7.481   5.829
14096TIP3   OH242230   2.722   7.748   3.317
14096TIP3    H142231   2.812   7.716   3.314
14096TIP3    H242232   2.700   7.748   3.410
14097TIP3   OH242233   2.152   3.108   2.597
14097TIP3    H142234   2.150   3.114   2.692
14097TIP3    H242235   2.114   3.022   2.578
14098TIP3   OH242236   7.413   2.371   2.878
14098TIP3    H142237   7.336   2.355   2.932
14098TIP3    H242238   7.402   2.460   2.846
14099TIP3   OH242239   1.536   2.564   1.475
14099TIP3    H142240   1.527   2.507   1.551
14099TIP3    H242241   1.481   2.523   1.408
14100TIP3   OH242242   3.381   0.694   5.798
14100TIP3    H142243   3.427   0.670   5.717
14100TIP3    H242244   3.292   0.663   5.785
14101TIP3   OH242245   3.303   5.670   1.144
14101TIP3    H142246   3.351   5.587   1.135
14101TIP3    H242247   3.211   5.645   1.138
14102TIP3   OH242248   1.949   1.349   2.352
14102TIP3    H142249   1.882   1.299   2.399
14102TIP3    H242250   2.027   1.294   2.355
14103TIP3   OH242251   4.093   2.386   0.845
14103TIP3    H142252   4.075   2.462   0.789
14103TIP3    H242253   4.011   2.336   0.843
14104TIP3   OH242254   7.511   2.712   3.604
14104TIP3    H142255   7.446   2.715   3.535
14104TIP3    H242256   7.505   2.623   3.639
14105TIP3   OH242257   4.233   5.915   3.228
14105TIP3    H142258   4.273   5.829   3.221
14105TIP3    H242259   4.297   5.968   3.276
14106TIP3   OH242260   7.339   6.690   3.827
14106TIP3    H142261   7.413   6.631   3.841
14106TIP3    H242262   7.307   6.667   3.739
14107TIP3   OH242263   6.308   3.741   6.551
14107TIP3    H142264   6.377   3.782   6.498
14107TIP3    H242265   6.275   3.813   6.605
14108TIP3   OH242266   3.620   1.859   0.243
14108TIP3    H142267   3.701   1.808   0.252
14108TIP3    H242268   3.557   1.798   0.205
14109TIP3   OH242269   8.046   6.618   0.236
14109TIP3    H142270   8.085   6.700   0.267
14109TIP3    H242271   8.036   6.630   0.141
14110TIP3   OH242272   3.156   4.200   1.367
14110TIP3    H142273   3.225   4.149   1.409
14110TIP3    H242274   3.075   4.171   1.410
14111TIP3   OH242275   5.276   2.544   4.697
14111TIP3    H142276   5.350   2.596   4.666
14111TIP3    H242277   5.284   2.461   4.650
14112TIP3   OH242278   6.716   5.986   0.497
14112TIP3    H142279   6.623   6.008   0.500
14112TIP3    H242280   6.719   5.898   0.458
14113TIP3   OH242281   6.430   1.846   5.925
14113TIP3    H142282   6.408   1.802   5.843
14113TIP3    H242283   6.526   1.849   5.925
14114TIP3   OH242284   1.258   6.532   1.510
14114TIP3    H142285   1.226   6.621   1.498
14114TIP3    H242286   1.200   6.478   1.456
14115TIP3   OH242287   0.366   7.409   1.493
14115TIP3    H142288   0.400   7.320   1.490
14115TIP3    H242289   0.275   7.399   1.520
14116TIP3   OH242290   2.592   5.098   2.766
14116TIP3    H142291   2.575   5.007   2.742
14116TIP3    H242292   2.667   5.123   2.712
14117TIP3   OH242293   7.854   6.249   1.994
14117TIP3    H142294   7.886   6.333   2.027
14117TIP3    H242295   7.933   6.196   1.981
14118TIP3   OH242296   1.246   4.512   3.613
14118TIP3    H142297   1.326   4.530   3.564
14118TIP3    H242298   1.205   4.598   3.625
14119TIP3   OH242299   2.588   3.525   2.479
14119TIP3    H142300   2.660   3.465   2.459
14119TIP3    H242301   2.546   3.488   2.556
14120TIP3   OH242302   7.093   1.951   1.771
14120TIP3    H142303   7.089   1.951   1.675
14120TIP3    H242304   7.187   1.943   1.790
14121TIP3   OH242305   3.311   6.710   3.799
14121TIP3    H142306   3.297   6.719   3.704
14121TIP3    H242307   3.403   6.684   3.806
14122TIP3   OH242308   5.559   1.106   2.687
14122TIP3    H142309   5.622   1.041   2.655
14122TIP3    H242310   5.476   1.058   2.694
14123TIP3   OH242311   4.414   4.182   1.069
14123TIP3    H142312   4.504   4.212   1.063
14123TIP3    H242313   4.362   4.251   1.028
14124TIP3   OH242314   6.307   1.727   6.453
14124TIP3    H142315   6.380   1.666   6.454
14124TIP3    H242316   6.244   1.689   6.392
14125TIP3   OH242317   8.303   0.234   6.447
14125TIP3    H142318   8.298   0.184   6.366
14125TIP3    H242319   8.262   0.178   6.513
14126TIP3   OH242320   0.579   6.963   5.569
14126TIP3    H142321   0.530   6.889   5.604
14126TIP3    H242322   0.584   7.025   5.641
14127TIP3   OH242323   0.250   3.390   3.563
14127TIP3    H142324   0.258   3.372   3.469
14127TIP3    H242325   0.266   3.306   3.606
14128TIP3   OH242326   2.224   5.833   6.069
14128TIP3    H142327   2.236   5.836   6.164
14128TIP3    H242328   2.207   5.741   6.049
14129TIP3   OH242329   2.273   3.788   5.287
14129TIP3    H142330   2.204   3.774   5.353
14129TIP3    H242331   2.255   3.724   5.219
14130TIP3   OH242332   1.789   5.140   6.021
14130TIP3    H142333   1.880   5.115   6.036
14130TIP3    H242334   1.755   5.159   6.108
14131TIP3   OH242335   2.668   0.801   5.743
14131TIP3    H142336   2.709   0.845   5.669
14131TIP3    H242337   2.574   0.805   5.724
14132TIP3   OH242338   5.978   0.738   4.642
14132TIP3    H142339   5.909   0.766   4.582
14132TIP3    H242340   5.932   0.688   4.710
14133TIP3   OH242341   3.518   1.052   0.933
14133TIP3    H142342   3.542   1.121   0.994
14133TIP3    H242343   3.508   1.096   0.849
14134TIP3   OH242344   0.727   7.007   1.918
14134TIP3    H142345   0.636   7.010   1.948
14134TIP3    H242346   0.752   7.098   1.908
14135TIP3   OH242347   7.723   5.890   3.044
14135TIP3    H142348   7.760   5.811   3.084
14135TIP3    H242349   7.746   5.960   3.105
14136TIP3   OH242350   1.166   5.018   4.792
14136TIP3    H142351   1.074   4.998   4.776
14136TIP3    H242352   1.165   5.103   4.835
14137TIP3   OH242353   5.010   2.201   6.431
14137TIP3    H142354   5.011   2.110   6.462
14137TIP3    H242355   5.103   2.222   6.417
14138TIP3   OH242356   8.132   4.168   5.920
14138TIP3    H142357   8.200   4.216   5.968
14138TIP3    H242358   8.137   4.079   5.953
14139TIP3   OH242359   1.113   3.216   5.341
14139TIP3    H142360   1.020   3.218   5.365
14139TIP3    H242361   1.137   3.124   5.344
14140TIP3   OH242362   7.840   3.358   6.750
14140TIP3    H142363   7.762   3.413   6.754
14140TIP3    H242364   7.817   3.281   6.802
14141TIP3   OH242365   4.214   2.801   6.289
14141TIP3    H142366   4.264   2.873   6.328
14141TIP3    H242367   4.205   2.825   6.197
14142TIP3   OH242368   2.767   0.382   2.427
14142TIP3    H142369   2.811   0.448   2.480
14142TIP3    H242370   2.722   0.432   2.359
14143TIP3   OH242371   3.076   3.970   3.255
14143TIP3    H142372   3.162   3.954   3.216
14143TIP3    H242373   3.054   3.889   3.301
14144TIP3   OH242374   0.650   2.578   6.807
14144TIP3    H142375   0.649   2.499   6.753
14144TIP3    H242376   0.610   2.646   6.752
14145TIP3   OH242377   2.158   3.084   4.150
14145TIP3    H142378   2.086   3.079   4.212
14145TIP3    H242379   2.144   3.167   4.104
14146TIP3   OH242380   6.735   5.559   0.726
14146TIP3    H142381   6.694   5.643   0.708
14146TIP3    H242382   6.692   5.527   0.805
14147TIP3   OH242383   4.638   2.316   6.059
14147TIP3    H142384   4.728   2.299   6.085
14147TIP3    H242385   4.597   2.229   6.060
14148TIP3   OH242386   5.335   4.860   3.247
14148TIP3    H142387   5.302   4.926   3.187
14148TIP3    H242388   5.390   4.908   3.309
14149TIP3   OH242389   7.038   5.571   0.011
14149TIP3    H142390   7.006   5.579   0.101
14149TIP3    H242391   7.048   5.477  -0.003
14150TIP3   OH242392   0.429   4.132   2.378
14150TIP3    H142393   0.446   4.169   2.464
14150TIP3    H242394   0.371   4.057   2.394
14151TIP3   OH242395   4.338   2.209   0.261
14151TIP3    H142396   4.314   2.117   0.268
14151TIP3    H242397   4.433   2.210   0.268
14152TIP3   OH242398   2.516   1.205   0.292
14152TIP3    H142399   2.465   1.239   0.365
14152TIP3    H242400   2.583   1.149   0.332
14153TIP3   OH242401   3.888   1.281   1.046
14153TIP3    H142402   3.871   1.295   0.953
14153TIP3    H242403   3.836   1.204   1.068
14154TIP3   OH242404   2.642   6.650   6.604
14154TIP3    H142405   2.729   6.687   6.592
14154TIP3    H242406   2.652   6.586   6.674
14155TIP3   OH242407   1.864   2.512   2.721
14155TIP3    H142408   1.895   2.579   2.781
14155TIP3    H242409   1.938   2.452   2.711
14156TIP3   OH242410   3.286   0.913   6.435
14156TIP3    H142411   3.299   0.863   6.354
14156TIP3    H242412   3.220   0.978   6.413
14157TIP3   OH242413   2.761   0.212   2.856
14157TIP3    H142414   2.766   0.140   2.918
14157TIP3    H242415   2.806   0.285   2.900
14158TIP3   OH242416   7.364   5.890   3.353
14158TIP3    H142417   7.451   5.902   3.392
14158TIP3    H242418   7.329   5.979   3.346
14159TIP3   OH242419   5.447   7.555   6.400
14159TIP3    H142420   5.477   7.507   6.477
14159TIP3    H242421   5.517   7.542   6.335
14160TIP3   OH242422   1.229   7.460   6.767
14160TIP3    H142423   1.269   7.414   6.694
14160TIP3    H242424   1.140   7.480   6.737
14161TIP3   OH242425   6.417   5.294   6.123
14161TIP3    H142426   6.405   5.203   6.148
14161TIP3    H242427   6.337   5.338   6.151
14162TIP3   OH242428   5.264   2.974   5.069
14162TIP3    H142429   5.295   3.045   5.125
14162TIP3    H242430   5.338   2.913   5.064
14163TIP3   OH242431   6.239   6.544   4.042
14163TIP3    H142432   6.239   6.486   4.119
14163TIP3    H242433   6.311   6.511   3.988
14164TIP3   OH242434   4.428   5.506   0.099
14164TIP3    H142435   4.450   5.427   0.049
14164TIP3    H242436   4.492   5.508   0.170
14165TIP3   OH242437   7.903   4.278   2.175
14165TIP3    H142438   7.986   4.299   2.218
14165TIP3    H242439   7.928   4.231   2.095
14166TIP3   OH242440   0.594   4.874   4.049
14166TIP3    H142441   0.636   4.811   3.991
14166TIP3    H242442   0.580   4.827   4.131
14167TIP3   OH242443   3.184   5.039   2.293
14167TIP3    H142444   3.191   5.027   2.198
14167TIP3    H242445   3.248   4.979   2.330
14168TIP3   OH242446   0.838   7.480   5.654
14168TIP3    H142447   0.763   7.442   5.701
14168TIP3    H242448   0.800   7.517   5.575
14169TIP3   OH242449   2.217   2.397   6.097
14169TIP3    H142450   2.177   2.468   6.046
14169TIP3    H242451   2.277   2.441   6.157
14170TIP3   OH242452   6.930   1.064   6.524
14170TIP3    H142453   6.843   1.099   6.505
14170TIP3    H242454   6.914   0.988   6.581
14171TIP3   OH242455   1.762   4.164   3.455
14171TIP3    H142456   1.741   4.155   3.362
14171TIP3    H242457   1.715   4.242   3.482
14172TIP3   OH242458   7.601   3.194   2.361
14172TIP3    H142459   7.695   3.191   2.348
14172TIP3    H242460   7.567   3.229   2.278
14173TIP3   OH242461   5.013   3.693   3.996
14173TIP3    H142462   4.988   3.754   3.927
14173TIP3    H242463   4.995   3.606   3.960
14174TIP3   OH242464   1.963   7.213   1.341
14174TIP3    H142465   1.939   7.131   1.385
14174TIP3    H242466   1.888   7.233   1.285
14175TIP3   OH242467   3.163   4.754   4.346
14175TIP3    H142468   3.115   4.675   4.324
14175TIP3    H242469   3.132   4.820   4.284
14176TIP3   OH242470   5.935   5.859   0.757
14176TIP3    H142471   5.931   5.955   0.763
14176TIP3    H242472   5.865   5.837   0.695
14177TIP3   OH242473   3.567   0.022   3.392
14177TIP3    H142474   3.537   0.061   3.474
14177TIP3    H242475   3.555   0.091   3.327
14178TIP3   OH242476   2.365   4.103   1.627
14178TIP3    H142477   2.449   4.135   1.593
14178TIP3    H242478   2.311   4.091   1.549
14179TIP3   OH242479   6.089   6.474   2.037
14179TIP3    H142480   6.049   6.557   2.014
14179TIP3    H242481   6.027   6.408   2.006
14180TIP3   OH242482   4.546   0.709   2.847
14180TIP3    H142483   4.497   0.758   2.913
14180TIP3    H242484   4.481   0.683   2.782
14181TIP3   OH242485   6.123   1.533   1.889
14181TIP3    H142486   6.214   1.551   1.913
14181TIP3    H242487   6.087   1.487   1.964
14182TIP3   OH242488   3.381   2.893   2.808
14182TIP3    H142489   3.295   2.870   2.775
14182TIP3    H242490   3.415   2.813   2.846
14183TIP3   OH242491   5.299   2.347   0.954
14183TIP3    H142492   5.253   2.295   1.020
14183TIP3    H242493   5.234   2.361   0.885
14184TIP3   OH242494   3.632   6.601   0.847
14184TIP3    H142495   3.626   6.696   0.839
14184TIP3    H242496   3.669   6.572   0.764
14185TIP3   OH242497   2.957   3.172   0.014
14185TIP3    H142498   2.987   3.082   0.009
14185TIP3    H242499   2.883   3.169   0.076
14186TIP3   OH242500   1.025   0.783   2.691
14186TIP3    H142501   1.108   0.771   2.646
14186TIP3    H242502   0.961   0.792   2.621
14187TIP3   OH242503   2.020   1.057   1.258
14187TIP3    H142504   2.039   1.150   1.265
14187TIP3    H242505   2.105   1.016   1.244
14188TIP3   OH242506   5.953   5.496   2.189
14188TIP3    H142507   5.868   5.531   2.215
14188TIP3    H242508   5.948   5.490   2.093
14189TIP3   OH242509   6.596   3.040   2.271
14189TIP3    H142510   6.643   3.012   2.350
14189TIP3    H242511   6.634   2.987   2.201
14190TIP3   OH242512   5.460   2.477   6.491
14190TIP3    H142513   5.517   2.550   6.515
14190TIP3    H242514   5.451   2.427   6.572
14191TIP3   OH242515   5.642   6.900   3.299
14191TIP3    H142516   5.677   6.842   3.232
14191TIP3    H242517   5.697   6.978   3.294
14192TIP3   OH242518   0.663   2.782   5.439
14192TIP3    H142519   0.747   2.745   5.412
14192TIP3    H242520   0.682   2.826   5.522
14193TIP3   OH242521   8.077   3.512   0.039
14193TIP3    H142522   8.047   3.428   0.003
14193TIP3    H242523   8.034   3.578  -0.016
14194TIP3   OH242524   3.163   0.780   1.321
14194TIP3    H142525   3.137   0.851   1.262
14194TIP3    H242526   3.158   0.701   1.267
14195TIP3   OH242527   6.740   3.117   6.140
14195TIP3    H142528   6.792   3.086   6.067
14195TIP3    H242529   6.674   3.049   6.153
14196TIP3   OH242530   7.998   4.550   2.954
14196TIP3    H142531   8.070   4.525   2.895
14196TIP3    H242532   8.008   4.492   3.029
14197TIP3   OH242533   3.611   2.086   6.332
14197TIP3    H142534   3.705   2.094   6.318
14197TIP3    H242535   3.571   2.130   6.258
14198TIP3   OH242536   5.516   1.900   4.465
14198TIP3    H142537   5.489   1.837   4.398
14198TIP3    H242538   5.610   1.912   4.450
14199TIP3   OH242539   1.897   5.819   3.783
14199TIP3    H142540   1.945   5.900   3.764
14199TIP3    H242541   1.963   5.760   3.817
14200TIP3   OH242542   2.746   1.557   0.153
14200TIP3    H142543   2.797   1.483   0.188
14200TIP3    H242544   2.655   1.532   0.169
14201TIP3   OH242545   1.108   1.604   4.171
14201TIP3    H142546   1.019   1.634   4.192
14201TIP3    H242547   1.100   1.567   4.083
14202TIP3   OH242548   1.593   2.243   4.836
14202TIP3    H142549   1.606   2.204   4.923
14202TIP3    H242550   1.681   2.254   4.801
14203TIP3   OH242551   6.692   3.635   6.458
14203TIP3    H142552   6.664   3.553   6.417
14203TIP3    H242553   6.785   3.622   6.476
14204TIP3   OH242554   2.478   6.781   1.000
14204TIP3    H142555   2.458   6.696   0.961
14204TIP3    H242556   2.573   6.779   1.016
14205TIP3   OH242557   5.157   4.693   1.112
14205TIP3    H142558   5.243   4.731   1.091
14205TIP3    H242559   5.102   4.768   1.133
14206TIP3   OH242560   7.825   2.371   2.668
14206TIP3    H142561   7.790   2.333   2.749
14206TIP3    H242562   7.777   2.327   2.598
14207TIP3   OH242563   0.397   3.315   4.830
14207TIP3    H142564   0.390   3.307   4.735
14207TIP3    H242565   0.489   3.336   4.845
14208TIP3   OH242566   4.709   0.237   4.914
14208TIP3    H142567   4.763   0.299   4.865
14208TIP3    H242568   4.750   0.152   4.898
14209TIP3   OH242569   2.318   0.552   4.707
14209TIP3    H142570   2.242   0.610   4.703
14209TIP3    H242571   2.393   0.611   4.720
14210TIP3   OH242572   1.421   5.338   1.376
14210TIP3    H142573   1.440   5.430   1.391
14210TIP3    H242574   1.419   5.328   1.281
14211TIP3   OH242575   0.731   5.853   1.286
14211TIP3    H142576   0.646   5.875   1.248
14211TIP3    H242577   0.711   5.829   1.376
14212TIP3   OH242578   1.521   4.734   1.405
14212TIP3    H142579   1.479   4.685   1.476
14212TIP3    H242580   1.491   4.824   1.417
14213TIP3   OH242581   6.899   2.386   0.627
14213TIP3    H142582   6.915   2.470   0.584
14213TIP3    H242583   6.807   2.368   0.611
14214TIP3   OH242584   7.526   6.507   3.846
14214TIP3    H142585   7.507   6.451   3.921
14214TIP3    H242586   7.600   6.561   3.875
14215TIP3   OH242587   3.938   1.314   5.652
14215TIP3    H142588   4.007   1.374   5.624
14215TIP3    H242589   3.871   1.320   5.583
14216TIP3   OH242590   8.222   3.846   5.056
14216TIP3    H142591   8.159   3.850   5.127
14216TIP3    H242592   8.271   3.928   5.062
14217TIP3   OH242593   4.645   4.213   1.854
14217TIP3    H142594   4.656   4.186   1.763
14217TIP3    H242595   4.561   4.258   1.856
14218TIP3   OH242596   0.985   6.011   3.257
14218TIP3    H142597   1.029   5.932   3.227
14218TIP3    H242598   1.051   6.080   3.252
14219TIP3   OH242599   3.568   1.843   6.750
14219TIP3    H142600   3.539   1.865   6.838
14219TIP3    H242601   3.557   1.924   6.700
14220TIP3   OH242602   2.730   3.494   2.876
14220TIP3    H142603   2.690   3.581   2.867
14220TIP3    H242604   2.677   3.436   2.822
14221TIP3   OH242605   0.322   4.398   0.650
14221TIP3    H142606   0.284   4.464   0.707
14221TIP3    H242607   0.364   4.335   0.710
14222TIP3   OH242608   4.811   2.168   3.758
14222TIP3    H142609   4.767   2.234   3.811
14222TIP3    H242610   4.750   2.150   3.686
14223TIP3   OH242611   1.166   5.723   5.954
14223TIP3    H142612   1.231   5.674   6.004
14223TIP3    H242613   1.166   5.810   5.995
14224TIP3   OH242614   3.526   0.769   3.018
14224TIP3    H142615   3.540   0.689   3.069
14224TIP3    H242616   3.432   0.775   3.007
14225TIP3   OH242617   4.085   2.559   5.530
14225TIP3    H142618   4.020   2.524   5.469
14225TIP3    H242619   4.131   2.482   5.564
14226TIP3   OH242620   3.536   6.083   1.060
14226TIP3    H142621   3.557   6.166   1.016
14226TIP3    H242622   3.445   6.094   1.088
14227TIP3   OH242623   6.658   6.123   0.062
14227TIP3    H142624   6.744   6.112   0.102
14227TIP3    H242625   6.597   6.084   0.126
14228TIP3   OH242626   4.407   7.520   6.738
14228TIP3    H142627   4.340   7.454   6.722
14228TIP3    H242628   4.377   7.597   6.689
14229TIP3   OH242629   7.988   6.670   3.122
14229TIP3    H142630   8.045   6.718   3.062
14229TIP3    H242631   7.997   6.715   3.205
14230TIP3   OH242632   5.334   3.083   2.256
14230TIP3    H142633   5.319   3.048   2.343
14230TIP3    H242634   5.268   3.041   2.201
14231TIP3   OH242635   1.962   5.294   2.188
14231TIP3    H142636   1.997   5.371   2.232
14231TIP3    H242637   1.914   5.247   2.256
14232TIP3   OH242638   3.497   2.628   5.000
14232TIP3    H142639   3.550   2.555   4.966
14232TIP3    H242640   3.449   2.660   4.924
14233TIP3   OH242641   4.651   4.394   6.521
14233TIP3    H142642   4.729   4.446   6.502
14233TIP3    H242643   4.681   4.303   6.517
14234TIP3   OH242644   5.535   2.503   1.295
14234TIP3    H142645   5.454   2.457   1.274
14234TIP3    H242646   5.594   2.435   1.327
14235TIP3   OH242647   4.845   3.676   5.037
14235TIP3    H142648   4.860   3.730   5.115
14235TIP3    H242649   4.758   3.701   5.007
14236TIP3   OH242650   4.771   6.730   3.749
14236TIP3    H142651   4.799   6.650   3.705
14236TIP3    H242652   4.690   6.705   3.794
14237TIP3   OH242653   0.080   2.692   4.938
14237TIP3    H142654   0.046   2.778   4.911
14237TIP3    H242655   0.175   2.701   4.929
14238TIP3   OH242656   3.221   3.100   1.757
14238TIP3    H142657   3.217   3.174   1.696
14238TIP3    H242658   3.286   3.041   1.719
14239TIP3   OH242659   6.307   0.644   6.523
14239TIP3    H142660   6.346   0.717   6.474
14239TIP3    H242661   6.214   0.648   6.503
14240TIP3   OH242662   7.969   1.941   6.391
14240TIP3    H142663   7.967   1.976   6.302
14240TIP3    H242664   8.054   1.967   6.425
14241TIP3   OH242665   7.931   2.252   2.350
14241TIP3    H142666   7.966   2.283   2.267
14241TIP3    H242667   7.853   2.305   2.365
14242TIP3   OH242668   3.585   0.471   3.920
14242TIP3    H142669   3.507   0.428   3.955
14242TIP3    H242670   3.580   0.456   3.825
14243TIP3   OH242671   1.805   7.484   5.745
14243TIP3    H142672   1.717   7.464   5.775
14243TIP3    H242673   1.856   7.406   5.767
14244TIP3   OH242674   6.836   6.832   5.100
14244TIP3    H142675   6.787   6.908   5.067
14244TIP3    H242676   6.863   6.858   5.188
14245TIP3   OH242677   4.844   5.618   2.533
14245TIP3    H142678   4.876   5.571   2.456
14245TIP3    H242679   4.836   5.550   2.600
14246TIP3   OH242680   0.151   5.700   4.738
14246TIP3    H142681   0.172   5.608   4.729
14246TIP3    H242682   0.070   5.712   4.688
14247TIP3   OH242683   2.873   4.182   2.912
14247TIP3    H142684   2.825   4.257   2.946
14247TIP3    H242685   2.842   4.108   2.964
14248TIP3   OH242686   3.224   6.181   4.222
14248TIP3    H142687   3.310   6.145   4.246
14248TIP3    H242688   3.238   6.276   4.220
14249TIP3   OH242689   3.864   7.175   0.646
14249TIP3    H142690   3.843   7.135   0.562
14249TIP3    H242691   3.884   7.101   0.703
14250TIP3   OH242692   4.706   0.084   0.339
14250TIP3    H142693   4.618   0.084   0.376
14250TIP3    H242694   4.724   0.176   0.320
14251TIP3   OH242695   4.937   5.554   5.282
14251TIP3    H142696   4.953   5.461   5.270
14251TIP3    H242697   4.921   5.587   5.193
14252TIP3   OH242698   3.615   2.412   5.256
14252TIP3    H142699   3.653   2.499   5.244
14252TIP3    H242700   3.631   2.391   5.348
14253TIP3   OH242701   1.447   2.834   6.616
14253TIP3    H142702   1.386   2.763   6.635
14253TIP3    H242703   1.410   2.910   6.659
14254TIP3   OH242704   1.480   6.815   2.328
14254TIP3    H142705   1.521   6.730   2.311
14254TIP3    H242706   1.536   6.878   2.283
14255TIP3   OH242707   5.286   3.582   5.101
14255TIP3    H142708   5.219   3.553   5.039
14255TIP3    H242709   5.369   3.562   5.058
14256TIP3   OH242710   4.883   5.290   1.815
14256TIP3    H142711   4.911   5.199   1.823
14256TIP3    H242712   4.953   5.332   1.765
14257TIP3   OH242713   5.650   0.922   2.914
14257TIP3    H142714   5.572   0.967   2.947
14257TIP3    H242715   5.681   0.977   2.842
14258TIP3   OH242716   3.998   3.724   4.599
14258TIP3    H142717   4.052   3.787   4.647
14258TIP3    H242718   4.057   3.685   4.535
14259TIP3   OH242719   4.365   3.009   2.769
14259TIP3    H142720   4.412   2.928   2.791
14259TIP3    H242721   4.302   2.982   2.703
14260TIP3   OH242722   2.008   6.283   6.009
14260TIP3    H142723   1.997   6.234   6.091
14260TIP3    H242724   2.090   6.250   5.972
14261TIP3   OH242725   3.234   2.805   0.764
14261TIP3    H142726   3.167   2.872   0.752
14261TIP3    H242727   3.198   2.747   0.832
14262TIP3   OH242728   1.922   6.338   4.759
14262TIP3    H142729   1.910   6.279   4.834
14262TIP3    H242730   1.864   6.303   4.692
14263TIP3   OH242731   3.001   1.943   4.090
14263TIP3    H142732   2.956   2.011   4.039
14263TIP3    H242733   2.930   1.891   4.127
14264TIP3   OH242734   3.004   3.513   2.944
14264TIP3    H142735   3.062   3.537   2.871
14264TIP3    H242736   2.916   3.518   2.908
14265TIP3   OH242737   4.266   6.926   3.819
14265TIP3    H142738   4.209   7.001   3.835
14265TIP3    H242739   4.228   6.854   3.870
14266TIP3   OH242740   5.462   3.900   4.872
14266TIP3    H142741   5.520   3.853   4.932
14266TIP3    H242742   5.496   3.879   4.785
14267TIP3   OH242743   7.152   1.219   6.193
14267TIP3    H142744   7.238   1.203   6.232
14267TIP3    H242745   7.102   1.140   6.214
14268TIP3   OH242746   5.916   0.142   0.571
14268TIP3    H142747   5.856   0.170   0.502
14268TIP3    H242748   5.999   0.125   0.525
14269TIP3   OH242749   1.315   5.421   0.850
14269TIP3    H142750   1.354   5.335   0.832
14269TIP3    H242751   1.288   5.453   0.764
14270TIP3   OH242752   4.746   6.871   2.165
14270TIP3    H142753   4.702   6.788   2.147
14270TIP3    H242754   4.721   6.892   2.255
14271TIP3   OH242755   1.356   6.648   4.908
14271TIP3    H142756   1.363   6.717   4.974
14271TIP3    H242757   1.369   6.693   4.825
14272TIP3   OH242758   4.474   0.153   3.023
14272TIP3    H142759   4.432   0.239   3.034
14272TIP3    H242760   4.424   0.094   3.080
14273TIP3   OH242761   6.666   3.243   4.450
14273TIP3    H142762   6.733   3.212   4.388
14273TIP3    H242763   6.704   3.226   4.536
14274TIP3   OH242764   6.980   3.419   5.580
14274TIP3    H142765   6.966   3.335   5.625
14274TIP3    H242766   6.964   3.485   5.648
14275TIP3   OH242767   3.784   5.934   3.881
14275TIP3    H142768   3.754   6.010   3.830
14275TIP3    H242769   3.850   5.892   3.826
14276TIP3   OH242770   6.307   2.894   6.602
14276TIP3    H142771   6.250   2.970   6.606
14276TIP3    H242772   6.264   2.835   6.540
14277TIP3   OH242773   0.029   4.894   3.689
14277TIP3    H142774   0.111   4.907   3.735
14277TIP3    H242775  -0.005   4.811   3.723
14278TIP3   OH242776   7.588   5.019   0.048
14278TIP3    H142777   7.596   5.092   0.109
14278TIP3    H242778   7.538   5.055  -0.026
14279TIP3   OH242779   1.527   5.004   4.365
14279TIP3    H142780   1.512   4.964   4.279
14279TIP3    H242781   1.439   5.016   4.401
14280TIP3   OH242782   5.313   4.855   0.455
14280TIP3    H142783   5.224   4.837   0.425
14280TIP3    H242784   5.368   4.833   0.380
14281TIP3   OH242785   8.238   7.229   1.889
14281TIP3    H142786   8.230   7.137   1.866
14281TIP3    H242787   8.150   7.255   1.917
14282TIP3   OH242788   0.428   2.685   1.864
14282TIP3    H142789   0.500   2.628   1.890
14282TIP3    H242790   0.402   2.653   1.778
14283TIP3   OH242791   1.171   1.744   1.988
14283TIP3    H142792   1.170   1.662   2.037
14283TIP3    H242793   1.138   1.721   1.901
14284TIP3   OH242794   8.074   0.416   2.501
14284TIP3    H142795   8.136   0.367   2.555
14284TIP3    H242796   8.037   0.482   2.560
14285TIP3   OH242797   1.299   3.999   2.272
14285TIP3    H142798   1.275   4.047   2.352
14285TIP3    H242799   1.312   4.068   2.207
14286TIP3   OH242800   1.289   3.417   5.865
14286TIP3    H142801   1.344   3.459   5.931
14286TIP3    H242802   1.340   3.340   5.837
14287TIP3   OH242803   1.213   4.111   0.479
14287TIP3    H142804   1.190   4.202   0.463
14287TIP3    H242805   1.222   4.105   0.574
14288TIP3   OH242806   2.467   0.212   3.193
14288TIP3    H142807   2.527   0.275   3.152
14288TIP3    H242808   2.525   0.151   3.238
14289TIP3   OH242809   6.848   1.644   3.492
14289TIP3    H142810   6.817   1.587   3.563
14289TIP3    H242811   6.794   1.723   3.501
14290TIP3   OH242812   3.775   0.055   1.391
14290TIP3    H142813   3.847  -0.003   1.367
14290TIP3    H242814   3.740   0.018   1.472
14291TIP3   OH242815   7.621   4.135   4.519
14291TIP3    H142816   7.621   4.061   4.459
14291TIP3    H242817   7.704   4.130   4.565
14292TIP3   OH242818   4.404   3.625   6.763
14292TIP3    H142819   4.489   3.601   6.801
14292TIP3    H242820   4.401   3.580   6.679
14293TIP3   OH242821   0.849   4.406   5.233
14293TIP3    H142822   0.771   4.458   5.249
14293TIP3    H242823   0.921   4.469   5.233
14294TIP3   OH242824   0.185   0.728   3.487
14294TIP3    H142825   0.169   0.779   3.407
14294TIP3    H242826   0.206   0.640   3.456
14295TIP3   OH242827   1.702   6.959   6.754
14295TIP3    H142828   1.685   7.048   6.784
14295TIP3    H242829   1.620   6.932   6.714
14296TIP3   OH242830   4.810   4.292  -0.023
14296TIP3    H142831   4.804   4.290   0.072
14296TIP3    H242832   4.813   4.386  -0.044
14297TIP3   OH242833   0.255   2.243   6.196
14297TIP3    H142834   0.319   2.266   6.263
14297TIP3    H242835   0.172   2.241   6.242
14298TIP3   OH242836   6.667   4.049   6.013
14298TIP3    H142837   6.742   4.107   6.027
14298TIP3    H242838   6.602   4.103   5.969
14299TIP3   OH242839   2.170   6.052   4.502
14299TIP3    H142840   2.114   6.048   4.424
14299TIP3    H242841   2.259   6.051   4.467
14300TIP3   OH242842   3.498   7.697   0.079
14300TIP3    H142843   3.564   7.760   0.110
14300TIP3    H242844   3.491   7.633   0.150
14301TIP3   OH242845   0.226   4.941   1.163
14301TIP3    H142846   0.144   4.936   1.212
14301TIP3    H242847   0.281   5.001   1.213
14302TIP3   OH242848   3.219   4.967   0.318
14302TIP3    H142849   3.234   4.907   0.245
14302TIP3    H242850   3.164   4.918   0.379
14303TIP3   OH242851   6.290   7.090   1.817
14303TIP3    H142852   6.365   7.145   1.838
14303TIP3    H242853   6.327   7.014   1.772
14304TIP3   OH242854   5.363   4.753   4.935
14304TIP3    H142855   5.303   4.691   4.894
14304TIP3    H242856   5.307   4.825   4.963
14305TIP3   OH242857   2.700   3.570   6.604
14305TIP3    H142858   2.689   3.651   6.654
14305TIP3    H242859   2.712   3.502   6.670
14306TIP3   OH242860   2.471   5.435   3.612
14306TIP3    H142861   2.562   5.433   3.582
14306TIP3    H242862   2.420   5.455   3.533
14307TIP3   OH242863   2.004   2.947   5.694
14307TIP3    H142864   1.961   2.990   5.767
14307TIP3    H242865   1.961   2.862   5.687
14308TIP3   OH242866   1.861   0.036   2.350
14308TIP3    H142867   1.786   0.093   2.368
14308TIP3    H242868   1.842  -0.004   2.265
14309TIP3   OH242869   3.032   7.742   2.905
14309TIP3    H142870   3.043   7.732   2.810
14309TIP3    H242871   2.963   7.681   2.928
14310TIP3   OH242872   4.957   1.918   3.691
14310TIP3    H142873   5.000   1.939   3.608
14310TIP3    H242874   4.959   2.000   3.741
14311TIP3   OH242875   6.028   5.386   2.774
14311TIP3    H142876   6.034   5.368   2.868
14311TIP3    H242877   6.077   5.315   2.733
14312TIP3   OH242878   0.706   0.171   0.214
14312TIP3    H142879   0.684   0.204   0.301
14312TIP3    H242880   0.774   0.105   0.230
14313TIP3   OH242881   2.109   4.676   1.929
14313TIP3    H142882   2.051   4.659   1.855
14313TIP3    H242883   2.050   4.705   1.999
14314TIP3   OH242884   8.076   0.336   2.204
14314TIP3    H142885   8.064   0.373   2.291
14314TIP3    H242886   7.995   0.356   2.158
14315TIP3   OH242887   7.656   6.256   1.794
14315TIP3    H142888   7.643   6.162   1.781
14315TIP3    H242889   7.725   6.262   1.859
14316TIP3   OH242890   0.352   3.019   1.684
14316TIP3    H142891   0.444   2.995   1.675
14316TIP3    H242892   0.351   3.115   1.679
14317TIP3   OH242893   0.596   5.090   0.874
14317TIP3    H142894   0.626   5.116   0.787
14317TIP3    H242895   0.664   5.120   0.933
14318TIP3   OH242896   4.150   6.122   5.255
14318TIP3    H142897   4.156   6.101   5.162
14318TIP3    H242898   4.124   6.040   5.296
14319TIP3   OH242899   6.764   6.118   5.391
14319TIP3    H142900   6.756   6.185   5.322
14319TIP3    H242901   6.787   6.167   5.469
14320TIP3   OH242902   1.392   6.487   2.156
14320TIP3    H142903   1.438   6.406   2.177
14320TIP3    H242904   1.459   6.543   2.116
14321TIP3   OH242905   4.870   4.052   0.422
14321TIP3    H142906   4.788   4.003   0.431
14321TIP3    H242907   4.855   4.111   0.348
14322TIP3   OH242908   5.308   1.299   2.533
14322TIP3    H142909   5.375   1.363   2.554
14322TIP3    H242910   5.332   1.221   2.584
14323TIP3   OH242911   1.052   6.251   6.446
14323TIP3    H142912   1.106   6.254   6.525
14323TIP3    H242913   1.098   6.306   6.383
14324TIP3   OH242914   2.747   3.079   2.373
14324TIP3    H142915   2.749   2.984   2.378
14324TIP3    H242916   2.659   3.100   2.341
14325TIP3   OH242917   3.906   7.267   4.343
14325TIP3    H142918   3.831   7.218   4.307
14325TIP3    H242919   3.912   7.346   4.290
14326TIP3   OH242920   7.762   5.315   4.070
14326TIP3    H142921   7.696   5.267   4.120
14326TIP3    H242922   7.742   5.295   3.978
14327TIP3   OH242923   3.390   2.830   1.796
14327TIP3    H142924   3.460   2.778   1.835
14327TIP3    H242925   3.329   2.847   1.869
14328TIP3   OH242926   7.384   7.331   2.510
14328TIP3    H142927   7.427   7.384   2.443
14328TIP3    H242928   7.386   7.242   2.474
14329TIP3   OH242929   0.537   2.964   2.275
14329TIP3    H142930   0.445   2.953   2.252
14329TIP3    H242931   0.544   3.056   2.302
14330TIP3   OH242932   6.271   2.389   4.011
14330TIP3    H142933   6.366   2.380   4.011
14330TIP3    H242934   6.255   2.473   4.055
14331TIP3   OH242935   5.867   6.018   3.241
14331TIP3    H142936   5.914   6.058   3.167
14331TIP3    H242937   5.919   5.941   3.263
14332TIP3   OH242938   2.466   4.827   5.830
14332TIP3    H142939   2.444   4.734   5.835
14332TIP3    H242940   2.385   4.872   5.851
14333TIP3   OH242941   4.853   2.752   0.183
14333TIP3    H142942   4.787   2.689   0.212
14333TIP3    H242943   4.888   2.714   0.102
14334TIP3   OH242944   5.775   5.147   3.746
14334TIP3    H142945   5.718   5.111   3.813
14334TIP3    H242946   5.786   5.075   3.683
14335TIP3   OH242947   7.042   7.178   2.146
14335TIP3    H142948   7.066   7.091   2.113
14335TIP3    H242949   6.984   7.214   2.079
14336TIP3   OH242950   1.750   0.131   6.125
14336TIP3    H142951   1.709   0.147   6.040
14336TIP3    H242952   1.837   0.169   6.118
14337TIP3   OH242953   5.276   4.453   0.546
14337TIP3    H142954   5.195   4.451   0.495
14337TIP3    H242955   5.346   4.465   0.482
14338TIP3   OH242956   6.247   2.649   4.133
14338TIP3    H142957   6.154   2.631   4.126
14338TIP3    H242958   6.252   2.744   4.140
14339TIP3   OH242959   0.786   0.434   2.861
14339TIP3    H142960   0.774   0.527   2.841
14339TIP3    H242961   0.813   0.433   2.953
14340TIP3   OH242962   3.610   0.396   2.204
14340TIP3    H142963   3.683   0.451   2.178
14340TIP3    H242964   3.627   0.375   2.295
14341TIP3   OH242965   4.378   1.322   3.283
14341TIP3    H142966   4.354   1.349   3.372
14341TIP3    H242967   4.320   1.247   3.264
14342TIP3   OH242968   6.140   4.982   4.845
14342TIP3    H142969   6.102   5.005   4.931
14342TIP3    H242970   6.064   4.963   4.790
14343TIP3   OH242971   5.832   2.763   3.481
14343TIP3    H142972   5.900   2.696   3.490
14343TIP3    H242973   5.817   2.769   3.386
14344TIP3   OH242974   7.409   3.441   2.639
14344TIP3    H142975   7.323   3.401   2.649
14344TIP3    H242976   7.465   3.369   2.610
14345TIP3   OH242977   1.088   1.227   2.793
14345TIP3    H142978   1.017   1.190   2.846
14345TIP3    H242979   1.043   1.280   2.727
14346TIP3   OH242980   5.207   5.013   3.619
14346TIP3    H142981   5.169   5.041   3.536
14346TIP3    H242982   5.142   4.952   3.655
14347TIP3   OH242983   0.802   2.403   2.067
14347TIP3    H142984   0.892   2.396   2.036
14347TIP3    H242985   0.807   2.465   2.140
14348TIP3   OH242986   2.364   3.687   6.746
14348TIP3    H142987   2.346   3.602   6.785
14348TIP3    H242988   2.325   3.682   6.658
14349TIP3   OH242989   5.367   5.964   6.174
14349TIP3    H142990   5.338   5.892   6.230
14349TIP3    H242991   5.331   6.043   6.215
14350TIP3   OH242992   0.908   2.654   1.758
14350TIP3    H142993   0.910   2.734   1.811
14350TIP3    H242994   0.945   2.587   1.815
14351TIP3   OH242995   6.316   5.011   5.794
14351TIP3    H142996   6.265   4.952   5.739
14351TIP3    H242997   6.406   4.982   5.783
14352TIP3   OH242998   4.702   0.435   1.335
14352TIP3    H142999   4.709   0.415   1.428
14352TIP3    H243000   4.778   0.492   1.317
14353TIP3   OH243001   5.777   0.334   3.609
14353TIP3    H143002   5.732   0.250   3.614
14353TIP3    H243003   5.818   0.334   3.522
14354TIP3   OH243004   1.070   3.551   0.755
14354TIP3    H143005   1.117   3.489   0.811
14354TIP3    H243006   1.036   3.497   0.684
14355TIP3   OH243007   3.135   2.876   5.451
14355TIP3    H143008   3.074   2.911   5.516
14355TIP3    H243009   3.120   2.929   5.373
14356TIP3   OH243010   8.256   2.497   4.242
14356TIP3    H143011   8.239   2.408   4.211
14356TIP3    H243012   8.180   2.519   4.295
14357TIP3   OH243013   2.875   5.153   2.644
14357TIP3    H143014   2.939   5.148   2.715
14357TIP3    H243015   2.909   5.219   2.584
14358TIP3   OH243016   1.072   3.765   6.778
14358TIP3    H143017   1.032   3.683   6.749
14358TIP3    H243018   1.138   3.739   6.842
14359TIP3   OH243019   4.253   1.708   2.912
14359TIP3    H143020   4.185   1.767   2.945
14359TIP3    H243021   4.309   1.765   2.859
14360TIP3   OH243022   0.855   3.601   5.272
14360TIP3    H143023   0.811   3.516   5.270
14360TIP3    H243024   0.810   3.653   5.206
14361TIP3   OH243025   7.178   6.130   4.076
14361TIP3    H143026   7.104   6.183   4.046
14361TIP3    H243027   7.168   6.047   4.030
14362TIP3   OH243028   4.647   2.015   5.997
14362TIP3    H143029   4.579   1.994   5.933
14362TIP3    H243030   4.706   2.074   5.951
14363TIP3   OH243031   6.779   3.258   3.049
14363TIP3    H143032   6.684   3.267   3.052
14363TIP3    H243033   6.794   3.163   3.049
14364TIP3   OH243034   4.454   3.294   3.714
14364TIP3    H143035   4.542   3.331   3.720
14364TIP3    H243036   4.450   3.230   3.785
14365TIP3   OH243037   3.029   4.377   5.993
14365TIP3    H143038   3.038   4.281   5.997
14365TIP3    H243039   3.068   4.408   6.075
14366TIP3   OH243040   8.064   0.533   0.422
14366TIP3    H143041   8.069   0.449   0.377
14366TIP3    H243042   8.085   0.513   0.513
14367TIP3   OH243043   7.956   0.590   2.670
14367TIP3    H143044   7.864   0.607   2.688
14367TIP3    H243045   7.990   0.551   2.751
14368TIP3   OH243046   7.838   4.895   1.399
14368TIP3    H143047   7.745   4.895   1.374
14368TIP3    H243048   7.883   4.862   1.322
14369TIP3   OH243049   4.399   6.876   4.353
14369TIP3    H143050   4.349   6.887   4.272
14369TIP3    H243051   4.433   6.787   4.349
14370TIP3   OH243052   1.163   3.857   1.709
14370TIP3    H143053   1.189   3.769   1.736
14370TIP3    H243054   1.144   3.850   1.616
14371TIP3   OH243055   1.689   6.972   1.983
14371TIP3    H143056   1.606   6.957   1.937
14371TIP3    H243057   1.663   7.008   2.068
14372TIP3   OH243058   5.969   4.485   0.234
14372TIP3    H143059   5.911   4.431   0.287
14372TIP3    H243060   5.973   4.569   0.281
14373TIP3   OH243061   0.999   2.716   3.246
14373TIP3    H143062   0.989   2.635   3.295
14373TIP3    H243063   1.090   2.743   3.262
14374TIP3   OH243064   3.647   3.089   4.800
14374TIP3    H143065   3.616   3.179   4.795
14374TIP3    H243066   3.619   3.058   4.886
14375TIP3   OH243067   0.755   6.571   1.376
14375TIP3    H143068   0.812   6.573   1.452
14375TIP3    H243069   0.754   6.661   1.344
14376TIP3   OH243070   7.543   1.849   3.557
14376TIP3    H143071   7.470   1.907   3.581
14376TIP3    H243072   7.614   1.908   3.532
14377TIP3   OH243073   0.467   5.349   0.790
14377TIP3    H143074   0.480   5.325   0.698
14377TIP3    H243075   0.462   5.266   0.836
14378TIP3   OH243076   0.945   0.666   6.081
14378TIP3    H143077   1.036   0.695   6.092
14378TIP3    H243078   0.895   0.746   6.069
14379TIP3   OH243079   6.978   2.329   1.820
14379TIP3    H143080   7.041   2.368   1.760
14379TIP3    H243081   6.894   2.333   1.773
14380TIP3   OH243082   8.139   6.275   2.260
14380TIP3    H143083   8.111   6.198   2.310
14380TIP3    H243084   8.232   6.283   2.280
14381TIP3   OH243085   8.187   5.400   0.716
14381TIP3    H143086   8.207   5.393   0.809
14381TIP3    H243087   8.265   5.369   0.671
14382TIP3   OH243088   1.613   0.839   0.950
14382TIP3    H143089   1.684   0.899   0.927
14382TIP3    H243090   1.533   0.882   0.920
14383TIP3   OH243091   2.300   2.663   4.739
14383TIP3    H143092   2.330   2.745   4.700
14383TIP3    H243093   2.368   2.641   4.802
14384TIP3   OH243094   5.551   0.282   6.532
14384TIP3    H143095   5.543   0.220   6.604
14384TIP3    H243096   5.618   0.244   6.475
14385TIP3   OH243097   1.914   5.420   2.897
14385TIP3    H143098   1.824   5.397   2.922
14385TIP3    H243099   1.963   5.339   2.910
14386TIP3   OH243100   3.621   3.127   3.351
14386TIP3    H143101   3.703   3.083   3.371
14386TIP3    H243102   3.647   3.208   3.308
14387TIP3   OH243103   1.075   4.802   1.154
14387TIP3    H143104   1.169   4.806   1.136
14387TIP3    H243105   1.069   4.749   1.233
14388TIP3   OH243106   2.558   7.710   3.092
14388TIP3    H143107   2.648   7.738   3.110
14388TIP3    H243108   2.545   7.634   3.148
14389TIP3   OH243109   6.108   5.936   4.989
14389TIP3    H143110   6.018   5.963   4.971
14389TIP3    H243111   6.141   6.002   5.049
14390TIP3   OH243112   1.027   2.374   4.836
14390TIP3    H143113   0.945   2.422   4.844
14390TIP3    H243114   1.093   2.441   4.817
14391TIP3   OH243115   7.376   0.652   0.644
14391TIP3    H143116   7.318   0.579   0.621
14391TIP3    H243117   7.368   0.658   0.739
14392TIP3   OH243118   1.946   7.264   5.843
14392TIP3    H143119   1.980   7.219   5.920
14392TIP3    H243120   1.901   7.196   5.792
14393TIP3   OH243121   4.462   3.425   2.039
14393TIP3    H143122   4.526   3.496   2.041
14393TIP3    H243123   4.396   3.453   1.976
14394TIP3   OH243124   2.087   1.139   4.578
14394TIP3    H143125   2.109   1.063   4.631
14394TIP3    H243126   1.991   1.144   4.583
14395TIP3   OH243127   6.620   4.199   0.207
14395TIP3    H143128   6.632   4.137   0.135
14395TIP3    H243129   6.634   4.285   0.168
14396TIP3   OH243130   3.595   1.884   2.658
14396TIP3    H143131   3.539   1.839   2.594
14396TIP3    H243132   3.535   1.942   2.704
14397TIP3   OH243133   5.061   4.874   2.196
14397TIP3    H143134   4.980   4.875   2.145
14397TIP3    H243135   5.115   4.807   2.154
14398TIP3   OH243136   2.643   4.889   5.476
14398TIP3    H143137   2.577   4.946   5.516
14398TIP3    H243138   2.656   4.819   5.540
14399TIP3   OH243139   3.800   4.678   4.362
14399TIP3    H143140   3.889   4.702   4.388
14399TIP3    H243141   3.812   4.599   4.309
14400TIP3   OH243142   3.604   1.402   4.664
14400TIP3    H143143   3.526   1.378   4.714
14400TIP3    H243144   3.585   1.490   4.631
14401TIP3   OH243145   5.905   5.713   3.841
14401TIP3    H143146   5.962   5.705   3.917
14401TIP3    H243147   5.855   5.631   3.841
14402TIP3   OH243148   0.559   4.763   6.433
14402TIP3    H143149   0.475   4.718   6.444
14402TIP3    H243150   0.538   4.856   6.445
14403TIP3   OH243151   6.862   5.906   4.889
14403TIP3    H143152   6.798   5.945   4.949
14403TIP3    H243153   6.942   5.899   4.941
14404TIP3   OH243154   8.244   1.718   6.557
14404TIP3    H143155   8.254   1.654   6.487
14404TIP3    H243156   8.150   1.731   6.565
14405TIP3   OH243157   2.088   7.639   0.187
14405TIP3    H143158   2.181   7.642   0.211
14405TIP3    H243159   2.041   7.648   0.270
14406TIP3   OH243160   0.540   2.969   2.636
14406TIP3    H143161   0.484   2.898   2.667
14406TIP3    H243162   0.483   3.022   2.581
14407TIP3   OH243163   8.189   3.594   0.287
14407TIP3    H143164   8.131   3.557   0.221
14407TIP3    H243165   8.269   3.616   0.239
14408TIP3   OH243166   3.236   2.305   2.327
14408TIP3    H143167   3.201   2.217   2.313
14408TIP3    H243168   3.236   2.316   2.422
14409TIP3   OH243169   4.284   1.246   3.745
14409TIP3    H143170   4.365   1.196   3.736
14409TIP3    H243171   4.236   1.203   3.816
14410TIP3   OH243172   5.429   0.251   1.235
14410TIP3    H143173   5.393   0.266   1.147
14410TIP3    H243174   5.390   0.169   1.263
14411TIP3   OH243175   3.560   3.111   1.955
14411TIP3    H143176   3.651   3.118   1.928
14411TIP3    H243177   3.552   3.023   1.992
14412TIP3   OH243178   5.521   1.903   6.504
14412TIP3    H143179   5.554   1.816   6.483
14412TIP3    H243180   5.501   1.898   6.598
14413TIP3   OH243181   2.955   4.603   3.331
14413TIP3    H143182   3.026   4.540   3.339
14413TIP3    H243183   2.991   4.684   3.367
14414TIP3   OH243184   4.580   6.386   5.762
14414TIP3    H143185   4.560   6.297   5.788
14414TIP3    H243186   4.666   6.404   5.800
14415TIP3   OH243187   4.054   1.712   3.117
14415TIP3    H143188   3.978   1.654   3.106
14415TIP3    H243189   4.125   1.654   3.145
14416TIP3   OH243190   3.724   3.110   3.678
14416TIP3    H143191   3.803   3.154   3.709
14416TIP3    H243192   3.739   3.017   3.697
14417TIP3   OH243193   5.808   7.820   4.473
14417TIP3    H143194   5.825   7.800   4.381
14417TIP3    H243195   5.762   7.743   4.507
14418TIP3   OH243196   4.362   5.098   5.366
14418TIP3    H143197   4.327   5.009   5.358
14418TIP3    H243198   4.441   5.097   5.312
14419TIP3   OH243199   3.096   4.387   1.745
14419TIP3    H143200   3.020   4.410   1.797
14419TIP3    H243201   3.171   4.414   1.798
14420TIP3   OH243202   8.077   1.538   0.649
14420TIP3    H143203   8.156   1.546   0.702
14420TIP3    H243204   8.065   1.443   0.637
14421TIP3   OH243205   1.623   2.867   1.496
14421TIP3    H143206   1.617   2.774   1.475
14421TIP3    H243207   1.645   2.908   1.412
14422TIP3   OH243208   7.724   2.563   2.200
14422TIP3    H143209   7.684   2.484   2.163
14422TIP3    H243210   7.671   2.584   2.277
14423TIP3   OH243211   1.310   7.264   1.611
14423TIP3    H143212   1.234   7.320   1.627
14423TIP3    H243213   1.330   7.276   1.518
14424TIP3   OH243214   5.144   0.685   6.344
14424TIP3    H143215   5.130   0.602   6.388
14424TIP3    H243216   5.152   0.662   6.251
14425TIP3   OH243217   1.768   2.641   1.167
14425TIP3    H143218   1.807   2.599   1.244
14425TIP3    H243219   1.697   2.582   1.141
14426TIP3   OH243220   4.109   4.600   0.793
14426TIP3    H143221   4.122   4.640   0.879
14426TIP3    H243222   4.092   4.507   0.812
14427TIP3   OH243223   7.028   0.188   1.910
14427TIP3    H143224   7.054   0.131   1.838
14427TIP3    H243225   7.072   0.271   1.893
14428TIP3   OH243226   6.104   3.186   0.558
14428TIP3    H143227   6.027   3.231   0.592
14428TIP3    H243228   6.174   3.251   0.562
14429TIP3   OH243229   6.288   2.430   0.821
14429TIP3    H143230   6.230   2.378   0.766
14429TIP3    H243231   6.234   2.455   0.896
14430TIP3   OH243232   3.169   5.404   5.103
14430TIP3    H143233   3.141   5.494   5.083
14430TIP3    H243234   3.091   5.363   5.141
14431TIP3   OH243235   1.328   3.584   4.703
14431TIP3    H143236   1.300   3.671   4.676
14431TIP3    H243237   1.407   3.600   4.756
14432TIP3   OH243238   5.548   1.869   3.052
14432TIP3    H143239   5.454   1.876   3.037
14432TIP3    H243240   5.586   1.937   2.997
14433TIP3   OH243241   7.673   5.398   1.129
14433TIP3    H143242   7.636   5.393   1.041
14433TIP3    H243243   7.766   5.376   1.117
14434TIP3   OH243244   4.612   5.307   5.662
14434TIP3    H143245   4.696   5.291   5.618
14434TIP3    H243246   4.599   5.401   5.655
14435TIP3   OH243247   7.594   0.209   5.522
14435TIP3    H143248   7.650   0.247   5.590
14435TIP3    H243249   7.515   0.182   5.569
14436TIP3   OH243250   7.590   5.679   1.113
14436TIP3    H143251   7.677   5.703   1.145
14436TIP3    H243252   7.579   5.588   1.143
14437TIP3   OH243253   6.926   1.554   3.903
14437TIP3    H143254   6.925   1.541   3.997
14437TIP3    H243255   7.015   1.586   3.884
14438TIP3   OH243256   0.187   4.480   4.151
14438TIP3    H143257   0.175   4.569   4.182
14438TIP3    H243258   0.108   4.462   4.100
14439TIP3   OH243259   8.149   1.755   5.707
14439TIP3    H143260   8.164   1.714   5.792
14439TIP3    H243261   8.080   1.819   5.723
14440TIP3   OH243262   6.715   0.851   3.231
14440TIP3    H143263   6.650   0.789   3.199
14440TIP3    H243264   6.698   0.931   3.182
14441TIP3   OH243265   6.990   4.433   5.159
14441TIP3    H143266   6.951   4.517   5.135
14441TIP3    H243267   7.020   4.446   5.250
14442TIP3   OH243268   3.606   4.518   6.500
14442TIP3    H143269   3.633   4.459   6.430
14442TIP3    H243270   3.510   4.520   6.495
14443TIP3   OH243271   6.317   7.247   4.937
14443TIP3    H143272   6.234   7.293   4.945
14443TIP3    H243273   6.304   7.186   4.864
14444TIP3   OH243274   5.558   6.915   2.811
14444TIP3    H143275   5.599   6.985   2.862
14444TIP3    H243276   5.630   6.858   2.786
14445TIP3   OH243277   1.680   6.399   1.248
14445TIP3    H143278   1.754   6.430   1.300
14445TIP3    H243279   1.611   6.463   1.265
14446TIP3   OH243280   4.470   6.874   1.141
14446TIP3    H143281   4.462   6.967   1.123
14446TIP3    H243282   4.562   6.861   1.162
14447TIP3   OH243283   4.409   5.970   4.077
14447TIP3    H143284   4.447   5.885   4.100
14447TIP3    H243285   4.344   5.987   4.145
14448TIP3   OH243286   2.090   6.039   0.178
14448TIP3    H143287   2.152   6.103   0.213
14448TIP3    H243288   2.017   6.041   0.241
14449TIP3   OH243289   4.351   6.256   4.157
14449TIP3    H143290   4.407   6.188   4.119
14449TIP3    H243291   4.410   6.312   4.207
14450TIP3   OH243292   7.574   1.221   3.589
14450TIP3    H143293   7.619   1.236   3.507
14450TIP3    H243294   7.622   1.274   3.653
14451TIP3   OH243295   1.366   6.707   4.276
14451TIP3    H143296   1.379   6.789   4.322
14451TIP3    H243297   1.452   6.685   4.240
14452TIP3   OH243298   8.272   3.177   1.079
14452TIP3    H143299   8.206   3.158   1.146
14452TIP3    H243300   8.333   3.237   1.122
14453TIP3   OH243301   2.204   0.226   3.124
14453TIP3    H143302   2.229   0.250   3.034
14453TIP3    H243303   2.287   0.200   3.165
14454TIP3   OH243304   7.734   5.228   6.235
14454TIP3    H143305   7.684   5.292   6.286
14454TIP3    H243306   7.743   5.153   6.294
14455TIP3   OH243307   1.314   3.309   0.928
14455TIP3    H143308   1.357   3.296   0.844
14455TIP3    H243309   1.317   3.404   0.943
14456TIP3   OH243310   5.885   7.114   3.604
14456TIP3    H143311   5.943   7.072   3.539
14456TIP3    H243312   5.854   7.193   3.560
14457TIP3   OH243313   2.548   3.900   6.563
14457TIP3    H143314   2.472   3.938   6.607
14457TIP3    H243315   2.621   3.956   6.589
14458TIP3   OH243316   2.204   7.612   6.502
14458TIP3    H143317   2.183   7.654   6.419
14458TIP3    H243318   2.123   7.571   6.531
14459TIP3   OH243319   8.016   3.699   5.834
14459TIP3    H143320   7.952   3.717   5.765
14459TIP3    H243321   8.030   3.604   5.828
14460TIP3   OH243322   3.693   1.138   4.531
14460TIP3    H143323   3.634   1.211   4.547
14460TIP3    H243324   3.774   1.179   4.499
14461TIP3   OH243325   4.503   4.595   3.549
14461TIP3    H143326   4.490   4.617   3.457
14461TIP3    H243327   4.528   4.677   3.590
14462TIP3   OH243328   3.669   5.907   5.175
14462TIP3    H143329   3.673   5.910   5.270
14462TIP3    H243330   3.600   5.970   5.152
14463TIP3   OH243331   6.088   7.126   0.078
14463TIP3    H143332   6.061   7.079  -0.001
14463TIP3    H243333   6.179   7.098   0.092
14464TIP3   OH243334   5.652   5.731   4.185
14464TIP3    H143335   5.686   5.697   4.268
14464TIP3    H243336   5.666   5.825   4.191
14465TIP3   OH243337   2.376   0.567   3.848
14465TIP3    H143338   2.386   0.472   3.842
14465TIP3    H243339   2.333   0.592   3.766
14466TIP3   OH243340   2.101   0.464   1.583
14466TIP3    H143341   2.071   0.545   1.541
14466TIP3    H243342   2.161   0.493   1.651
14467TIP3   OH243343   7.714   4.874   1.150
14467TIP3    H143344   7.638   4.816   1.144
14467TIP3    H243345   7.683   4.950   1.200
14468TIP3   OH243346   1.689   6.538   6.592
14468TIP3    H143347   1.643   6.622   6.589
14468TIP3    H243348   1.748   6.540   6.517
14469TIP3   OH243349   6.246   3.714   0.632
14469TIP3    H143350   6.282   3.630   0.660
14469TIP3    H243351   6.285   3.778   0.692
14470TIP3   OH243352   4.323   0.370   3.046
14470TIP3    H143353   4.288   0.456   3.022
14470TIP3    H243354   4.246   0.314   3.054
14471TIP3   OH243355   1.072   0.307   2.464
14471TIP3    H143356   0.979   0.308   2.489
14471TIP3    H243357   1.091   0.398   2.442
14472TIP3   OH243358   5.691   2.129   1.797
14472TIP3    H143359   5.668   2.120   1.705
14472TIP3    H243360   5.748   2.206   1.799
14473TIP3   OH243361   0.030   5.898   1.927
14473TIP3    H143362  -0.056   5.922   1.894
14473TIP3    H243363   0.085   5.974   1.910
14474TIP3   OH243364   6.697   6.505   2.801
14474TIP3    H143365   6.738   6.584   2.766
14474TIP3    H243366   6.615   6.536   2.839
14475TIP3   OH243367   2.847   4.575   0.318
14475TIP3    H143368   2.873   4.553   0.408
14475TIP3    H243369   2.819   4.492   0.280
14476TIP3   OH243370   5.226   3.587   1.689
14476TIP3    H143371   5.317   3.616   1.694
14476TIP3    H243372   5.175   3.667   1.679
14477TIP3   OH243373   1.669   4.780   6.387
14477TIP3    H143374   1.639   4.819   6.470
14477TIP3    H243375   1.589   4.743   6.349
14478TIP3   OH243376   6.787   4.881   3.329
14478TIP3    H143377   6.854   4.822   3.364
14478TIP3    H243378   6.823   4.969   3.344
14479TIP3   OH243379   7.824   0.816   6.232
14479TIP3    H143380   7.799   0.840   6.321
14479TIP3    H243381   7.903   0.866   6.215
14480TIP3   OH243382   7.032   6.253   1.532
14480TIP3    H143383   6.975   6.269   1.608
14480TIP3    H243384   7.066   6.165   1.546
14481TIP3   OH243385   1.860   7.479   0.080
14481TIP3    H143386   1.787   7.498   0.139
14481TIP3    H243387   1.917   7.555   0.086
14482TIP3   OH243388   0.666   3.320   0.806
14482TIP3    H143389   0.669   3.414   0.822
14482TIP3    H243390   0.581   3.293   0.839
14483TIP3   OH243391   2.047   6.609   1.197
14483TIP3    H143392   2.021   6.616   1.289
14483TIP3    H243393   2.122   6.667   1.188
14484TIP3   OH243394   1.693   4.650   0.646
14484TIP3    H143395   1.744   4.608   0.577
14484TIP3    H243396   1.753   4.653   0.721
14485TIP3   OH243397   5.346   1.414   6.300
14485TIP3    H143398   5.376   1.400   6.211
14485TIP3    H243399   5.373   1.503   6.321
14486TIP3   OH243400   4.278   6.428   5.936
14486TIP3    H143401   4.222   6.505   5.946
14486TIP3    H243402   4.312   6.435   5.847
14487TIP3   OH243403   0.642   5.255   0.314
14487TIP3    H143404   0.559   5.248   0.267
14487TIP3    H243405   0.708   5.227   0.250
14488TIP3   OH243406   6.155   0.053   4.087
14488TIP3    H143407   6.113  -0.031   4.072
14488TIP3    H243408   6.188   0.047   4.177
14489TIP3   OH243409   5.207   7.462   4.197
14489TIP3    H143410   5.148   7.474   4.122
14489TIP3    H243411   5.191   7.539   4.252
14490TIP3   OH243412   0.591   5.543   4.297
14490TIP3    H143413   0.650   5.527   4.371
14490TIP3    H243414   0.503   5.533   4.333
14491TIP3   OH243415   1.360   0.407   5.202
14491TIP3    H143416   1.442   0.360   5.219
14491TIP3    H243417   1.338   0.382   5.112
14492TIP3   OH243418   1.507   0.961   4.673
14492TIP3    H143419   1.455   1.036   4.643
14492TIP3    H243420   1.562   0.939   4.598
14493TIP3   OH243421   7.942   5.745   5.851
14493TIP3    H143422   7.926   5.766   5.758
14493TIP3    H243423   8.004   5.812   5.880
14494TIP3   OH243424   5.501   4.082   6.277
14494TIP3    H143425   5.548   4.153   6.321
14494TIP3    H243426   5.567   4.042   6.219
14495TIP3   OH243427   6.816   1.541   1.072
14495TIP3    H143428   6.780   1.606   1.131
14495TIP3    H243429   6.905   1.572   1.053
14496TIP3   OH243430   5.569   5.941   2.286
14496TIP3    H143431   5.596   5.874   2.223
14496TIP3    H243432   5.646   5.996   2.297
14497TIP3   OH243433   7.296   7.227   1.434
14497TIP3    H143434   7.245   7.303   1.463
14497TIP3    H243435   7.387   7.255   1.443
14498TIP3   OH243436   8.016   7.356   2.379
14498TIP3    H143437   7.961   7.368   2.456
14498TIP3    H243438   8.105   7.355   2.413
14499TIP3   OH243439   6.845   4.576   0.815
14499TIP3    H143440   6.813   4.536   0.896
14499TIP3    H243441   6.805   4.525   0.745
14500TIP3   OH243442   5.651   7.499   6.630
14500TIP3    H143443   5.604   7.462   6.705
14500TIP3    H243444   5.708   7.428   6.600
14501TIP3   OH243445   2.194   7.439   2.080
14501TIP3    H143446   2.110   7.393   2.070
14501TIP3    H243447   2.180   7.523   2.036
14502TIP3   OH243448   1.632   2.528   6.660
14502TIP3    H143449   1.565   2.575   6.610
14502TIP3    H243450   1.639   2.442   6.617
14503TIP3   OH243451   7.298   3.076   4.047
14503TIP3    H143452   7.209   3.080   4.013
14503TIP3    H243453   7.353   3.068   3.969
14504TIP3   OH243454   2.095   3.070   1.942
14504TIP3    H143455   2.005   3.068   1.909
14504TIP3    H243456   2.089   3.036   2.031
14505TIP3   OH243457   6.799   0.173   5.278
14505TIP3    H143458   6.770   0.206   5.363
14505TIP3    H243459   6.786   0.078   5.283
14506TIP3   OH243460   8.246   4.391   2.809
14506TIP3    H143461   8.252   4.487   2.800
14506TIP3    H243462   8.285   4.373   2.895
14507TIP3   OH243463   3.503   1.206   6.704
14507TIP3    H143464   3.557   1.250   6.770
14507TIP3    H243465   3.561   1.193   6.629
14508TIP3   OH243466   3.103   6.699   1.670
14508TIP3    H143467   3.112   6.682   1.576
14508TIP3    H243468   3.137   6.620   1.712
14509TIP3   OH243469   1.598   5.770   2.588
14509TIP3    H143470   1.665   5.768   2.657
14509TIP3    H243471   1.597   5.860   2.557
14510TIP3   OH243472   1.420   2.374   3.185
14510TIP3    H143473   1.367   2.295   3.198
14510TIP3    H243474   1.361   2.436   3.143
14511TIP3   OH243475   1.509   3.273   4.324
14511TIP3    H143476   1.518   3.181   4.299
14511TIP3    H243477   1.457   3.271   4.404
14512TIP3   OH243478   4.064   3.355   3.535
14512TIP3    H143479   4.097   3.323   3.451
14512TIP3    H243480   4.123   3.427   3.558
14513TIP3   OH243481   5.497   3.328   5.750
14513TIP3    H143482   5.407   3.302   5.767
14513TIP3    H243483   5.521   3.381   5.826
14514TIP3   OH243484   2.300   5.420   6.673
14514TIP3    H143485   2.350   5.479   6.728
14514TIP3    H243486   2.224   5.395   6.726
14515TIP3   OH243487   7.476   1.267   2.204
14515TIP3    H143488   7.519   1.197   2.252
14515TIP3    H243489   7.428   1.316   2.271
14516TIP3   OH243490   5.593   0.631   4.286
14516TIP3    H143491   5.499   0.647   4.285
14516TIP3    H243492   5.620   0.638   4.195
14517TIP3   OH243493   4.886   0.399   4.758
14517TIP3    H143494   4.864   0.481   4.714
14517TIP3    H243495   4.864   0.331   4.694
14518TIP3   OH243496   7.067   6.920   1.380
14518TIP3    H143497   7.090   6.937   1.289
14518TIP3    H243498   7.089   6.827   1.393
14519TIP3   OH243499   3.417   0.956   4.466
14519TIP3    H143500   3.423   0.953   4.371
14519TIP3    H243501   3.502   0.987   4.495
14520TIP3   OH243502   7.728   6.668   1.265
14520TIP3    H143503   7.644   6.623   1.271
14520TIP3    H243504   7.779   6.617   1.203
14521TIP3   OH243505   7.159   1.241   2.059
14521TIP3    H143506   7.105   1.180   2.109
14521TIP3    H243507   7.248   1.208   2.070
14522TIP3   OH243508   7.267   5.185   4.262
14522TIP3    H143509   7.253   5.099   4.302
14522TIP3    H243510   7.357   5.207   4.286
14523TIP3   OH243511   7.077   1.382   4.139
14523TIP3    H143512   6.997   1.334   4.158
14523TIP3    H243513   7.055   1.473   4.157
14524TIP3   OH243514   2.604   5.761   4.468
14524TIP3    H143515   2.530   5.810   4.503
14524TIP3    H243516   2.648   5.727   4.546
14525TIP3   OH243517   0.764   5.235   2.789
14525TIP3    H143518   0.707   5.292   2.841
14525TIP3    H243519   0.845   5.285   2.780
14526TIP3   OH243520   2.560   2.191   4.717
14526TIP3    H143521   2.605   2.275   4.724
14526TIP3    H243522   2.495   2.204   4.649
14527TIP3   OH243523   4.247   6.529   3.529
14527TIP3    H143524   4.294   6.607   3.501
14527TIP3    H243525   4.162   6.534   3.485
14528TIP3   OH243526   2.542   4.340   5.145
14528TIP3    H143527   2.592   4.275   5.096
14528TIP3    H243528   2.455   4.339   5.105
14529TIP3   OH243529   1.411   7.391   4.501
14529TIP3    H143530   1.349   7.446   4.454
14529TIP3    H243531   1.480   7.451   4.528
14530TIP3   OH243532   7.570   1.308   0.345
14530TIP3    H143533   7.480   1.310   0.311
14530TIP3    H243534   7.568   1.365   0.422
14531TIP3   OH243535   7.204   4.825   5.385
14531TIP3    H143536   7.201   4.921   5.391
14531TIP3    H243537   7.283   4.807   5.334
14532TIP3   OH243538   4.779   0.050   5.379
14532TIP3    H143539   4.779  -0.041   5.348
14532TIP3    H243540   4.838   0.096   5.319
14533TIP3   OH243541   2.620   4.889   3.423
14533TIP3    H143542   2.629   4.905   3.517
14533TIP3    H243543   2.620   4.976   3.384
14534TIP3   OH243544   3.328   2.173   1.267
14534TIP3    H143545   3.252   2.178   1.210
14534TIP3    H243546   3.329   2.257   1.313
14535TIP3   OH243547   5.607   7.649   4.539
14535TIP3    H143548   5.553   7.698   4.601
14535TIP3    H243549   5.548   7.584   4.502
14536TIP3   OH243550   7.016   2.178   6.187
14536TIP3    H143551   7.017   2.188   6.282
14536TIP3    H243552   7.055   2.092   6.172
14537TIP3   OH243553   1.751   2.072   3.172
14537TIP3    H143554   1.737   2.144   3.111
14537TIP3    H243555   1.720   2.106   3.256
14538TIP3   OH243556   3.511   7.613   1.349
14538TIP3    H143557   3.604   7.593   1.358
14538TIP3    H243558   3.508   7.708   1.338
14539TIP3   OH243559   2.961   2.069   0.145
14539TIP3    H143560   2.930   1.983   0.173
14539TIP3    H243561   2.931   2.129   0.213
14540TIP3   OH243562   6.206   2.427   2.478
14540TIP3    H143563   6.295   2.411   2.511
14540TIP3    H243564   6.177   2.342   2.445
14541TIP3   OH243565   0.417   2.388   5.142
14541TIP3    H143566   0.459   2.352   5.220
14541TIP3    H243567   0.393   2.478   5.167
14542TIP3   OH243568   3.994   0.731   3.542
14542TIP3    H143569   4.074   0.708   3.494
14542TIP3    H243570   3.952   0.647   3.559
14543TIP3   OH243571   2.928   6.892   2.927
14543TIP3    H143572   2.844   6.933   2.908
14543TIP3    H243573   2.950   6.843   2.847
14544TIP3   OH243574   5.304   7.237   5.598
14544TIP3    H143575   5.239   7.230   5.527
14544TIP3    H243576   5.293   7.156   5.648
14545TIP3   OH243577   1.162   3.810   5.043
14545TIP3    H143578   1.180   3.830   5.134
14545TIP3    H243579   1.088   3.867   5.019
14546TIP3   OH243580   2.064   3.014   5.383
14546TIP3    H143581   2.080   2.991   5.291
14546TIP3    H243582   2.135   3.074   5.406
14547TIP3   OH243583   7.720   0.972   1.578
14547TIP3    H143584   7.812   0.979   1.553
14547TIP3    H243585   7.713   0.888   1.621
14548TIP3   OH243586   1.844   6.152   4.110
14548TIP3    H143587   1.859   6.243   4.137
14548TIP3    H243588   1.788   6.115   4.178
14549TIP3   OH243589   5.894   6.284   5.568
14549TIP3    H143590   5.855   6.355   5.619
14549TIP3    H243591   5.989   6.297   5.578
14550TIP3   OH243592   4.870   5.858   3.289
14550TIP3    H143593   4.964   5.849   3.308
14550TIP3    H243594   4.831   5.776   3.319
14551TIP3   OH243595   0.803   5.822   0.194
14551TIP3    H143596   0.824   5.827   0.101
14551TIP3    H243597   0.745   5.746   0.202
14552TIP3   OH243598   4.995   3.682   3.009
14552TIP3    H143599   4.927   3.661   2.945
14552TIP3    H243600   4.974   3.627   3.084
14553TIP3   OH243601   2.550   3.284   1.191
14553TIP3    H143602   2.478   3.245   1.240
14553TIP3    H243603   2.628   3.267   1.245
14554TIP3   OH243604   5.518   4.953   1.040
14554TIP3    H143605   5.485   4.913   1.120
14554TIP3    H243606   5.549   5.040   1.067
14555TIP3   OH243607   7.189   4.745   0.634
14555TIP3    H143608   7.220   4.664   0.594
14555TIP3    H243609   7.162   4.800   0.560
14556TIP3   OH243610   5.368   0.845   4.702
14556TIP3    H143611   5.321   0.830   4.621
14556TIP3    H243612   5.386   0.939   4.703
14557TIP3   OH243613   7.752   2.944   4.515
14557TIP3    H143614   7.686   3.003   4.550
14557TIP3    H243615   7.703   2.866   4.489
14558TIP3   OH243616   1.638   6.403   3.848
14558TIP3    H143617   1.565   6.364   3.800
14558TIP3    H243618   1.638   6.359   3.933
14559TIP3   OH243619   2.846   2.123   2.082
14559TIP3    H143620   2.875   2.131   2.172
14559TIP3    H243621   2.825   2.213   2.056
14560TIP3   OH243622   1.398   3.885   0.629
14560TIP3    H143623   1.365   3.962   0.676
14560TIP3    H243624   1.320   3.832   0.614
14561TIP3   OH243625   3.944   7.119   2.410
14561TIP3    H143626   3.849   7.112   2.412
14561TIP3    H243627   3.964   7.196   2.463
14562TIP3   OH243628   2.864   5.831   0.190
14562TIP3    H143629   2.784   5.778   0.195
14562TIP3    H243630   2.935   5.769   0.201
14563TIP3   OH243631   3.221   3.362   2.629
14563TIP3    H143632   3.245   3.451   2.656
14563TIP3    H243633   3.210   3.314   2.710
14564TIP3   OH243634   8.088   4.272   0.991
14564TIP3    H143635   8.094   4.252   0.897
14564TIP3    H243636   8.174   4.249   1.026
14565TIP3   OH243637   2.160   0.315   5.536
14565TIP3    H143638   2.227   0.306   5.468
14565TIP3    H243639   2.113   0.396   5.512
14566TIP3   OH243640   6.478   7.488   0.910
14566TIP3    H143641   6.441   7.406   0.941
14566TIP3    H243642   6.421   7.515   0.838
14567TIP3   OH243643   7.904   4.529   4.759
14567TIP3    H143644   7.856   4.611   4.745
14567TIP3    H243645   7.852   4.463   4.715
14568TIP3   OH243646   4.111   3.289   3.264
14568TIP3    H143647   4.165   3.244   3.200
14568TIP3    H243648   4.057   3.350   3.213
14569TIP3   OH243649   4.250   4.923   2.048
14569TIP3    H143650   4.344   4.932   2.031
14569TIP3    H243651   4.226   4.841   2.005
14570TIP3   OH243652   7.660   6.863   6.175
14570TIP3    H143653   7.585   6.850   6.233
14570TIP3    H243654   7.628   6.841   6.088
14571TIP3   OH243655   5.291   0.261   0.547
14571TIP3    H143656   5.312   0.338   0.495
14571TIP3    H243657   5.195   0.257   0.546
14572TIP3   OH243658   7.446   6.218   0.328
14572TIP3    H143659   7.431   6.130   0.364
14572TIP3    H243660   7.541   6.225   0.321
14573TIP3   OH243661   3.489   2.565   1.943
14573TIP3    H143662   3.407   2.554   1.991
14573TIP3    H243663   3.545   2.495   1.977
14574TIP3   OH243664   0.951   3.599   6.613
14574TIP3    H143665   0.920   3.512   6.634
14574TIP3    H243666   0.943   3.606   6.518
14575TIP3   OH243667   2.808   1.320   0.355
14575TIP3    H143668   2.747   1.363   0.415
14575TIP3    H243669   2.889   1.370   0.363
14576TIP3   OH243670   7.060   7.179   0.446
14576TIP3    H143671   6.986   7.235   0.471
14576TIP3    H243672   7.086   7.211   0.359
14577TIP3   OH243673   6.916   1.685   6.136
14577TIP3    H143674   6.900   1.591   6.124
14577TIP3    H243675   7.010   1.695   6.124
14578TIP3   OH243676   6.370   7.259   6.119
14578TIP3    H143677   6.457   7.219   6.117
14578TIP3    H243678   6.313   7.196   6.075
14579TIP3   OH243679   7.475   1.442   1.051
14579TIP3    H143680   7.400   1.388   1.075
14579TIP3    H243681   7.439   1.510   0.994
14580TIP3   OH243682   5.656   4.666   2.676
14580TIP3    H143683   5.647   4.761   2.680
14580TIP3    H243684   5.620   4.642   2.590
14581TIP3   OH243685   5.649   7.687   3.632
14581TIP3    H143686   5.589   7.673   3.558
14581TIP3    H243687   5.598   7.660   3.709
14582TIP3   OH243688   5.331   7.259   6.129
14582TIP3    H143689   5.398   7.325   6.147
14582TIP3    H243690   5.372   7.198   6.067
14583TIP3   OH243691   4.490   3.798   2.895
14583TIP3    H143692   4.399   3.822   2.874
14583TIP3    H243693   4.492   3.703   2.884
14584TIP3   OH243694   6.199   2.858   6.132
14584TIP3    H143695   6.193   2.785   6.193
14584TIP3    H243696   6.227   2.932   6.185
14585TIP3   OH243697   5.864   2.489   5.975
14585TIP3    H143698   5.927   2.479   6.046
14585TIP3    H243699   5.803   2.416   5.986
14586TIP3   OH243700   2.070   4.153   5.888
14586TIP3    H143701   2.155   4.125   5.923
14586TIP3    H243702   2.007   4.122   5.953
14587TIP3   OH243703   8.260   0.304   2.677
14587TIP3    H143704   8.298   0.216   2.668
14587TIP3    H243705   8.303   0.341   2.754
14588TIP3   OH243706   1.716   1.114   2.124
14588TIP3    H143707   1.715   1.056   2.048
14588TIP3    H243708   1.774   1.070   2.187
14589TIP3   OH243709   1.337   2.880   3.171
14589TIP3    H143710   1.258   2.929   3.146
14589TIP3    H243711   1.404   2.909   3.109
14590TIP3   OH243712   3.422   1.047   2.002
14590TIP3    H143713   3.513   1.019   1.992
14590TIP3    H243714   3.412   1.064   2.095
14591TIP3   OH243715   3.587   7.584   1.808
14591TIP3    H143716   3.610   7.491   1.805
14591TIP3    H243717   3.556   7.598   1.897
14592TIP3   OH243718   7.376   1.782   5.552
14592TIP3    H143719   7.350   1.805   5.463
14592TIP3    H243720   7.367   1.863   5.602
14593TIP3   OH243721   0.588   7.610   5.163
14593TIP3    H143722   0.497   7.586   5.142
14593TIP3    H243723   0.641   7.544   5.118
14594TIP3   OH243724   5.709   6.701   2.345
14594TIP3    H143725   5.766   6.719   2.270
14594TIP3    H243726   5.642   6.642   2.311
14595TIP3   OH243727   1.215   0.263   5.671
14595TIP3    H143728   1.286   0.272   5.734
14595TIP3    H243729   1.137   0.247   5.726
14596TIP3   OH243730   6.178   1.277   1.505
14596TIP3    H143731   6.225   1.298   1.425
14596TIP3    H243732   6.152   1.361   1.541
14597TIP3   OH243733   1.903   1.764   0.403
14597TIP3    H143734   1.830   1.710   0.372
14597TIP3    H243735   1.900   1.755   0.498
14598TIP3   OH243736   6.214   2.219   5.765
14598TIP3    H143737   6.123   2.189   5.761
14598TIP3    H243738   6.247   2.186   5.848
14599TIP3   OH243739   0.195   7.414   0.071
14599TIP3    H143740   0.220   7.434  -0.019
14599TIP3    H243741   0.179   7.320   0.071
14600TIP3   OH243742   2.525   6.709   4.325
14600TIP3    H143743   2.579   6.739   4.251
14600TIP3    H243744   2.546   6.616   4.334
14601TIP3   OH243745   2.910   6.901   1.996
14601TIP3    H143746   2.825   6.945   2.000
14601TIP3    H243747   2.973   6.968   2.023
14602TIP3   OH243748   1.723   5.291   5.817
14602TIP3    H143749   1.705   5.365   5.876
14602TIP3    H243750   1.763   5.225   5.873
14603TIP3   OH243751   4.097   5.823   0.528
14603TIP3    H143752   4.121   5.741   0.572
14603TIP3    H243753   4.131   5.813   0.439
14604TIP3   OH243754   1.071   3.877   5.777
14604TIP3    H143755   1.114   3.962   5.766
14604TIP3    H243756   1.108   3.842   5.858
14605TIP3   OH243757   5.813   6.076   5.419
14605TIP3    H143758   5.866   6.054   5.343
14605TIP3    H243759   5.861   6.146   5.463
14606TIP3   OH243760   7.858   6.422   1.132
14606TIP3    H143761   7.903   6.344   1.165
14606TIP3    H243762   7.766   6.406   1.151
14607TIP3   OH243763   1.897   7.339   4.454
14607TIP3    H143764   1.924   7.252   4.424
14607TIP3    H243765   1.940   7.349   4.540
14608TIP3   OH243766   4.337   2.695   4.163
14608TIP3    H143767   4.351   2.681   4.069
14608TIP3    H243768   4.414   2.743   4.192
14609TIP3   OH243769   5.090   2.734   1.991
14609TIP3    H143770   5.094   2.672   2.064
14609TIP3    H243771   5.143   2.808   2.020
14610TIP3   OH243772   2.375   2.691   1.838
14610TIP3    H143773   2.425   2.766   1.871
14610TIP3    H243774   2.327   2.726   1.762
14611TIP3   OH243775   0.661   1.338   0.424
14611TIP3    H143776   0.681   1.397   0.496
14611TIP3    H243777   0.678   1.389   0.345
14612TIP3   OH243778   0.794   4.271   1.094
14612TIP3    H143779   0.799   4.180   1.064
14612TIP3    H243780   0.873   4.313   1.059
14613TIP3   OH243781   7.354   0.330   5.355
14613TIP3    H143782   7.331   0.403   5.298
14613TIP3    H243783   7.446   0.344   5.377
14614TIP3   OH243784   7.290   3.387   2.344
14614TIP3    H143785   7.310   3.480   2.354
14614TIP3    H243786   7.375   3.345   2.340
14615TIP3   OH243787   3.714   4.259   5.551
14615TIP3    H143788   3.745   4.334   5.500
14615TIP3    H243789   3.794   4.209   5.569
14616TIP3   OH243790   5.467   6.646   3.695
14616TIP3    H143791   5.405   6.594   3.643
14616TIP3    H243792   5.541   6.661   3.636
14617TIP3   OH243793   7.370   3.008   0.954
14617TIP3    H143794   7.424   2.961   0.890
14617TIP3    H243795   7.311   2.942   0.989
14618TIP3   OH243796   0.548   7.025   0.326
14618TIP3    H143797   0.583   6.995   0.243
14618TIP3    H243798   0.520   7.115   0.309
14619TIP3   OH243799   2.084   2.352   2.738
14619TIP3    H143800   2.151   2.322   2.677
14619TIP3    H243801   2.052   2.273   2.780
14620TIP3   OH243802   0.981   0.994   2.216
14620TIP3    H143803   1.071   1.022   2.233
14620TIP3    H243804   0.980   0.970   2.123
14621TIP3   OH243805   7.533   2.947   4.189
14621TIP3    H143806   7.457   2.999   4.161
14621TIP3    H243807   7.585   3.007   4.242
14622TIP3   OH243808   6.227   6.260   6.221
14622TIP3    H143809   6.195   6.319   6.153
14622TIP3    H243810   6.282   6.197   6.174
14623TIP3   OH243811   3.945   2.370   5.083
14623TIP3    H143812   3.989   2.352   5.000
14623TIP3    H243813   3.882   2.299   5.094
14624TIP3   OH243814   4.669   6.251   6.408
14624TIP3    H143815   4.667   6.156   6.421
14624TIP3    H243816   4.682   6.262   6.314
14625TIP3   OH243817   7.528   4.755   2.349
14625TIP3    H143818   7.461   4.724   2.409
14625TIP3    H243819   7.563   4.675   2.309
14626TIP3   OH243820   1.485   0.188   4.776
14626TIP3    H143821   1.559   0.129   4.791
14626TIP3    H243822   1.481   0.197   4.681
14627TIP3   OH243823   8.297   7.705   3.941
14627TIP3    H143824   8.238   7.764   3.988
14627TIP3    H243825   8.249   7.682   3.861
14628TIP3   OH243826   3.639   3.946   1.674
14628TIP3    H143827   3.551   3.980   1.692
14628TIP3    H243828   3.643   3.865   1.724
14629TIP3   OH243829   5.075   6.883   0.349
14629TIP3    H143830   5.168   6.866   0.363
14629TIP3    H243831   5.073   6.932   0.266
14630TIP3   OH243832   5.968   1.945   5.927
14630TIP3    H143833   5.962   1.863   5.977
14630TIP3    H243834   5.933   2.012   5.986
14631TIP3   OH243835   5.688   7.472   1.003
14631TIP3    H143836   5.767   7.439   0.961
14631TIP3    H243837   5.709   7.471   1.097
14632TIP3   OH243838   1.640   6.832   3.938
14632TIP3    H143839   1.635   6.760   4.001
14632TIP3    H243840   1.550   6.865   3.931
14633TIP3   OH243841   0.813   5.415   6.137
14633TIP3    H143842   0.844   5.482   6.076
14633TIP3    H243843   0.733   5.380   6.098
14634TIP3   OH243844   1.789   3.064   4.514
14634TIP3    H143845   1.844   2.993   4.547
14634TIP3    H243846   1.813   3.071   4.421
14635TIP3   OH243847   4.466   1.650   3.430
14635TIP3    H143848   4.415   1.707   3.488
14635TIP3    H243849   4.443   1.561   3.458
14636TIP3   OH243850   7.806   3.221   6.472
14636TIP3    H143851   7.792   3.307   6.433
14636TIP3    H243852   7.765   3.226   6.558
14637TIP3   OH243853   2.219   2.885   3.954
14637TIP3    H143854   2.219   2.944   4.029
14637TIP3    H243855   2.285   2.921   3.895
14638TIP3   OH243856   5.104   4.365   4.000
14638TIP3    H143857   5.069   4.287   3.956
14638TIP3    H243858   5.113   4.338   4.092
14639TIP3   OH243859   0.931   5.126   2.068
14639TIP3    H143860   0.850   5.111   2.020
14639TIP3    H243861   0.904   5.165   2.151
14640TIP3   OH243862   5.591   3.057   2.689
14640TIP3    H143863   5.614   3.128   2.629
14640TIP3    H243864   5.622   3.087   2.774
14641TIP3   OH243865   1.278   6.828   2.160
14641TIP3    H143866   1.329   6.803   2.083
14641TIP3    H243867   1.334   6.805   2.235
14642TIP3   OH243868   1.461   2.922   0.447
14642TIP3    H143869   1.482   2.978   0.522
14642TIP3    H243870   1.441   2.983   0.376
14643TIP3   OH243871   0.981   0.892   0.804
14643TIP3    H143872   1.021   0.805   0.805
14643TIP3    H243873   1.026   0.938   0.733
14644TIP3   OH243874   3.551   2.674   1.402
14644TIP3    H143875   3.497   2.697   1.326
14644TIP3    H243876   3.489   2.643   1.467
14645TIP3   OH243877   0.014   6.720   6.432
14645TIP3    H143878   0.083   6.654   6.439
14645TIP3    H243879   0.046   6.793   6.485
14646TIP3   OH243880   5.564   1.679   3.420
14646TIP3    H143881   5.521   1.620   3.358
14646TIP3    H243882   5.576   1.627   3.499
14647TIP3   OH243883   4.502   1.718   6.167
14647TIP3    H143884   4.517   1.729   6.073
14647TIP3    H243885   4.524   1.802   6.205
14648TIP3   OH243886   0.254   2.988   3.409
14648TIP3    H143887   0.177   2.989   3.352
14648TIP3    H243888   0.250   2.903   3.453
14649TIP3   OH243889   5.153   3.676   1.352
14649TIP3    H143890   5.209   3.712   1.421
14649TIP3    H243891   5.164   3.581   1.360
14650TIP3   OH243892   1.121   7.801   4.335
14650TIP3    H143893   1.031   7.772   4.321
14650TIP3    H243894   1.155   7.743   4.403
14651TIP3   OH243895   5.255   3.275   2.734
14651TIP3    H143896   5.265   3.181   2.747
14651TIP3    H243897   5.322   3.298   2.668
14652TIP3   OH243898   4.651   3.242   3.083
14652TIP3    H143899   4.662   3.147   3.083
14652TIP3    H243900   4.586   3.258   3.015
14653TIP3   OH243901   4.069   0.204   5.381
14653TIP3    H143902   4.023   0.287   5.398
14653TIP3    H243903   4.104   0.213   5.293
14654TIP3   OH243904   7.280   1.315   5.336
14654TIP3    H143905   7.298   1.299   5.429
14654TIP3    H243906   7.221   1.390   5.335
14655TIP3   OH243907   5.720   1.799   0.985
14655TIP3    H143908   5.717   1.848   1.067
14655TIP3    H243909   5.739   1.709   1.012
14656TIP3   OH243910   3.882   2.296   1.444
14656TIP3    H143911   3.934   2.356   1.498
14656TIP3    H243912   3.896   2.210   1.483
14657TIP3   OH243913   1.747   0.276   3.164
14657TIP3    H143914   1.665   0.249   3.206
14657TIP3    H243915   1.806   0.202   3.177
14658TIP3   OH243916   4.222   1.230   0.540
14658TIP3    H143917   4.170   1.163   0.496
14658TIP3    H243918   4.158   1.283   0.588
14659TIP3   OH243919   1.130   4.420   1.756
14659TIP3    H143920   1.119   4.326   1.740
14659TIP3    H243921   1.105   4.431   1.848
14660TIP3   OH243922   0.219   6.547   6.587
14660TIP3    H143923   0.303   6.525   6.627
14660TIP3    H243924   0.181   6.463   6.563
14661TIP3   OH243925   7.288   2.023   2.930
14661TIP3    H143926   7.211   2.080   2.941
14661TIP3    H243927   7.260   1.939   2.966
14662TIP3   OH243928   4.781   5.216   2.123
14662TIP3    H143929   4.709   5.225   2.061
14662TIP3    H243930   4.860   5.223   2.068
14663TIP3   OH243931   6.819   0.611   5.998
14663TIP3    H143932   6.758   0.599   5.925
14663TIP3    H243933   6.879   0.680   5.969
14664TIP3   OH243934   5.802   4.522   5.872
14664TIP3    H143935   5.785   4.441   5.920
14664TIP3    H243936   5.811   4.589   5.940
14665TIP3   OH243937   7.151   7.797   1.721
14665TIP3    H143938   7.122   7.763   1.806
14665TIP3    H243939   7.221   7.858   1.742
14666TIP3   OH243940   7.596   4.591   2.677
14666TIP3    H143941   7.533   4.584   2.606
14666TIP3    H243942   7.676   4.624   2.636
14667TIP3   OH243943   6.770   0.907   6.085
14667TIP3    H143944   6.761   0.812   6.080
14667TIP3    H243945   6.771   0.936   5.994
14668TIP3   OH243946   1.808   7.532   3.612
14668TIP3    H143947   1.750   7.603   3.586
14668TIP3    H243948   1.896   7.565   3.592
14669TIP3   OH243949   4.199   7.742   5.892
14669TIP3    H143950   4.227   7.678   5.827
14669TIP3    H243951   4.265   7.738   5.960
14670TIP3   OH243952   4.407   1.889   4.463
14670TIP3    H143953   4.441   1.879   4.374
14670TIP3    H243954   4.322   1.932   4.451
14671TIP3   OH243955   2.999   2.717   0.286
14671TIP3    H143956   3.056   2.792   0.266
14671TIP3    H243957   3.046   2.642   0.250
14672TIP3   OH243958   4.728   1.587   4.816
14672TIP3    H143959   4.695   1.603   4.728
14672TIP3    H243960   4.797   1.521   4.804
14673TIP3   OH243961   2.608   0.193   6.502
14673TIP3    H143962   2.546   0.122   6.484
14673TIP3    H243963   2.688   0.167   6.455
14674TIP3   OH243964   5.614   4.715   3.986
14674TIP3    H143965   5.525   4.719   4.021
14674TIP3    H243966   5.660   4.655   4.044
14675TIP3   OH243967   4.965   4.124   3.392
14675TIP3    H143968   4.937   4.072   3.317
14675TIP3    H243969   5.006   4.202   3.354
14676TIP3   OH243970   6.994   1.077   0.562
14676TIP3    H143971   7.048   1.030   0.498
14676TIP3    H243972   7.056   1.108   0.628
14677TIP3   OH243973   7.865   3.765   5.597
14677TIP3    H143974   7.830   3.776   5.509
14677TIP3    H243975   7.911   3.847   5.615
14678TIP3   OH243976   7.879   2.928   4.885
14678TIP3    H143977   7.947   2.984   4.923
14678TIP3    H243978   7.920   2.889   4.808
14679TIP3   OH243979   5.658   2.160   6.573
14679TIP3    H143980   5.604   2.219   6.625
14679TIP3    H243981   5.600   2.131   6.502
14680TIP3   OH243982   2.504   4.591   5.265
14680TIP3    H143983   2.409   4.589   5.257
14680TIP3    H243984   2.532   4.504   5.235
14681TIP3   OH243985   1.649   5.035   1.553
14681TIP3    H143986   1.729   5.053   1.505
14681TIP3    H243987   1.679   5.007   1.640
14682TIP3   OH243988   4.114   7.453   3.749
14682TIP3    H143989   4.035   7.447   3.802
14682TIP3    H243990   4.186   7.441   3.812
14683TIP3   OH243991   7.774   7.201   5.080
14683TIP3    H143992   7.745   7.226   4.992
14683TIP3    H243993   7.739   7.113   5.093
14684TIP3   OH243994   2.446   3.636   6.139
14684TIP3    H143995   2.485   3.674   6.218
14684TIP3    H243996   2.470   3.697   6.069
14685TIP3   OH243997   3.373   4.711   4.527
14685TIP3    H143998   3.437   4.704   4.456
14685TIP3    H243999   3.289   4.725   4.482
14686TIP3   OH244000   0.076   4.246   1.788
14686TIP3    H144001   0.008   4.299   1.830
14686TIP3    H244002   0.043   4.230   1.700
14687TIP3   OH244003   7.036   2.006   6.696
14687TIP3    H144004   6.994   2.088   6.721
14687TIP3    H244005   7.129   2.019   6.717
14688TIP3   OH244006   0.349   1.958   6.304
14688TIP3    H144007   0.365   1.935   6.395
14688TIP3    H244008   0.435   1.951   6.262
14689TIP3   OH244009   0.386   1.703   2.071
14689TIP3    H144010   0.447   1.762   2.027
14689TIP3    H244011   0.414   1.615   2.045
14690TIP3   OH244012   0.931   6.918   2.613
14690TIP3    H144013   0.909   6.833   2.575
14690TIP3    H244014   0.847   6.954   2.641
14691TIP3   OH244015   2.437   2.232   3.513
14691TIP3    H144016   2.455   2.277   3.430
14691TIP3    H244017   2.482   2.148   3.504
14692TIP3   OH244018   2.201   3.727   6.320
14692TIP3    H144019   2.215   3.761   6.232
14692TIP3    H244020   2.289   3.718   6.357
14693TIP3   OH244021   7.756   0.601   6.613
14693TIP3    H144022   7.731   0.678   6.562
14693TIP3    H244023   7.814   0.635   6.681
14694TIP3   OH244024   7.150   2.558   0.458
14694TIP3    H144025   7.205   2.531   0.532
14694TIP3    H244026   7.201   2.626   0.414
14695TIP3   OH244027   6.274   1.062   1.650
14695TIP3    H144028   6.247   1.149   1.621
14695TIP3    H244029   6.293   1.015   1.569
14696TIP3   OH244030   6.955   0.366   2.914
14696TIP3    H144031   6.874   0.415   2.899
14696TIP3    H244032   6.947   0.289   2.857
14697TIP3   OH244033   2.269   5.302   6.241
14697TIP3    H144034   2.364   5.294   6.237
14697TIP3    H244035   2.245   5.260   6.324
14698TIP3   OH244036   1.565   4.091   6.656
14698TIP3    H144037   1.516   4.023   6.609
14698TIP3    H244038   1.576   4.056   6.744
14699TIP3   OH244039   1.366   6.199   3.869
14699TIP3    H144040   1.315   6.273   3.836
14699TIP3    H244041   1.403   6.231   3.952
14700TIP3   OH244042   2.875   6.879   1.461
14700TIP3    H144043   2.847   6.835   1.541
14700TIP3    H244044   2.933   6.816   1.418
14701TIP3   OH244045   0.298   5.975   3.813
14701TIP3    H144046   0.393   5.969   3.806
14701TIP3    H244047   0.277   5.932   3.896
14702TIP3   OH244048   6.475   3.704   0.210
14702TIP3    H144049   6.416   3.779   0.220
14702TIP3    H244050   6.488   3.696   0.116
14703TIP3   OH244051   2.230   5.384   0.961
14703TIP3    H144052   2.168   5.374   1.033
14703TIP3    H244053   2.309   5.419   1.002
14704TIP3   OH244054   2.406   1.141   3.220
14704TIP3    H144055   2.470   1.212   3.228
14704TIP3    H244056   2.388   1.115   3.311
14705TIP3   OH244057   4.471   7.231   4.391
14705TIP3    H144058   4.533   7.160   4.406
14705TIP3    H244059   4.451   7.264   4.479
14706TIP3   OH244060   0.792   7.559   0.611
14706TIP3    H144061   0.873   7.508   0.609
14706TIP3    H244062   0.791   7.601   0.697
14707TIP3   OH244063   2.718   2.128   1.761
14707TIP3    H144064   2.706   2.055   1.700
14707TIP3    H244065   2.799   2.170   1.732
14708TIP3   OH244066   5.856   1.835   1.760
14708TIP3    H144067   5.807   1.765   1.803
14708TIP3    H244068   5.841   1.912   1.814
14709TIP3   OH244069   4.665   3.681   2.032
14709TIP3    H144070   4.653   3.763   1.984
14709TIP3    H244071   4.731   3.701   2.098
14710TIP3   OH244072   0.618   6.135   5.011
14710TIP3    H144073   0.550   6.068   5.003
14710TIP3    H244074   0.599   6.179   5.093
14711TIP3   OH244075   4.125   1.236   4.798
14711TIP3    H144076   4.217   1.211   4.788
14711TIP3    H244077   4.128   1.315   4.852
14712TIP3   OH244078   1.503   1.543   0.235
14712TIP3    H144079   1.511   1.508   0.146
14712TIP3    H244080   1.591   1.573   0.257
14713TIP3   OH244081   0.477   1.988   1.053
14713TIP3    H144082   0.436   1.932   0.987
14713TIP3    H244083   0.432   2.072   1.045
14714TIP3   OH244084   2.233   3.826   4.531
14714TIP3    H144085   2.190   3.874   4.602
14714TIP3    H244086   2.186   3.853   4.452
14715TIP3   OH244087   7.743   0.846   6.538
14715TIP3    H144088   7.821   0.896   6.517
14715TIP3    H244089   7.721   0.872   6.628
14716TIP3   OH244090   4.711   6.605   4.692
14716TIP3    H144091   4.748   6.613   4.605
14716TIP3    H244092   4.693   6.512   4.703
14717TIP3   OH244093   3.801   1.565   3.753
14717TIP3    H144094   3.708   1.545   3.742
14717TIP3    H244095   3.802   1.659   3.771
14718TIP3   OH244096   4.056   6.442   1.305
14718TIP3    H144097   4.077   6.464   1.215
14718TIP3    H244098   3.993   6.508   1.333
14719TIP3   OH244099   1.738   7.290   2.229
14719TIP3    H144100   1.683   7.336   2.165
14719TIP3    H244101   1.727   7.339   2.310
14720TIP3   OH244102   2.708   5.323   1.062
14720TIP3    H144103   2.731   5.382   1.134
14720TIP3    H244104   2.776   5.256   1.063
14721TIP3   OH244105   7.812   7.658   0.136
14721TIP3    H144106   7.787   7.612   0.216
14721TIP3    H244107   7.876   7.601   0.094
14722TIP3   OH244108   7.479   2.873   2.320
14722TIP3    H144109   7.539   2.934   2.362
14722TIP3    H244110   7.465   2.910   2.232
14723TIP3   OH244111   3.690   3.037   0.974
14723TIP3    H144112   3.687   3.009   1.065
14723TIP3    H244113   3.765   3.097   0.970
14724TIP3   OH244114   4.189   2.476   1.116
14724TIP3    H144115   4.167   2.474   1.023
14724TIP3    H244116   4.112   2.514   1.158
14725TIP3   OH244117   7.706   7.067   3.736
14725TIP3    H144118   7.733   7.120   3.811
14725TIP3    H244119   7.622   7.030   3.761
14726TIP3   OH244120   3.277   4.100   4.148
14726TIP3    H144121   3.356   4.102   4.094
14726TIP3    H244122   3.209   4.137   4.092
14727TIP3   OH244123   8.055   1.855   0.186
14727TIP3    H144124   8.033   1.917   0.255
14727TIP3    H244125   8.071   1.773   0.231
14728TIP3   OH244126   3.951   1.289   4.580
14728TIP3    H144127   3.992   1.375   4.584
14728TIP3    H244128   4.014   1.230   4.623
14729TIP3   OH244129   2.352   6.969   1.953
14729TIP3    H144130   2.266   6.930   1.937
14729TIP3    H244131   2.340   7.062   1.936
14730TIP3   OH244132   6.396   4.518   0.986
14730TIP3    H144133   6.383   4.484   1.074
14730TIP3    H244134   6.475   4.572   0.992
14731TIP3   OH244135   3.068   5.508   5.913
14731TIP3    H144136   2.978   5.506   5.945
14731TIP3    H244137   3.067   5.577   5.846
14732TIP3   OH244138   6.963   0.401   4.955
14732TIP3    H144139   6.901   0.460   4.913
14732TIP3    H244140   7.014   0.457   5.014
14733TIP3   OH244141   0.380   4.338   6.599
14733TIP3    H144142   0.317   4.310   6.666
14733TIP3    H244143   0.327   4.349   6.520
14734TIP3   OH244144   0.900   4.745   1.436
14734TIP3    H144145   0.911   4.662   1.482
14734TIP3    H244146   0.856   4.720   1.354
14735TIP3   OH244147   4.345   5.428   3.921
14735TIP3    H144148   4.313   5.390   4.003
14735TIP3    H244149   4.440   5.435   3.933
14736TIP3   OH244150   5.119   6.320   4.998
14736TIP3    H144151   5.101   6.386   5.065
14736TIP3    H244152   5.050   6.334   4.932
14737TIP3   OH244153   2.511   7.118   3.794
14737TIP3    H144154   2.494   7.056   3.865
14737TIP3    H244155   2.578   7.075   3.741
14738TIP3   OH244156   0.728   3.359   5.213
14738TIP3    H144157   0.651   3.306   5.191
14738TIP3    H244158   0.746   3.338   5.304
14739TIP3   OH244159   4.389   4.426   4.137
14739TIP3    H144160   4.464   4.445   4.081
14739TIP3    H244161   4.400   4.334   4.161
14740TIP3   OH244162   4.876   3.000   6.579
14740TIP3    H144163   4.963   2.965   6.600
14740TIP3    H244164   4.880   3.018   6.485
14741TIP3   OH244165   0.487   5.095   5.999
14741TIP3    H144166   0.451   5.118   6.085
14741TIP3    H244167   0.509   5.002   6.006
14742TIP3   OH244168   1.818   2.926   2.375
14742TIP3    H144169   1.865   2.914   2.458
14742TIP3    H244170   1.883   2.963   2.315
14743TIP3   OH244171   3.859   3.881   1.273
14743TIP3    H144172   3.812   3.808   1.313
14743TIP3    H244173   3.822   3.887   1.185
14744TIP3   OH244174   6.100   4.275   0.930
14744TIP3    H144175   6.007   4.263   0.949
14744TIP3    H244176   6.111   4.369   0.923
14745TIP3   OH244177   1.794   0.552   2.649
14745TIP3    H144178   1.717   0.496   2.642
14745TIP3    H244179   1.803   0.590   2.562
14746TIP3   OH244180   7.922   1.912   5.702
14746TIP3    H144181   7.836   1.880   5.728
14746TIP3    H244182   7.921   1.910   5.606
14747TIP3   OH244183   4.086   7.227   2.051
14747TIP3    H144184   4.177   7.201   2.066
14747TIP3    H244185   4.036   7.145   2.057
14748TIP3   OH244186   0.430   5.269   2.871
14748TIP3    H144187   0.450   5.249   2.779
14748TIP3    H244188   0.420   5.364   2.873
14749TIP3   OH244189   6.710   2.154   0.957
14749TIP3    H144190   6.706   2.060   0.941
14749TIP3    H244191   6.671   2.194   0.879
14750TIP3   OH244192   0.539   2.445   0.296
14750TIP3    H144193   0.528   2.490   0.212
14750TIP3    H244194   0.598   2.502   0.346
14751TIP3   OH244195   5.902   3.480   2.102
14751TIP3    H144196   5.956   3.403   2.119
14751TIP3    H244197   5.817   3.460   2.142
14752TIP3   OH244198   6.272   6.822   2.832
14752TIP3    H144199   6.199   6.840   2.772
14752TIP3    H244200   6.337   6.889   2.811
14753TIP3   OH244201   3.018   3.256   6.271
14753TIP3    H144202   3.051   3.328   6.217
14753TIP3    H244203   2.923   3.256   6.256
14754TIP3   OH244204   7.996   6.795   1.814
14754TIP3    H144205   7.990   6.764   1.724
14754TIP3    H244206   7.912   6.771   1.853
14755TIP3   OH244207   7.441   0.743   1.224
14755TIP3    H144208   7.385   0.689   1.279
14755TIP3    H244209   7.415   0.833   1.245
14756TIP3   OH244210   6.762   4.758   6.080
14756TIP3    H144211   6.856   4.773   6.085
14756TIP3    H244212   6.752   4.664   6.097
14757TIP3   OH244213   4.177   6.938   6.755
14757TIP3    H144214   4.146   6.848   6.748
14757TIP3    H244215   4.153   6.979   6.673
14758TIP3   OH244216   5.365   4.942   1.921
14758TIP3    H144217   5.350   5.009   1.855
14758TIP3    H244218   5.323   4.863   1.885
14759TIP3   OH244219   0.828   1.800   3.566
14759TIP3    H144220   0.848   1.793   3.473
14759TIP3    H244221   0.748   1.750   3.578
14760TIP3   OH244222   5.891   2.484   0.559
14760TIP3    H144223   5.883   2.579   0.567
14760TIP3    H244224   5.934   2.457   0.641
14761TIP3   OH244225   8.276   4.102   1.163
14761TIP3    H144226   8.316   4.047   1.231
14761TIP3    H244227   8.246   4.040   1.096
14762TIP3   OH244228   6.758   2.902   5.654
14762TIP3    H144229   6.666   2.923   5.639
14762TIP3    H244230   6.799   2.914   5.568
14763TIP3   OH244231   2.254   0.209   0.705
14763TIP3    H144232   2.260   0.215   0.609
14763TIP3    H244233   2.206   0.287   0.731
14764TIP3   OH244234   0.903   5.860   3.581
14764TIP3    H144235   0.929   5.904   3.501
14764TIP3    H244236   0.984   5.849   3.630
14765TIP3   OH244237   5.614   1.186   5.435
14765TIP3    H144238   5.699   1.198   5.476
14765TIP3    H244239   5.569   1.121   5.490
14766TIP3   OH244240   6.476   0.572   2.876
14766TIP3    H144241   6.413   0.597   2.808
14766TIP3    H244242   6.432   0.503   2.925
14767TIP3   OH244243   3.723   5.200   0.094
14767TIP3    H144244   3.732   5.238   0.182
14767TIP3    H244245   3.800   5.230   0.047
14768TIP3   OH244246   7.976   2.484   5.188
14768TIP3    H144247   8.067   2.510   5.179
14768TIP3    H244248   7.926   2.565   5.178
14769TIP3   OH244249   5.217   3.241   4.071
14769TIP3    H144250   5.308   3.235   4.043
14769TIP3    H244251   5.222   3.260   4.165
14770TIP3   OH244252   2.923   5.549   1.725
14770TIP3    H144253   2.932   5.471   1.781
14770TIP3    H244254   2.898   5.619   1.785
14771TIP3   OH244255   7.586   7.409   0.270
14771TIP3    H144256   7.537   7.391   0.350
14771TIP3    H244257   7.519   7.424   0.204
14772TIP3   OH244258   5.747   4.861   6.435
14772TIP3    H144259   5.811   4.914   6.483
14772TIP3    H244260   5.704   4.923   6.376
14773TIP3   OH244261   5.043   0.646   1.985
14773TIP3    H144262   5.026   0.552   1.976
14773TIP3    H244263   4.989   0.673   2.059
14774TIP3   OH244264   5.156   0.097   2.830
14774TIP3    H144265   5.131   0.146   2.752
14774TIP3    H244266   5.090   0.119   2.896
14775TIP3   OH244267   3.538   6.312   4.721
14775TIP3    H144268   3.489   6.365   4.659
14775TIP3    H244269   3.479   6.240   4.743
14776TIP3   OH244270   2.612   4.942   6.236
14776TIP3    H144271   2.655   5.021   6.268
14776TIP3    H244272   2.540   4.974   6.182
14777TIP3   OH244273   0.089   5.627   1.905
14777TIP3    H144274   0.076   5.722   1.893
14777TIP3    H244275   0.000   5.591   1.904
14778TIP3   OH244276   2.189   7.306   5.101
14778TIP3    H144277   2.272   7.269   5.131
14778TIP3    H244278   2.182   7.390   5.146
14779TIP3   OH244279   3.921   6.965   2.846
14779TIP3    H144280   3.961   7.051   2.830
14779TIP3    H244281   3.973   6.905   2.793
14780TIP3   OH244282   0.433   4.268   2.080
14780TIP3    H144283   0.493   4.238   2.011
14780TIP3    H244284   0.456   4.214   2.156
14781TIP3   OH244285   3.047   4.163   3.981
14781TIP3    H144286   2.980   4.098   3.960
14781TIP3    H244287   3.052   4.218   3.903
14782TIP3   OH244288   4.098   7.687   3.582
14782TIP3    H144289   4.083   7.596   3.607
14782TIP3    H244290   4.128   7.682   3.491
14783TIP3   OH244291   0.372   1.779   3.423
14783TIP3    H144292   0.322   1.857   3.402
14783TIP3    H244293   0.457   1.793   3.380
14784TIP3   OH244294   0.268   7.208   1.062
14784TIP3    H144295   0.260   7.302   1.075
14784TIP3    H244296   0.197   7.171   1.114
14785TIP3   OH244297   4.663   2.754   4.569
14785TIP3    H144298   4.667   2.807   4.648
14785TIP3    H244299   4.570   2.754   4.544
14786TIP3   OH244300   4.262   6.924   5.896
14786TIP3    H144301   4.276   6.877   5.979
14786TIP3    H244302   4.171   6.954   5.900
14787TIP3   OH244303   1.878   3.895   3.859
14787TIP3    H144304   1.884   3.804   3.888
14787TIP3    H244305   1.911   3.946   3.933
14788TIP3   OH244306   6.967   6.395   1.112
14788TIP3    H144307   6.877   6.383   1.081
14788TIP3    H244308   6.991   6.310   1.149
14789TIP3   OH244309   5.423   2.771   1.982
14789TIP3    H144310   5.401   2.696   2.038
14789TIP3    H244311   5.349   2.831   1.992
14790TIP3   OH244312   2.475   1.192   5.699
14790TIP3    H144313   2.458   1.285   5.688
14790TIP3    H244314   2.468   1.177   5.793
14791TIP3   OH244315   1.289   5.171   3.423
14791TIP3    H144316   1.365   5.114   3.408
14791TIP3    H244317   1.235   5.122   3.484
14792TIP3   OH244318   5.501   3.029   4.237
14792TIP3    H144319   5.424   2.978   4.262
14792TIP3    H244320   5.482   3.117   4.267
14793TIP3   OH244321   6.760   4.928   1.771
14793TIP3    H144322   6.764   5.012   1.817
14793TIP3    H244323   6.694   4.878   1.818
14794TIP3   OH244324   0.384   3.269   6.636
14794TIP3    H144325   0.408   3.360   6.618
14794TIP3    H244326   0.454   3.235   6.690
14795TIP3   OH244327   6.230   5.258   5.569
14795TIP3    H144328   6.218   5.325   5.636
14795TIP3    H244329   6.325   5.250   5.559
14796TIP3   OH244330   2.049   3.367   0.766
14796TIP3    H144331   2.128   3.397   0.812
14796TIP3    H244332   2.059   3.401   0.677
14797TIP3   OH244333   1.212   7.687   1.323
14797TIP3    H144334   1.300   7.684   1.285
14797TIP3    H244335   1.212   7.615   1.387
14798TIP3   OH244336   5.478   0.972   3.923
14798TIP3    H144337   5.523   1.026   3.987
14798TIP3    H244338   5.497   1.014   3.839
14799TIP3   OH244339   0.060   2.767   3.042
14799TIP3    H144340   0.098   2.684   3.012
14799TIP3    H244341   0.087   2.831   2.976
14800TIP3   OH244342   2.758   5.108   1.327
14800TIP3    H144343   2.664   5.106   1.314
14800TIP3    H244344   2.795   5.114   1.239
14801TIP3   OH244345   1.049   7.554   1.770
14801TIP3    H144346   1.005   7.472   1.746
14801TIP3    H244347   0.987   7.623   1.745
14802TIP3   OH244348   4.080   6.872   3.532
14802TIP3    H144349   4.004   6.843   3.581
14802TIP3    H244350   4.104   6.956   3.570
14803TIP3   OH244351   2.960   1.488   4.496
14803TIP3    H144352   2.962   1.555   4.428
14803TIP3    H244353   3.022   1.518   4.562
14804TIP3   OH244354   6.996   1.540   0.682
14804TIP3    H144355   7.048   1.473   0.638
14804TIP3    H244356   6.955   1.589   0.611
14805TIP3   OH244357   7.436   3.346   3.525
14805TIP3    H144358   7.473   3.258   3.531
14805TIP3    H244359   7.430   3.363   3.431
14806TIP3   OH244360   3.244   4.006   6.150
14806TIP3    H144361   3.262   3.914   6.131
14806TIP3    H244362   3.180   4.004   6.221
14807TIP3   OH244363   8.159   2.260   4.043
14807TIP3    H144364   8.194   2.188   4.096
14807TIP3    H244365   8.075   2.227   4.010
14808TIP3   OH244366   6.411   4.078   1.916
14808TIP3    H144367   6.505   4.098   1.916
14808TIP3    H244368   6.406   3.985   1.937
14809TIP3   OH244369   6.436   7.113   4.437
14809TIP3    H144370   6.520   7.067   4.437
14809TIP3    H244371   6.379   7.060   4.381
14810TIP3   OH244372   2.740   2.286   0.649
14810TIP3    H144373   2.772   2.203   0.616
14810TIP3    H244374   2.793   2.352   0.604
14811TIP3   OH244375   3.812   2.385   5.914
14811TIP3    H144376   3.786   2.443   5.843
14811TIP3    H244377   3.753   2.310   5.906
14812TIP3   OH244378   1.445   7.038   6.616
14812TIP3    H144379   1.506   7.082   6.557
14812TIP3    H244380   1.363   7.086   6.607
14813TIP3   OH244381   0.759   4.788   0.788
14813TIP3    H144382   0.801   4.869   0.759
14813TIP3    H244383   0.827   4.741   0.835
14814TIP3   OH244384   5.770   1.584   5.864
14814TIP3    H144385   5.761   1.497   5.902
14814TIP3    H244386   5.680   1.611   5.846
14815TIP3   OH244387   5.418   0.374   1.482
14815TIP3    H144388   5.458   0.369   1.395
14815TIP3    H244389   5.492   0.375   1.542
   8.29412   7.81978   6.77212   0.00000   0.00000  -2.76471   0.00000  -2.76471  -3.90989
