Generated by CHARMM-GUI FF-Converter
68208
    1GLY      N    1   2.204   4.516   5.648
    1GLY    HT1    2   2.142   4.510   5.731
    1GLY    HT2    3   2.244   4.420   5.632
    1GLY    HT3    4   2.147   4.539   5.564
    1GLY     CA    5   2.311   4.612   5.674
    1GLY    HA1    6   2.369   4.574   5.756
    1GLY    HA2    7   2.261   4.705   5.695
    1GLY      C    8   2.405   4.629   5.556
    1GLY      O    9   2.403   4.549   5.462
    2PRO      N   10   2.491   4.736   5.544
    2PRO     CD   11   2.462   4.849   5.616
    2PRO    HD1   12   2.485   4.832   5.724
    2PRO    HD2   13   2.355   4.878   5.603
    2PRO     CA   14   2.589   4.755   5.437
    2PRO     HA   15   2.537   4.746   5.342
    2PRO     CB   16   2.645   4.894   5.464
    2PRO    HB1   17   2.657   4.952   5.369
    2PRO    HB2   18   2.745   4.889   5.513
    2PRO     CG   19   2.549   4.957   5.559
    2PRO    HG1   20   2.599   5.013   5.640
    2PRO    HG2   21   2.483   5.028   5.503
    2PRO      C   22   2.700   4.650   5.439
    2PRO      O   23   2.723   4.587   5.543
    3GLY      N   24   2.752   4.618   5.313
    3GLY     HN   25   2.733   4.675   5.233
    3GLY     CA   26   2.864   4.526   5.302
    3GLY    HA1   27   2.890   4.519   5.197
    3GLY    HA2   28   2.834   4.431   5.345
    3GLY      C   29   2.988   4.574   5.376
    3GLY      O   30   2.996   4.690   5.416
    4ASN      N   31   3.077   4.482   5.395
    4ASN     HN   32   3.066   4.390   5.360
    4ASN     CA   33   3.206   4.518   5.452
    4ASN     HA   34   3.187   4.571   5.543
    4ASN     CB   35   3.287   4.392   5.483
    4ASN    HB1   36   3.391   4.421   5.511
    4ASN    HB2   37   3.293   4.327   5.393
    4ASN     CG   38   3.231   4.314   5.601
    4ASN    OD1   39   3.156   4.368   5.682
    4ASN    ND2   40   3.267   4.187   5.610
    4ASN   HD21   41   3.233   4.136   5.689
    4ASN   HD22   42   3.329   4.146   5.543
    4ASN      C   43   3.285   4.609   5.358
    4ASN      O   44   3.274   4.598   5.236
    5PRO      N   45   3.373   4.709   5.412
    5PRO     CD   46   3.371   4.751   5.550
    5PRO    HD1   47   3.416   4.671   5.612
    5PRO    HD2   48   3.267   4.772   5.584
    5PRO     CA   49   3.461   4.789   5.326
    5PRO     HA   50   3.398   4.845   5.259
    5PRO     CB   51   3.539   4.875   5.426
    5PRO    HB1   52   3.560   4.977   5.388
    5PRO    HB2   53   3.637   4.826   5.451
    5PRO     CG   54   3.455   4.875   5.550
    5PRO    HG1   55   3.517   4.883   5.642
    5PRO    HG2   56   3.387   4.963   5.547
    5PRO      C   57   3.556   4.703   5.242
    5PRO      O   58   3.588   4.590   5.281
    6GLY      N   59   3.582   4.754   5.129
    6GLY     HN   60   3.545   4.842   5.102
    6GLY     CA   61   3.680   4.687   5.045
    6GLY    HA1   62   3.693   4.745   4.956
    6GLY    HA2   63   3.645   4.587   5.025
    6GLY      C   64   3.816   4.675   5.112
    6GLY      O   65   3.841   4.737   5.216
    7SER      N   66   3.889   4.606   5.042
    7SER     HN   67   3.860   4.557   4.961
    7SER     CA   68   4.028   4.594   5.086
    7SER     HA   69   4.031   4.573   5.192
    7SER     CB   70   4.098   4.481   5.012
    7SER    HB1   71   4.203   4.472   5.048
    7SER    HB2   72   4.101   4.500   4.902
    7SER     OG   73   4.032   4.357   5.035
    7SER    HG1   74   3.996   4.358   5.124
    7SER      C   75   4.104   4.725   5.064
    7SER      O   76   4.066   4.805   4.978
    8GLY      N   77   4.206   4.746   5.157
    8GLY     HN   78   4.230   4.681   5.229
    8GLY     CA   79   4.290   4.863   5.137
    8GLY    HA1   80   4.355   4.865   5.223
    8GLY    HA2   81   4.226   4.949   5.127
    8GLY      C   82   4.379   4.852   5.015
    8GLY      O   83   4.383   4.748   4.948
    9PRO      N   84   4.443   4.945   4.989
    9PRO     CD   85   4.452   5.070   5.076
    9PRO    HD1   86   4.480   5.046   5.181
    9PRO    HD2   87   4.356   5.127   5.072
    9PRO     CA   88   4.539   4.947   4.879
    9PRO     HA   89   4.492   4.912   4.788
    9PRO     CB   90   4.580   5.094   4.871
    9PRO    HB1   91   4.510   5.147   4.802
    9PRO    HB2   92   4.683   5.109   4.832
    9PRO     CG   93   4.563   5.146   5.010
    9PRO    HG1   94   4.657   5.129   5.068
    9PRO    HG2   95   4.543   5.255   5.007
    9PRO      C   96   4.660   4.858   4.905
    9PRO      O   97   4.689   4.824   5.020
   10GLY      N   98   4.720   4.823   4.796
   10GLY     HN   99   4.694   4.861   4.707
   10GLY     CA  100   4.840   4.742   4.807
   10GLY    HA1  101   4.868   4.711   4.708
   10GLY    HA2  102   4.821   4.658   4.873
   10GLY      C  103   4.959   4.818   4.864
   10GLY      O  104   4.954   4.940   4.877
   11ASP      N  105   5.060   4.747   4.903
   11ASP     HN  106   5.058   4.648   4.901
   11ASP     CA  107   5.186   4.803   4.949
   11ASP     HA  108   5.161   4.870   5.030
   11ASP     CB  109   5.279   4.693   5.000
   11ASP    HB1  110   5.380   4.733   5.023
   11ASP    HB2  111   5.290   4.614   4.922
   11ASP     CG  112   5.229   4.627   5.127
   11ASP    OD1  113   5.156   4.693   5.205
   11ASP    OD2  114   5.262   4.509   5.150
   11ASP      C  115   5.254   4.882   4.837
   11ASP      O  116   5.243   4.847   4.720
   12PRO      N  117   5.341   4.990   4.877
   12PRO     CD  118   5.350   5.038   5.000
   12PRO    HD1  119   5.402   4.963   5.065
   12PRO    HD2  120   5.249   5.059   5.042
   12PRO     CA  121   5.419   5.058   4.774
   12PRO     HA  122   5.351   5.093   4.698
   12PRO     CB  123   5.490   5.169   4.851
   12PRO    HB1  124   5.481   5.268   4.804
   12PRO    HB2  125   5.600   5.148   4.861
   12PRO     CG  126   5.431   5.163   4.989
   12PRO    HG1  127   5.511   5.165   5.067
   12PRO    HG2  128   5.367   5.252   5.007
   12PRO      C  129   5.521   4.966   4.706
   12PRO      O  130   5.563   4.866   4.765
   13GLY      N  131   5.545   4.998   4.578
   13GLY     HN  132   5.503   5.075   4.531
   13GLY     CA  133   5.646   4.921   4.506
   13GLY    HA1  134   5.655   4.964   4.408
   13GLY    HA2  135   5.614   4.819   4.505
   13GLY      C  136   5.783   4.928   4.570
   13GLY      O  137   5.807   5.012   4.658
   14SER      N  138   5.866   4.851   4.518
   14SER     HN  139   5.842   4.783   4.451
   14SER     CA  140   6.005   4.857   4.561
   14SER     HA  141   6.009   4.860   4.669
   14SER     CB  142   6.081   4.734   4.513
   14SER    HB1  143   6.188   4.739   4.545
   14SER    HB2  144   6.078   4.729   4.402
   14SER     OG  145   6.023   4.615   4.565
   14SER    HG1  146   6.043   4.613   4.660
   14SER      C  147   6.073   4.983   4.510
   14SER      O  148   6.033   5.039   4.407
   15GLY      N  149   6.166   5.051   4.596
   15GLY     HN  150   6.189   5.012   4.685
   15GLY     CA  151   6.243   5.166   4.550
   15GLY    HA1  152   6.309   5.194   4.631
   15GLY    HA2  153   6.171   5.242   4.524
   15GLY      C  154   6.329   5.136   4.429
   15GLY      O  155   6.343   5.020   4.389
   16PRO      N  156   6.381   5.217   4.362
   16PRO     CD  157   6.377   5.366   4.410
   16PRO    HD1  158   6.406   5.377   4.517
   16PRO    HD2  159   6.276   5.409   4.392
   16PRO     CA  160   6.475   5.199   4.251
   16PRO     HA  161   6.431   5.133   4.177
   16PRO     CB  162   6.496   5.342   4.200
   16PRO    HB1  163   6.415   5.364   4.126
   16PRO    HB2  164   6.593   5.356   4.148
   16PRO     CG  165   6.479   5.429   4.320
   16PRO    HG1  166   6.576   5.433   4.375
   16PRO    HG2  167   6.451   5.533   4.292
   16PRO      C  168   6.607   5.137   4.295
   16PRO      O  169   6.642   5.143   4.413
   17GLY      N  170   6.678   5.057   4.208
   17GLY     HN  171   6.640   5.044   4.116
   17GLY     CA  172   6.809   5.000   4.232
   17GLY    HA1  173   6.839   4.945   4.144
   17GLY    HA2  174   6.800   4.939   4.320
   17GLY      C  175   6.916   5.104   4.259
   17GLY      O  176   6.897   5.222   4.228
   18ASN      N  177   7.010   5.078   4.326
   18ASN     HN  178   7.018   4.986   4.365
   18ASN     CA  179   7.127   5.162   4.350
   18ASN     HA  180   7.090   5.253   4.394
   18ASN     CB  181   7.222   5.095   4.449
   18ASN    HB1  182   7.321   5.146   4.449
   18ASN    HB2  183   7.238   4.989   4.419
   18ASN     CG  184   7.171   5.100   4.592
   18ASN    OD1  185   7.078   5.175   4.623
   18ASN    ND2  186   7.232   5.021   4.680
   18ASN   HD21  187   7.188   5.010   4.768
   18ASN   HD22  188   7.311   4.968   4.652
   18ASN      C  189   7.201   5.194   4.220
   18ASN      O  190   7.208   5.110   4.130
   19PRO      N  191   7.227   5.346   4.192
   19PRO     CD  192   7.213   5.440   4.289
   19PRO    HD1  193   7.266   5.407   4.382
   19PRO    HD2  194   7.105   5.455   4.309
   19PRO     CA  195   7.301   5.388   4.073
   19PRO     HA  196   7.247   5.359   3.985
   19PRO     CB  197   7.313   5.540   4.091
   19PRO    HB1  198   7.239   5.588   4.023
   19PRO    HB2  199   7.413   5.580   4.065
   19PRO     CG  200   7.276   5.565   4.234
   19PRO    HG1  201   7.370   5.584   4.291
   19PRO    HG2  202   7.209   5.652   4.245
   19PRO      C  203   7.439   5.323   4.063
   19PRO    OT1  204   7.473   5.244   4.154
   19PRO    OT2  205   7.511   5.353   3.964
   20LIT    LIT  206   2.209   3.084   2.795
   21LIT    LIT  207   9.956   6.061   4.442
   22LIT    LIT  208   2.211   5.348   0.597
   23LIT    LIT  209   6.932   6.299   4.649
   24LIT    LIT  210   2.704   2.137   4.276
   25LIT    LIT  211   2.218   1.650   3.974
   26LIT    LIT  212   3.692   6.211   5.896
   27LIT    LIT  213   4.611   9.063   0.972
   28LIT    LIT  214   5.285  -0.004   4.422
   29LIT    LIT  215   3.078   1.423   6.760
   30LIT    LIT  216   5.767   4.420   4.999
   31LIT    LIT  217   8.011   1.652   6.612
   32LIT    LIT  218   3.738   5.762   6.656
   33LIT    LIT  219   3.638   8.719   4.965
   34LIT    LIT  220  -0.202   4.840   3.000
   35LIT    LIT  221   2.293   3.978   7.087
   36LIT    LIT  222   4.910   6.591   8.942
   37LIT    LIT  223   3.933   8.886   4.531
   38LIT    LIT  224   0.717   6.080   1.363
   39LIT    LIT  225   6.354   1.546   0.614
   40LIT    LIT  226   3.964   4.859   9.038
   41LIT    LIT  227   2.317   6.263   0.580
   42LIT    LIT  228   4.443   1.618   2.421
   43LIT    LIT  229   3.091   3.262   1.569
   44LIT    LIT  230   6.168   8.051   8.549
   45LIT    LIT  231   7.082   6.948   0.817
   46LIT    LIT  232   3.202   5.956   1.930
   47LIT    LIT  233   8.614   1.683   1.695
   48LIT    LIT  234   4.457   9.525   4.079
   49LIT    LIT  235   3.141   1.381   4.144
   50LIT    LIT  236   9.288   7.153   5.465
   51LIT    LIT  237   1.606   0.692   6.785
   52LIT    LIT  238   3.137   0.732   5.276
   53LIT    LIT  239   7.945   6.621   5.699
   54LIT    LIT  240   6.389   0.905   4.981
   55LIT    LIT  241   5.606   9.073   7.715
   56LIT    LIT  242   5.105   2.465   5.072
   57LIT    LIT  243   2.435   6.004   7.356
   58LIT    LIT  244   5.563   4.887   3.047
   59LIT    LIT  245   1.311   3.444   4.306
   60LIT    LIT  246   6.324   5.621   0.964
   61LIT    LIT  247   8.538   4.220   9.104
   62LIT    LIT  248   5.405   5.683   8.322
   63LIT    LIT  249   4.892   9.467   5.222
   64LIT    LIT  250   3.786   8.139   7.524
   65LIT    LIT  251   4.677   4.559   3.997
   66LIT    LIT  252   2.121   3.669   4.317
   67LIT    LIT  253   2.884   1.793   6.111
   68LIT    LIT  254   3.994   4.488   7.483
   69LIT    LIT  255   5.338   4.385   5.587
   70LIT    LIT  256   3.529   5.764   0.525
   71LIT    LIT  257   1.101   5.609   3.265
   72LIT    LIT  258   2.061   3.134   4.159
   73LIT    LIT  259   2.144   7.317   0.878
   74LIT    LIT  260   8.233   9.089   3.573
   75LIT    LIT  261   3.922   1.751   8.560
   76LIT    LIT  262   8.006   7.703   1.593
   77LIT    LIT  263   8.903   6.373   2.856
   78LIT    LIT  264   6.784   8.329   2.299
   79LIT    LIT  265   9.054   5.854   5.919
   80LIT    LIT  266   9.259   5.740   7.025
   81LIT    LIT  267   9.777   6.147   6.781
   82LIT    LIT  268   7.538   5.107   6.310
   83LIT    LIT  269   1.978   2.448   2.520
   84LIT    LIT  270   5.731   8.768   8.328
   85LIT    LIT  271   5.553   6.701   7.696
   86CLA    CLA  272   0.795   4.547   7.124
   87CLA    CLA  273   7.244   7.379   1.829
   88CLA    CLA  274   2.815   7.611   9.447
   89CLA    CLA  275   7.715   6.552   7.728
   90CLA    CLA  276   2.097   3.347   2.711
   91CLA    CLA  277   6.333   6.590   7.774
   92CLA    CLA  278   6.922   1.926   7.808
   93CLA    CLA  279   7.525   9.011   3.346
   94CLA    CLA  280   7.012   7.701   7.602
   95CLA    CLA  281   3.418   9.616   6.763
   96CLA    CLA  282   3.226   7.529   0.459
   97CLA    CLA  283   9.339   4.689   5.206
   98CLA    CLA  284   1.577   4.089   1.059
   99CLA    CLA  285  -0.316   4.435   3.133
  100CLA    CLA  286   1.152   7.320   7.764
  101CLA    CLA  287   4.717   1.608   0.145
  102CLA    CLA  288   2.621   1.035   3.660
  103CLA    CLA  289   9.567   6.067   6.783
  104CLA    CLA  290   4.197   4.535   0.078
  105CLA    CLA  291   3.222   8.306   2.009
  106CLA    CLA  292   6.031   2.778   6.816
  107CLA    CLA  293   3.443   8.711   4.028
  108CLA    CLA  294   7.465   6.564   2.039
  109CLA    CLA  295   1.207   1.030   6.304
  110CLA    CLA  296   7.227   9.536   4.747
  111CLA    CLA  297   7.667   6.090   5.125
  112CLA    CLA  298   7.990   5.654   6.738
  113CLA    CLA  299   9.927   6.710   5.858
  114CLA    CLA  300   6.609   1.101   2.487
  115CLA    CLA  301   6.749   8.822   1.308
  116CLA    CLA  302   7.759   3.825   7.984
  117CLA    CLA  303   0.431   4.503   5.058
  118CLA    CLA  304   4.129   1.264   2.673
  119CLA    CLA  305   2.124   6.415   2.835
  120CLA    CLA  306   2.429   4.848   7.697
  121CLA    CLA  307   2.579   2.966   4.674
  122CLA    CLA  308   5.592   9.024   8.603
  123CLA    CLA  309   3.023   1.605   4.792
  124CLA    CLA  310   4.302   3.841   8.149
  125CLA    CLA  311   6.650   6.497   0.626
  126CLA    CLA  312   4.271   5.796   6.742
  127CLA    CLA  313   4.995   0.941   7.750
  128CLA    CLA  314   6.821   8.130   2.178
  129CLA    CLA  315   4.126   5.857   2.398
  130CLA    CLA  316   8.986   6.629   5.272
  131CLA    CLA  317   6.964   1.076   4.882
  132CLA    CLA  318   5.893   5.608   0.727
  133CLA    CLA  319   3.927   8.546   4.464
  134CLA    CLA  320   5.367   8.689   3.208
  135CLA    CLA  321   9.715   5.784   3.829
  136CLA    CLA  322   8.230   4.306   9.122
  137CLA    CLA  323   8.625   1.741   1.907
  138CLA    CLA  324   4.553   4.920   3.382
  139CLA    CLA  325  -0.194   5.949   3.563
  140CLA    CLA  326   3.735   2.616   8.891
  141CLA    CLA  327   2.909   2.061   4.246
  142CLA    CLA  328   4.441   5.378   7.315
  143CLA    CLA  329   5.086   2.834   5.533
  144CLA    CLA  330   2.552   3.174   7.481
  145CLA    CLA  331   5.273   9.182   0.771
  146CLA    CLA  332   5.856   6.012   5.717
  147CLA    CLA  333   2.061   1.785   4.044
  148CLA    CLA  334   3.459   1.424   7.384
  149CLA    CLA  335   4.338   6.381   9.588
  150CLA    CLA  336   1.231   7.259   4.615
  151TIP3   OH2  337   4.579   0.071   1.702
  151TIP3    H1  338   4.489   0.045   1.726
  151TIP3    H2  339   4.562   0.147   1.642
  152TIP3   OH2  340   4.767   0.007   2.023
  152TIP3    H1  341   4.744  -0.066   1.962
  152TIP3    H2  342   4.759   0.084   1.964
  153TIP3   OH2  343   4.945  -0.312   1.912
  153TIP3    H1  344   4.860  -0.264   1.912
  153TIP3    H2  345   4.948  -0.344   1.820
  154TIP3   OH2  346   4.664  -0.508   2.166
  154TIP3    H1  347   4.654  -0.432   2.227
  154TIP3    H2  348   4.574  -0.542   2.159
  155TIP3   OH2  349   5.003   0.324   2.044
  155TIP3    H1  350   5.002   0.228   2.059
  155TIP3    H2  351   4.918   0.349   2.089
  156TIP3   OH2  352   4.127   0.104   2.192
  156TIP3    H1  353   4.124   0.201   2.205
  156TIP3    H2  354   4.053   0.076   2.247
  157TIP3   OH2  355   4.898  -0.561   2.332
  157TIP3    H1  356   4.822  -0.531   2.280
  157TIP3    H2  357   4.917  -0.646   2.290
  158TIP3   OH2  358   4.403  -0.554   2.543
  158TIP3    H1  359   4.386  -0.644   2.577
  158TIP3    H2  360   4.501  -0.549   2.548
  159TIP3   OH2  361   4.691   0.676   2.143
  159TIP3    H1  362   4.690   0.700   2.049
  159TIP3    H2  363   4.771   0.723   2.175
  160TIP3   OH2  364   4.697  -0.198   1.870
  160TIP3    H1  365   4.734  -0.222   1.782
  160TIP3    H2  366   4.621  -0.259   1.876
  161TIP3   OH2  367   4.280  -0.137   2.205
  161TIP3    H1  368   4.243  -0.179   2.284
  161TIP3    H2  369   4.222  -0.059   2.196
  162TIP3   OH2  370   4.393   0.125   2.082
  162TIP3    H1  371   4.300   0.102   2.100
  162TIP3    H2  372   4.419   0.160   2.170
  163TIP3   OH2  373   5.022   0.033   2.100
  163TIP3    H1  374   4.924   0.031   2.088
  163TIP3    H2  375   5.052   0.004   2.010
  164TIP3   OH2  376   4.522   0.370   1.989
  164TIP3    H1  377   4.453   0.302   1.980
  164TIP3    H2  378   4.505   0.429   1.912
  165TIP3   OH2  379   4.547   0.326   1.584
  165TIP3    H1  380   4.508   0.385   1.514
  165TIP3    H2  381   4.642   0.348   1.569
  166TIP3   OH2  382   3.361   0.378   2.510
  166TIP3    H1  383   3.435   0.385   2.574
  166TIP3    H2  384   3.306   0.310   2.555
  167TIP3   OH2  385   3.803   0.330   2.603
  167TIP3    H1  386   3.896   0.319   2.625
  167TIP3    H2  387   3.799   0.286   2.517
  168TIP3   OH2  388   4.440   0.235   2.333
  168TIP3    H1  389   4.431   0.165   2.401
  168TIP3    H2  390   4.517   0.286   2.364
  169TIP3   OH2  391   4.060  -0.140   2.543
  169TIP3    H1  392   4.032  -0.155   2.450
  169TIP3    H2  393   4.132  -0.205   2.552
  170TIP3   OH2  394   4.555  -0.151   2.136
  170TIP3    H1  395   4.608  -0.077   2.100
  170TIP3    H2  396   4.465  -0.113   2.139
  171TIP3   OH2  397   4.407  -0.216   2.535
  171TIP3    H1  398   4.493  -0.221   2.492
  171TIP3    H2  399   4.418  -0.276   2.611
  172TIP3   OH2  400   4.665  -0.535   2.591
  172TIP3    H1  401   4.719  -0.612   2.614
  172TIP3    H2  402   4.731  -0.470   2.564
  173TIP3   OH2  403   4.685  -0.284   2.325
  173TIP3    H1  404   4.627  -0.229   2.267
  173TIP3    H2  405   4.772  -0.260   2.286
  174TIP3   OH2  406   4.802   0.417   1.544
  174TIP3    H1  407   4.829   0.467   1.624
  174TIP3    H2  408   4.845   0.468   1.473
  175TIP3   OH2  409   4.840   0.466   1.818
  175TIP3    H1  410   4.797   0.378   1.821
  175TIP3    H2  411   4.917   0.446   1.874
  176TIP3   OH2  412   4.876   0.125   2.390
  176TIP3    H1  413   4.802   0.135   2.453
  176TIP3    H2  414   4.917   0.214   2.392
  177TIP3   OH2  415   4.907  -0.054   1.680
  177TIP3    H1  416   4.918  -0.118   1.607
  177TIP3    H2  417   4.901   0.030   1.631
  178TIP3   OH2  418   4.725   0.225   1.866
  178TIP3    H1  419   4.651   0.264   1.916
  178TIP3    H2  420   4.678   0.165   1.804
  179TIP3   OH2  421   4.923  -0.216   2.217
  179TIP3    H1  422   4.996  -0.281   2.206
  179TIP3    H2  423   4.950  -0.146   2.156
  180TIP3   OH2  424   5.110  -0.411   2.243
  180TIP3    H1  425   5.043  -0.472   2.279
  180TIP3    H2  426   5.190  -0.463   2.249
  181TIP3   OH2  427   4.878  -0.567   2.000
  181TIP3    H1  428   4.808  -0.521   2.050
  181TIP3    H2  429   4.919  -0.492   1.953
  182TIP3   OH2  430   4.108   0.377   2.259
  182TIP3    H1  431   4.150   0.376   2.348
  182TIP3    H2  432   4.176   0.426   2.208
  183TIP3   OH2  433   4.293   0.521   2.116
  183TIP3    H1  434   4.371   0.472   2.085
  183TIP3    H2  435   4.336   0.584   2.177
  184TIP3   OH2  436   4.276   0.342   1.813
  184TIP3    H1  437   4.183   0.327   1.839
  184TIP3    H2  438   4.288   0.436   1.832
  185TIP3   OH2  439   4.489   0.538   1.771
  185TIP3    H1  440   4.467   0.622   1.724
  185TIP3    H2  441   4.509   0.478   1.698
  186TIP3   OH2  442   4.756   0.408   2.147
  186TIP3    H1  443   4.675   0.377   2.103
  186TIP3    H2  444   4.739   0.504   2.150
  187TIP3   OH2  445   5.495   0.122   1.662
  187TIP3    H1  446   5.465   0.212   1.636
  187TIP3    H2  447   5.423   0.101   1.726
  188TIP3   OH2  448   5.708   0.240   1.812
  188TIP3    H1  449   5.649   0.304   1.857
  188TIP3    H2  450   5.642   0.185   1.765
  189TIP3   OH2  451   5.438  -0.158   1.881
  189TIP3    H1  452   5.447  -0.092   1.951
  189TIP3    H2  453   5.370  -0.218   1.917
  190TIP3   OH2  454   5.500   0.407   1.897
  190TIP3    H1  455   5.464   0.406   1.806
  190TIP3    H2  456   5.420   0.387   1.951
  191TIP3   OH2  457   5.103  -0.060   1.862
  191TIP3    H1  458   5.029  -0.071   1.797
  191TIP3    H2  459   5.126  -0.152   1.884
  192TIP3   OH2  460   4.942   0.164   1.514
  192TIP3    H1  461   5.026   0.201   1.549
  192TIP3    H2  462   4.884   0.242   1.526
  193TIP3   OH2  463   5.894   0.386   1.650
  193TIP3    H1  464   5.892   0.471   1.700
  193TIP3    H2  465   5.846   0.327   1.712
  194TIP3   OH2  466   5.287   0.133   1.836
  194TIP3    H1  467   5.342   0.118   1.916
  194TIP3    H2  468   5.221   0.061   1.845
  195TIP3   OH2  469   6.487   0.935   1.639
  195TIP3    H1  470   6.478   0.955   1.544
  195TIP3    H2  471   6.564   0.989   1.665
  196TIP3   OH2  472   5.443   0.054   2.059
  196TIP3    H1  473   5.525   0.080   2.106
  196TIP3    H2  474   5.380   0.051   2.134
  197TIP3   OH2  475   5.212  -0.279   1.991
  197TIP3    H1  476   5.245  -0.285   2.083
  197TIP3    H2  477   5.126  -0.323   1.996
  198TIP3   OH2  478   6.186   0.397   1.628
  198TIP3    H1  479   6.092   0.419   1.621
  198TIP3    H2  480   6.212   0.453   1.705
  199TIP3   OH2  481   5.667   0.494   1.513
  199TIP3    H1  482   5.704   0.551   1.443
  199TIP3    H2  483   5.749   0.458   1.551
  200TIP3   OH2  484   6.322   0.680   1.517
  200TIP3    H1  485   6.293   0.595   1.479
  200TIP3    H2  486   6.307   0.737   1.439
  201TIP3   OH2  487   5.141   0.305   1.635
  201TIP3    H1  488   5.193   0.245   1.692
  201TIP3    H2  489   5.161   0.390   1.676
  202TIP3   OH2  490   5.114   0.622   2.045
  202TIP3    H1  491   5.201   0.623   2.090
  202TIP3    H2  492   5.097   0.526   2.043
  203TIP3   OH2  493   5.596   0.590   2.087
  203TIP3    H1  494   5.691   0.572   2.097
  203TIP3    H2  495   5.574   0.531   2.013
  204TIP3   OH2  496   6.234   0.516   1.862
  204TIP3    H1  497   6.233   0.439   1.922
  204TIP3    H2  498   6.318   0.561   1.886
  205TIP3   OH2  499   5.248   0.027   2.252
  205TIP3    H1  500   5.266  -0.069   2.250
  205TIP3    H2  501   5.161   0.031   2.206
  206TIP3   OH2  502   5.846   0.104   2.015
  206TIP3    H1  503   5.815   0.136   1.928
  206TIP3    H2  504   5.922   0.050   1.991
  207TIP3   OH2  505   5.365  -0.244   2.228
  207TIP3    H1  506   5.442  -0.294   2.201
  207TIP3    H2  507   5.392  -0.212   2.316
  208TIP3   OH2  508   6.219   0.041   2.014
  208TIP3    H1  509   6.293   0.069   1.957
  208TIP3    H2  510   6.256   0.045   2.103
  209TIP3   OH2  511   5.639  -0.433   2.232
  209TIP3    H1  512   5.574  -0.504   2.244
  209TIP3    H2  513   5.649  -0.432   2.136
  210TIP3   OH2  514   4.857   0.304   1.260
  210TIP3    H1  515   4.894   0.217   1.279
  210TIP3    H2  516   4.926   0.363   1.295
  211TIP3   OH2  517   6.705   0.389   1.997
  211TIP3    H1  518   6.618   0.353   1.973
  211TIP3    H2  519   6.710   0.477   1.956
  212TIP3   OH2  520   5.280   0.359   2.064
  212TIP3    H1  521   5.189   0.328   2.048
  212TIP3    H2  522   5.292   0.340   2.158
  213TIP3   OH2  523   5.443   0.390   1.622
  213TIP3    H1  524   5.395   0.462   1.576
  213TIP3    H2  525   5.533   0.415   1.590
  214TIP3   OH2  526   5.905   0.639   1.753
  214TIP3    H1  527   5.946   0.639   1.842
  214TIP3    H2  528   5.971   0.689   1.701
  215TIP3   OH2  529   6.080   0.788   1.607
  215TIP3    H1  530   6.159   0.743   1.570
  215TIP3    H2  531   6.126   0.847   1.670
  216TIP3   OH2  532   5.133   0.638   1.637
  216TIP3    H1  533   5.046   0.675   1.612
  216TIP3    H2  534   5.147   0.682   1.723
  217TIP3   OH2  535   5.367   0.623   1.487
  217TIP3    H1  536   5.282   0.638   1.534
  217TIP3    H2  537   5.347   0.660   1.399
  218TIP3   OH2  538   5.768   0.658   1.317
  218TIP3    H1  539   5.703   0.681   1.248
  218TIP3    H2  540   5.792   0.746   1.352
  219TIP3   OH2  541   6.018   0.629   1.212
  219TIP3    H1  542   5.938   0.630   1.268
  219TIP3    H2  543   6.084   0.672   1.269
  220TIP3   OH2  544   6.237   0.798   1.284
  220TIP3    H1  545   6.222   0.888   1.249
  220TIP3    H2  546   6.301   0.764   1.220
  221TIP3   OH2  547   5.051   0.451   1.390
  221TIP3    H1  548   5.086   0.429   1.478
  221TIP3    H2  549   5.119   0.409   1.333
  222TIP3   OH2  550   5.234   0.333   1.237
  222TIP3    H1  551   5.258   0.243   1.213
  222TIP3    H2  552   5.321   0.377   1.240
  223TIP3   OH2  553   5.486   0.441   1.269
  223TIP3    H1  554   5.509   0.351   1.297
  223TIP3    H2  555   5.512   0.492   1.347
  224TIP3   OH2  556   6.569   0.670   1.654
  224TIP3    H1  557   6.496   0.635   1.599
  224TIP3    H2  558   6.544   0.765   1.652
  225TIP3   OH2  559   6.902   0.888   1.562
  225TIP3    H1  560   6.980   0.897   1.619
  225TIP3    H2  561   6.875   0.797   1.585
  226TIP3   OH2  562   2.621   1.584   2.159
  226TIP3    H1  563   2.571   1.505   2.129
  226TIP3    H2  564   2.620   1.639   2.078
  227TIP3   OH2  565   2.845   1.883   2.195
  227TIP3    H1  566   2.843   1.787   2.209
  227TIP3    H2  567   2.761   1.908   2.239
  228TIP3   OH2  568   2.526   2.241   2.294
  228TIP3    H1  569   2.529   2.255   2.197
  228TIP3    H2  570   2.611   2.280   2.321
  229TIP3   OH2  571   2.866   1.596   2.259
  229TIP3    H1  572   2.769   1.597   2.243
  229TIP3    H2  573   2.898   1.569   2.169
  230TIP3   OH2  574   2.358   1.931   2.162
  230TIP3    H1  575   2.273   1.884   2.147
  230TIP3    H2  576   2.360   1.996   2.089
  231TIP3   OH2  577   1.654   1.877   2.725
  231TIP3    H1  578   1.741   1.872   2.765
  231TIP3    H2  579   1.669   1.824   2.646
  232TIP3   OH2  580   2.274   1.814   2.490
  232TIP3    H1  581   2.272   1.736   2.549
  232TIP3    H2  582   2.361   1.853   2.511
  233TIP3   OH2  583   2.305   1.394   2.775
  233TIP3    H1  584   2.365   1.356   2.710
  233TIP3    H2  585   2.239   1.325   2.787
  234TIP3   OH2  586   2.538   1.062   2.788
  234TIP3    H1  587   2.526   0.977   2.743
  234TIP3    H2  588   2.594   1.111   2.727
  235TIP3   OH2  589   2.540   1.304   2.468
  235TIP3    H1  590   2.475   1.352   2.413
  235TIP3    H2  591   2.625   1.334   2.428
  236TIP3   OH2  592   2.699   1.949   1.695
  236TIP3    H1  593   2.641   1.999   1.754
  236TIP3    H2  594   2.697   2.002   1.615
  237TIP3   OH2  595   2.666   2.019   1.986
  237TIP3    H1  596   2.619   1.934   1.970
  237TIP3    H2  597   2.751   1.985   2.017
  238TIP3   OH2  598   2.714   1.687   2.538
  238TIP3    H1  599   2.643   1.694   2.605
  238TIP3    H2  600   2.755   1.775   2.543
  239TIP3   OH2  601   2.529   1.781   1.984
  239TIP3    H1  602   2.470   1.787   2.061
  239TIP3    H2  603   2.489   1.712   1.930
  240TIP3   OH2  604   2.783   1.358   2.368
  240TIP3    H1  605   2.857   1.294   2.381
  240TIP3    H2  606   2.825   1.435   2.324
  241TIP3   OH2  607   2.930   1.144   2.431
  241TIP3    H1  608   2.876   1.069   2.402
  241TIP3    H2  609   3.018   1.102   2.426
  242TIP3   OH2  610   3.183   0.570   2.675
  242TIP3    H1  611   3.230   0.488   2.651
  242TIP3    H2  612   3.197   0.624   2.597
  243TIP3   OH2  613   1.961   1.961   2.425
  243TIP3    H1  614   2.020   1.953   2.502
  243TIP3    H2  615   2.022   1.985   2.353
  244TIP3   OH2  616   2.144   2.100   2.258
  244TIP3    H1  617   2.210   2.031   2.240
  244TIP3    H2  618   2.189   2.152   2.327
  245TIP3   OH2  619   2.353   2.093   1.940
  245TIP3    H1  620   2.279   2.155   1.921
  245TIP3    H2  621   2.395   2.087   1.851
  246TIP3   OH2  622   2.599   1.968   2.303
  246TIP3    H1  623   2.520   1.932   2.258
  246TIP3    H2  624   2.579   2.063   2.301
  247TIP3   OH2  625   3.882   1.353   1.129
  247TIP3    H1  626   3.878   1.446   1.101
  247TIP3    H2  627   3.834   1.309   1.056
  248TIP3   OH2  628   3.868   1.366   1.421
  248TIP3    H1  629   3.835   1.314   1.499
  248TIP3    H2  630   3.865   1.303   1.348
  249TIP3   OH2  631   3.171   1.220   1.778
  249TIP3    H1  632   3.185   1.165   1.857
  249TIP3    H2  633   3.243   1.284   1.786
  250TIP3   OH2  634   4.100   1.632   1.130
  250TIP3    H1  635   4.100   1.566   1.201
  250TIP3    H2  636   4.131   1.711   1.177
  251TIP3   OH2  637   3.161   1.649   1.572
  251TIP3    H1  638   3.115   1.573   1.533
  251TIP3    H2  639   3.252   1.639   1.540
  252TIP3   OH2  640   3.752   2.101   1.143
  252TIP3    H1  641   3.798   2.032   1.091
  252TIP3    H2  642   3.751   2.061   1.231
  253TIP3   OH2  643   3.664   1.565   1.484
  253TIP3    H1  644   3.711   1.491   1.441
  253TIP3    H2  645   3.744   1.613   1.515
  254TIP3   OH2  646   4.672   0.882   1.489
  254TIP3    H1  647   4.701   0.964   1.533
  254TIP3    H2  648   4.698   0.901   1.397
  255TIP3   OH2  649   4.071   1.063   1.531
  255TIP3    H1  650   4.121   0.981   1.550
  255TIP3    H2  651   4.033   1.043   1.446
  256TIP3   OH2  652   4.747   1.087   1.661
  256TIP3    H1  653   4.664   1.136   1.641
  256TIP3    H2  654   4.764   1.116   1.751
  257TIP3   OH2  655   3.763   1.608   0.985
  257TIP3    H1  656   3.791   1.583   0.896
  257TIP3    H2  657   3.714   1.691   0.969
  258TIP3   OH2  658   3.508   1.480   1.714
  258TIP3    H1  659   3.447   1.546   1.754
  258TIP3    H2  660   3.557   1.534   1.649
  259TIP3   OH2  661   4.318   0.829   1.292
  259TIP3    H1  662   4.357   0.762   1.349
  259TIP3    H2  663   4.373   0.907   1.311
  260TIP3   OH2  664   3.349   1.674   1.818
  260TIP3    H1  665   3.318   1.754   1.770
  260TIP3    H2  666   3.272   1.664   1.879
  261TIP3   OH2  667   4.176   1.880   1.296
  261TIP3    H1  668   4.085   1.872   1.332
  261TIP3    H2  669   4.169   1.965   1.248
  262TIP3   OH2  670   4.467   0.785   1.655
  262TIP3    H1  671   4.380   0.814   1.622
  262TIP3    H2  672   4.527   0.814   1.584
  263TIP3   OH2  673   3.872   1.931   0.968
  263TIP3    H1  674   3.923   1.849   0.949
  263TIP3    H2  675   3.932   1.996   0.924
  264TIP3   OH2  676   4.025   1.727   0.880
  264TIP3    H1  677   4.040   1.653   0.817
  264TIP3    H2  678   4.058   1.687   0.962
  265TIP3   OH2  679   4.402   1.795   1.637
  265TIP3    H1  680   4.392   1.717   1.577
  265TIP3    H2  681   4.385   1.869   1.576
  266TIP3   OH2  682   4.597   1.429   1.481
  266TIP3    H1  683   4.516   1.483   1.486
  266TIP3    H2  684   4.628   1.453   1.391
  267TIP3   OH2  685   4.045   1.299   0.902
  267TIP3    H1  686   4.050   1.319   0.997
  267TIP3    H2  687   4.130   1.254   0.885
  268TIP3   OH2  688   4.288   1.314   1.782
  268TIP3    H1  689   4.282   1.402   1.823
  268TIP3    H2  690   4.201   1.312   1.736
  269TIP3   OH2  691   3.404   1.672   1.430
  269TIP3    H1  692   3.393   1.628   1.346
  269TIP3    H2  693   3.497   1.649   1.453
  270TIP3   OH2  694   3.427   1.232   1.632
  270TIP3    H1  695   3.464   1.225   1.544
  270TIP3    H2  696   3.455   1.322   1.660
  271TIP3   OH2  697   3.932   1.878   1.413
  271TIP3    H1  698   3.921   1.956   1.469
  271TIP3    H2  699   3.921   1.804   1.476
  272TIP3   OH2  700   3.548   1.798   1.962
  272TIP3    H1  701   3.488   1.861   2.007
  272TIP3    H2  702   3.483   1.746   1.911
  273TIP3   OH2  703   3.297   1.355   2.061
  273TIP3    H1  704   3.303   1.443   2.105
  273TIP3    H2  705   3.201   1.339   2.065
  274TIP3   OH2  706   3.608   1.838   0.967
  274TIP3    H1  707   3.691   1.886   0.984
  274TIP3    H2  708   3.554   1.904   0.921
  275TIP3   OH2  709   3.342   1.968   2.047
  275TIP3    H1  710   3.310   1.961   1.955
  275TIP3    H2  711   3.262   1.944   2.099
  276TIP3   OH2  712   4.208   1.746   0.264
  276TIP3    H1  713   4.221   1.839   0.288
  276TIP3    H2  714   4.294   1.705   0.284
  277TIP3   OH2  715   2.948   1.521   2.018
  277TIP3    H1  716   2.876   1.527   1.951
  277TIP3    H2  717   2.967   1.426   2.015
  278TIP3   OH2  718   4.639   2.138   1.682
  278TIP3    H1  719   4.638   2.041   1.693
  278TIP3    H2  720   4.555   2.162   1.727
  279TIP3   OH2  721   3.745   1.926   1.817
  279TIP3    H1  722   3.744   2.019   1.849
  279TIP3    H2  723   3.674   1.887   1.872
  280TIP3   OH2  724   3.497   2.052   0.778
  280TIP3    H1  725   3.440   2.034   0.703
  280TIP3    H2  726   3.481   2.147   0.796
  281TIP3   OH2  727   3.758   2.022   0.691
  281TIP3    H1  728   3.667   2.014   0.726
  281TIP3    H2  729   3.805   1.956   0.744
  282TIP3   OH2  730   4.525   1.271   1.958
  282TIP3    H1  731   4.449   1.283   1.898
  282TIP3    H2  732   4.543   1.175   1.947
  283TIP3   OH2  733   3.144   1.701   1.992
  283TIP3    H1  734   3.194   1.675   2.072
  283TIP3    H2  735   3.068   1.639   1.999
  284TIP3   OH2  736   4.063   0.628   1.967
  284TIP3    H1  737   4.128   0.588   2.026
  284TIP3    H2  738   3.979   0.587   1.994
  285TIP3   OH2  739   4.294   1.042   1.877
  285TIP3    H1  740   4.251   1.041   1.965
  285TIP3    H2  741   4.276   1.133   1.846
  286TIP3   OH2  742   3.449   1.008   1.787
  286TIP3    H1  743   3.400   1.041   1.865
  286TIP3    H2  744   3.437   1.083   1.725
  287TIP3   OH2  745   4.007   1.273   2.121
  287TIP3    H1  746   3.982   1.197   2.178
  287TIP3    H2  747   4.102   1.278   2.138
  288TIP3   OH2  748   3.268   1.052   1.992
  288TIP3    H1  749   3.307   1.108   2.060
  288TIP3    H2  750   3.221   0.984   2.043
  289TIP3   OH2  751   4.032   1.271   1.696
  289TIP3    H1  752   4.052   1.197   1.634
  289TIP3    H2  753   4.000   1.223   1.775
  290TIP3   OH2  754   4.153   0.794   1.558
  290TIP3    H1  755   4.131   0.806   1.653
  290TIP3    H2  756   4.068   0.763   1.523
  291TIP3   OH2  757   4.329   2.490   1.780
  291TIP3    H1  758   4.327   2.512   1.685
  291TIP3    H2  759   4.408   2.538   1.810
  292TIP3   OH2  760   3.290   1.598   2.206
  292TIP3    H1  761   3.370   1.628   2.254
  292TIP3    H2  762   3.225   1.599   2.279
  293TIP3   OH2  763   3.762   1.209   1.626
  293TIP3    H1  764   3.856   1.216   1.663
  293TIP3    H2  765   3.755   1.119   1.595
  294TIP3   OH2  766   3.736   0.933   1.825
  294TIP3    H1  767   3.669   0.968   1.766
  294TIP3    H2  768   3.799   1.008   1.832
  295TIP3   OH2  769   4.368   1.578   1.474
  295TIP3    H1  770   4.393   1.626   1.392
  295TIP3    H2  771   4.282   1.537   1.447
  296TIP3   OH2  772   3.866   1.661   1.840
  296TIP3    H1  773   3.880   1.635   1.931
  296TIP3    H2  774   3.826   1.749   1.848
  297TIP3   OH2  775   3.042   1.286   2.155
  297TIP3    H1  776   3.088   1.292   2.241
  297TIP3    H2  777   3.015   1.191   2.155
  298TIP3   OH2  778   3.760   1.398   2.152
  298TIP3    H1  779   3.703   1.345   2.094
  298TIP3    H2  780   3.849   1.364   2.125
  299TIP3   OH2  781   4.025   1.918   1.735
  299TIP3    H1  782   3.929   1.915   1.746
  299TIP3    H2  783   4.052   1.971   1.814
  300TIP3   OH2  784   4.652   1.847   1.725
  300TIP3    H1  785   4.555   1.842   1.716
  300TIP3    H2  786   4.679   1.817   1.635
  301TIP3   OH2  787   4.137   1.803   0.539
  301TIP3    H1  788   4.128   1.733   0.605
  301TIP3    H2  789   4.128   1.753   0.456
  302TIP3   OH2  790   4.139   1.444   1.386
  302TIP3    H1  791   4.045   1.423   1.402
  302TIP3    H2  792   4.170   1.361   1.347
  303TIP3   OH2  793   3.528   2.010   1.612
  303TIP3    H1  794   3.569   2.082   1.561
  303TIP3    H2  795   3.605   1.977   1.662
  304TIP3   OH2  796   3.916   1.648   1.571
  304TIP3    H1  797   3.908   1.642   1.669
  304TIP3    H2  798   3.993   1.591   1.555
  305TIP3   OH2  799   4.163   2.181   1.623
  305TIP3    H1  800   4.085   2.123   1.614
  305TIP3    H2  801   4.149   2.244   1.550
  306TIP3   OH2  802   4.235   2.024   0.264
  306TIP3    H1  803   4.285   2.105   0.241
  306TIP3    H2  804   4.153   2.064   0.300
  307TIP3   OH2  805   4.057   1.510   0.726
  307TIP3    H1  806   4.079   1.426   0.771
  307TIP3    H2  807   4.116   1.500   0.648
  308TIP3   OH2  808   2.989   1.873   1.782
  308TIP3    H1  809   3.046   1.795   1.783
  308TIP3    H2  810   3.019   1.919   1.860
  309TIP3   OH2  811   4.086   0.851   1.813
  309TIP3    H1  812   4.163   0.895   1.854
  309TIP3    H2  813   4.071   0.774   1.873
  310TIP3   OH2  814   3.939   1.115   1.895
  310TIP3    H1  815   3.949   1.169   1.976
  310TIP3    H2  816   3.984   1.033   1.918
  311TIP3   OH2  817   4.564   1.006   1.877
  311TIP3    H1  818   4.466   0.999   1.882
  311TIP3    H2  819   4.579   0.966   1.790
  312TIP3   OH2  820   4.215   1.197   1.270
  312TIP3    H1  821   4.158   1.120   1.262
  312TIP3    H2  822   4.294   1.157   1.313
  313TIP3   OH2  823   4.183   2.153   1.215
  313TIP3    H1  824   4.141   2.201   1.141
  313TIP3    H2  825   4.278   2.171   1.195
  314TIP3   OH2  826   2.954   2.180   2.195
  314TIP3    H1  827   3.041   2.176   2.239
  314TIP3    H2  828   2.931   2.085   2.191
  315TIP3   OH2  829   3.439   2.148   2.236
  315TIP3    H1  830   3.532   2.125   2.244
  315TIP3    H2  831   3.412   2.089   2.163
  316TIP3   OH2  832   4.074   2.054   1.971
  316TIP3    H1  833   4.067   1.983   2.038
  316TIP3    H2  834   4.153   2.103   2.001
  317TIP3   OH2  835   3.096   1.589   2.401
  317TIP3    H1  836   3.110   1.493   2.406
  317TIP3    H2  837   3.008   1.594   2.358
  318TIP3   OH2  838   3.695   1.672   2.167
  318TIP3    H1  839   3.652   1.688   2.081
  318TIP3    H2  840   3.724   1.579   2.160
  319TIP3   OH2  841   4.191   1.678   1.779
  319TIP3    H1  842   4.262   1.723   1.730
  319TIP3    H2  843   4.117   1.739   1.763
  320TIP3   OH2  844   3.200   1.311   2.379
  320TIP3    H1  845   3.277   1.256   2.360
  320TIP3    H2  846   3.226   1.348   2.466
  321TIP3   OH2  847   3.522   1.198   2.060
  321TIP3    H1  848   3.448   1.262   2.063
  321TIP3    H2  849   3.570   1.231   1.981
  322TIP3   OH2  850   4.063   1.610   2.175
  322TIP3    H1  851   4.129   1.576   2.113
  322TIP3    H2  852   4.062   1.543   2.245
  323TIP3   OH2  853   3.666   0.989   2.166
  323TIP3    H1  854   3.651   0.906   2.116
  323TIP3    H2  855   3.616   1.054   2.112
  324TIP3   OH2  856   3.631   0.750   1.987
  324TIP3    H1  857   3.678   0.815   1.930
  324TIP3    H2  858   3.559   0.725   1.928
  325TIP3   OH2  859   3.665   1.311   1.865
  325TIP3    H1  860   3.693   1.255   1.790
  325TIP3    H2  861   3.631   1.389   1.817
  326TIP3   OH2  862   4.290   1.289   2.227
  326TIP3    H1  863   4.324   1.199   2.242
  326TIP3    H2  864   4.359   1.325   2.169
  327TIP3   OH2  865   4.318   1.547   1.980
  327TIP3    H1  866   4.261   1.595   1.916
  327TIP3    H2  867   4.405   1.561   1.936
  328TIP3   OH2  868   3.541   1.109   2.394
  328TIP3    H1  869   3.474   1.039   2.406
  328TIP3    H2  870   3.576   1.087   2.306
  329TIP3   OH2  871   3.801   0.541   2.035
  329TIP3    H1  872   3.751   0.625   2.022
  329TIP3    H2  873   3.739   0.478   1.997
  330TIP3   OH2  874   3.924   1.051   2.252
  330TIP3    H1  875   3.917   1.037   2.348
  330TIP3    H2  876   3.834   1.024   2.225
  331TIP3   OH2  877   4.167   1.005   2.112
  331TIP3    H1  878   4.089   1.000   2.171
  331TIP3    H2  879   4.238   0.969   2.169
  332TIP3   OH2  880   4.395   0.942   2.265
  332TIP3    H1  881   4.405   0.846   2.284
  332TIP3    H2  882   4.388   0.980   2.355
  333TIP3   OH2  883   3.385   0.888   2.442
  333TIP3    H1  884   3.387   0.796   2.408
  333TIP3    H2  885   3.420   0.875   2.532
  334TIP3   OH2  886   3.889   0.548   2.297
  334TIP3    H1  887   3.964   0.485   2.289
  334TIP3    H2  888   3.855   0.547   2.206
  335TIP3   OH2  889   3.955   0.766   2.456
  335TIP3    H1  890   3.932   0.697   2.390
  335TIP3    H2  891   3.879   0.828   2.448
  336TIP3   OH2  892   4.435   2.246   1.170
  336TIP3    H1  893   4.466   2.281   1.255
  336TIP3    H2  894   4.498   2.284   1.107
  337TIP3   OH2  895   4.466   2.266   1.455
  337TIP3    H1  896   4.423   2.178   1.447
  337TIP3    H2  897   4.544   2.242   1.507
  338TIP3   OH2  898   4.513   1.942   2.026
  338TIP3    H1  899   4.438   1.951   2.087
  338TIP3    H2  900   4.554   2.031   2.029
  339TIP3   OH2  901   4.337   1.489   0.672
  339TIP3    H1  902   4.415   1.528   0.630
  339TIP3    H2  903   4.375   1.413   0.720
  340TIP3   OH2  904   4.468   1.311   0.843
  340TIP3    H1  905   4.393   1.272   0.894
  340TIP3    H2  906   4.514   1.364   0.911
  341TIP3   OH2  907   4.509   1.712   1.281
  341TIP3    H1  908   4.562   1.648   1.230
  341TIP3    H2  909   4.504   1.788   1.220
  342TIP3   OH2  910   4.343   2.013   1.478
  342TIP3    H1  911   4.271   2.055   1.528
  342TIP3    H2  912   4.294   1.964   1.408
  343TIP3   OH2  913   4.283   1.176   0.999
  343TIP3    H1  914   4.249   1.086   0.984
  343TIP3    H2  915   4.267   1.190   1.094
  344TIP3   OH2  916   4.558   1.601   1.855
  344TIP3    H1  917   4.631   1.536   1.845
  344TIP3    H2  918   4.583   1.669   1.790
  345TIP3   OH2  919   4.743   1.409   1.878
  345TIP3    H1  920   4.669   1.355   1.912
  345TIP3    H2  921   4.817   1.344   1.887
  346TIP3   OH2  922   4.431   1.073   1.385
  346TIP3    H1  923   4.518   1.098   1.345
  346TIP3    H2  924   4.446   1.108   1.476
  347TIP3   OH2  925   4.499   1.212   1.619
  347TIP3    H1  926   4.422   1.248   1.667
  347TIP3    H2  927   4.531   1.292   1.571
  348TIP3   OH2  928   3.125   0.960   2.439
  348TIP3    H1  929   3.220   0.938   2.427
  348TIP3    H2  930   3.084   0.872   2.441
  349TIP3   OH2  931   4.946   0.800   2.174
  349TIP3    H1  932   5.006   0.735   2.132
  349TIP3    H2  933   4.922   0.857   2.099
  350TIP3   OH2  934   4.820   0.944   1.980
  350TIP3    H1  935   4.732   0.981   1.999
  350TIP3    H2  936   4.795   0.870   1.922
  351TIP3   OH2  937   4.025   2.110   0.833
  351TIP3    H1  938   4.068   2.088   0.748
  351TIP3    H2  939   4.086   2.176   0.869
  352TIP3   OH2  940   3.122   1.919   2.219
  352TIP3    H1  941   3.032   1.888   2.197
  352TIP3    H2  942   3.130   1.894   2.311
  353TIP3   OH2  943   3.303   1.947   1.765
  353TIP3    H1  944   3.247   2.015   1.724
  353TIP3    H2  945   3.386   1.965   1.718
  354TIP3   OH2  946   3.745   2.192   1.900
  354TIP3    H1  947   3.788   2.192   1.988
  354TIP3    H2  948   3.812   2.242   1.847
  355TIP3   OH2  949   3.923   2.343   1.756
  355TIP3    H1  950   3.994   2.291   1.713
  355TIP3    H2  951   3.976   2.399   1.816
  356TIP3   OH2  952   4.718   0.710   1.858
  356TIP3    H1  953   4.627   0.699   1.826
  356TIP3    H2  954   4.754   0.619   1.847
  357TIP3   OH2  955   2.984   2.222   1.777
  357TIP3    H1  956   2.891   2.247   1.757
  357TIP3    H2  957   2.979   2.214   1.873
  358TIP3   OH2  958   3.218   2.186   1.641
  358TIP3    H1  959   3.132   2.199   1.688
  358TIP3    H2  960   3.194   2.211   1.550
  359TIP3   OH2  961   3.639   2.211   1.441
  359TIP3    H1  962   3.571   2.230   1.374
  359TIP3    H2  963   3.652   2.300   1.481
  360TIP3   OH2  964   3.908   2.152   1.493
  360TIP3    H1  965   3.814   2.167   1.472
  360TIP3    H2  966   3.951   2.225   1.446
  361TIP3   OH2  967   4.115   2.344   1.406
  361TIP3    H1  968   4.101   2.428   1.358
  361TIP3    H2  969   4.141   2.283   1.333
  362TIP3   OH2  970   2.918   2.012   1.528
  362TIP3    H1  971   2.899   1.976   1.617
  362TIP3    H2  972   2.996   1.956   1.505
  363TIP3   OH2  973   3.105   1.861   1.408
  363TIP3    H1  974   3.123   1.779   1.459
  363TIP3    H2  975   3.195   1.895   1.390
  364TIP3   OH2  976   3.363   1.973   1.384
  364TIP3    H1  977   3.394   1.883   1.366
  364TIP3    H2  978   3.402   1.987   1.473
  365TIP3   OH2  979   4.464   0.504   1.403
  365TIP3    H1  980   4.505   0.544   1.323
  365TIP3    H2  981   4.372   0.495   1.377
  366TIP3   OH2  982   4.572   0.599   1.180
  366TIP3    H1  983   4.589   0.538   1.107
  366TIP3    H2  984   4.611   0.683   1.147
  367TIP3   OH2  985   4.164   2.070   0.595
  367TIP3    H1  986   4.157   1.973   0.579
  367TIP3    H2  987   4.119   2.105   0.515
  368TIP3   OH2  988   3.396   0.621   2.397
  368TIP3    H1  989   3.371   0.532   2.430
  368TIP3    H2  990   3.489   0.623   2.427
  369TIP3   OH2  991   3.644   0.611   2.509
  369TIP3    H1  992   3.727   0.583   2.468
  369TIP3    H2  993   3.630   0.540   2.575
  370TIP3   OH2  994   4.451   0.668   2.290
  370TIP3    H1  995   4.472   0.638   2.381
  370TIP3    H2  996   4.539   0.665   2.248
  371TIP3   OH2  997   4.392   2.220   1.786
  371TIP3    H1  998   4.314   2.188   1.735
  371TIP3    H2  999   4.374   2.317   1.785
  372TIP3   OH2 1000   5.642   1.602   0.563
  372TIP3    H1 1001   5.614   1.692   0.536
  372TIP3    H2 1002   5.569   1.550   0.524
  373TIP3   OH2 1003   5.663   1.592   0.929
  373TIP3    H1 1004   5.690   1.560   1.017
  373TIP3    H2 1005   5.617   1.514   0.894
  374TIP3   OH2 1006   4.958   1.490   1.298
  374TIP3    H1 1007   4.992   1.423   1.360
  374TIP3    H2 1008   5.038   1.541   1.281
  375TIP3   OH2 1009   5.908   1.887   0.611
  375TIP3    H1 1010   5.880   1.826   0.681
  375TIP3    H2 1011   5.929   1.967   0.662
  376TIP3   OH2 1012   4.929   1.898   1.025
  376TIP3    H1 1013   4.921   1.801   1.025
  376TIP3    H2 1014   5.026   1.906   1.013
  377TIP3   OH2 1015   4.638   1.098   0.810
  377TIP3    H1 1016   4.592   1.184   0.814
  377TIP3    H2 1017   4.563   1.039   0.803
  378TIP3   OH2 1018   4.702   1.395   0.983
  378TIP3    H1 1019   4.750   1.315   1.014
  378TIP3    H2 1020   4.746   1.413   0.899
  379TIP3   OH2 1021   5.551   2.357   0.627
  379TIP3    H1 1022   5.598   2.285   0.580
  379TIP3    H2 1023   5.542   2.320   0.715
  380TIP3   OH2 1024   5.456   1.818   0.979
  380TIP3    H1 1025   5.490   1.743   0.928
  380TIP3    H2 1026   5.541   1.860   1.003
  381TIP3   OH2 1027   6.416   1.182   1.015
  381TIP3    H1 1028   6.464   1.236   1.081
  381TIP3    H2 1029   6.486   1.173   0.948
  382TIP3   OH2 1030   5.876   1.324   1.007
  382TIP3    H1 1031   5.908   1.234   1.030
  382TIP3    H2 1032   5.837   1.306   0.919
  383TIP3   OH2 1033   5.201   0.976   0.979
  383TIP3    H1 1034   5.186   1.050   0.917
  383TIP3    H2 1035   5.152   0.905   0.932
  384TIP3   OH2 1036   4.840   1.179   1.085
  384TIP3    H1 1037   4.924   1.160   1.131
  384TIP3    H2 1038   4.853   1.126   1.004
  385TIP3   OH2 1039   5.282   1.381   0.878
  385TIP3    H1 1040   5.376   1.355   0.888
  385TIP3    H2 1041   5.242   1.298   0.845
  386TIP3   OH2 1042   6.554   1.371   1.150
  386TIP3    H1 1043   6.463   1.411   1.146
  386TIP3    H2 1044   6.566   1.369   1.246
  387TIP3   OH2 1045   5.202   0.962   1.411
  387TIP3    H1 1046   5.143   1.000   1.343
  387TIP3    H2 1047   5.151   0.982   1.492
  388TIP3   OH2 1048   5.562   1.823   0.411
  388TIP3    H1 1049   5.507   1.788   0.339
  388TIP3    H2 1050   5.509   1.901   0.438
  389TIP3   OH2 1051   5.310   1.738   1.207
  389TIP3    H1 1052   5.246   1.803   1.244
  389TIP3    H2 1053   5.351   1.789   1.135
  390TIP3   OH2 1054   5.074   1.078   1.197
  390TIP3    H1 1055   5.137   1.151   1.217
  390TIP3    H2 1056   5.121   1.036   1.121
  391TIP3   OH2 1057   5.137   1.931   1.305
  391TIP3    H1 1058   5.111   2.015   1.262
  391TIP3    H2 1059   5.058   1.916   1.361
  392TIP3   OH2 1060   4.551   1.618   0.552
  392TIP3    H1 1061   4.504   1.629   0.466
  392TIP3    H2 1062   4.565   1.710   0.580
  393TIP3   OH2 1063   5.974   2.135   0.777
  393TIP3    H1 1064   5.885   2.127   0.819
  393TIP3    H2 1065   5.966   2.222   0.733
  394TIP3   OH2 1066   6.233   1.044   1.164
  394TIP3    H1 1067   6.147   1.067   1.124
  394TIP3    H2 1068   6.296   1.080   1.098
  395TIP3   OH2 1069   5.570   0.715   1.138
  395TIP3    H1 1070   5.549   0.622   1.116
  395TIP3    H2 1071   5.486   0.742   1.181
  396TIP3   OH2 1072   5.679   2.183   0.458
  396TIP3    H1 1073   5.730   2.103   0.433
  396TIP3    H2 1074   5.736   2.252   0.416
  397TIP3   OH2 1075   5.823   1.962   0.357
  397TIP3    H1 1076   5.751   1.899   0.340
  397TIP3    H2 1077   5.855   1.933   0.445
  398TIP3   OH2 1078   6.200   2.051   1.122
  398TIP3    H1 1079   6.186   1.973   1.065
  398TIP3    H2 1080   6.179   2.126   1.062
  399TIP3   OH2 1081   5.497   1.454   0.373
  399TIP3    H1 1082   5.412   1.501   0.360
  399TIP3    H2 1083   5.525   1.443   0.280
  400TIP3   OH2 1084   6.390   1.679   0.956
  400TIP3    H1 1085   6.309   1.733   0.973
  400TIP3    H2 1086   6.419   1.720   0.872
  401TIP3   OH2 1087   5.831   1.536   0.384
  401TIP3    H1 1088   5.754   1.559   0.440
  401TIP3    H2 1089   5.902   1.541   0.450
  402TIP3   OH2 1090   6.073   1.568   1.262
  402TIP3    H1 1091   6.069   1.650   1.314
  402TIP3    H2 1092   5.985   1.570   1.219
  403TIP3   OH2 1093   5.069   1.526   0.769
  403TIP3    H1 1094   5.026   1.467   0.702
  403TIP3    H2 1095   5.146   1.472   0.795
  404TIP3   OH2 1096   5.196   1.935   0.918
  404TIP3    H1 1097   5.175   1.895   0.832
  404TIP3    H2 1098   5.287   1.901   0.934
  405TIP3   OH2 1099   5.207   1.495   1.125
  405TIP3    H1 1100   5.237   1.474   1.034
  405TIP3    H2 1101   5.249   1.581   1.143
  406TIP3   OH2 1102   5.736   2.133   0.900
  406TIP3    H1 1103   5.717   2.213   0.953
  406TIP3    H2 1104   5.718   2.060   0.964
  407TIP3   OH2 1105   5.343   2.053   1.447
  407TIP3    H1 1106   5.284   2.116   1.493
  407TIP3    H2 1107   5.277   1.999   1.398
  408TIP3   OH2 1108   5.098   1.609   1.550
  408TIP3    H1 1109   5.101   1.696   1.594
  408TIP3    H2 1110   5.002   1.591   1.552
  409TIP3   OH2 1111   5.422   2.062   0.461
  409TIP3    H1 1112   5.493   2.126   0.476
  409TIP3    H2 1113   5.359   2.111   0.407
  410TIP3   OH2 1114   5.138   2.223   1.533
  410TIP3    H1 1115   5.104   2.219   1.441
  410TIP3    H2 1116   5.058   2.200   1.585
  411TIP3   OH2 1117   4.936   1.363   0.586
  411TIP3    H1 1118   4.878   1.418   0.528
  411TIP3    H2 1119   4.887   1.281   0.587
  412TIP3   OH2 1120   4.716   1.752   1.480
  412TIP3    H1 1121   4.653   1.730   1.409
  412TIP3    H2 1122   4.753   1.665   1.504
  413TIP3   OH2 1123   4.571   1.941   1.120
  413TIP3    H1 1124   4.666   1.935   1.101
  413TIP3    H2 1125   4.566   2.024   1.169
  414TIP3   OH2 1126   6.436   2.394   1.169
  414TIP3    H1 1127   6.434   2.298   1.185
  414TIP3    H2 1128   6.352   2.421   1.214
  415TIP3   OH2 1129   5.543   2.182   1.304
  415TIP3    H1 1130   5.541   2.275   1.336
  415TIP3    H2 1131   5.471   2.142   1.358
  416TIP3   OH2 1132   5.301   2.312   0.254
  416TIP3    H1 1133   5.253   2.286   0.173
  416TIP3    H2 1134   5.267   2.402   0.272
  417TIP3   OH2 1135   4.739   2.162   0.639
  417TIP3    H1 1136   4.786   2.150   0.724
  417TIP3    H2 1137   4.687   2.079   0.636
  418TIP3   OH2 1138   5.487   2.225  -0.077
  418TIP3    H1 1139   5.559   2.175  -0.120
  418TIP3    H2 1140   5.523   2.233   0.013
  419TIP3   OH2 1141   5.556   2.266   0.182
  419TIP3    H1 1142   5.464   2.271   0.216
  419TIP3    H2 1143   5.600   2.215   0.252
  420TIP3   OH2 1144   6.327   1.530   1.442
  420TIP3    H1 1145   6.243   1.540   1.394
  420TIP3    H2 1146   6.344   1.435   1.431
  421TIP3   OH2 1147   4.922   1.935   1.472
  421TIP3    H1 1148   4.972   1.916   1.553
  421TIP3    H2 1149   4.848   1.871   1.477
  422TIP3   OH2 1150   5.318   0.761   1.251
  422TIP3    H1 1151   5.229   0.729   1.227
  422TIP3    H2 1152   5.293   0.843   1.298
  423TIP3   OH2 1153   5.854   0.880   1.452
  423TIP3    H1 1154   5.925   0.850   1.513
  423TIP3    H2 1155   5.773   0.859   1.501
  424TIP3   OH2 1156   6.095   1.305   1.367
  424TIP3    H1 1157   6.047   1.297   1.453
  424TIP3    H2 1158   6.066   1.391   1.333
  425TIP3   OH2 1159   5.253   1.271   1.272
  425TIP3    H1 1160   5.203   1.294   1.353
  425TIP3    H2 1161   5.239   1.352   1.218
  426TIP3   OH2 1162   5.138   1.162   0.792
  426TIP3    H1 1163   5.044   1.138   0.802
  426TIP3    H2 1164   5.155   1.131   0.700
  427TIP3   OH2 1165   5.586   1.270   0.552
  427TIP3    H1 1166   5.533   1.339   0.507
  427TIP3    H2 1167   5.630   1.233   0.474
  428TIP3   OH2 1168   5.802   1.526   1.601
  428TIP3    H1 1169   5.779   1.451   1.661
  428TIP3    H2 1170   5.897   1.537   1.622
  429TIP3   OH2 1171   5.792   1.273   0.742
  429TIP3    H1 1172   5.715   1.304   0.690
  429TIP3    H2 1173   5.806   1.187   0.696
  430TIP3   OH2 1174   5.071   1.303   1.481
  430TIP3    H1 1175   5.103   1.365   1.549
  430TIP3    H2 1176   5.061   1.221   1.533
  431TIP3   OH2 1177   4.677   0.814   1.056
  431TIP3    H1 1178   4.738   0.854   1.122
  431TIP3    H2 1179   4.718   0.839   0.973
  432TIP3   OH2 1180   5.800   1.521   1.177
  432TIP3    H1 1181   5.831   1.448   1.117
  432TIP3    H2 1182   5.769   1.468   1.253
  433TIP3   OH2 1183   5.457   1.005   0.855
  433TIP3    H1 1184   5.377   0.989   0.909
  433TIP3    H2 1185   5.528   0.973   0.912
  434TIP3   OH2 1186   4.898   1.033   0.860
  434TIP3    H1 1187   4.807   1.046   0.825
  434TIP3    H2 1188   4.925   0.947   0.825
  435TIP3   OH2 1189   5.177   1.053   0.547
  435TIP3    H1 1190   5.274   1.037   0.543
  435TIP3    H2 1191   5.153   1.055   0.454
  436TIP3   OH2 1192   5.943   1.056   1.046
  436TIP3    H1 1193   5.915   1.068   1.140
  436TIP3    H2 1194   5.874   0.994   1.015
  437TIP3   OH2 1195   6.125   2.746   1.267
  437TIP3    H1 1196   6.123   2.769   1.173
  437TIP3    H2 1197   6.203   2.796   1.298
  438TIP3   OH2 1198   5.082   1.856   1.691
  438TIP3    H1 1199   5.163   1.886   1.737
  438TIP3    H2 1200   5.018   1.857   1.765
  439TIP3   OH2 1201   5.552   1.315   0.950
  439TIP3    H1 1202   5.598   1.251   0.893
  439TIP3    H2 1203   5.555   1.270   1.036
  440TIP3   OH2 1204   5.069   0.796   0.817
  440TIP3    H1 1205   5.051   0.707   0.854
  440TIP3    H2 1206   5.124   0.777   0.741
  441TIP3   OH2 1207   5.524   1.206   1.233
  441TIP3    H1 1208   5.435   1.242   1.248
  441TIP3    H2 1209   5.582   1.265   1.285
  442TIP3   OH2 1210   5.274   1.599   0.337
  442TIP3    H1 1211   5.207   1.528   0.324
  442TIP3    H2 1212   5.245   1.636   0.423
  443TIP3   OH2 1213   6.163   1.831   0.959
  443TIP3    H1 1214   6.182   1.882   0.878
  443TIP3    H2 1215   6.074   1.793   0.940
  444TIP3   OH2 1216   5.663   1.916   1.326
  444TIP3    H1 1217   5.681   1.891   1.417
  444TIP3    H2 1218   5.622   2.004   1.335
  445TIP3   OH2 1219   4.956   1.622   1.007
  445TIP3    H1 1220   4.989   1.594   0.919
  445TIP3    H2 1221   4.990   1.552   1.064
  446TIP3   OH2 1222   5.415   1.753   0.155
  446TIP3    H1 1223   5.367   1.839   0.162
  446TIP3    H2 1224   5.355   1.695   0.208
  447TIP3   OH2 1225   4.830   1.542   1.620
  447TIP3    H1 1226   4.855   1.526   1.713
  447TIP3    H2 1227   4.765   1.472   1.603
  448TIP3   OH2 1228   5.558   1.653   1.639
  448TIP3    H1 1229   5.501   1.595   1.586
  448TIP3    H2 1230   5.647   1.620   1.612
  449TIP3   OH2 1231   5.822   2.175   1.222
  449TIP3    H1 1232   5.726   2.172   1.233
  449TIP3    H2 1233   5.849   2.227   1.301
  450TIP3   OH2 1234   6.449   2.102   1.214
  450TIP3    H1 1235   6.351   2.098   1.206
  450TIP3    H2 1236   6.474   2.076   1.122
  451TIP3   OH2 1237   5.937   2.054   0.037
  451TIP3    H1 1238   5.909   2.017   0.121
  451TIP3    H2 1239   5.869   2.021  -0.024
  452TIP3   OH2 1240   5.924   1.697   0.879
  452TIP3    H1 1241   5.831   1.673   0.895
  452TIP3    H2 1242   5.955   1.616   0.835
  453TIP3   OH2 1243   5.052   1.923   0.635
  453TIP3    H1 1244   5.055   2.003   0.578
  453TIP3    H2 1245   4.959   1.901   0.632
  454TIP3   OH2 1246   4.598   1.279   0.339
  454TIP3    H1 1247   4.651   1.358   0.363
  454TIP3    H2 1248   4.507   1.311   0.350
  455TIP3   OH2 1249   5.200   1.693   0.583
  455TIP3    H1 1250   5.160   1.781   0.596
  455TIP3    H2 1251   5.155   1.641   0.652
  456TIP3   OH2 1252   5.322   2.266   1.101
  456TIP3    H1 1253   5.362   2.339   1.048
  456TIP3    H2 1254   5.400   2.233   1.148
  457TIP3   OH2 1255   4.975   2.162   0.487
  457TIP3    H1 1256   4.888   2.170   0.530
  457TIP3    H2 1257   5.005   2.256   0.487
  458TIP3   OH2 1258   5.713   1.901   1.058
  458TIP3    H1 1259   5.702   1.900   1.156
  458TIP3    H2 1260   5.792   1.846   1.047
  459TIP3   OH2 1261   5.746   1.837  -0.034
  459TIP3    H1 1262   5.782   1.795   0.047
  459TIP3    H2 1263   5.669   1.884   0.000
  460TIP3   OH2 1264   5.961   2.435   1.108
  460TIP3    H1 1265   5.882   2.378   1.101
  460TIP3    H2 1266   5.945   2.500   1.036
  461TIP3   OH2 1267   6.004   2.271  -0.189
  461TIP3    H1 1268   6.055   2.321  -0.237
  461TIP3    H2 1269   5.921   2.337  -0.170
  462TIP3   OH2 1270   5.046   1.046   1.628
  462TIP3    H1 1271   4.950   1.049   1.641
  462TIP3    H2 1272   5.074   0.985   1.698
  463TIP3   OH2 1273   5.856   1.723   0.186
  463TIP3    H1 1274   5.831   1.658   0.255
  463TIP3    H2 1275   5.929   1.769   0.227
  464TIP3   OH2 1276   4.759   2.132   1.261
  464TIP3    H1 1277   4.811   2.054   1.284
  464TIP3    H2 1278   4.796   2.197   1.322
  465TIP3   OH2 1279   5.046   1.785  -0.073
  465TIP3    H1 1280   5.064   1.691  -0.089
  465TIP3    H2 1281   5.026   1.782   0.023
  466TIP3   OH2 1282   5.055   1.787   0.200
  466TIP3    H1 1283   5.024   1.733   0.273
  466TIP3    H2 1284   5.014   1.874   0.217
  467TIP3   OH2 1285   4.757   1.485   0.426
  467TIP3    H1 1286   4.690   1.539   0.473
  467TIP3    H2 1287   4.760   1.530   0.338
  468TIP3   OH2 1288   5.883   1.110   1.307
  468TIP3    H1 1289   5.964   1.146   1.347
  468TIP3    H2 1290   5.868   1.029   1.360
  469TIP3   OH2 1291   5.281   1.991   0.169
  469TIP3    H1 1292   5.188   1.991   0.198
  469TIP3    H2 1293   5.272   2.023   0.078
  470TIP3   OH2 1294   5.448   1.029   0.578
  470TIP3    H1 1295   5.504   1.109   0.573
  470TIP3    H2 1296   5.455   1.008   0.673
  471TIP3   OH2 1297   5.721   1.359   1.383
  471TIP3    H1 1298   5.740   1.413   1.463
  471TIP3    H2 1299   5.777   1.281   1.398
  472TIP3   OH2 1300   5.002   2.054   0.230
  472TIP3    H1 1301   4.975   2.125   0.168
  472TIP3    H2 1302   4.990   2.098   0.317
  473TIP3   OH2 1303   6.360   1.268   1.348
  473TIP3    H1 1304   6.263   1.269   1.363
  473TIP3    H2 1305   6.365   1.194   1.286
  474TIP3   OH2 1306   6.003   1.460   0.745
  474TIP3    H1 1307   5.926   1.400   0.751
  474TIP3    H2 1308   6.068   1.414   0.803
  475TIP3   OH2 1309   5.980   2.407   0.701
  475TIP3    H1 1310   5.937   2.454   0.627
  475TIP3    H2 1311   6.074   2.427   0.680
  476TIP3   OH2 1312   5.053   0.680   1.230
  476TIP3    H1 1313   5.026   0.640   1.144
  476TIP3    H2 1314   5.046   0.603   1.290
  477TIP3   OH2 1315   4.604   1.911   0.616
  477TIP3    H1 1316   4.520   1.931   0.659
  477TIP3    H2 1317   4.584   1.938   0.524
  478TIP3   OH2 1318   4.751   2.436   1.682
  478TIP3    H1 1319   4.838   2.435   1.727
  478TIP3    H2 1320   4.731   2.341   1.678
  479TIP3   OH2 1321   5.234   2.404   1.725
  479TIP3    H1 1322   5.328   2.384   1.733
  479TIP3    H2 1323   5.209   2.346   1.650
  480TIP3   OH2 1324   5.222   1.982  -0.116
  480TIP3    H1 1325   5.149   1.918  -0.104
  480TIP3    H2 1326   5.280   1.934  -0.176
  481TIP3   OH2 1327   5.873   2.309   1.458
  481TIP3    H1 1328   5.864   2.238   1.526
  481TIP3    H2 1329   5.951   2.359   1.489
  482TIP3   OH2 1330   5.712   2.094  -0.153
  482TIP3    H1 1331   5.710   2.009  -0.199
  482TIP3    H2 1332   5.747   2.151  -0.224
  483TIP3   OH2 1333   4.881   1.843   1.882
  483TIP3    H1 1334   4.900   1.747   1.882
  483TIP3    H2 1335   4.794   1.845   1.836
  484TIP3   OH2 1336   5.490   1.928   1.654
  484TIP3    H1 1337   5.449   1.943   1.567
  484TIP3    H2 1338   5.522   1.835   1.647
  485TIP3   OH2 1339   5.274   1.614  -0.088
  485TIP3    H1 1340   5.275   1.686  -0.023
  485TIP3    H2 1341   5.366   1.622  -0.121
  486TIP3   OH2 1342   5.984   1.935   1.258
  486TIP3    H1 1343   6.056   1.985   1.216
  486TIP3    H2 1344   5.910   1.998   1.248
  487TIP3   OH2 1345   5.000   1.575   1.863
  487TIP3    H1 1346   5.077   1.523   1.838
  487TIP3    H2 1347   5.026   1.609   1.951
  488TIP3   OH2 1348   5.111   1.383   0.322
  488TIP3    H1 1349   5.041   1.355   0.383
  488TIP3    H2 1350   5.090   1.334   0.240
  489TIP3   OH2 1351   5.335   1.461   1.523
  489TIP3    H1 1352   5.259   1.523   1.528
  489TIP3    H2 1353   5.384   1.495   1.445
  490TIP3   OH2 1354   5.853   1.864   1.658
  490TIP3    H1 1355   5.935   1.842   1.612
  490TIP3    H2 1356   5.851   1.797   1.729
  491TIP3   OH2 1357   5.457   1.250   1.653
  491TIP3    H1 1358   5.460   1.170   1.596
  491TIP3    H2 1359   5.416   1.316   1.593
  492TIP3   OH2 1360   5.460   1.040   1.456
  492TIP3    H1 1361   5.489   1.078   1.371
  492TIP3    H2 1362   5.367   1.016   1.437
  493TIP3   OH2 1363   5.491   1.575   1.332
  493TIP3    H1 1364   5.572   1.578   1.280
  493TIP3    H2 1365   5.434   1.641   1.287
  494TIP3   OH2 1366   6.072   1.540   1.712
  494TIP3    H1 1367   6.117   1.456   1.729
  494TIP3    H2 1368   6.145   1.595   1.680
  495TIP3   OH2 1369   6.113   1.793   1.447
  495TIP3    H1 1370   6.055   1.846   1.388
  495TIP3    H2 1371   6.201   1.811   1.406
  496TIP3   OH2 1372   5.334   1.366   1.880
  496TIP3    H1 1373   5.267   1.295   1.893
  496TIP3    H2 1374   5.372   1.339   1.794
  497TIP3   OH2 1375   5.594   0.808   1.527
  497TIP3    H1 1376   5.543   0.888   1.503
  497TIP3    H2 1377   5.529   0.736   1.513
  498TIP3   OH2 1378   5.720   1.308   1.740
  498TIP3    H1 1379   5.714   1.295   1.836
  498TIP3    H2 1380   5.629   1.281   1.714
  499TIP3   OH2 1381   5.960   1.255   1.595
  499TIP3    H1 1382   5.885   1.254   1.657
  499TIP3    H2 1383   6.034   1.223   1.651
  500TIP3   OH2 1384   6.187   1.195   1.745
  500TIP3    H1 1385   6.202   1.099   1.764
  500TIP3    H2 1386   6.184   1.234   1.835
  501TIP3   OH2 1387   5.176   1.144   1.934
  501TIP3    H1 1388   5.186   1.054   1.896
  501TIP3    H2 1389   5.213   1.131   2.023
  502TIP3   OH2 1390   5.687   0.810   1.784
  502TIP3    H1 1391   5.757   0.742   1.779
  502TIP3    H2 1392   5.650   0.804   1.694
  503TIP3   OH2 1393   5.754   1.025   1.941
  503TIP3    H1 1394   5.732   0.954   1.877
  503TIP3    H2 1395   5.677   1.085   1.933
  504TIP3   OH2 1396   4.964   2.259   0.047
  504TIP3    H1 1397   5.059   2.257   0.022
  504TIP3    H2 1398   4.923   2.287  -0.035
  505TIP3   OH2 1399   4.457   1.626   0.297
  505TIP3    H1 1400   4.545   1.638   0.254
  505TIP3    H2 1401   4.419   1.564   0.232
  506TIP3   OH2 1402   4.364   2.248   0.669
  506TIP3    H1 1403   4.299   2.183   0.635
  506TIP3    H2 1404   4.412   2.194   0.736
  507TIP3   OH2 1405   4.499   2.108   0.860
  507TIP3    H1 1406   4.494   2.027   0.912
  507TIP3    H2 1407   4.555   2.163   0.917
  508TIP3   OH2 1408   6.234   2.495   0.658
  508TIP3    H1 1409   6.259   2.534   0.744
  508TIP3    H2 1410   6.290   2.544   0.596
  509TIP3   OH2 1411   6.263   2.521   0.940
  509TIP3    H1 1412   6.220   2.434   0.934
  509TIP3    H2 1413   6.337   2.500   0.997
  510TIP3   OH2 1414   6.308   2.198   1.510
  510TIP3    H1 1415   6.236   2.205   1.575
  510TIP3    H2 1416   6.349   2.286   1.517
  511TIP3   OH2 1417   6.306   1.967   0.767
  511TIP3    H1 1418   6.363   1.922   0.703
  511TIP3    H2 1419   6.289   2.051   0.719
  512TIP3   OH2 1420   6.138   2.269   0.964
  512TIP3    H1 1421   6.069   2.314   1.016
  512TIP3    H2 1422   6.085   2.223   0.895
  513TIP3   OH2 1423   6.198   1.453   0.553
  513TIP3    H1 1424   6.157   1.407   0.476
  513TIP3    H2 1425   6.122   1.448   0.615
  514TIP3   OH2 1426   4.693   1.507   1.233
  514TIP3    H1 1427   4.691   1.477   1.139
  514TIP3    H2 1428   4.791   1.510   1.248
  515TIP3   OH2 1429   6.356   1.858   1.338
  515TIP3    H1 1430   6.428   1.792   1.330
  515TIP3    H2 1431   6.386   1.930   1.281
  516TIP3   OH2 1432   6.542   1.665   1.353
  516TIP3    H1 1433   6.468   1.615   1.394
  516TIP3    H2 1434   6.615   1.602   1.371
  517TIP3   OH2 1435   6.220   1.354   0.866
  517TIP3    H1 1436   6.313   1.364   0.843
  517TIP3    H2 1437   6.225   1.354   0.964
  518TIP3   OH2 1438   6.294   1.470   1.112
  518TIP3    H1 1439   6.214   1.497   1.161
  518TIP3    H2 1440   6.318   1.553   1.065
  519TIP3   OH2 1441   4.909   1.195   1.904
  519TIP3    H1 1442   5.007   1.189   1.905
  519TIP3    H2 1443   4.886   1.110   1.945
  520TIP3   OH2 1444   6.732   1.075   1.665
  520TIP3    H1 1445   6.793   1.005   1.635
  520TIP3    H2 1446   6.713   1.126   1.583
  521TIP3   OH2 1447   4.870   0.889   1.240
  521TIP3    H1 1448   4.932   0.813   1.246
  521TIP3    H2 1449   4.933   0.963   1.231
  522TIP3   OH2 1450   4.677   1.161   1.309
  522TIP3    H1 1451   4.725   1.153   1.224
  522TIP3    H2 1452   4.704   1.250   1.337
  523TIP3   OH2 1453   6.616   1.207   1.460
  523TIP3    H1 1454   6.531   1.240   1.494
  523TIP3    H2 1455   6.583   1.131   1.408
  524TIP3   OH2 1456   5.821   2.365   0.323
  524TIP3    H1 1457   5.865   2.349   0.237
  524TIP3    H2 1458   5.874   2.437   0.359
  525TIP3   OH2 1459   4.876   0.742   1.623
  525TIP3    H1 1460   4.827   0.740   1.706
  525TIP3    H2 1461   4.810   0.782   1.563
  526TIP3   OH2 1462   4.918   2.171   1.701
  526TIP3    H1 1463   4.827   2.142   1.683
  526TIP3    H2 1464   4.927   2.153   1.795
  527TIP3   OH2 1465   5.095   2.203   1.249
  527TIP3    H1 1466   5.047   2.278   1.209
  527TIP3    H2 1467   5.181   2.215   1.204
  528TIP3   OH2 1468   5.542   2.448   1.386
  528TIP3    H1 1469   5.584   2.449   1.474
  528TIP3    H2 1470   5.608   2.498   1.334
  529TIP3   OH2 1471   5.720   2.599   1.244
  529TIP3    H1 1472   5.791   2.548   1.202
  529TIP3    H2 1473   5.772   2.656   1.304
  530TIP3   OH2 1474   6.490   0.980   1.360
  530TIP3    H1 1475   6.416   0.962   1.300
  530TIP3    H2 1476   6.553   0.910   1.335
  531TIP3   OH2 1477   4.773   2.461   1.270
  531TIP3    H1 1478   4.685   2.495   1.246
  531TIP3    H2 1479   4.780   2.494   1.360
  532TIP3   OH2 1480   5.010   2.439   1.129
  532TIP3    H1 1481   4.923   2.452   1.173
  532TIP3    H2 1482   4.990   2.471   1.038
  533TIP3   OH2 1483   5.435   2.468   0.927
  533TIP3    H1 1484   5.366   2.487   0.860
  533TIP3    H2 1485   5.448   2.556   0.968
  534TIP3   OH2 1486   5.703   2.408   0.977
  534TIP3    H1 1487   5.608   2.423   0.958
  534TIP3    H2 1488   5.744   2.484   0.934
  535TIP3   OH2 1489   5.913   2.600   0.893
  535TIP3    H1 1490   5.897   2.685   0.846
  535TIP3    H2 1491   5.936   2.541   0.819
  536TIP3   OH2 1492   4.683   2.254   1.018
  536TIP3    H1 1493   4.712   2.229   1.109
  536TIP3    H2 1494   4.755   2.212   0.966
  537TIP3   OH2 1495   4.876   2.127   0.874
  537TIP3    H1 1496   4.893   2.041   0.920
  537TIP3    H2 1497   4.967   2.163   0.867
  538TIP3   OH2 1498   5.143   2.223   0.874
  538TIP3    H1 1499   5.174   2.131   0.858
  538TIP3    H2 1500   5.187   2.240   0.959
  539TIP3   OH2 1501   5.732   0.879   0.971
  539TIP3    H1 1502   5.679   0.825   1.033
  539TIP3    H2 1503   5.761   0.812   0.907
  540TIP3   OH2 1504   4.982   0.566   0.986
  540TIP3    H1 1505   4.895   0.534   0.960
  540TIP3    H2 1506   5.037   0.489   0.964
  541TIP3   OH2 1507   4.472   2.024   0.410
  541TIP3    H1 1508   4.392   1.985   0.372
  541TIP3    H2 1509   4.454   2.118   0.398
  542TIP3   OH2 1510   5.225   2.234  -0.018
  542TIP3    H1 1511   5.318   2.250  -0.046
  542TIP3    H2 1512   5.214   2.147  -0.065
  543TIP3   OH2 1513   5.959   2.328   0.093
  543TIP3    H1 1514   5.965   2.235   0.063
  543TIP3    H2 1515   5.911   2.366   0.013
  544TIP3   OH2 1516   5.176   0.864   1.869
  544TIP3    H1 1517   5.144   0.794   1.929
  544TIP3    H2 1518   5.271   0.867   1.895
  545TIP3   OH2 1519   5.424   0.864   1.988
  545TIP3    H1 1520   5.510   0.841   1.948
  545TIP3    H2 1521   5.415   0.792   2.055
  546TIP3   OH2 1522   4.561   2.070   0.063
  546TIP3    H1 1523   4.546   2.088   0.156
  546TIP3    H2 1524   4.633   2.006   0.065
  547TIP3   OH2 1525   6.246   0.927   1.779
  547TIP3    H1 1526   6.266   0.893   1.869
  547TIP3    H2 1527   6.333   0.916   1.735
  548TIP3   OH2 1528   6.190   2.477   1.269
  548TIP3    H1 1529   6.111   2.445   1.222
  548TIP3    H2 1530   6.170   2.573   1.273
  549TIP3   OH2 1531   6.757   1.755   0.795
  549TIP3    H1 1532   6.778   1.679   0.854
  549TIP3    H2 1533   6.819   1.820   0.831
  550TIP3   OH2 1534   6.724   2.173   0.515
  550TIP3    H1 1535   6.710   2.079   0.540
  550TIP3    H2 1536   6.821   2.173   0.499
  551TIP3   OH2 1537   7.372   2.574   0.123
  551TIP3    H1 1538   7.362   2.480   0.110
  551TIP3    H2 1539   7.347   2.582   0.216
  552TIP3   OH2 1540   7.101   1.996   0.705
  552TIP3    H1 1541   7.029   2.056   0.736
  552TIP3    H2 1542   7.149   2.055   0.646
  553TIP3   OH2 1543   6.928   2.189   0.788
  553TIP3    H1 1544   6.905   2.276   0.750
  553TIP3    H2 1545   6.851   2.176   0.848
  554TIP3   OH2 1546   7.940   2.309   0.618
  554TIP3    H1 1547   7.876   2.266   0.559
  554TIP3    H2 1548   7.932   2.402   0.589
  555TIP3   OH2 1549   6.990   2.178   0.407
  555TIP3    H1 1550   6.979   2.149   0.315
  555TIP3    H2 1551   7.085   2.189   0.414
  556TIP3   OH2 1552   7.459   2.401   0.372
  556TIP3    H1 1553   7.497   2.485   0.403
  556TIP3    H2 1554   7.499   2.338   0.436
  557TIP3   OH2 1555   7.137   2.306   0.934
  557TIP3    H1 1556   7.079   2.371   0.981
  557TIP3    H2 1557   7.069   2.255   0.885
  558TIP3   OH2 1558   6.888   1.868   1.030
  558TIP3    H1 1559   6.900   1.952   1.079
  558TIP3    H2 1560   6.795   1.848   1.054
  559TIP3   OH2 1561   6.934   2.478   1.020
  559TIP3    H1 1562   6.899   2.476   0.929
  559TIP3    H2 1563   6.855   2.457   1.074
  560TIP3   OH2 1564   6.514   2.007   0.967
  560TIP3    H1 1565   6.444   1.984   0.904
  560TIP3    H2 1566   6.547   1.920   0.999
  561TIP3   OH2 1567   6.371   2.196   0.609
  561TIP3    H1 1568   6.465   2.207   0.593
  561TIP3    H2 1569   6.349   2.280   0.653
  562TIP3   OH2 1570   8.233   2.663   0.656
  562TIP3    H1 1571   8.233   2.565   0.667
  562TIP3    H2 1572   8.147   2.684   0.700
  563TIP3   OH2 1573   7.337   2.435   0.794
  563TIP3    H1 1574   7.340   2.529   0.824
  563TIP3    H2 1575   7.264   2.400   0.849
  564TIP3   OH2 1576   6.525   2.427   0.134
  564TIP3    H1 1577   6.572   2.413   0.218
  564TIP3    H2 1578   6.471   2.345   0.130
  565TIP3   OH2 1579   6.719   2.190   0.958
  565TIP3    H1 1580   6.768   2.175   1.041
  565TIP3    H2 1581   6.644   2.128   0.967
  566TIP3   OH2 1582   7.603   1.800   1.100
  566TIP3    H1 1583   7.579   1.718   1.148
  566TIP3    H2 1584   7.700   1.800   1.110
  567TIP3   OH2 1585   6.839   1.553   0.971
  567TIP3    H1 1586   6.893   1.615   1.021
  567TIP3    H2 1587   6.842   1.474   1.029
  568TIP3   OH2 1588   7.922   3.001   0.757
  568TIP3    H1 1589   7.918   3.024   0.662
  568TIP3    H2 1590   7.998   3.056   0.787
  569TIP3   OH2 1591   6.880   2.111   1.177
  569TIP3    H1 1592   6.959   2.143   1.225
  569TIP3    H2 1593   6.815   2.112   1.250
  570TIP3   OH2 1594   7.457   2.179   0.817
  570TIP3    H1 1595   7.470   2.149   0.908
  570TIP3    H2 1596   7.409   2.262   0.827
  571TIP3   OH2 1597   6.714   1.902   0.566
  571TIP3    H1 1598   6.760   1.862   0.489
  571TIP3    H2 1599   6.748   1.851   0.641
  572TIP3   OH2 1600   6.627   1.797   1.107
  572TIP3    H1 1601   6.657   1.791   1.200
  572TIP3    H2 1602   6.565   1.722   1.105
  573TIP3   OH2 1603   7.354   1.910   1.124
  573TIP3    H1 1604   7.310   1.872   1.045
  573TIP3    H2 1605   7.446   1.878   1.109
  574TIP3   OH2 1606   7.638   2.477   0.708
  574TIP3    H1 1607   7.546   2.446   0.702
  574TIP3    H2 1608   7.641   2.514   0.799
  575TIP3   OH2 1609   8.242   2.388   0.696
  575TIP3    H1 1610   8.157   2.366   0.738
  575TIP3    H2 1611   8.240   2.331   0.617
  576TIP3   OH2 1612   6.783   2.205   0.124
  576TIP3    H1 1613   6.789   2.285   0.066
  576TIP3    H2 1614   6.688   2.198   0.135
  577TIP3   OH2 1615   7.120   2.520   0.585
  577TIP3    H1 1616   7.159   2.593   0.534
  577TIP3    H2 1617   7.198   2.488   0.634
  578TIP3   OH2 1618   6.733   2.420  -0.041
  578TIP3    H1 1619   6.654   2.438   0.014
  578TIP3    H2 1620   6.781   2.505  -0.038
  579TIP3   OH2 1621   7.556   2.226   0.568
  579TIP3    H1 1622   7.512   2.206   0.653
  579TIP3    H2 1623   7.632   2.164   0.570
  580TIP3   OH2 1624   7.766   2.699   0.595
  580TIP3    H1 1625   7.696   2.630   0.602
  580TIP3    H2 1626   7.732   2.756   0.521
  581TIP3   OH2 1627   6.849   1.318   1.118
  581TIP3    H1 1628   6.753   1.323   1.133
  581TIP3    H2 1629   6.869   1.241   1.174
  582TIP3   OH2 1630   6.559   2.388   0.747
  582TIP3    H1 1631   6.611   2.313   0.779
  582TIP3    H2 1632   6.585   2.458   0.808
  583TIP3   OH2 1633   7.786   2.684   0.193
  583TIP3    H1 1634   7.738   2.736   0.124
  583TIP3    H2 1635   7.878   2.702   0.166
  584TIP3   OH2 1636   6.414   2.176   0.118
  584TIP3    H1 1637   6.323   2.174   0.149
  584TIP3    H2 1638   6.397   2.187   0.022
  585TIP3   OH2 1639   6.548   2.693   1.167
  585TIP3    H1 1640   6.634   2.693   1.214
  585TIP3    H2 1641   6.526   2.599   1.166
  586TIP3   OH2 1642   7.031   2.661   1.211
  586TIP3    H1 1643   7.125   2.641   1.220
  586TIP3    H2 1644   7.007   2.602   1.137
  587TIP3   OH2 1645   7.664   2.575   0.961
  587TIP3    H1 1646   7.659   2.500   1.024
  587TIP3    H2 1647   7.746   2.621   0.989
  588TIP3   OH2 1648   6.680   2.102   1.367
  588TIP3    H1 1649   6.696   2.006   1.375
  588TIP3    H2 1650   6.591   2.103   1.326
  589TIP3   OH2 1651   7.289   2.185   1.140
  589TIP3    H1 1652   7.244   2.199   1.055
  589TIP3    H2 1653   7.318   2.092   1.135
  590TIP3   OH2 1654   7.764   2.200   0.803
  590TIP3    H1 1655   7.829   2.258   0.758
  590TIP3    H2 1656   7.681   2.247   0.784
  591TIP3   OH2 1657   6.799   1.833   1.345
  591TIP3    H1 1658   6.870   1.769   1.334
  591TIP3    H2 1659   6.820   1.867   1.434
  592TIP3   OH2 1660   7.110   1.690   1.012
  592TIP3    H1 1661   7.045   1.760   1.032
  592TIP3    H2 1662   7.168   1.739   0.950
  593TIP3   OH2 1663   7.651   2.120   1.144
  593TIP3    H1 1664   7.729   2.091   1.095
  593TIP3    H2 1665   7.643   2.050   1.212
  594TIP3   OH2 1666   7.273   1.537   1.168
  594TIP3    H1 1667   7.258   1.452   1.124
  594TIP3    H2 1668   7.224   1.598   1.109
  595TIP3   OH2 1669   7.263   1.843   0.855
  595TIP3    H1 1670   7.339   1.845   0.793
  595TIP3    H2 1671   7.200   1.899   0.805
  596TIP3   OH2 1672   7.872   1.793   1.186
  596TIP3    H1 1673   7.908   1.728   1.251
  596TIP3    H2 1674   7.938   1.863   1.187
  597TIP3   OH2 1675   7.901   2.039   0.970
  597TIP3    H1 1676   7.835   2.086   0.914
  597TIP3    H2 1677   7.975   2.040   0.907
  598TIP3   OH2 1678   7.120   1.639   1.373
  598TIP3    H1 1679   7.058   1.564   1.387
  598TIP3    H2 1680   7.169   1.609   1.294
  599TIP3   OH2 1681   7.526   1.589   1.256
  599TIP3    H1 1682   7.502   1.576   1.349
  599TIP3    H2 1683   7.441   1.568   1.214
  600TIP3   OH2 1684   6.979   1.409   1.421
  600TIP3    H1 1685   6.967   1.314   1.402
  600TIP3    H2 1686   7.010   1.402   1.514
  601TIP3   OH2 1687   7.562   1.302   1.434
  601TIP3    H1 1688   7.566   1.257   1.349
  601TIP3    H2 1689   7.482   1.359   1.428
  602TIP3   OH2 1690   6.161   2.509   0.156
  602TIP3    H1 1691   6.097   2.443   0.121
  602TIP3    H2 1692   6.209   2.453   0.221
  603TIP3   OH2 1693   6.295   2.369   0.348
  603TIP3    H1 1694   6.288   2.287   0.399
  603TIP3    H2 1695   6.350   2.423   0.406
  604TIP3   OH2 1696   8.053   2.776   0.155
  604TIP3    H1 1697   8.061   2.807   0.247
  604TIP3    H2 1698   8.099   2.849   0.108
  605TIP3   OH2 1699   8.063   2.786   0.434
  605TIP3    H1 1700   8.020   2.698   0.431
  605TIP3    H2 1701   8.141   2.764   0.487
  606TIP3   OH2 1702   8.105   2.454   0.995
  606TIP3    H1 1703   8.032   2.460   1.060
  606TIP3    H2 1704   8.145   2.544   1.002
  607TIP3   OH2 1705   7.947   2.538   0.469
  607TIP3    H1 1706   7.879   2.593   0.514
  607TIP3    H2 1707   7.890   2.496   0.399
  608TIP3   OH2 1708   6.491   1.753   0.707
  608TIP3    H1 1709   6.517   1.759   0.613
  608TIP3    H2 1710   6.579   1.767   0.749
  609TIP3   OH2 1711   6.710   1.457   1.396
  609TIP3    H1 1712   6.808   1.448   1.397
  609TIP3    H2 1713   6.684   1.370   1.432
  610TIP3   OH2 1714   6.458   1.470   0.755
  610TIP3    H1 1715   6.546   1.430   0.738
  610TIP3    H2 1716   6.474   1.515   0.840
  611TIP3   OH2 1717   6.714   2.425   1.187
  611TIP3    H1 1718   6.621   2.399   1.171
  611TIP3    H2 1719   6.723   2.409   1.282
  612TIP3   OH2 1720   6.893   2.458   0.735
  612TIP3    H1 1721   6.842   2.532   0.696
  612TIP3    H2 1722   6.978   2.474   0.690
  613TIP3   OH2 1723   7.338   2.703   0.871
  613TIP3    H1 1724   7.378   2.705   0.961
  613TIP3    H2 1725   7.404   2.754   0.820
  614TIP3   OH2 1726   7.516   2.855   0.730
  614TIP3    H1 1727   7.587   2.804   0.688
  614TIP3    H2 1728   7.567   2.913   0.790
  615TIP3   OH2 1729   6.570   2.716   0.758
  615TIP3    H1 1730   6.481   2.749   0.733
  615TIP3    H2 1731   6.577   2.753   0.847
  616TIP3   OH2 1732   6.806   2.694   0.615
  616TIP3    H1 1733   6.719   2.708   0.661
  616TIP3    H2 1734   6.785   2.727   0.526
  617TIP3   OH2 1735   7.234   2.726   0.407
  617TIP3    H1 1736   7.158   2.746   0.349
  617TIP3    H2 1737   7.246   2.812   0.453
  618TIP3   OH2 1738   7.503   2.667   0.453
  618TIP3    H1 1739   7.408   2.683   0.441
  618TIP3    H2 1740   7.542   2.750   0.421
  619TIP3   OH2 1741   7.702   2.866   0.383
  619TIP3    H1 1742   7.692   2.950   0.333
  619TIP3    H2 1743   7.731   2.805   0.311
  620TIP3   OH2 1744   6.478   2.513   0.506
  620TIP3    H1 1745   6.507   2.487   0.596
  620TIP3    H2 1746   6.551   2.472   0.454
  621TIP3   OH2 1747   6.670   2.392   0.360
  621TIP3    H1 1748   6.688   2.307   0.408
  621TIP3    H2 1749   6.761   2.428   0.353
  622TIP3   OH2 1750   6.936   2.485   0.361
  622TIP3    H1 1751   6.970   2.398   0.337
  622TIP3    H2 1752   6.981   2.501   0.447
  623TIP3   OH2 1753   6.277   2.276  -0.097
  623TIP3    H1 1754   6.199   2.231  -0.127
  623TIP3    H2 1755   6.260   2.367  -0.130
  624TIP3   OH2 1756   6.952   1.142   1.402
  624TIP3    H1 1757   6.924   1.062   1.447
  624TIP3    H2 1758   7.036   1.113   1.362
  625TIP3   OH2 1759   7.241   1.120   1.484
  625TIP3    H1 1760   7.299   1.052   1.449
  625TIP3    H2 1761   7.206   1.073   1.563
  626TIP3   OH2 1762   7.987   2.734   0.759
  626TIP3    H1 1763   7.907   2.706   0.709
  626TIP3    H2 1764   7.969   2.830   0.762
  627TIP3   OH2 1765   8.341   2.946   0.654
  627TIP3    H1 1766   8.427   2.937   0.697
  627TIP3    H2 1767   8.310   2.854   0.649
  628TIP3   OH2 1768   8.457   2.353   0.861
  628TIP3    H1 1769   8.445   2.257   0.863
  628TIP3    H2 1770   8.379   2.378   0.807
  629TIP3   OH2 1771   8.506   2.637   0.685
  629TIP3    H1 1772   8.411   2.647   0.666
  629TIP3    H2 1773   8.509   2.652   0.780
  630TIP3   OH2 1774   8.350   2.980   0.219
  630TIP3    H1 1775   8.266   3.029   0.225
  630TIP3    H2 1776   8.384   2.992   0.309
  631TIP3   OH2 1777   0.695   3.444   2.369
  631TIP3    H1 1778   0.665   3.355   2.344
  631TIP3    H2 1779   0.611   3.481   2.402
  632TIP3   OH2 1780   0.375   3.790   2.444
  632TIP3    H1 1781   0.375   3.816   2.350
  632TIP3    H2 1782   0.451   3.841   2.478
  633TIP3   OH2 1783   0.567   3.245   2.696
  633TIP3    H1 1784   0.491   3.256   2.757
  633TIP3    H2 1785   0.605   3.335   2.698
  634TIP3   OH2 1786   0.442   3.526   2.439
  634TIP3    H1 1787   0.356   3.496   2.470
  634TIP3    H2 1788   0.431   3.623   2.446
  635TIP3   OH2 1789   1.951   3.186   1.274
  635TIP3    H1 1790   1.939   3.126   1.349
  635TIP3    H2 1791   1.974   3.268   1.319
  636TIP3   OH2 1792   1.578   3.655   1.291
  636TIP3    H1 1793   1.630   3.592   1.238
  636TIP3    H2 1794   1.587   3.620   1.380
  637TIP3   OH2 1795   1.536   3.141   1.661
  637TIP3    H1 1796   1.549   3.112   1.570
  637TIP3    H2 1797   1.627   3.171   1.683
  638TIP3   OH2 1798   2.523   2.435   1.635
  638TIP3    H1 1799   2.548   2.516   1.683
  638TIP3    H2 1800   2.526   2.465   1.543
  639TIP3   OH2 1801   2.591   2.646   1.807
  639TIP3    H1 1802   2.507   2.693   1.789
  639TIP3    H2 1803   2.601   2.665   1.901
  640TIP3   OH2 1804   1.392   3.054   1.981
  640TIP3    H1 1805   1.300   3.086   1.966
  640TIP3    H2 1806   1.443   3.123   1.937
  641TIP3   OH2 1807   1.176   3.239   1.976
  641TIP3    H1 1808   1.156   3.322   1.929
  641TIP3    H2 1809   1.101   3.236   2.038
  642TIP3   OH2 1810   2.019   3.439   1.441
  642TIP3    H1 1811   1.930   3.430   1.481
  642TIP3    H2 1812   2.010   3.526   1.397
  643TIP3   OH2 1813   2.325   2.366   1.819
  643TIP3    H1 1814   2.233   2.357   1.790
  643TIP3    H2 1815   2.372   2.385   1.735
  644TIP3   OH2 1816   1.732   3.483   1.134
  644TIP3    H1 1817   1.806   3.423   1.129
  644TIP3    H2 1818   1.765   3.556   1.076
  645TIP3   OH2 1819   2.242   3.359   1.793
  645TIP3    H1 1820   2.237   3.281   1.733
  645TIP3    H2 1821   2.224   3.432   1.731
  646TIP3   OH2 1822   2.442   2.986   1.632
  646TIP3    H1 1823   2.362   3.042   1.641
  646TIP3    H2 1824   2.470   3.011   1.541
  647TIP3   OH2 1825   2.147   2.871   1.939
  647TIP3    H1 1826   2.133   2.957   1.982
  647TIP3    H2 1827   2.059   2.859   1.895
  648TIP3   OH2 1828   1.781   3.435   1.565
  648TIP3    H1 1829   1.760   3.517   1.613
  648TIP3    H2 1830   1.772   3.365   1.632
  649TIP3   OH2 1831   1.389   3.354   2.109
  649TIP3    H1 1832   1.331   3.418   2.156
  649TIP3    H2 1833   1.321   3.301   2.062
  650TIP3   OH2 1834   1.149   2.933   2.228
  650TIP3    H1 1835   1.148   3.021   2.272
  650TIP3    H2 1836   1.056   2.906   2.238
  651TIP3   OH2 1837   1.184   3.522   2.197
  651TIP3    H1 1838   1.151   3.523   2.105
  651TIP3    H2 1839   1.104   3.499   2.249
  652TIP3   OH2 1840   2.482   3.696   1.833
  652TIP3    H1 1841   2.478   3.600   1.846
  652TIP3    H2 1842   2.398   3.722   1.877
  653TIP3   OH2 1843   1.590   3.483   1.969
  653TIP3    H1 1844   1.588   3.577   2.000
  653TIP3    H2 1845   1.517   3.445   2.022
  654TIP3   OH2 1846   2.370   2.827   2.110
  654TIP3    H1 1847   2.295   2.847   2.051
  654TIP3    H2 1848   2.387   2.733   2.088
  655TIP3   OH2 1849   0.972   3.248   2.157
  655TIP3    H1 1850   1.029   3.231   2.236
  655TIP3    H2 1851   0.928   3.163   2.142
  656TIP3   OH2 1852   2.142   2.607   2.040
  656TIP3    H1 1853   2.092   2.620   2.121
  656TIP3    H2 1854   2.125   2.690   1.992
  657TIP3   OH2 1855   1.858   2.816   2.261
  657TIP3    H1 1856   1.827   2.757   2.332
  657TIP3    H2 1857   1.946   2.843   2.293
  658TIP3   OH2 1858   1.898   2.813   1.859
  658TIP3    H1 1859   1.852   2.777   1.782
  658TIP3    H2 1860   1.821   2.832   1.915
  659TIP3   OH2 1861   2.170   4.046   1.930
  659TIP3    H1 1862   2.166   4.070   1.836
  659TIP3    H2 1863   2.247   4.098   1.961
  660TIP3   OH2 1864   1.128   3.170   2.369
  660TIP3    H1 1865   1.211   3.197   2.413
  660TIP3    H2 1866   1.066   3.178   2.444
  661TIP3   OH2 1867   2.224   3.145   1.631
  661TIP3    H1 1868   2.246   3.191   1.547
  661TIP3    H2 1869   2.136   3.105   1.609
  662TIP3   OH2 1870   1.698   3.216   1.986
  662TIP3    H1 1871   1.723   3.191   2.076
  662TIP3    H2 1872   1.669   3.308   1.996
  663TIP3   OH2 1873   1.612   2.955   2.314
  663TIP3    H1 1874   1.551   2.901   2.261
  663TIP3    H2 1875   1.696   2.932   2.269
  664TIP3   OH2 1876   1.867   3.468   1.892
  664TIP3    H1 1877   1.770   3.475   1.898
  664TIP3    H2 1878   1.894   3.525   1.967
  665TIP3   OH2 1879   2.494   3.404   1.876
  665TIP3    H1 1880   2.396   3.401   1.868
  665TIP3    H2 1881   2.519   3.373   1.786
  666TIP3   OH2 1882   1.997   3.018   1.563
  666TIP3    H1 1883   1.904   2.997   1.543
  666TIP3    H2 1884   2.035   2.929   1.544
  667TIP3   OH2 1885   1.374   3.560   1.770
  667TIP3    H1 1886   1.404   3.637   1.717
  667TIP3    H2 1887   1.455   3.537   1.817
  668TIP3   OH2 1888   1.790   3.203   1.727
  668TIP3    H1 1889   1.767   3.202   1.823
  668TIP3    H2 1890   1.879   3.165   1.728
  669TIP3   OH2 1891   2.005   3.737   1.770
  669TIP3    H1 1892   1.924   3.684   1.759
  669TIP3    H2 1893   1.993   3.804   1.699
  670TIP3   OH2 1894   0.797   3.421   1.942
  670TIP3    H1 1895   0.859   3.347   1.943
  670TIP3    H2 1896   0.847   3.489   1.989
  671TIP3   OH2 1897   1.919   2.431   2.015
  671TIP3    H1 1898   2.011   2.440   1.987
  671TIP3    H2 1899   1.897   2.343   1.982
  672TIP3   OH2 1900   1.736   2.628   2.085
  672TIP3    H1 1901   1.776   2.709   2.120
  672TIP3    H2 1902   1.812   2.575   2.053
  673TIP3   OH2 1903   2.408   2.562   2.024
  673TIP3    H1 1904   2.310   2.561   2.030
  673TIP3    H2 1905   2.417   2.507   1.944
  674TIP3   OH2 1906   2.065   2.748   1.523
  674TIP3    H1 1907   2.029   2.683   1.460
  674TIP3    H2 1908   2.155   2.710   1.531
  675TIP3   OH2 1909   2.023   3.711   1.363
  675TIP3    H1 1910   1.977   3.754   1.288
  675TIP3    H2 1911   2.116   3.730   1.340
  676TIP3   OH2 1912   0.796   3.739   2.344
  676TIP3    H1 1913   0.882   3.738   2.392
  676TIP3    H2 1914   0.776   3.644   2.338
  677TIP3   OH2 1915   1.277   3.706   2.388
  677TIP3    H1 1916   1.371   3.689   2.401
  677TIP3    H2 1917   1.257   3.647   2.313
  678TIP3   OH2 1918   1.919   3.607   2.125
  678TIP3    H1 1919   1.912   3.540   2.196
  678TIP3    H2 1920   1.994   3.661   2.153
  679TIP3   OH2 1921   0.923   3.141   2.551
  679TIP3    H1 1922   0.950   3.047   2.552
  679TIP3    H2 1923   0.837   3.138   2.507
  680TIP3   OH2 1924   1.535   3.230   2.317
  680TIP3    H1 1925   1.493   3.244   2.230
  680TIP3    H2 1926   1.568   3.138   2.311
  681TIP3   OH2 1927   2.027   3.238   1.921
  681TIP3    H1 1928   2.102   3.284   1.879
  681TIP3    H2 1929   1.958   3.307   1.912
  682TIP3   OH2 1930   1.050   2.865   2.549
  682TIP3    H1 1931   1.133   2.821   2.524
  682TIP3    H2 1932   1.077   2.910   2.632
  683TIP3   OH2 1933   1.404   2.779   2.208
  683TIP3    H1 1934   1.336   2.849   2.217
  683TIP3    H2 1935   1.441   2.798   2.120
  684TIP3   OH2 1936   1.893   3.168   2.314
  684TIP3    H1 1937   1.978   3.153   2.272
  684TIP3    H2 1938   1.893   3.105   2.387
  685TIP3   OH2 1939   1.532   2.563   2.324
  685TIP3    H1 1940   1.523   2.479   2.277
  685TIP3    H2 1941   1.490   2.628   2.264
  686TIP3   OH2 1942   1.597   2.889   2.033
  686TIP3    H1 1943   1.616   2.847   1.947
  686TIP3    H2 1944   1.527   2.954   2.009
  687TIP3   OH2 1945   2.124   2.849   2.378
  687TIP3    H1 1946   2.171   2.768   2.353
  687TIP3    H2 1947   2.188   2.917   2.352
  688TIP3   OH2 1948   2.156   3.099   2.110
  688TIP3    H1 1949   2.098   3.150   2.050
  688TIP3    H2 1950   2.244   3.118   2.069
  689TIP3   OH2 1951   1.380   2.690   2.538
  689TIP3    H1 1952   1.327   2.613   2.569
  689TIP3    H2 1953   1.412   2.660   2.451
  690TIP3   OH2 1954   1.780   2.607   2.425
  690TIP3    H1 1955   1.730   2.602   2.510
  690TIP3    H2 1956   1.701   2.590   2.367
  691TIP3   OH2 1957   2.026   2.527   2.329
  691TIP3    H1 1958   1.938   2.561   2.304
  691TIP3    H2 1959   2.043   2.461   2.260
  692TIP3   OH2 1960   1.267   2.471   2.646
  692TIP3    H1 1961   1.219   2.400   2.602
  692TIP3    H2 1962   1.280   2.432   2.735
  693TIP3   OH2 1963   1.761   2.135   2.464
  693TIP3    H1 1964   1.825   2.066   2.445
  693TIP3    H2 1965   1.686   2.112   2.411
  694TIP3   OH2 1966   1.839   2.364   2.587
  694TIP3    H1 1967   1.798   2.271   2.537
  694TIP3    H2 1968   1.739   2.405   2.601
  695TIP3   OH2 1969   2.279   3.797   1.320
  695TIP3    H1 1970   2.303   3.835   1.406
  695TIP3    H2 1971   2.334   3.848   1.259
  696TIP3   OH2 1972   2.307   3.823   1.603
  696TIP3    H1 1973   2.263   3.735   1.597
  696TIP3    H2 1974   2.382   3.800   1.660
  697TIP3   OH2 1975   2.356   3.497   2.176
  697TIP3    H1 1976   2.281   3.506   2.239
  697TIP3    H2 1977   2.395   3.587   2.180
  698TIP3   OH2 1978   2.355   3.273   1.431
  698TIP3    H1 1979   2.402   3.208   1.376
  698TIP3    H2 1980   2.345   3.349   1.370
  699TIP3   OH2 1981   2.183   3.571   1.628
  699TIP3    H1 1982   2.112   3.615   1.677
  699TIP3    H2 1983   2.134   3.524   1.557
  700TIP3   OH2 1984   2.399   3.159   2.003
  700TIP3    H1 1985   2.473   3.095   1.993
  700TIP3    H2 1986   2.425   3.230   1.942
  701TIP3   OH2 1987   2.586   2.967   2.023
  701TIP3    H1 1988   2.512   2.916   2.061
  701TIP3    H2 1989   2.659   2.902   2.036
  702TIP3   OH2 1990   2.299   2.623   1.553
  702TIP3    H1 1991   2.381   2.650   1.506
  702TIP3    H2 1992   2.315   2.663   1.640
  703TIP3   OH2 1993   2.348   2.773   1.774
  703TIP3    H1 1994   2.271   2.809   1.822
  703TIP3    H2 1995   2.377   2.852   1.723
  704TIP3   OH2 1996   2.786   2.358   2.324
  704TIP3    H1 1997   2.846   2.292   2.283
  704TIP3    H2 1998   2.762   2.414   2.248
  705TIP3   OH2 1999   2.660   2.504   2.129
  705TIP3    H1 2000   2.568   2.537   2.133
  705TIP3    H2 2001   2.645   2.425   2.072
  706TIP3   OH2 2002   1.874   3.658   0.984
  706TIP3    H1 2003   1.917   3.657   0.897
  706TIP3    H2 2004   1.906   3.739   1.025
  707TIP3   OH2 2005   0.968   3.469   2.369
  707TIP3    H1 2006   0.872   3.450   2.359
  707TIP3    H2 2007   0.978   3.467   2.465
  708TIP3   OH2 2008   1.140   3.505   1.914
  708TIP3    H1 2009   1.091   3.574   1.866
  708TIP3    H2 2010   1.227   3.520   1.871
  709TIP3   OH2 2011   1.586   3.748   2.049
  709TIP3    H1 2012   1.628   3.750   2.138
  709TIP3    H2 2013   1.651   3.800   1.997
  710TIP3   OH2 2014   1.764   3.899   1.908
  710TIP3    H1 2015   1.835   3.851   1.863
  710TIP3    H2 2016   1.816   3.957   1.968
  711TIP3   OH2 2017   2.565   2.269   2.012
  711TIP3    H1 2018   2.477   2.257   1.973
  711TIP3    H2 2019   2.600   2.177   2.005
  712TIP3   OH2 2020   0.813   3.771   1.915
  712TIP3    H1 2021   0.721   3.804   1.913
  712TIP3    H2 2022   0.836   3.790   2.007
  713TIP3   OH2 2023   1.065   3.747   1.795
  713TIP3    H1 2024   0.978   3.763   1.835
  713TIP3    H2 2025   1.052   3.776   1.703
  714TIP3   OH2 2026   1.484   3.764   1.599
  714TIP3    H1 2027   1.417   3.779   1.528
  714TIP3    H2 2028   1.494   3.855   1.632
  715TIP3   OH2 2029   1.750   3.708   1.643
  715TIP3    H1 2030   1.654   3.722   1.626
  715TIP3    H2 2031   1.788   3.783   1.595
  716TIP3   OH2 2032   1.961   3.904   1.557
  716TIP3    H1 2033   1.941   3.988   1.511
  716TIP3    H2 2034   1.981   3.844   1.482
  717TIP3   OH2 2035   1.214   3.559   1.535
  717TIP3    H1 2036   1.226   3.489   1.467
  717TIP3    H2 2037   1.272   3.531   1.608
  718TIP3   OH2 2038   1.996   3.632   0.732
  718TIP3    H1 2039   1.988   3.539   0.708
  718TIP3    H2 2040   1.953   3.674   0.655
  719TIP3   OH2 2041   1.474   2.197   2.670
  719TIP3    H1 2042   1.524   2.149   2.602
  719TIP3    H2 2043   1.451   2.124   2.731
  720TIP3   OH2 2044   2.286   2.241   2.447
  720TIP3    H1 2045   2.312   2.204   2.534
  720TIP3    H2 2046   2.372   2.239   2.399
  721TIP3   OH2 2047   2.235   3.778   1.933
  721TIP3    H1 2048   2.156   3.746   1.885
  721TIP3    H2 2049   2.215   3.874   1.936
  722TIP3   OH2 2050   3.501   3.153   0.708
  722TIP3    H1 2051   3.473   3.244   0.684
  722TIP3    H2 2052   3.431   3.102   0.663
  723TIP3   OH2 2053   3.492   3.153   1.083
  723TIP3    H1 2054   3.528   3.117   1.166
  723TIP3    H2 2055   3.461   3.073   1.038
  724TIP3   OH2 2056   2.810   3.058   1.446
  724TIP3    H1 2057   2.836   2.991   1.512
  724TIP3    H2 2058   2.888   3.064   1.389
  725TIP3   OH2 2059   3.741   3.451   0.762
  725TIP3    H1 2060   3.731   3.382   0.828
  725TIP3    H2 2061   3.772   3.526   0.815
  726TIP3   OH2 2062   2.774   3.458   1.177
  726TIP3    H1 2063   2.765   3.360   1.178
  726TIP3    H2 2064   2.869   3.466   1.157
  727TIP3   OH2 2065   2.571   2.962   1.133
  727TIP3    H1 2066   2.601   2.874   1.162
  727TIP3    H2 2067   2.569   2.953   1.038
  728TIP3   OH2 2068   3.390   3.914   0.779
  728TIP3    H1 2069   3.436   3.844   0.727
  728TIP3    H2 2070   3.389   3.875   0.867
  729TIP3   OH2 2071   3.294   3.362   1.148
  729TIP3    H1 2072   3.334   3.294   1.090
  729TIP3    H2 2073   3.376   3.415   1.162
  730TIP3   OH2 2074   4.309   2.696   1.125
  730TIP3    H1 2075   4.339   2.778   1.168
  730TIP3    H2 2076   4.335   2.713   1.033
  731TIP3   OH2 2077   3.707   2.878   1.163
  731TIP3    H1 2078   3.753   2.794   1.182
  731TIP3    H2 2079   3.679   2.863   1.071
  732TIP3   OH2 2080   3.040   2.531   1.128
  732TIP3    H1 2081   3.021   2.602   1.063
  732TIP3    H2 2082   3.011   2.452   1.080
  733TIP3   OH2 2083   3.739   2.627   0.750
  733TIP3    H1 2084   3.812   2.612   0.814
  733TIP3    H2 2085   3.790   2.662   0.675
  734TIP3   OH2 2086   2.685   2.734   1.232
  734TIP3    H1 2087   2.767   2.714   1.281
  734TIP3    H2 2088   2.699   2.675   1.154
  735TIP3   OH2 2089   3.118   2.935   1.038
  735TIP3    H1 2090   3.214   2.913   1.043
  735TIP3    H2 2091   3.081   2.852   1.001
  736TIP3   OH2 2092   4.384   2.902   1.297
  736TIP3    H1 2093   4.301   2.951   1.278
  736TIP3    H2 2094   4.402   2.931   1.388
  737TIP3   OH2 2095   3.046   2.521   1.560
  737TIP3    H1 2096   2.982   2.554   1.494
  737TIP3    H2 2097   2.994   2.531   1.642
  738TIP3   OH2 2098   3.388   3.368   0.575
  738TIP3    H1 2099   3.357   3.349   0.486
  738TIP3    H2 2100   3.346   3.455   0.592
  739TIP3   OH2 2101   3.140   3.303   1.387
  739TIP3    H1 2102   3.074   3.378   1.383
  739TIP3    H2 2103   3.195   3.328   1.309
  740TIP3   OH2 2104   3.950   2.632   0.921
  740TIP3    H1 2105   3.956   2.573   0.996
  740TIP3    H2 2106   4.009   2.705   0.946
  741TIP3   OH2 2107   2.916   2.638   1.346
  741TIP3    H1 2108   2.985   2.704   1.367
  741TIP3    H2 2109   2.959   2.592   1.270
  742TIP3   OH2 2110   2.969   3.489   1.461
  742TIP3    H1 2111   2.950   3.572   1.412
  742TIP3    H2 2112   2.886   3.485   1.515
  743TIP3   OH2 2113   2.367   3.187   0.704
  743TIP3    H1 2114   2.384   3.186   0.609
  743TIP3    H2 2115   2.412   3.269   0.732
  744TIP3   OH2 2116   3.812   3.694   0.932
  744TIP3    H1 2117   3.721   3.687   0.968
  744TIP3    H2 2118   3.807   3.779   0.884
  745TIP3   OH2 2119   4.103   2.598   1.293
  745TIP3    H1 2120   4.016   2.626   1.261
  745TIP3    H2 2121   4.163   2.627   1.221
  746TIP3   OH2 2122   3.405   2.238   1.275
  746TIP3    H1 2123   3.394   2.143   1.297
  746TIP3    H2 2124   3.325   2.275   1.318
  747TIP3   OH2 2125   3.513   3.743   0.604
  747TIP3    H1 2126   3.563   3.660   0.582
  747TIP3    H2 2127   3.574   3.809   0.563
  748TIP3   OH2 2128   3.652   3.527   0.511
  748TIP3    H1 2129   3.631   3.446   0.461
  748TIP3    H2 2130   3.689   3.490   0.594
  749TIP3   OH2 2131   4.037   3.608   1.275
  749TIP3    H1 2132   4.030   3.532   1.213
  749TIP3    H2 2133   4.023   3.683   1.214
  750TIP3   OH2 2134   3.336   3.016   0.538
  750TIP3    H1 2135   3.251   3.058   0.513
  750TIP3    H2 2136   3.373   2.995   0.451
  751TIP3   OH2 2137   3.294   2.791   0.346
  751TIP3    H1 2138   3.379   2.838   0.336
  751TIP3    H2 2139   3.319   2.700   0.322
  752TIP3   OH2 2140   4.234   3.243   1.118
  752TIP3    H1 2141   4.152   3.298   1.122
  752TIP3    H2 2142   4.265   3.266   1.028
  753TIP3   OH2 2143   3.679   3.087   0.507
  753TIP3    H1 2144   3.625   3.113   0.586
  753TIP3    H2 2145   3.762   3.059   0.550
  754TIP3   OH2 2146   3.914   3.124   1.414
  754TIP3    H1 2147   3.912   3.208   1.464
  754TIP3    H2 2148   3.830   3.131   1.365
  755TIP3   OH2 2149   2.908   3.078   0.918
  755TIP3    H1 2150   2.873   3.019   0.849
  755TIP3    H2 2151   2.986   3.029   0.949
  756TIP3   OH2 2152   3.036   3.484   1.073
  756TIP3    H1 2153   3.018   3.453   0.983
  756TIP3    H2 2154   3.128   3.455   1.086
  757TIP3   OH2 2155   3.048   3.051   1.284
  757TIP3    H1 2156   3.068   3.020   1.192
  757TIP3    H2 2157   3.085   3.141   1.280
  758TIP3   OH2 2158   3.568   3.692   1.050
  758TIP3    H1 2159   3.557   3.772   1.103
  758TIP3    H2 2160   3.557   3.619   1.114
  759TIP3   OH2 2161   3.181   3.604   1.601
  759TIP3    H1 2162   3.130   3.672   1.651
  759TIP3    H2 2163   3.109   3.568   1.545
  760TIP3   OH2 2164   3.528   2.940   0.333
  760TIP3    H1 2165   3.584   3.003   0.385
  760TIP3    H2 2166   3.553   2.965   0.240
  761TIP3   OH2 2167   3.259   3.626   0.608
  761TIP3    H1 2168   3.341   3.677   0.620
  761TIP3    H2 2169   3.201   3.689   0.564
  762TIP3   OH2 2170   2.980   3.778   1.684
  762TIP3    H1 2171   2.945   3.779   1.593
  762TIP3    H2 2172   2.900   3.757   1.737
  763TIP3   OH2 2173   4.038   2.187   0.374
  763TIP3    H1 2174   3.957   2.200   0.427
  763TIP3    H2 2175   4.044   2.271   0.325
  764TIP3   OH2 2176   2.768   2.917   0.715
  764TIP3    H1 2177   2.697   2.980   0.699
  764TIP3    H2 2178   2.720   2.839   0.746
  765TIP3   OH2 2179   3.833   3.557  -0.079
  765TIP3    H1 2180   3.844   3.653  -0.095
  765TIP3    H2 2181   3.924   3.524  -0.088
  766TIP3   OH2 2182   2.558   3.306   1.632
  766TIP3    H1 2183   2.493   3.284   1.562
  766TIP3    H2 2184   2.598   3.218   1.653
  767TIP3   OH2 2185   2.411   3.501   1.267
  767TIP3    H1 2186   2.507   3.502   1.254
  767TIP3    H2 2187   2.396   3.584   1.314
  768TIP3   OH2 2188   4.277   3.952   1.319
  768TIP3    H1 2189   4.275   3.855   1.332
  768TIP3    H2 2190   4.193   3.977   1.365
  769TIP3   OH2 2191   3.382   3.740   1.454
  769TIP3    H1 2192   3.383   3.833   1.485
  769TIP3    H2 2193   3.313   3.702   1.511
  770TIP3   OH2 2194   3.138   3.865   0.405
  770TIP3    H1 2195   3.097   3.849   0.318
  770TIP3    H2 2196   3.111   3.956   0.425
  771TIP3   OH2 2197   2.581   3.720   0.787
  771TIP3    H1 2198   2.626   3.708   0.874
  771TIP3    H2 2199   2.524   3.641   0.785
  772TIP3   OH2 2200   3.336   3.762   0.060
  772TIP3    H1 2201   3.395   3.705   0.006
  772TIP3    H2 2202   3.387   3.770   0.143
  773TIP3   OH2 2203   3.398   3.822   0.326
  773TIP3    H1 2204   3.308   3.826   0.366
  773TIP3    H2 2205   3.448   3.776   0.395
  774TIP3   OH2 2206   4.165   3.084   1.595
  774TIP3    H1 2207   4.088   3.097   1.538
  774TIP3    H2 2208   4.182   2.988   1.583
  775TIP3   OH2 2209   2.760   3.488   1.625
  775TIP3    H1 2210   2.807   3.474   1.710
  775TIP3    H2 2211   2.685   3.426   1.632
  776TIP3   OH2 2212   3.159   2.316   1.400
  776TIP3    H1 2213   3.070   2.284   1.378
  776TIP3    H2 2214   3.136   2.397   1.450
  777TIP3   OH2 2215   3.696   2.434   1.597
  777TIP3    H1 2216   3.765   2.404   1.660
  777TIP3    H2 2217   3.612   2.410   1.643
  778TIP3   OH2 2218   3.933   2.858   1.513
  778TIP3    H1 2219   3.888   2.856   1.600
  778TIP3    H2 2220   3.913   2.947   1.480
  779TIP3   OH2 2221   3.599   2.995   0.078
  779TIP3    H1 2222   3.543   2.988  -0.000
  779TIP3    H2 2223   3.676   3.045   0.043
  780TIP3   OH2 2224   3.098   2.830   1.429
  780TIP3    H1 2225   3.044   2.852   1.508
  780TIP3    H2 2226   3.083   2.908   1.372
  781TIP3   OH2 2227   2.973   2.718   0.942
  781TIP3    H1 2228   2.879   2.692   0.946
  781TIP3    H2 2229   2.997   2.689   0.851
  782TIP3   OH2 2230   3.472   2.808   0.662
  782TIP3    H1 2231   3.418   2.879   0.622
  782TIP3    H2 2232   3.522   2.775   0.585
  783TIP3   OH2 2233   3.643   3.085   1.754
  783TIP3    H1 2234   3.624   3.009   1.814
  783TIP3    H2 2235   3.738   3.097   1.773
  784TIP3   OH2 2236   3.624   2.832   0.902
  784TIP3    H1 2237   3.568   2.862   0.828
  784TIP3    H2 2238   3.659   2.750   0.862
  785TIP3   OH2 2239   2.926   2.875   1.643
  785TIP3    H1 2240   2.896   2.919   1.723
  785TIP3    H2 2241   2.912   2.782   1.669
  786TIP3   OH2 2242   3.631   3.077   1.327
  786TIP3    H1 2243   3.666   3.007   1.267
  786TIP3    H2 2244   3.610   3.023   1.406
  787TIP3   OH2 2245   3.310   2.552   1.001
  787TIP3    H1 2246   3.230   2.534   1.053
  787TIP3    H2 2247   3.381   2.534   1.065
  788TIP3   OH2 2248   2.730   2.585   1.009
  788TIP3    H1 2249   2.642   2.604   0.973
  788TIP3    H2 2250   2.749   2.499   0.965
  789TIP3   OH2 2251   3.040   2.636   0.695
  789TIP3    H1 2252   3.136   2.618   0.692
  789TIP3    H2 2253   3.013   2.611   0.606
  790TIP3   OH2 2254   3.796   2.618   1.205
  790TIP3    H1 2255   3.754   2.626   1.293
  790TIP3    H2 2256   3.738   2.554   1.162
  791TIP3   OH2 2257   3.966   4.304   1.417
  791TIP3    H1 2258   3.965   4.327   1.322
  791TIP3    H2 2259   4.045   4.352   1.448
  792TIP3   OH2 2260   2.938   3.410   1.833
  792TIP3    H1 2261   3.010   3.444   1.890
  792TIP3    H2 2262   2.868   3.401   1.901
  793TIP3   OH2 2263   3.389   2.868   1.095
  793TIP3    H1 2264   3.457   2.829   1.037
  793TIP3    H2 2265   3.404   2.820   1.178
  794TIP3   OH2 2266   3.367   2.758   1.385
  794TIP3    H1 2267   3.278   2.795   1.399
  794TIP3    H2 2268   3.426   2.817   1.435
  795TIP3   OH2 2269   3.099   3.172   0.481
  795TIP3    H1 2270   3.044   3.091   0.480
  795TIP3    H2 2271   3.087   3.201   0.575
  796TIP3   OH2 2272   4.002   3.392   1.110
  796TIP3    H1 2273   4.029   3.440   1.028
  796TIP3    H2 2274   3.917   3.351   1.083
  797TIP3   OH2 2275   3.593   2.470   0.323
  797TIP3    H1 2276   3.495   2.477   0.323
  797TIP3    H2 2277   3.618   2.561   0.346
  798TIP3   OH2 2278   3.481   3.464   1.487
  798TIP3    H1 2279   3.538   3.458   1.566
  798TIP3    H2 2280   3.466   3.560   1.479
  799TIP3   OH2 2281   3.637   2.712   0.443
  799TIP3    H1 2282   3.733   2.723   0.462
  799TIP3    H2 2283   3.617   2.793   0.391
  800TIP3   OH2 2284   2.811   3.185   1.157
  800TIP3    H1 2285   2.832   3.158   1.065
  800TIP3    H2 2286   2.798   3.100   1.199
  801TIP3   OH2 2287   3.256   3.313   0.315
  801TIP3    H1 2288   3.207   3.398   0.317
  801TIP3    H2 2289   3.198   3.258   0.373
  802TIP3   OH2 2290   2.674   3.089   1.767
  802TIP3    H1 2291   2.694   3.078   1.862
  802TIP3    H2 2292   2.601   3.027   1.753
  803TIP3   OH2 2293   3.397   3.205   1.770
  803TIP3    H1 2294   3.372   3.167   1.684
  803TIP3    H2 2295   3.492   3.180   1.771
  804TIP3   OH2 2296   3.659   3.722   1.380
  804TIP3    H1 2297   3.563   3.735   1.385
  804TIP3    H2 2298   3.690   3.781   1.452
  805TIP3   OH2 2299   4.072   2.806   0.285
  805TIP3    H1 2300   4.010   2.759   0.224
  805TIP3    H2 2301   4.069   2.893   0.241
  806TIP3   OH2 2302   4.288   3.660   1.363
  806TIP3    H1 2303   4.191   3.656   1.354
  806TIP3    H2 2304   4.315   3.632   1.273
  807TIP3   OH2 2305   3.774   3.619   0.186
  807TIP3    H1 2306   3.745   3.546   0.242
  807TIP3    H2 2307   3.779   3.578   0.098
  808TIP3   OH2 2308   3.766   3.252   1.032
  808TIP3    H1 2309   3.673   3.227   1.040
  808TIP3    H2 2310   3.803   3.174   0.985
  809TIP3   OH2 2311   2.893   3.481   0.786
  809TIP3    H1 2312   2.898   3.561   0.730
  809TIP3    H2 2313   2.798   3.465   0.785
  810TIP3   OH2 2314   3.035   3.249   0.733
  810TIP3    H1 2315   3.000   3.339   0.747
  810TIP3    H2 2316   2.994   3.200   0.806
  811TIP3   OH2 2317   3.165   3.823   1.250
  811TIP3    H1 2318   3.202   3.897   1.197
  811TIP3    H2 2319   3.244   3.793   1.298
  812TIP3   OH2 2320   2.816   3.718   0.636
  812TIP3    H1 2321   2.728   3.727   0.678
  812TIP3    H2 2322   2.846   3.812   0.636
  813TIP3   OH2 2323   3.551   3.459   1.211
  813TIP3    H1 2324   3.547   3.451   1.308
  813TIP3    H2 2325   3.631   3.410   1.189
  814TIP3   OH2 2326   3.526   3.355   0.092
  814TIP3    H1 2327   3.576   3.329   0.172
  814TIP3    H2 2328   3.436   3.331   0.115
  815TIP3   OH2 2329   3.799   3.994   1.259
  815TIP3    H1 2330   3.719   3.941   1.245
  815TIP3    H2 2331   3.789   4.061   1.187
  816TIP3   OH2 2332   3.868   3.835  -0.097
  816TIP3    H1 2333   3.918   3.913  -0.126
  816TIP3    H2 2334   3.787   3.879  -0.062
  817TIP3   OH2 2335   2.886   2.605   1.774
  817TIP3    H1 2336   2.789   2.605   1.786
  817TIP3    H2 2337   2.913   2.540   1.841
  818TIP3   OH2 2338   3.686   3.290   0.316
  818TIP3    H1 2339   3.678   3.220   0.384
  818TIP3    H2 2340   3.782   3.286   0.298
  819TIP3   OH2 2341   2.604   3.690   1.407
  819TIP3    H1 2342   2.651   3.612   1.439
  819TIP3    H2 2343   2.630   3.757   1.472
  820TIP3   OH2 2344   2.885   3.335   0.092
  820TIP3    H1 2345   2.916   3.250   0.059
  820TIP3    H2 2346   2.873   3.319   0.188
  821TIP3   OH2 2347   2.850   3.334   0.367
  821TIP3    H1 2348   2.925   3.307   0.422
  821TIP3    H2 2349   2.855   3.432   0.371
  822TIP3   OH2 2350   3.712   2.677   1.466
  822TIP3    H1 2351   3.800   2.708   1.492
  822TIP3    H2 2352   3.705   2.592   1.515
  823TIP3   OH2 2353   3.586   2.432   0.614
  823TIP3    H1 2354   3.594   2.453   0.520
  823TIP3    H2 2355   3.636   2.505   0.655
  824TIP3   OH2 2356   3.103   3.536   0.312
  824TIP3    H1 2357   3.017   3.567   0.344
  824TIP3    H2 2358   3.125   3.605   0.248
  825TIP3   OH2 2359   3.309   2.599   0.730
  825TIP3    H1 2360   3.372   2.671   0.709
  825TIP3    H2 2361   3.313   2.597   0.828
  826TIP3   OH2 2362   3.556   2.918   1.538
  826TIP3    H1 2363   3.588   2.965   1.617
  826TIP3    H2 2364   3.612   2.838   1.538
  827TIP3   OH2 2365   3.447   2.327   0.831
  827TIP3    H1 2366   3.440   2.405   0.888
  827TIP3    H2 2367   3.500   2.364   0.756
  828TIP3   OH2 2368   2.846   3.608   0.380
  828TIP3    H1 2369   2.816   3.677   0.317
  828TIP3    H2 2370   2.829   3.651   0.467
  829TIP3   OH2 2371   4.202   2.818   1.514
  829TIP3    H1 2372   4.104   2.814   1.518
  829TIP3    H2 2373   4.216   2.778   1.427
  830TIP3   OH2 2374   3.852   3.013   0.904
  830TIP3    H1 2375   3.778   2.950   0.912
  830TIP3    H2 2376   3.925   2.965   0.950
  831TIP3   OH2 2377   2.575   3.319   0.370
  831TIP3    H1 2378   2.669   3.342   0.379
  831TIP3    H2 2379   2.579   3.223   0.363
  832TIP3   OH2 2380   3.820   3.966   0.852
  832TIP3    H1 2381   3.778   4.014   0.777
  832TIP3    H2 2382   3.915   3.986   0.832
  833TIP3   OH2 2383   2.893   2.234   1.380
  833TIP3    H1 2384   2.842   2.185   1.313
  833TIP3    H2 2385   2.905   2.163   1.447
  834TIP3   OH2 2386   2.445   3.465   0.760
  834TIP3    H1 2387   2.365   3.487   0.809
  834TIP3    H2 2388   2.420   3.495   0.670
  835TIP3   OH2 2389   2.592   3.995   1.830
  835TIP3    H1 2390   2.678   3.994   1.878
  835TIP3    H2 2391   2.570   3.900   1.830
  836TIP3   OH2 2392   3.075   3.961   1.876
  836TIP3    H1 2393   3.170   3.944   1.884
  836TIP3    H2 2394   3.052   3.903   1.801
  837TIP3   OH2 2395   3.059   3.532   0.008
  837TIP3    H1 2396   2.995   3.470   0.049
  837TIP3    H2 2397   3.140   3.478   0.006
  838TIP3   OH2 2398   3.712   3.867   1.609
  838TIP3    H1 2399   3.706   3.796   1.677
  838TIP3    H2 2400   3.791   3.917   1.637
  839TIP3   OH2 2401   3.504   3.590  -0.074
  839TIP3    H1 2402   3.524   3.507  -0.026
  839TIP3    H2 2403   3.576   3.593  -0.138
  840TIP3   OH2 2404   2.728   3.401   2.024
  840TIP3    H1 2405   2.741   3.305   2.031
  840TIP3    H2 2406   2.639   3.406   1.984
  841TIP3   OH2 2407   3.331   3.484   1.806
  841TIP3    H1 2408   3.300   3.509   1.717
  841TIP3    H2 2409   3.369   3.395   1.792
  842TIP3   OH2 2410   3.218   3.276   0.050
  842TIP3    H1 2411   3.232   3.284   0.147
  842TIP3    H2 2412   3.193   3.183   0.041
  843TIP3   OH2 2413   3.821   3.496   1.410
  843TIP3    H1 2414   3.900   3.534   1.365
  843TIP3    H2 2415   3.757   3.568   1.395
  844TIP3   OH2 2416   2.850   3.126   2.013
  844TIP3    H1 2417   2.921   3.061   2.008
  844TIP3    H2 2418   2.869   3.168   2.100
  845TIP3   OH2 2419   2.965   2.939   0.493
  845TIP3    H1 2420   2.940   2.897   0.576
  845TIP3    H2 2421   2.972   2.864   0.431
  846TIP3   OH2 2422   3.690   3.418   1.806
  846TIP3    H1 2423   3.774   3.404   1.761
  846TIP3    H2 2424   3.696   3.355   1.880
  847TIP3   OH2 2425   3.824   3.089  -0.064
  847TIP3    H1 2426   3.840   3.048  -0.149
  847TIP3    H2 2427   3.827   3.183  -0.084
  848TIP3   OH2 2428   3.298   2.802   1.802
  848TIP3    H1 2429   3.304   2.710   1.768
  848TIP3    H2 2430   3.281   2.848   1.719
  849TIP3   OH2 2431   3.303   2.595   1.610
  849TIP3    H1 2432   3.333   2.630   1.524
  849TIP3    H2 2433   3.211   2.569   1.590
  850TIP3   OH2 2434   3.327   3.143   1.509
  850TIP3    H1 2435   3.410   3.109   1.471
  850TIP3    H2 2436   3.302   3.208   1.441
  851TIP3   OH2 2437   3.915   3.100   1.863
  851TIP3    H1 2438   3.961   3.014   1.870
  851TIP3    H2 2439   3.984   3.156   1.828
  852TIP3   OH2 2440   3.953   3.351   1.597
  852TIP3    H1 2441   3.897   3.406   1.537
  852TIP3    H2 2442   4.041   3.370   1.558
  853TIP3   OH2 2443   3.167   2.927   2.017
  853TIP3    H1 2444   3.104   2.855   2.040
  853TIP3    H2 2445   3.211   2.889   1.938
  854TIP3   OH2 2446   3.437   2.360   1.674
  854TIP3    H1 2447   3.387   2.441   1.652
  854TIP3    H2 2448   3.368   2.291   1.663
  855TIP3   OH2 2449   3.561   2.866   1.893
  855TIP3    H1 2450   3.558   2.854   1.989
  855TIP3    H2 2451   3.471   2.837   1.870
  856TIP3   OH2 2452   3.803   2.819   1.747
  856TIP3    H1 2453   3.727   2.812   1.808
  856TIP3    H2 2454   3.877   2.784   1.802
  857TIP3   OH2 2455   4.027   2.752   1.898
  857TIP3    H1 2456   4.042   2.657   1.916
  857TIP3    H2 2457   4.026   2.791   1.988
  858TIP3   OH2 2458   3.021   2.704   2.084
  858TIP3    H1 2459   3.023   2.612   2.049
  858TIP3    H2 2460   3.056   2.689   2.174
  859TIP3   OH2 2461   3.531   2.370   1.931
  859TIP3    H1 2462   3.598   2.299   1.927
  859TIP3    H2 2463   3.491   2.362   1.842
  860TIP3   OH2 2464   3.596   2.583   2.090
  860TIP3    H1 2465   3.574   2.511   2.027
  860TIP3    H2 2466   3.517   2.641   2.083
  861TIP3   OH2 2467   2.813   3.809   0.194
  861TIP3    H1 2468   2.907   3.807   0.167
  861TIP3    H2 2469   2.769   3.850   0.119
  862TIP3   OH2 2470   2.203   3.805   0.820
  862TIP3    H1 2471   2.140   3.740   0.783
  862TIP3    H2 2472   2.251   3.750   0.885
  863TIP3   OH2 2473   2.344   3.662   1.007
  863TIP3    H1 2474   2.334   3.586   1.066
  863TIP3    H2 2475   2.395   3.722   1.064
  864TIP3   OH2 2476   4.071   4.061   0.807
  864TIP3    H1 2477   4.104   4.097   0.890
  864TIP3    H2 2478   4.135   4.095   0.743
  865TIP3   OH2 2479   4.102   4.081   1.093
  865TIP3    H1 2480   4.062   3.991   1.084
  865TIP3    H2 2481   4.181   4.058   1.143
  866TIP3   OH2 2482   4.149   3.755   1.662
  866TIP3    H1 2483   4.076   3.764   1.727
  866TIP3    H2 2484   4.191   3.844   1.666
  867TIP3   OH2 2485   3.965   3.268   0.281
  867TIP3    H1 2486   4.033   3.334   0.254
  867TIP3    H2 2487   4.009   3.229   0.361
  868TIP3   OH2 2488   4.093   3.136   0.485
  868TIP3    H1 2489   4.029   3.093   0.546
  868TIP3    H2 2490   4.159   3.174   0.547
  869TIP3   OH2 2491   4.145   3.525   0.918
  869TIP3    H1 2492   4.200   3.462   0.867
  869TIP3    H2 2493   4.141   3.602   0.858
  870TIP3   OH2 2494   3.980   3.826   1.115
  870TIP3    H1 2495   3.909   3.870   1.164
  870TIP3    H2 2496   3.931   3.779   1.045
  871TIP3   OH2 2497   4.026   3.043   0.133
  871TIP3    H1 2498   3.951   3.046   0.072
  871TIP3    H2 2499   4.006   3.120   0.190
  872TIP3   OH2 2500   3.904   2.715   0.094
  872TIP3    H1 2501   3.870   2.751   0.012
  872TIP3    H2 2502   3.878   2.620   0.086
  873TIP3   OH2 2503   3.907   2.991   0.634
  873TIP3    H1 2504   3.917   2.894   0.628
  873TIP3    H2 2505   3.895   3.005   0.730
  874TIP3   OH2 2506   2.536   3.060   1.385
  874TIP3    H1 2507   2.536   3.034   1.290
  874TIP3    H2 2508   2.632   3.072   1.400
  875TIP3   OH2 2509   4.195   3.416   1.489
  875TIP3    H1 2510   4.268   3.350   1.481
  875TIP3    H2 2511   4.224   3.486   1.429
  876TIP3   OH2 2512   4.381   3.223   1.511
  876TIP3    H1 2513   4.307   3.171   1.549
  876TIP3    H2 2514   4.455   3.160   1.523
  877TIP3   OH2 2515   3.840   2.453   0.096
  877TIP3    H1 2516   3.928   2.420   0.123
  877TIP3    H2 2517   3.779   2.405   0.153
  878TIP3   OH2 2518   3.905   2.708   0.530
  878TIP3    H1 2519   3.946   2.620   0.545
  878TIP3    H2 2520   3.964   2.741   0.459
  879TIP3   OH2 2521   4.066   2.885   1.022
  879TIP3    H1 2522   4.152   2.911   0.982
  879TIP3    H2 2523   4.081   2.920   1.112
  880TIP3   OH2 2524   4.135   3.026   1.257
  880TIP3    H1 2525   4.056   3.062   1.303
  880TIP3    H2 2526   4.167   3.106   1.209
  881TIP3   OH2 2527   2.753   2.755   2.059
  881TIP3    H1 2528   2.851   2.746   2.058
  881TIP3    H2 2529   2.728   2.668   2.096
  882TIP3   OH2 2530   4.585   2.615   1.812
  882TIP3    H1 2531   4.644   2.549   1.768
  882TIP3    H2 2532   4.559   2.672   1.736
  883TIP3   OH2 2533   4.012   2.458   0.566
  883TIP3    H1 2534   4.061   2.440   0.649
  883TIP3    H2 2535   3.952   2.380   0.564
  884TIP3   OH2 2536   2.715   2.442   1.393
  884TIP3    H1 2537   2.784   2.373   1.397
  884TIP3    H2 2538   2.768   2.522   1.383
  885TIP3   OH2 2539   2.533   2.724   1.462
  885TIP3    H1 2540   2.576   2.716   1.374
  885TIP3    H2 2541   2.543   2.818   1.480
  886TIP3   OH2 2542   4.457   2.757   1.618
  886TIP3    H1 2543   4.368   2.795   1.635
  886TIP3    H2 2544   4.433   2.685   1.558
  887TIP3   OH2 2545   4.103   2.394   0.183
  887TIP3    H1 2546   4.172   2.333   0.156
  887TIP3    H2 2547   4.154   2.477   0.187
  888TIP3   OH2 2548   3.659   3.925   0.469
  888TIP3    H1 2549   3.704   3.905   0.383
  888TIP3    H2 2550   3.719   3.992   0.506
  889TIP3   OH2 2551   2.725   2.313   1.779
  889TIP3    H1 2552   2.671   2.293   1.857
  889TIP3    H2 2553   2.656   2.345   1.717
  890TIP3   OH2 2554   2.760   3.723   1.850
  890TIP3    H1 2555   2.666   3.700   1.834
  890TIP3    H2 2556   2.768   3.711   1.945
  891TIP3   OH2 2557   2.940   3.757   1.397
  891TIP3    H1 2558   2.887   3.830   1.360
  891TIP3    H2 2559   3.024   3.777   1.351
  892TIP3   OH2 2560   3.383   4.005   1.535
  892TIP3    H1 2561   3.424   4.007   1.624
  892TIP3    H2 2562   3.449   4.056   1.483
  893TIP3   OH2 2563   3.561   4.156   1.394
  893TIP3    H1 2564   3.633   4.107   1.351
  893TIP3    H2 2565   3.613   4.214   1.454
  894TIP3   OH2 2566   4.355   2.519   1.495
  894TIP3    H1 2567   4.264   2.513   1.461
  894TIP3    H2 2568   4.387   2.427   1.482
  895TIP3   OH2 2569   2.615   4.018   1.422
  895TIP3    H1 2570   2.526   4.051   1.396
  895TIP3    H2 2571   2.620   4.053   1.512
  896TIP3   OH2 2572   2.850   3.994   1.279
  896TIP3    H1 2573   2.764   4.008   1.325
  896TIP3    H2 2574   2.830   4.028   1.189
  897TIP3   OH2 2575   3.275   4.025   1.079
  897TIP3    H1 2576   3.208   4.046   1.011
  897TIP3    H2 2577   3.289   4.113   1.119
  898TIP3   OH2 2578   3.544   3.964   1.130
  898TIP3    H1 2579   3.451   3.982   1.109
  898TIP3    H2 2580   3.589   4.038   1.085
  899TIP3   OH2 2581   3.750   4.157   1.043
  899TIP3    H1 2582   3.737   4.242   0.996
  899TIP3    H2 2583   3.778   4.098   0.970
  900TIP3   OH2 2584   2.525   3.814   1.166
  900TIP3    H1 2585   2.551   3.787   1.257
  900TIP3    H2 2586   2.597   3.770   1.115
  901TIP3   OH2 2587   2.717   3.683   1.023
  901TIP3    H1 2588   2.735   3.600   1.072
  901TIP3    H2 2589   2.807   3.722   1.018
  902TIP3   OH2 2590   2.983   3.781   1.025
  902TIP3    H1 2591   3.017   3.693   1.006
  902TIP3    H2 2592   3.027   3.800   1.110
  903TIP3   OH2 2593   3.556   2.434   1.111
  903TIP3    H1 2594   3.517   2.363   1.165
  903TIP3    H2 2595   3.629   2.388   1.066
  904TIP3   OH2 2596   4.084   2.324   1.026
  904TIP3    H1 2597   4.121   2.368   0.946
  904TIP3    H2 2598   3.988   2.332   1.010
  905TIP3   OH2 2599   4.178   2.415   0.785
  905TIP3    H1 2600   4.250   2.362   0.744
  905TIP3    H2 2601   4.213   2.506   0.768
  906TIP3   OH2 2602   3.240   2.217   1.005
  906TIP3    H1 2603   3.316   2.242   0.951
  906TIP3    H2 2604   3.281   2.195   1.089
  907TIP3   OH2 2605   3.799   2.321   0.993
  907TIP3    H1 2606   3.800   2.283   0.904
  907TIP3    H2 2607   3.786   2.241   1.049
  908TIP3   OH2 2608   3.835   2.243   0.553
  908TIP3    H1 2609   3.742   2.271   0.543
  908TIP3    H2 2610   3.821   2.159   0.602
  909TIP3   OH2 2611   2.300   3.580   0.561
  909TIP3    H1 2612   2.223   3.542   0.515
  909TIP3    H2 2613   2.297   3.671   0.527
  910TIP3   OH2 2614   3.238   2.359   0.635
  910TIP3    H1 2615   3.277   2.297   0.698
  910TIP3    H2 2616   3.271   2.444   0.673
  911TIP3   OH2 2617   3.078   3.777   0.132
  911TIP3    H1 2618   3.171   3.794   0.104
  911TIP3    H2 2619   3.061   3.698   0.075
  912TIP3   OH2 2620   3.795   3.885   0.233
  912TIP3    H1 2621   3.789   3.787   0.216
  912TIP3    H2 2622   3.756   3.921   0.150
  913TIP3   OH2 2623   3.016   2.433   2.030
  913TIP3    H1 2624   2.984   2.354   2.077
  913TIP3    H2 2625   3.111   2.428   2.051
  914TIP3   OH2 2626   3.268   2.423   2.141
  914TIP3    H1 2627   3.351   2.394   2.100
  914TIP3    H2 2628   3.254   2.352   2.207
  915TIP3   OH2 2629   2.424   3.647   0.223
  915TIP3    H1 2630   2.370   3.664   0.302
  915TIP3    H2 2631   2.468   3.565   0.246
  916TIP3   OH2 2632   4.090   2.483   1.928
  916TIP3    H1 2633   4.111   2.451   2.018
  916TIP3    H2 2634   4.178   2.478   1.885
  917TIP3   OH2 2635   4.029   4.035   1.422
  917TIP3    H1 2636   3.951   4.004   1.372
  917TIP3    H2 2637   4.012   4.131   1.422
  918TIP3   OH2 2638   5.296   3.407   0.189
  918TIP3    H1 2639   5.268   3.498   0.166
  918TIP3    H2 2640   5.219   3.358   0.154
  919TIP3   OH2 2641   5.297   3.407   0.566
  919TIP3    H1 2642   5.325   3.375   0.653
  919TIP3    H2 2643   5.254   3.328   0.529
  920TIP3   OH2 2644   4.594   3.304   0.936
  920TIP3    H1 2645   4.628   3.237   0.998
  920TIP3    H2 2646   4.674   3.357   0.919
  921TIP3   OH2 2647   5.543   3.704   0.247
  921TIP3    H1 2648   5.522   3.640   0.316
  921TIP3    H2 2649   5.562   3.784   0.297
  922TIP3   OH2 2650   4.566   3.711   0.662
  922TIP3    H1 2651   4.558   3.613   0.663
  922TIP3    H2 2652   4.662   3.720   0.649
  923TIP3   OH2 2653   4.272   2.916   0.446
  923TIP3    H1 2654   4.224   3.000   0.457
  923TIP3    H2 2655   4.202   2.861   0.406
  924TIP3   OH2 2656   4.331   3.202   0.613
  924TIP3    H1 2657   4.382   3.126   0.650
  924TIP3    H2 2658   4.391   3.233   0.544
  925TIP3   OH2 2659   5.190   4.174   0.268
  925TIP3    H1 2660   5.236   4.102   0.220
  925TIP3    H2 2661   5.176   4.131   0.354
  926TIP3   OH2 2662   5.093   3.631   0.618
  926TIP3    H1 2663   5.131   3.558   0.566
  926TIP3    H2 2664   5.177   3.676   0.641
  927TIP3   OH2 2665   6.108   2.953   0.613
  927TIP3    H1 2666   6.135   3.036   0.657
  927TIP3    H2 2667   6.126   2.973   0.520
  928TIP3   OH2 2668   5.506   3.134   0.650
  928TIP3    H1 2669   5.549   3.048   0.668
  928TIP3    H2 2670   5.475   3.121   0.558
  929TIP3   OH2 2671   4.843   2.793   0.615
  929TIP3    H1 2672   4.823   2.866   0.551
  929TIP3    H2 2673   4.796   2.719   0.570
  930TIP3   OH2 2674   5.536   2.885   0.239
  930TIP3    H1 2675   5.610   2.868   0.301
  930TIP3    H2 2676   5.586   2.919   0.162
  931TIP3   OH2 2677   4.477   2.995   0.721
  931TIP3    H1 2678   4.561   2.975   0.767
  931TIP3    H2 2679   4.489   2.941   0.641
  932TIP3   OH2 2680   4.918   3.194   0.515
  932TIP3    H1 2681   5.012   3.168   0.526
  932TIP3    H2 2682   4.879   3.110   0.481
  933TIP3   OH2 2683   6.180   3.160   0.783
  933TIP3    H1 2684   6.097   3.208   0.764
  933TIP3    H2 2685   6.194   3.186   0.876
  934TIP3   OH2 2686   4.841   2.777   1.048
  934TIP3    H1 2687   4.781   2.813   0.979
  934TIP3    H2 2688   4.789   2.796   1.129
  935TIP3   OH2 2689   5.185   3.624   0.061
  935TIP3    H1 2690   5.154   3.613  -0.030
  935TIP3    H2 2691   5.146   3.710   0.085
  936TIP3   OH2 2692   4.947   3.551   0.845
  936TIP3    H1 2693   4.884   3.618   0.880
  936TIP3    H2 2694   4.989   3.601   0.772
  937TIP3   OH2 2695   5.751   2.886   0.407
  937TIP3    H1 2696   5.741   2.836   0.489
  937TIP3    H2 2697   5.803   2.963   0.436
  938TIP3   OH2 2698   4.711   2.892   0.833
  938TIP3    H1 2699   4.774   2.964   0.854
  938TIP3    H2 2700   4.759   2.850   0.757
  939TIP3   OH2 2701   4.775   3.745   0.942
  939TIP3    H1 2702   4.749   3.829   0.899
  939TIP3    H2 2703   4.695   3.732   0.998
  940TIP3   OH2 2704   4.170   3.434   0.181
  940TIP3    H1 2705   4.131   3.458   0.095
  940TIP3    H2 2706   4.198   3.522   0.216
  941TIP3   OH2 2707   5.611   3.950   0.418
  941TIP3    H1 2708   5.521   3.942   0.456
  941TIP3    H2 2709   5.602   4.035   0.370
  942TIP3   OH2 2710   5.900   2.854   0.780
  942TIP3    H1 2711   5.812   2.882   0.750
  942TIP3    H2 2712   5.958   2.884   0.707
  943TIP3   OH2 2713   5.199   2.496   0.762
  943TIP3    H1 2714   5.186   2.401   0.778
  943TIP3    H2 2715   5.120   2.533   0.808
  944TIP3   OH2 2716   5.330   3.994   0.124
  944TIP3    H1 2717   5.367   3.913   0.081
  944TIP3    H2 2718   5.362   4.060   0.060
  945TIP3   OH2 2719   5.458   3.786  -0.006
  945TIP3    H1 2720   5.432   3.708  -0.057
  945TIP3    H2 2721   5.489   3.746   0.078
  946TIP3   OH2 2722   5.836   3.865   0.760
  946TIP3    H1 2723   5.825   3.788   0.701
  946TIP3    H2 2724   5.817   3.940   0.700
  947TIP3   OH2 2725   5.127   3.258   0.016
  947TIP3    H1 2726   5.045   3.309  -0.000
  947TIP3    H2 2727   5.166   3.256  -0.072
  948TIP3   OH2 2728   5.080   3.032  -0.240
  948TIP3    H1 2729   5.160   3.081  -0.214
  948TIP3    H2 2730   5.115   2.965  -0.299
  949TIP3   OH2 2731   6.031   3.502   0.604
  949TIP3    H1 2732   5.948   3.554   0.610
  949TIP3    H2 2733   6.060   3.525   0.513
  950TIP3   OH2 2734   5.472   3.332  -0.005
  950TIP3    H1 2735   5.418   3.363   0.072
  950TIP3    H2 2736   5.557   3.312   0.039
  951TIP3   OH2 2737   5.710   3.381   0.900
  951TIP3    H1 2738   5.706   3.466   0.948
  951TIP3    H2 2739   5.623   3.384   0.854
  952TIP3   OH2 2740   4.705   3.339   0.407
  952TIP3    H1 2741   4.664   3.282   0.339
  952TIP3    H2 2742   4.783   3.286   0.434
  953TIP3   OH2 2743   4.832   3.744   0.557
  953TIP3    H1 2744   4.814   3.710   0.468
  953TIP3    H2 2745   4.924   3.715   0.573
  954TIP3   OH2 2746   4.841   3.311   0.761
  954TIP3    H1 2747   4.874   3.289   0.671
  954TIP3    H2 2748   4.885   3.396   0.780
  955TIP3   OH2 2749   5.371   3.948   0.539
  955TIP3    H1 2750   5.353   4.028   0.591
  955TIP3    H2 2751   5.354   3.875   0.602
  956TIP3   OH2 2752   4.980   3.866   1.085
  956TIP3    H1 2753   4.920   3.930   1.130
  956TIP3    H2 2754   4.915   3.814   1.035
  957TIP3   OH2 2755   5.324   3.200  -0.191
  957TIP3    H1 2756   5.376   3.251  -0.124
  957TIP3    H2 2757   5.339   3.255  -0.269
  958TIP3   OH2 2758   4.736   3.423   1.187
  958TIP3    H1 2759   4.739   3.510   1.230
  958TIP3    H2 2760   4.640   3.406   1.190
  959TIP3   OH2 2761   5.054   3.882   0.116
  959TIP3    H1 2762   5.140   3.928   0.112
  959TIP3    H2 2763   5.009   3.923   0.042
  960TIP3   OH2 2764   4.775   4.037   1.170
  960TIP3    H1 2765   4.742   4.034   1.078
  960TIP3    H2 2766   4.695   4.015   1.222
  961TIP3   OH2 2767   5.810   2.452  -0.117
  961TIP3    H1 2768   5.732   2.467  -0.069
  961TIP3    H2 2769   5.817   2.532  -0.174
  962TIP3   OH2 2770   4.572   3.182   0.212
  962TIP3    H1 2771   4.508   3.229   0.154
  962TIP3    H2 2772   4.529   3.096   0.222
  963TIP3   OH2 2773   4.353   3.566   1.118
  963TIP3    H1 2774   4.291   3.543   1.046
  963TIP3    H2 2775   4.391   3.479   1.143
  964TIP3   OH2 2776   4.208   3.755   0.757
  964TIP3    H1 2777   4.303   3.749   0.738
  964TIP3    H2 2778   4.204   3.839   0.806
  965TIP3   OH2 2779   6.074   4.209   0.807
  965TIP3    H1 2780   6.071   4.113   0.819
  965TIP3    H2 2781   5.990   4.235   0.851
  966TIP3   OH2 2782   5.180   3.996   0.942
  966TIP3    H1 2783   5.179   4.089   0.973
  966TIP3    H2 2784   5.108   3.957   0.996
  967TIP3   OH2 2785   4.927   4.144  -0.114
  967TIP3    H1 2786   4.883   4.129  -0.199
  967TIP3    H2 2787   4.902   4.235  -0.092
  968TIP3   OH2 2788   4.382   3.968   0.269
  968TIP3    H1 2789   4.428   3.963   0.355
  968TIP3    H2 2790   4.308   3.908   0.285
  969TIP3   OH2 2791   5.168   4.013  -0.118
  969TIP3    H1 2792   5.087   4.068  -0.121
  969TIP3    H2 2793   5.233   4.066  -0.167
  970TIP3   OH2 2794   5.963   3.342   1.080
  970TIP3    H1 2795   5.883   3.355   1.028
  970TIP3    H2 2796   5.977   3.245   1.069
  971TIP3   OH2 2797   4.559   3.749   1.108
  971TIP3    H1 2798   4.610   3.730   1.190
  971TIP3    H2 2799   4.485   3.685   1.115
  972TIP3   OH2 2800   4.958   2.572   0.889
  972TIP3    H1 2801   4.869   2.541   0.864
  972TIP3    H2 2802   4.934   2.655   0.934
  973TIP3   OH2 2803   5.491   2.688   1.084
  973TIP3    H1 2804   5.559   2.660   1.149
  973TIP3    H2 2805   5.407   2.667   1.130
  974TIP3   OH2 2806   5.733   3.117   1.003
  974TIP3    H1 2807   5.684   3.113   1.088
  974TIP3    H2 2808   5.707   3.204   0.967
  975TIP3   OH2 2809   5.120   2.636  -0.133
  975TIP3    H1 2810   5.078   2.630  -0.045
  975TIP3    H2 2811   5.077   2.564  -0.179
  976TIP3   OH2 2812   4.890   3.087   0.908
  976TIP3    H1 2813   4.840   3.109   0.989
  976TIP3    H2 2814   4.874   3.168   0.854
  977TIP3   OH2 2815   4.774   2.974   0.424
  977TIP3    H1 2816   4.681   2.948   0.439
  977TIP3    H2 2817   4.789   2.934   0.335
  978TIP3   OH2 2818   5.264   3.060   0.152
  978TIP3    H1 2819   5.210   3.131   0.109
  978TIP3    H2 2820   5.317   3.028   0.077
  979TIP3   OH2 2821   5.439   3.339   1.238
  979TIP3    H1 2822   5.417   3.266   1.299
  979TIP3    H2 2823   5.533   3.352   1.259
  980TIP3   OH2 2824   5.422   3.089   0.390
  980TIP3    H1 2825   5.362   3.119   0.318
  980TIP3    H2 2826   5.455   3.007   0.347
  981TIP3   OH2 2827   4.709   3.118   1.118
  981TIP3    H1 2828   4.739   3.180   1.185
  981TIP3    H2 2829   4.698   3.035   1.170
  982TIP3   OH2 2830   4.767   2.576  -0.168
  982TIP3    H1 2831   4.761   2.583  -0.071
  982TIP3    H2 2832   4.686   2.618  -0.196
  983TIP3   OH2 2833   4.302   2.639   0.700
  983TIP3    H1 2834   4.379   2.670   0.751
  983TIP3    H2 2835   4.341   2.606   0.617
  984TIP3   OH2 2836   4.271   2.622   0.216
  984TIP3    H1 2837   4.323   2.657   0.141
  984TIP3    H2 2838   4.215   2.699   0.237
  985TIP3   OH2 2839   5.434   3.335   0.814
  985TIP3    H1 2840   5.466   3.263   0.755
  985TIP3    H2 2841   5.404   3.282   0.891
  986TIP3   OH2 2842   5.101   2.798   0.485
  986TIP3    H1 2843   5.018   2.794   0.537
  986TIP3    H2 2844   5.169   2.796   0.555
  987TIP3   OH2 2845   4.535   2.851   0.494
  987TIP3    H1 2846   4.441   2.857   0.466
  987TIP3    H2 2847   4.560   2.760   0.469
  988TIP3   OH2 2848   4.808   2.850   0.183
  988TIP3    H1 2849   4.903   2.862   0.162
  988TIP3    H2 2850   4.763   2.871   0.098
  989TIP3   OH2 2851   5.594   2.871   0.687
  989TIP3    H1 2852   5.557   2.883   0.777
  989TIP3    H2 2853   5.528   2.809   0.649
  990TIP3   OH2 2854   4.648   2.879  -0.035
  990TIP3    H1 2855   4.559   2.854  -0.064
  990TIP3    H2 2856   4.690   2.914  -0.116
  991TIP3   OH2 2857   5.762   4.560   0.903
  991TIP3    H1 2858   5.758   4.584   0.809
  991TIP3    H2 2859   5.838   4.612   0.934
  992TIP3   OH2 2860   4.719   3.670   1.328
  992TIP3    H1 2861   4.800   3.701   1.373
  992TIP3    H2 2862   4.655   3.671   1.401
  993TIP3   OH2 2863   5.185   3.123   0.582
  993TIP3    H1 2864   5.256   3.084   0.529
  993TIP3    H2 2865   5.197   3.081   0.668
  994TIP3   OH2 2866   4.708   2.612   0.459
  994TIP3    H1 2867   4.676   2.531   0.503
  994TIP3    H2 2868   4.759   2.576   0.385
  995TIP3   OH2 2869   5.161   3.017   0.875
  995TIP3    H1 2870   5.072   3.056   0.886
  995TIP3    H2 2871   5.218   3.080   0.923
  996TIP3   OH2 2872   4.895   3.408  -0.030
  996TIP3    H1 2873   4.821   3.345  -0.042
  996TIP3    H2 2874   4.878   3.443   0.061
  997TIP3   OH2 2875   5.799   3.647   0.597
  997TIP3    H1 2876   5.822   3.696   0.515
  997TIP3    H2 2877   5.712   3.607   0.572
  998TIP3   OH2 2878   5.376   2.724  -0.181
  998TIP3    H1 2879   5.282   2.696  -0.179
  998TIP3    H2 2880   5.372   2.818  -0.156
  999TIP3   OH2 2881   5.296   3.728   0.965
  999TIP3    H1 2882   5.319   3.710   1.057
  999TIP3    H2 2883   5.260   3.818   0.968
 1000TIP3   OH2 2884   5.423   2.972  -0.065
 1000TIP3    H1 2885   5.520   2.975  -0.048
 1000TIP3    H2 2886   5.408   3.050  -0.122
 1001TIP3   OH2 2887   4.587   3.431   0.644
 1001TIP3    H1 2888   4.625   3.407   0.556
 1001TIP3    H2 2889   4.633   3.368   0.702
 1002TIP3   OH2 2890   5.046   3.567  -0.194
 1002TIP3    H1 2891   4.997   3.653  -0.191
 1002TIP3    H2 2892   4.988   3.510  -0.139
 1003TIP3   OH2 2893   4.468   3.356   1.257
 1003TIP3    H1 2894   4.492   3.341   1.350
 1003TIP3    H2 2895   4.402   3.286   1.241
 1004TIP3   OH2 2896   5.195   3.466   1.277
 1004TIP3    H1 2897   5.137   3.410   1.223
 1004TIP3    H2 2898   5.283   3.435   1.248
 1005TIP3   OH2 2899   5.459   3.985   0.863
 1005TIP3    H1 2900   5.362   3.987   0.870
 1005TIP3    H2 2901   5.485   4.041   0.939
 1006TIP3   OH2 2902   5.830   3.076  -0.190
 1006TIP3    H1 2903   5.860   3.003  -0.248
 1006TIP3    H2 2904   5.837   3.151  -0.250
 1007TIP3   OH2 2905   6.086   3.918   0.849
 1007TIP3    H1 2906   5.988   3.913   0.840
 1007TIP3    H2 2907   6.112   3.888   0.759
 1008TIP3   OH2 2908   5.564   3.508   0.519
 1008TIP3    H1 2909   5.470   3.483   0.529
 1008TIP3    H2 2910   5.598   3.430   0.470
 1009TIP3   OH2 2911   4.691   3.737   0.271
 1009TIP3    H1 2912   4.700   3.817   0.216
 1009TIP3    H2 2913   4.595   3.727   0.272
 1010TIP3   OH2 2914   4.257   3.042  -0.024
 1010TIP3    H1 2915   4.302   3.128  -0.009
 1010TIP3    H2 2916   4.178   3.051   0.034
 1011TIP3   OH2 2917   4.829   3.503   0.214
 1011TIP3    H1 2918   4.797   3.594   0.231
 1011TIP3    H2 2919   4.790   3.455   0.290
 1012TIP3   OH2 2920   4.959   4.081   0.737
 1012TIP3    H1 2921   4.998   4.153   0.684
 1012TIP3    H2 2922   5.038   4.048   0.784
 1013TIP3   OH2 2923   4.615   3.973   0.120
 1013TIP3    H1 2924   4.528   3.981   0.162
 1013TIP3    H2 2925   4.647   4.066   0.123
 1014TIP3   OH2 2926   5.349   3.715   0.695
 1014TIP3    H1 2927   5.341   3.712   0.793
 1014TIP3    H2 2928   5.429   3.663   0.680
 1015TIP3   OH2 2929   5.598   4.250   0.746
 1015TIP3    H1 2930   5.518   4.195   0.735
 1015TIP3    H2 2931   5.584   4.315   0.673
 1016TIP3   OH2 2932   4.683   2.861   1.265
 1016TIP3    H1 2933   4.586   2.863   1.277
 1016TIP3    H2 2934   4.710   2.798   1.334
 1017TIP3   OH2 2935   5.475   3.551  -0.178
 1017TIP3    H1 2936   5.472   3.476  -0.116
 1017TIP3    H2 2937   5.567   3.545  -0.210
 1018TIP3   OH2 2938   4.396   3.946   0.899
 1018TIP3    H1 2939   4.450   3.869   0.924
 1018TIP3    H2 2940   4.434   4.014   0.956
 1019TIP3   OH2 2941   4.662   3.558  -0.428
 1019TIP3    H1 2942   4.724   3.485  -0.434
 1019TIP3    H2 2943   4.652   3.569  -0.331
 1020TIP3   OH2 2944   4.636   3.592  -0.150
 1020TIP3    H1 2945   4.709   3.567  -0.091
 1020TIP3    H2 2946   4.640   3.691  -0.144
 1021TIP3   OH2 2947   4.371   3.289   0.054
 1021TIP3    H1 2948   4.306   3.337   0.110
 1021TIP3    H2 2949   4.389   3.356  -0.014
 1022TIP3   OH2 2950   5.517   2.926   0.946
 1022TIP3    H1 2951   5.599   2.961   0.984
 1022TIP3    H2 2952   5.503   2.844   0.998
 1023TIP3   OH2 2953   5.389   2.680   0.106
 1023TIP3    H1 2954   5.381   2.699   0.011
 1023TIP3    H2 2955   5.433   2.761   0.140
 1024TIP3   OH2 2956   4.895   3.792  -0.208
 1024TIP3    H1 2957   4.811   3.823  -0.169
 1024TIP3    H2 2958   4.889   3.830  -0.296
 1025TIP3   OH2 2959   5.089   2.854   0.212
 1025TIP3    H1 2960   5.154   2.924   0.193
 1025TIP3    H2 2961   5.094   2.848   0.310
 1026TIP3   OH2 2962   5.356   3.173   1.021
 1026TIP3    H1 2963   5.377   3.227   1.099
 1026TIP3    H2 2964   5.413   3.095   1.033
 1027TIP3   OH2 2965   5.234   2.585   0.316
 1027TIP3    H1 2966   5.224   2.663   0.372
 1027TIP3    H2 2967   5.292   2.620   0.245
 1028TIP3   OH2 2968   4.639   3.862  -0.131
 1028TIP3    H1 2969   4.615   3.934  -0.194
 1028TIP3    H2 2970   4.628   3.907  -0.044
 1029TIP3   OH2 2971   4.744   2.580   0.109
 1029TIP3    H1 2972   4.744   2.672   0.142
 1029TIP3    H2 2973   4.840   2.561   0.116
 1030TIP3   OH2 2974   5.999   3.073   0.999
 1030TIP3    H1 2975   5.901   3.072   1.007
 1030TIP3    H2 2976   6.009   3.034   0.911
 1031TIP3   OH2 2977   5.649   3.267   0.388
 1031TIP3    H1 2978   5.573   3.208   0.399
 1031TIP3    H2 2979   5.720   3.219   0.436
 1032TIP3   OH2 2980   4.362   3.506  -0.139
 1032TIP3    H1 2981   4.436   3.569  -0.129
 1032TIP3    H2 2982   4.405   3.443  -0.202
 1033TIP3   OH2 2983   4.320   2.778  -0.012
 1033TIP3    H1 2984   4.306   2.875  -0.021
 1033TIP3    H2 2985   4.242   2.744  -0.057
 1034TIP3   OH2 2986   5.614   4.220   0.341
 1034TIP3    H1 2987   5.568   4.266   0.267
 1034TIP3    H2 2988   5.707   4.244   0.319
 1035TIP3   OH2 2989   4.692   2.492   0.867
 1035TIP3    H1 2990   4.662   2.460   0.779
 1035TIP3    H2 2991   4.682   2.413   0.923
 1036TIP3   OH2 2992   4.229   3.700   0.250
 1036TIP3    H1 2993   4.156   3.740   0.298
 1036TIP3    H2 2994   4.220   3.745   0.163
 1037TIP3   OH2 2995   4.388   4.251   1.319
 1037TIP3    H1 2996   4.475   4.250   1.365
 1037TIP3    H2 2997   4.369   4.156   1.315
 1038TIP3   OH2 2998   4.871   4.217   1.363
 1038TIP3    H1 2999   4.966   4.200   1.369
 1038TIP3    H2 3000   4.846   4.160   1.287
 1039TIP3   OH2 3001   5.508   4.125   1.096
 1039TIP3    H1 3002   5.501   4.053   1.163
 1039TIP3    H2 3003   5.587   4.174   1.126
 1040TIP3   OH2 3004   4.519   3.657   1.519
 1040TIP3    H1 3005   4.537   3.562   1.520
 1040TIP3    H2 3006   4.431   3.660   1.474
 1041TIP3   OH2 3007   4.502   3.316  -0.272
 1041TIP3    H1 3008   4.569   3.278  -0.212
 1041TIP3    H2 3009   4.542   3.305  -0.359
 1042TIP3   OH2 3010   5.127   3.742   1.291
 1042TIP3    H1 3011   5.086   3.759   1.204
 1042TIP3    H2 3012   5.159   3.650   1.283
 1043TIP3   OH2 3013   5.054   3.526  -0.467
 1043TIP3    H1 3014   5.051   3.554  -0.373
 1043TIP3    H2 3015   5.038   3.431  -0.457
 1044TIP3   OH2 3016   5.621   3.750   0.898
 1044TIP3    H1 3017   5.694   3.796   0.852
 1044TIP3    H2 3018   5.549   3.815   0.885
 1045TIP3   OH2 3019   4.636   3.390   1.500
 1045TIP3    H1 3020   4.714   3.338   1.476
 1045TIP3    H2 3021   4.663   3.423   1.588
 1046TIP3   OH2 3022   4.702   3.210  -0.069
 1046TIP3    H1 3023   4.680   3.168   0.016
 1046TIP3    H2 3024   4.740   3.136  -0.120
 1047TIP3   OH2 3025   4.973   3.276   1.161
 1047TIP3    H1 3026   4.897   3.337   1.165
 1047TIP3    H2 3027   5.021   3.309   1.082
 1048TIP3   OH2 3028   4.802   3.004  -0.229
 1048TIP3    H1 3029   4.791   2.986  -0.324
 1048TIP3    H2 3030   4.899   3.018  -0.225
 1049TIP3   OH2 3031   5.490   3.679   1.296
 1049TIP3    H1 3032   5.569   3.657   1.246
 1049TIP3    H2 3033   5.490   3.610   1.365
 1050TIP3   OH2 3034   5.096   3.064   1.289
 1050TIP3    H1 3035   5.097   2.985   1.233
 1050TIP3    H2 3036   5.054   3.130   1.230
 1051TIP3   OH2 3037   5.099   2.851   1.095
 1051TIP3    H1 3038   5.127   2.892   1.011
 1051TIP3    H2 3039   5.006   2.828   1.076
 1052TIP3   OH2 3040   5.128   3.388   0.969
 1052TIP3    H1 3041   5.210   3.395   0.918
 1052TIP3    H2 3042   5.072   3.456   0.925
 1053TIP3   OH2 3043   5.711   3.355   1.351
 1053TIP3    H1 3044   5.758   3.271   1.357
 1053TIP3    H2 3045   5.779   3.414   1.314
 1054TIP3   OH2 3046   5.750   3.607   1.086
 1054TIP3    H1 3047   5.692   3.660   1.026
 1054TIP3    H2 3048   5.838   3.627   1.045
 1055TIP3   OH2 3049   4.974   3.179   1.518
 1055TIP3    H1 3050   4.905   3.110   1.530
 1055TIP3    H2 3051   5.010   3.154   1.430
 1056TIP3   OH2 3052   5.232   2.616   1.161
 1056TIP3    H1 3053   5.184   2.699   1.138
 1056TIP3    H2 3054   5.163   2.549   1.148
 1057TIP3   OH2 3055   5.358   3.121   1.377
 1057TIP3    H1 3056   5.346   3.109   1.473
 1057TIP3    H2 3057   5.268   3.095   1.347
 1058TIP3   OH2 3058   5.598   3.070   1.233
 1058TIP3    H1 3059   5.521   3.070   1.293
 1058TIP3    H2 3060   5.670   3.038   1.290
 1059TIP3   OH2 3061   5.828   3.010   1.385
 1059TIP3    H1 3062   5.839   2.914   1.404
 1059TIP3    H2 3063   5.823   3.049   1.475
 1060TIP3   OH2 3064   4.813   2.959   1.570
 1060TIP3    H1 3065   4.821   2.869   1.533
 1060TIP3    H2 3066   4.850   2.945   1.660
 1061TIP3   OH2 3067   5.326   2.625   1.419
 1061TIP3    H1 3068   5.394   2.555   1.413
 1061TIP3    H2 3069   5.287   2.619   1.329
 1062TIP3   OH2 3070   5.391   2.839   1.578
 1062TIP3    H1 3071   5.369   2.769   1.513
 1062TIP3    H2 3072   5.314   2.899   1.570
 1063TIP3   OH2 3073   4.598   4.059  -0.315
 1063TIP3    H1 3074   4.675   4.101  -0.355
 1063TIP3    H2 3075   4.529   4.089  -0.374
 1064TIP3   OH2 3076   4.098   3.448  -0.093
 1064TIP3    H1 3077   4.187   3.485  -0.111
 1064TIP3    H2 3078   4.099   3.371  -0.150
 1065TIP3   OH2 3079   3.990   4.057   0.313
 1065TIP3    H1 3080   3.928   3.990   0.278
 1065TIP3    H2 3081   4.047   4.005   0.372
 1066TIP3   OH2 3082   4.145   3.913   0.489
 1066TIP3    H1 3083   4.135   3.841   0.552
 1066TIP3    H2 3084   4.194   3.978   0.542
 1067TIP3   OH2 3085   5.861   4.318   0.299
 1067TIP3    H1 3086   5.890   4.354   0.384
 1067TIP3    H2 3087   5.930   4.352   0.239
 1068TIP3   OH2 3088   5.900   4.335   0.578
 1068TIP3    H1 3089   5.857   4.248   0.571
 1068TIP3    H2 3090   5.976   4.312   0.634
 1069TIP3   OH2 3091   5.947   4.011   1.149
 1069TIP3    H1 3092   5.873   4.019   1.213
 1069TIP3    H2 3093   5.987   4.101   1.154
 1070TIP3   OH2 3094   5.749   3.517  -0.241
 1070TIP3    H1 3095   5.811   3.591  -0.258
 1070TIP3    H2 3096   5.792   3.474  -0.164
 1071TIP3   OH2 3097   5.890   3.395  -0.033
 1071TIP3    H1 3098   5.824   3.352   0.026
 1071TIP3    H2 3099   5.952   3.434   0.032
 1072TIP3   OH2 3100   5.945   3.783   0.408
 1072TIP3    H1 3101   5.996   3.721   0.354
 1072TIP3    H2 3102   5.934   3.859   0.347
 1073TIP3   OH2 3103   5.776   4.083   0.602
 1073TIP3    H1 3104   5.704   4.128   0.651
 1073TIP3    H2 3105   5.726   4.037   0.531
 1074TIP3   OH2 3106   5.708   3.249   0.119
 1074TIP3    H1 3107   5.711   3.152   0.114
 1074TIP3    H2 3108   5.693   3.265   0.215
 1075TIP3   OH2 3109   4.330   3.321   0.867
 1075TIP3    H1 3110   4.329   3.292   0.773
 1075TIP3    H2 3111   4.427   3.324   0.883
 1076TIP3   OH2 3112   5.992   3.672   0.977
 1076TIP3    H1 3113   6.065   3.608   0.967
 1076TIP3    H2 3114   6.018   3.742   0.915
 1077TIP3   OH2 3115   6.179   3.480   0.994
 1077TIP3    H1 3116   6.104   3.430   1.033
 1077TIP3    H2 3117   6.251   3.415   1.008
 1078TIP3   OH2 3118   5.622   2.711  -0.410
 1078TIP3    H1 3119   5.706   2.677  -0.373
 1078TIP3    H2 3120   5.557   2.666  -0.353
 1079TIP3   OH2 3121   5.694   2.967   0.023
 1079TIP3    H1 3122   5.741   2.881   0.031
 1079TIP3    H2 3123   5.745   3.008  -0.051
 1080TIP3   OH2 3124   5.863   3.138   0.510
 1080TIP3    H1 3125   5.949   3.166   0.470
 1080TIP3    H2 3126   5.875   3.176   0.599
 1081TIP3   OH2 3127   5.930   3.283   0.743
 1081TIP3    H1 3128   5.852   3.317   0.790
 1081TIP3    H2 3129   5.962   3.364   0.697
 1082TIP3   OH2 3130   4.546   3.009   1.541
 1082TIP3    H1 3131   4.643   3.003   1.541
 1082TIP3    H2 3132   4.523   2.924   1.583
 1083TIP3   OH2 3133   6.383   2.873   1.299
 1083TIP3    H1 3134   6.440   2.807   1.254
 1083TIP3    H2 3135   6.354   2.929   1.223
 1084TIP3   OH2 3136   5.812   2.717   0.051
 1084TIP3    H1 3137   5.857   2.700   0.137
 1084TIP3    H2 3138   5.747   2.644   0.051
 1085TIP3   OH2 3139   4.508   2.701   0.876
 1085TIP3    H1 3140   4.571   2.626   0.883
 1085TIP3    H2 3141   4.571   2.775   0.867
 1086TIP3   OH2 3142   4.312   2.976   0.946
 1086TIP3    H1 3143   4.361   2.965   0.861
 1086TIP3    H2 3144   4.343   3.063   0.973
 1087TIP3   OH2 3145   6.254   3.014   1.105
 1087TIP3    H1 3146   6.166   3.053   1.125
 1087TIP3    H2 3147   6.226   2.942   1.045
 1088TIP3   OH2 3148   5.867   2.652  -0.294
 1088TIP3    H1 3149   5.937   2.605  -0.346
 1088TIP3    H2 3150   5.897   2.743  -0.301
 1089TIP3   OH2 3151   4.295   2.482   0.447
 1089TIP3    H1 3152   4.202   2.478   0.472
 1089TIP3    H2 3153   4.293   2.538   0.366
 1090TIP3   OH2 3154   5.443   4.182  -0.043
 1090TIP3    H1 3155   5.494   4.149  -0.118
 1090TIP3    H2 3156   5.500   4.251  -0.007
 1091TIP3   OH2 3157   4.515   2.561   1.263
 1091TIP3    H1 3158   4.463   2.553   1.344
 1091TIP3    H2 3159   4.449   2.596   1.201
 1092TIP3   OH2 3160   4.555   3.985   1.338
 1092TIP3    H1 3161   4.463   3.956   1.320
 1092TIP3    H2 3162   4.563   3.968   1.432
 1093TIP3   OH2 3163   4.732   4.017   0.886
 1093TIP3    H1 3164   4.685   4.093   0.846
 1093TIP3    H2 3165   4.818   4.030   0.841
 1094TIP3   OH2 3166   5.178   4.262   1.024
 1094TIP3    H1 3167   5.221   4.264   1.112
 1094TIP3    H2 3168   5.244   4.312   0.970
 1095TIP3   OH2 3169   5.356   4.413   0.882
 1095TIP3    H1 3170   5.426   4.364   0.836
 1095TIP3    H2 3171   5.409   4.470   0.941
 1096TIP3   OH2 3172   6.152   2.777   0.981
 1096TIP3    H1 3173   6.060   2.772   0.948
 1096TIP3    H2 3174   6.181   2.684   0.969
 1097TIP3   OH2 3175   4.410   4.273   0.909
 1097TIP3    H1 3176   4.322   4.309   0.882
 1097TIP3    H2 3177   4.418   4.310   0.997
 1098TIP3   OH2 3178   4.646   4.253   0.766
 1098TIP3    H1 3179   4.559   4.266   0.810
 1098TIP3    H2 3180   4.627   4.285   0.675
 1099TIP3   OH2 3181   5.071   4.281   0.566
 1099TIP3    H1 3182   5.004   4.301   0.498
 1099TIP3    H2 3183   5.086   4.369   0.606
 1100TIP3   OH2 3184   5.340   4.223   0.618
 1100TIP3    H1 3185   5.246   4.237   0.596
 1100TIP3    H2 3186   5.383   4.295   0.570
 1101TIP3   OH2 3187   5.550   4.414   0.531
 1101TIP3    H1 3188   5.533   4.499   0.484
 1101TIP3    H2 3189   5.573   4.354   0.457
 1102TIP3   OH2 3190   4.317   4.066   0.656
 1102TIP3    H1 3191   4.349   4.041   0.746
 1102TIP3    H2 3192   4.389   4.027   0.602
 1103TIP3   OH2 3193   4.512   3.941   0.511
 1103TIP3    H1 3194   4.531   3.857   0.557
 1103TIP3    H2 3195   4.602   3.980   0.505
 1104TIP3   OH2 3196   4.777   4.037   0.513
 1104TIP3    H1 3197   4.813   3.949   0.492
 1104TIP3    H2 3198   4.824   4.055   0.597
 1105TIP3   OH2 3199   5.359   2.692   0.603
 1105TIP3    H1 3200   5.313   2.622   0.653
 1105TIP3    H2 3201   5.426   2.643   0.553
 1106TIP3   OH2 3202   5.882   2.576   0.511
 1106TIP3    H1 3203   5.917   2.626   0.433
 1106TIP3    H2 3204   5.786   2.589   0.500
 1107TIP3   OH2 3205   5.975   2.674   0.272
 1107TIP3    H1 3206   6.047   2.621   0.231
 1107TIP3    H2 3207   6.008   2.765   0.256
 1108TIP3   OH2 3208   4.604   2.400   0.619
 1108TIP3    H1 3209   4.513   2.366   0.618
 1108TIP3    H2 3210   4.655   2.316   0.615
 1109TIP3   OH2 3211   4.370   2.269   0.259
 1109TIP3    H1 3212   4.421   2.320   0.192
 1109TIP3    H2 3213   4.359   2.337   0.329
 1110TIP3   OH2 3214   5.046   2.436   0.496
 1110TIP3    H1 3215   5.107   2.482   0.437
 1110TIP3    H2 3216   5.072   2.470   0.583
 1111TIP3   OH2 3217   5.601   2.578   0.480
 1111TIP3    H1 3218   5.592   2.544   0.390
 1111TIP3    H2 3219   5.584   2.497   0.534
 1112TIP3   OH2 3220   5.618   2.509   0.060
 1112TIP3    H1 3221   5.525   2.543   0.058
 1112TIP3    H2 3222   5.603   2.422   0.103
 1113TIP3   OH2 3223   4.109   3.839   0.046
 1113TIP3    H1 3224   4.025   3.805   0.011
 1113TIP3    H2 3225   4.095   3.934   0.036
 1114TIP3   OH2 3226   4.511   2.419   0.072
 1114TIP3    H1 3227   4.543   2.365  -0.002
 1114TIP3    H2 3228   4.586   2.480   0.086
 1115TIP3   OH2 3229   5.020   2.603   0.128
 1115TIP3    H1 3230   5.081   2.555   0.185
 1115TIP3    H2 3231   5.044   2.695   0.153
 1116TIP3   OH2 3232   4.812   2.681   1.509
 1116TIP3    H1 3233   4.781   2.609   1.567
 1116TIP3    H2 3234   4.907   2.683   1.534
 1117TIP3   OH2 3235   5.062   2.679   1.627
 1117TIP3    H1 3236   5.146   2.654   1.586
 1117TIP3    H2 3237   5.051   2.607   1.693
 1118TIP3   OH2 3238   4.217   3.904  -0.295
 1118TIP3    H1 3239   4.174   3.907  -0.208
 1118TIP3    H2 3240   4.274   3.827  -0.287
 1119TIP3   OH2 3241   5.886   2.739   1.415
 1119TIP3    H1 3242   5.907   2.708   1.506
 1119TIP3    H2 3243   5.974   2.734   1.372
 1120TIP3   OH2 3244   5.827   4.291   0.908
 1120TIP3    H1 3245   5.748   4.259   0.859
 1120TIP3    H2 3246   5.808   4.387   0.909
 1121TIP3   OH2 3247   7.086   3.644   0.061
 1121TIP3    H1 3248   7.127   3.634   0.149
 1121TIP3    H2 3249   7.041   3.557   0.053
 1122TIP3   OH2 3250   6.391   3.559   0.419
 1122TIP3    H1 3251   6.422   3.492   0.483
 1122TIP3    H2 3252   6.470   3.613   0.410
 1123TIP3   OH2 3253   6.357   3.961   0.156
 1123TIP3    H1 3254   6.348   3.863   0.153
 1123TIP3    H2 3255   6.452   3.970   0.168
 1124TIP3   OH2 3256   6.059   3.170  -0.069
 1124TIP3    H1 3257   6.024   3.260  -0.057
 1124TIP3    H2 3258   5.976   3.123  -0.088
 1125TIP3   OH2 3259   6.135   3.460   0.096
 1125TIP3    H1 3260   6.179   3.383   0.136
 1125TIP3    H2 3261   6.201   3.488   0.031
 1126TIP3   OH2 3262   6.887   3.894   0.097
 1126TIP3    H1 3263   6.912   3.807   0.061
 1126TIP3    H2 3264   6.975   3.926   0.127
 1127TIP3   OH2 3265   7.306   3.389   0.137
 1127TIP3    H1 3266   7.346   3.306   0.170
 1127TIP3    H2 3267   7.300   3.369   0.043
 1128TIP3   OH2 3268   6.625   3.044   0.114
 1128TIP3    H1 3269   6.604   3.123   0.058
 1128TIP3    H2 3270   6.582   2.974   0.060
 1129TIP3   OH2 3271   6.272   3.249   0.203
 1129TIP3    H1 3272   6.356   3.232   0.251
 1129TIP3    H2 3273   6.284   3.193   0.124
 1130TIP3   OH2 3274   6.731   3.461   0.015
 1130TIP3    H1 3275   6.823   3.429   0.021
 1130TIP3    H2 3276   6.686   3.381  -0.019
 1131TIP3   OH2 3277   7.952   3.417   0.263
 1131TIP3    H1 3278   7.874   3.474   0.256
 1131TIP3    H2 3279   7.985   3.437   0.352
 1132TIP3   OH2 3280   6.637   3.034   0.536
 1132TIP3    H1 3281   6.577   3.071   0.468
 1132TIP3    H2 3282   6.585   3.052   0.617
 1133TIP3   OH2 3283   6.745   3.811   0.331
 1133TIP3    H1 3284   6.678   3.871   0.373
 1133TIP3    H2 3285   6.787   3.871   0.267
 1134TIP3   OH2 3286   6.503   3.152   0.326
 1134TIP3    H1 3287   6.567   3.224   0.345
 1134TIP3    H2 3288   6.550   3.107   0.252
 1135TIP3   OH2 3289   6.569   4.001   0.424
 1135TIP3    H1 3290   6.543   4.089   0.391
 1135TIP3    H2 3291   6.493   3.983   0.483
 1136TIP3   OH2 3292   7.691   3.114   0.257
 1136TIP3    H1 3293   7.598   3.137   0.242
 1136TIP3    H2 3294   7.730   3.135   0.170
 1137TIP3   OH2 3295   6.998   2.754   0.256
 1137TIP3    H1 3296   6.978   2.659   0.267
 1137TIP3    H2 3297   6.917   2.794   0.295
 1138TIP3   OH2 3298   7.620   4.138   0.248
 1138TIP3    H1 3299   7.633   4.078   0.173
 1138TIP3    H2 3300   7.599   4.221   0.202
 1139TIP3   OH2 3301   7.500   3.636   0.392
 1139TIP3    H1 3302   7.500   3.719   0.442
 1139TIP3    H2 3303   7.416   3.644   0.343
 1140TIP3   OH2 3304   6.470   3.542  -0.074
 1140TIP3    H1 3305   6.457   3.601  -0.151
 1140TIP3    H2 3306   6.565   3.525  -0.074
 1141TIP3   OH2 3307   6.641   4.010   0.025
 1141TIP3    H1 3308   6.595   3.931  -0.007
 1141TIP3    H2 3309   6.726   3.972   0.056
 1142TIP3   OH2 3310   6.641   3.566   0.255
 1142TIP3    H1 3311   6.670   3.542   0.165
 1142TIP3    H2 3312   6.682   3.653   0.269
 1143TIP3   OH2 3313   6.776   4.124   0.568
 1143TIP3    H1 3314   6.719   4.186   0.617
 1143TIP3    H2 3315   6.709   4.071   0.522
 1144TIP3   OH2 3316   6.531   3.681   0.670
 1144TIP3    H1 3317   6.535   3.767   0.717
 1144TIP3    H2 3318   6.436   3.661   0.678
 1145TIP3   OH2 3319   6.572   4.292   0.658
 1145TIP3    H1 3320   6.535   4.289   0.567
 1145TIP3    H2 3321   6.493   4.270   0.712
 1146TIP3   OH2 3322   6.151   3.823   0.604
 1146TIP3    H1 3323   6.084   3.802   0.536
 1146TIP3    H2 3324   6.186   3.734   0.628
 1147TIP3   OH2 3325   6.005   4.011   0.242
 1147TIP3    H1 3326   6.100   4.011   0.225
 1147TIP3    H2 3327   5.994   4.093   0.294
 1148TIP3   OH2 3328   7.870   4.452   0.297
 1148TIP3    H1 3329   7.888   4.360   0.319
 1148TIP3    H2 3330   7.793   4.471   0.354
 1149TIP3   OH2 3331   6.972   4.255   0.423
 1149TIP3    H1 3332   6.972   4.345   0.462
 1149TIP3    H2 3333   6.903   4.212   0.479
 1150TIP3   OH2 3334   7.754   3.595   0.572
 1150TIP3    H1 3335   7.680   3.608   0.511
 1150TIP3    H2 3336   7.772   3.499   0.561
 1151TIP3   OH2 3337   6.358   4.003   0.593
 1151TIP3    H1 3338   6.405   3.987   0.677
 1151TIP3    H2 3339   6.282   3.941   0.601
 1152TIP3   OH2 3340   6.754   2.828   0.377
 1152TIP3    H1 3341   6.665   2.797   0.351
 1152TIP3    H2 3342   6.730   2.912   0.420
 1153TIP3   OH2 3343   7.288   2.943   0.570
 1153TIP3    H1 3344   7.355   2.917   0.636
 1153TIP3    H2 3345   7.203   2.923   0.616
 1154TIP3   OH2 3346   7.528   3.372   0.488
 1154TIP3    H1 3347   7.482   3.368   0.575
 1154TIP3    H2 3348   7.503   3.461   0.456
 1155TIP3   OH2 3349   6.689   3.342   0.399
 1155TIP3    H1 3350   6.637   3.362   0.479
 1155TIP3    H2 3351   6.672   3.423   0.345
 1156TIP3   OH2 3352   6.548   3.240  -0.045
 1156TIP3    H1 3353   6.464   3.197  -0.064
 1156TIP3    H2 3354   6.592   3.249  -0.135
 1157TIP3   OH2 3355   7.235   3.596   0.724
 1157TIP3    H1 3356   7.212   3.523   0.785
 1157TIP3    H2 3357   7.329   3.609   0.746
 1158TIP3   OH2 3358   6.506   3.374   0.605
 1158TIP3    H1 3359   6.528   3.437   0.674
 1158TIP3    H2 3360   6.493   3.291   0.656
 1159TIP3   OH2 3361   6.098   2.899   0.183
 1159TIP3    H1 3362   6.174   2.926   0.238
 1159TIP3    H2 3363   6.139   2.858   0.106
 1160TIP3   OH2 3364   4.340   1.060   9.118
 1160TIP3    H1 3365   4.356   1.152   9.091
 1160TIP3    H2 3366   4.244   1.056   9.124
 1161TIP3   OH2 3367   7.227   3.594   0.293
 1161TIP3    H1 3368   7.260   3.518   0.241
 1161TIP3    H2 3369   7.200   3.547   0.375
 1162TIP3   OH2 3370   6.880   2.976   0.027
 1162TIP3    H1 3371   6.799   3.019   0.059
 1162TIP3    H2 3372   6.948   3.043   0.043
 1163TIP3   OH2 3373   6.317   3.094  -0.036
 1163TIP3    H1 3374   6.218   3.100  -0.044
 1163TIP3    H2 3375   6.334   2.998  -0.048
 1164TIP3   OH2 3376   7.383   3.127   0.181
 1164TIP3    H1 3377   7.350   3.141   0.272
 1164TIP3    H2 3378   7.318   3.062   0.148
 1165TIP3   OH2 3379   7.560   4.805   0.382
 1165TIP3    H1 3380   7.512   4.856   0.314
 1165TIP3    H2 3381   7.621   4.872   0.417
 1166TIP3   OH2 3382   6.517   3.926   0.814
 1166TIP3    H1 3383   6.596   3.958   0.863
 1166TIP3    H2 3384   6.451   3.926   0.887
 1167TIP3   OH2 3385   6.995   3.379   0.068
 1167TIP3    H1 3386   7.027   3.306   0.011
 1167TIP3    H2 3387   7.000   3.339   0.157
 1168TIP3   OH2 3388   6.508   2.864  -0.058
 1168TIP3    H1 3389   6.471   2.786  -0.011
 1168TIP3    H2 3390   6.586   2.827  -0.102
 1169TIP3   OH2 3391   6.958   3.280   0.352
 1169TIP3    H1 3392   6.867   3.312   0.371
 1169TIP3    H2 3393   7.014   3.338   0.408
 1170TIP3   OH2 3394   7.090   3.985   0.449
 1170TIP3    H1 3395   7.117   3.958   0.538
 1170TIP3    H2 3396   7.056   4.074   0.463
 1171TIP3   OH2 3397   6.389   3.688   0.139
 1171TIP3    H1 3398   6.411   3.643   0.055
 1171TIP3    H2 3399   6.419   3.622   0.203
 1172TIP3   OH2 3400   6.267   3.609   0.741
 1172TIP3    H1 3401   6.286   3.596   0.836
 1172TIP3    H2 3402   6.196   3.544   0.726
 1173TIP3   OH2 3403   6.991   3.724   0.763
 1173TIP3    H1 3404   6.931   3.665   0.714
 1173TIP3    H2 3405   7.079   3.691   0.735
 1174TIP3   OH2 3406   7.248   4.234   0.350
 1174TIP3    H1 3407   7.153   4.243   0.366
 1174TIP3    H2 3408   7.284   4.291   0.422
 1175TIP3   OH2 3409   7.875   4.179   0.362
 1175TIP3    H1 3410   7.777   4.187   0.353
 1175TIP3    H2 3411   7.897   4.150   0.271
 1176TIP3   OH2 3412   6.755   4.316   0.233
 1176TIP3    H1 3413   6.783   4.389   0.173
 1176TIP3    H2 3414   6.837   4.298   0.282
 1177TIP3   OH2 3415   7.134   3.981   0.177
 1177TIP3    H1 3416   7.130   3.978   0.276
 1177TIP3    H2 3417   7.229   3.967   0.163
 1178TIP3   OH2 3418   6.479   3.117   0.751
 1178TIP3    H1 3419   6.382   3.121   0.764
 1178TIP3    H2 3420   6.505   3.055   0.822
 1179TIP3   OH2 3421   6.194   4.201   0.393
 1179TIP3    H1 3422   6.246   4.123   0.419
 1179TIP3    H2 3423   6.225   4.266   0.457
 1180TIP3   OH2 3424   7.312   3.183   0.436
 1180TIP3    H1 3425   7.393   3.219   0.475
 1180TIP3    H2 3426   7.299   3.100   0.487
 1181TIP3   OH2 3427   7.157   3.434   0.504
 1181TIP3    H1 3428   7.174   3.486   0.585
 1181TIP3    H2 3429   7.210   3.354   0.519
 1182TIP3   OH2 3430   7.796   3.329   0.489
 1182TIP3    H1 3431   7.698   3.325   0.491
 1182TIP3    H2 3432   7.813   3.299   0.398
 1183TIP3   OH2 3433   6.490   2.748   0.352
 1183TIP3    H1 3434   6.457   2.716   0.266
 1183TIP3    H2 3435   6.478   2.670   0.409
 1184TIP3   OH2 3436   6.185   4.507   0.804
 1184TIP3    H1 3437   6.271   4.505   0.852
 1184TIP3    H2 3438   6.162   4.412   0.803
 1185TIP3   OH2 3439   6.668   4.475   0.849
 1185TIP3    H1 3440   6.763   4.455   0.857
 1185TIP3    H2 3441   6.643   4.416   0.775
 1186TIP3   OH2 3442   7.311   4.378   0.577
 1186TIP3    H1 3443   7.300   4.310   0.647
 1186TIP3    H2 3444   7.386   4.430   0.611
 1187TIP3   OH2 3445   6.316   3.915   1.004
 1187TIP3    H1 3446   6.332   3.819   1.008
 1187TIP3    H2 3447   6.228   3.918   0.961
 1188TIP3   OH2 3448   6.925   3.999   0.777
 1188TIP3    H1 3449   6.881   4.013   0.691
 1188TIP3    H2 3450   6.956   3.906   0.771
 1189TIP3   OH2 3451   7.416   4.007   0.383
 1189TIP3    H1 3452   7.488   4.055   0.337
 1189TIP3    H2 3453   7.344   4.074   0.376
 1190TIP3   OH2 3454   6.434   3.648   0.986
 1190TIP3    H1 3455   6.509   3.590   0.967
 1190TIP3    H2 3456   6.459   3.681   1.075
 1191TIP3   OH2 3457   6.771   3.535   0.651
 1191TIP3    H1 3458   6.692   3.593   0.654
 1191TIP3    H2 3459   6.816   3.567   0.570
 1192TIP3   OH2 3460   7.285   3.935   0.781
 1192TIP3    H1 3461   7.370   3.916   0.738
 1192TIP3    H2 3462   7.283   3.869   0.852
 1193TIP3   OH2 3463   6.893   3.321   0.775
 1193TIP3    H1 3464   6.893   3.241   0.719
 1193TIP3    H2 3465   6.849   3.387   0.717
 1194TIP3   OH2 3466   6.896   3.108   0.579
 1194TIP3    H1 3467   6.922   3.147   0.493
 1194TIP3    H2 3468   6.802   3.085   0.562
 1195TIP3   OH2 3469   6.923   3.644   0.454
 1195TIP3    H1 3470   7.005   3.650   0.403
 1195TIP3    H2 3471   6.867   3.712   0.411
 1196TIP3   OH2 3472   7.506   3.612   0.836
 1196TIP3    H1 3473   7.554   3.528   0.846
 1196TIP3    H2 3474   7.576   3.669   0.802
 1197TIP3   OH2 3475   7.551   3.865   0.568
 1197TIP3    H1 3476   7.491   3.919   0.511
 1197TIP3    H2 3477   7.636   3.882   0.522
 1198TIP3   OH2 3478   6.771   3.435   1.004
 1198TIP3    H1 3479   6.702   3.367   1.018
 1198TIP3    H2 3480   6.806   3.409   0.916
 1199TIP3   OH2 3481   7.028   2.873   0.647
 1199TIP3    H1 3482   6.980   2.955   0.624
 1199TIP3    H2 3483   6.957   2.806   0.635
 1200TIP3   OH2 3484   7.154   3.378   0.864
 1200TIP3    H1 3485   7.144   3.366   0.960
 1200TIP3    H2 3486   7.064   3.352   0.835
 1201TIP3   OH2 3487   7.394   3.325   0.718
 1201TIP3    H1 3488   7.318   3.326   0.779
 1201TIP3    H2 3489   7.467   3.294   0.777
 1202TIP3   OH2 3490   7.623   3.266   0.871
 1202TIP3    H1 3491   7.634   3.170   0.890
 1202TIP3    H2 3492   7.618   3.306   0.960
 1203TIP3   OH2 3493   6.610   3.215   1.056
 1203TIP3    H1 3494   6.617   3.124   1.021
 1203TIP3    H2 3495   6.646   3.202   1.147
 1204TIP3   OH2 3496   7.123   2.882   0.905
 1204TIP3    H1 3497   7.191   2.811   0.899
 1204TIP3    H2 3498   7.083   2.875   0.816
 1205TIP3   OH2 3499   7.188   3.096   1.064
 1205TIP3    H1 3500   7.165   3.026   1.000
 1205TIP3    H2 3501   7.110   3.156   1.058
 1206TIP3   OH2 3502   5.933   4.172  -0.000
 1206TIP3    H1 3503   5.916   4.098   0.059
 1206TIP3    H2 3504   5.976   4.235   0.060
 1207TIP3   OH2 3505   7.740   4.265   0.639
 1207TIP3    H1 3506   7.667   4.276   0.703
 1207TIP3    H2 3507   7.781   4.354   0.640
 1208TIP3   OH2 3508   6.127   3.575   0.352
 1208TIP3    H1 3509   6.126   3.548   0.258
 1208TIP3    H2 3510   6.223   3.578   0.369
 1209TIP3   OH2 3511   7.788   3.929   0.448
 1209TIP3    H1 3512   7.865   3.868   0.455
 1209TIP3    H2 3513   7.830   4.014   0.423
 1210TIP3   OH2 3514   7.969   3.737   0.500
 1210TIP3    H1 3515   7.893   3.683   0.530
 1210TIP3    H2 3516   8.042   3.672   0.509
 1211TIP3   OH2 3517   7.730   3.574   0.239
 1211TIP3    H1 3518   7.647   3.580   0.291
 1211TIP3    H2 3519   7.698   3.605   0.153
 1212TIP3   OH2 3520   6.343   3.266   1.028
 1212TIP3    H1 3521   6.441   3.259   1.029
 1212TIP3    H2 3522   6.319   3.181   1.070
 1213TIP3   OH2 3523   8.182   3.132   0.786
 1213TIP3    H1 3524   8.235   3.064   0.739
 1213TIP3    H2 3525   8.150   3.188   0.712
 1214TIP3   OH2 3526   6.305   2.956   0.357
 1214TIP3    H1 3527   6.369   2.882   0.368
 1214TIP3    H2 3528   6.365   3.032   0.355
 1215TIP3   OH2 3529   6.110   3.231   0.433
 1215TIP3    H1 3530   6.158   3.223   0.348
 1215TIP3    H2 3531   6.136   3.319   0.461
 1216TIP3   OH2 3532   8.050   3.274   0.596
 1216TIP3    H1 3533   7.960   3.310   0.611
 1216TIP3    H2 3534   8.029   3.205   0.532
 1217TIP3   OH2 3535   6.086   2.743  -0.070
 1217TIP3    H1 3536   5.994   2.733  -0.039
 1217TIP3    H2 3537   6.076   2.801  -0.146
 1218TIP3   OH2 3538   6.311   2.814   0.747
 1218TIP3    H1 3539   6.260   2.809   0.830
 1218TIP3    H2 3540   6.245   2.853   0.687
 1219TIP3   OH2 3541   6.352   4.238   0.824
 1219TIP3    H1 3542   6.260   4.213   0.807
 1219TIP3    H2 3543   6.359   4.224   0.919
 1220TIP3   OH2 3544   6.524   4.271   0.375
 1220TIP3    H1 3545   6.470   4.339   0.331
 1220TIP3    H2 3546   6.610   4.287   0.331
 1221TIP3   OH2 3547   6.973   4.516   0.512
 1221TIP3    H1 3548   7.011   4.515   0.603
 1221TIP3    H2 3549   7.041   4.567   0.464
 1222TIP3   OH2 3550   7.155   4.654   0.366
 1222TIP3    H1 3551   7.236   4.611   0.337
 1222TIP3    H2 3552   7.193   4.725   0.423
 1223TIP3   OH2 3553   7.947   3.035   0.478
 1223TIP3    H1 3554   7.858   3.034   0.438
 1223TIP3    H2 3555   7.977   2.943   0.461
 1224TIP3   OH2 3556   6.211   4.530   0.400
 1224TIP3    H1 3557   6.123   4.561   0.369
 1224TIP3    H2 3558   6.212   4.569   0.488
 1225TIP3   OH2 3559   6.434   4.524   0.243
 1225TIP3    H1 3560   6.355   4.532   0.301
 1225TIP3    H2 3561   6.392   4.524   0.156
 1226TIP3   OH2 3562   6.102   4.327   0.164
 1226TIP3    H1 3563   6.132   4.299   0.253
 1226TIP3    H2 3564   6.174   4.286   0.110
 1227TIP3   OH2 3565   6.303   4.211   0.031
 1227TIP3    H1 3566   6.317   4.118   0.057
 1227TIP3    H2 3567   6.394   4.244   0.021
 1228TIP3   OH2 3568   6.568   4.280   0.029
 1228TIP3    H1 3569   6.591   4.185   0.024
 1228TIP3    H2 3570   6.624   4.307   0.104
 1229TIP3   OH2 3571   7.167   2.959   0.106
 1229TIP3    H1 3572   7.096   2.903   0.144
 1229TIP3    H2 3573   7.226   2.891   0.067
 1230TIP3   OH2 3574   7.668   2.863   0.034
 1230TIP3    H1 3575   7.713   2.931  -0.019
 1230TIP3    H2 3576   7.575   2.876   0.009
 1231TIP3   OH2 3577   6.397   2.662   0.102
 1231TIP3    H1 3578   6.305   2.628   0.101
 1231TIP3    H2 3579   6.446   2.577   0.104
 1232TIP3   OH2 3580   6.197   2.515  -0.211
 1232TIP3    H1 3581   6.172   2.548  -0.299
 1232TIP3    H2 3582   6.166   2.587  -0.152
 1233TIP3   OH2 3583   6.850   2.686  -0.015
 1233TIP3    H1 3584   6.879   2.758  -0.072
 1233TIP3    H2 3585   6.857   2.730   0.071
 1234TIP3   OH2 3586   7.363   2.811  -0.010
 1234TIP3    H1 3587   7.331   2.763  -0.090
 1234TIP3    H2 3588   7.373   2.735   0.051
 1235TIP3   OH2 3589   6.609   2.937   0.995
 1235TIP3    H1 3590   6.576   2.867   1.053
 1235TIP3    H2 3591   6.704   2.938   1.021
 1236TIP3   OH2 3592   6.858   2.935   1.114
 1236TIP3    H1 3593   6.943   2.909   1.075
 1236TIP3    H2 3594   6.845   2.864   1.180
 1237TIP3   OH2 3595   7.682   2.995   0.901
 1237TIP3    H1 3596   7.702   2.964   0.993
 1237TIP3    H2 3597   7.770   2.990   0.859
 1238TIP3   OH2 3598   7.629   4.539   0.412
 1238TIP3    H1 3599   7.592   4.496   0.333
 1238TIP3    H2 3600   7.606   4.633   0.398
 1239TIP3   OH2 3601   8.358   4.124   0.339
 1239TIP3    H1 3602   8.401   4.193   0.392
 1239TIP3    H2 3603   8.281   4.105   0.396
 1240TIP3   OH2 3604   8.070   3.823   0.250
 1240TIP3    H1 3605   8.120   3.848   0.331
 1240TIP3    H2 3606   8.021   3.747   0.284
 1241TIP3   OH2 3607   8.216   3.281   0.265
 1241TIP3    H1 3608   8.196   3.375   0.253
 1241TIP3    H2 3609   8.289   3.281   0.328
 1242TIP3   OH2 3610   8.119   4.171   0.488
 1242TIP3    H1 3611   8.118   4.076   0.508
 1242TIP3    H2 3612   8.027   4.183   0.455
 1243TIP3   OH2 3613   8.227   3.894   0.476
 1243TIP3    H1 3614   8.301   3.834   0.459
 1243TIP3    H2 3615   8.251   3.929   0.565
 1244TIP3   OH2 3616   8.554   3.699   0.472
 1244TIP3    H1 3617   8.486   3.630   0.491
 1244TIP3    H2 3618   8.579   3.674   0.382
 1245TIP3   OH2 3619   8.403   3.480   0.553
 1245TIP3    H1 3620   8.418   3.402   0.497
 1245TIP3    H2 3621   8.436   3.450   0.640
 1246TIP3   OH2 3622   8.137   3.527   0.516
 1246TIP3    H1 3623   8.235   3.519   0.517
 1246TIP3    H2 3624   8.113   3.440   0.554
 1247TIP3   OH2 3625   8.067   3.063   0.224
 1247TIP3    H1 3626   8.041   3.069   0.317
 1247TIP3    H2 3627   8.099   3.154   0.208
 1248TIP3   OH2 3628   8.379   3.189   0.474
 1248TIP3    H1 3629   8.347   3.118   0.531
 1248TIP3    H2 3630   8.473   3.195   0.504
 1249TIP3   OH2 3631   8.615   3.197   0.599
 1249TIP3    H1 3632   8.712   3.202   0.584
 1249TIP3    H2 3633   8.612   3.124   0.664
 1250TIP3   OH2 3634   0.428   4.175   1.979
 1250TIP3    H1 3635   0.365   4.226   1.925
 1250TIP3    H2 3636   0.455   4.241   2.045
 1251TIP3   OH2 3637  -0.127   4.985   1.630
 1251TIP3    H1 3638  -0.222   4.977   1.638
 1251TIP3    H2 3639  -0.116   5.043   1.550
 1252TIP3   OH2 3640   0.085   4.912   1.937
 1252TIP3    H1 3641   0.076   4.835   1.877
 1252TIP3    H2 3642   0.071   4.987   1.876
 1253TIP3   OH2 3643   0.278   4.545   1.785
 1253TIP3    H1 3644   0.195   4.597   1.788
 1253TIP3    H2 3645   0.307   4.562   1.694
 1254TIP3   OH2 3646  -0.031   4.425   2.088
 1254TIP3    H1 3647  -0.039   4.508   2.139
 1254TIP3    H2 3648  -0.109   4.430   2.030
 1255TIP3   OH2 3649   0.323   5.254   1.980
 1255TIP3    H1 3650   0.321   5.158   1.993
 1255TIP3    H2 3651   0.241   5.280   2.029
 1256TIP3   OH2 3652  -0.555   5.027   2.126
 1256TIP3    H1 3653  -0.546   5.121   2.157
 1256TIP3    H2 3654  -0.651   5.019   2.128
 1257TIP3   OH2 3655   0.214   4.383   2.259
 1257TIP3    H1 3656   0.135   4.400   2.206
 1257TIP3    H2 3657   0.223   4.286   2.253
 1258TIP3   OH2 3658  -0.030   4.156   2.166
 1258TIP3    H1 3659  -0.058   4.158   2.261
 1258TIP3    H2 3660  -0.037   4.251   2.143
 1259TIP3   OH2 3661  -0.313   4.400   2.422
 1259TIP3    H1 3662  -0.342   4.320   2.471
 1259TIP3    H2 3663  -0.217   4.396   2.433
 1260TIP3   OH2 3664   0.009   5.600   2.101
 1260TIP3    H1 3665   0.004   5.621   2.006
 1260TIP3    H2 3666   0.084   5.655   2.131
 1261TIP3   OH2 3667   0.049   4.695   1.771
 1261TIP3    H1 3668   0.085   4.743   1.693
 1261TIP3    H2 3669  -0.043   4.683   1.747
 1262TIP3   OH2 3670  -0.429   4.785   2.126
 1262TIP3    H1 3671  -0.431   4.753   2.218
 1262TIP3    H2 3672  -0.482   4.867   2.134
 1263TIP3   OH2 3673  -0.554   4.523   2.476
 1263TIP3    H1 3674  -0.611   4.500   2.399
 1263TIP3    H2 3675  -0.467   4.489   2.445
 1264TIP3   OH2 3676  -0.298   5.085   2.019
 1264TIP3    H1 3677  -0.385   5.047   2.042
 1264TIP3    H2 3678  -0.266   5.107   2.110
 1265TIP3   OH2 3679   0.335   4.963   2.027
 1265TIP3    H1 3680   0.237   4.958   2.018
 1265TIP3    H2 3681   0.360   4.933   1.936
 1266TIP3   OH2 3682  -0.318   4.800   1.856
 1266TIP3    H1 3683  -0.357   4.815   1.945
 1266TIP3    H2 3684  -0.353   4.711   1.837
 1267TIP3   OH2 3685  -0.140   5.288   1.927
 1267TIP3    H1 3686  -0.199   5.214   1.956
 1267TIP3    H2 3687  -0.197   5.333   1.863
 1268TIP3   OH2 3688   0.240   4.103   2.180
 1268TIP3    H1 3689   0.143   4.108   2.166
 1268TIP3    H2 3690   0.274   4.118   2.090
 1269TIP3   OH2 3691  -0.228   5.163   2.268
 1269TIP3    H1 3692  -0.237   5.093   2.338
 1269TIP3    H2 3693  -0.158   5.220   2.305
 1270TIP3   OH2 3694  -0.608   4.794   2.453
 1270TIP3    H1 3695  -0.675   4.768   2.390
 1270TIP3    H2 3696  -0.574   4.706   2.480
 1271TIP3   OH2 3697  -0.120   4.789   2.079
 1271TIP3    H1 3698  -0.053   4.842   2.032
 1271TIP3    H2 3699  -0.201   4.835   2.055
 1272TIP3   OH2 3700  -0.264   4.719   2.474
 1272TIP3    H1 3701  -0.179   4.702   2.431
 1272TIP3    H2 3702  -0.265   4.652   2.544
 1273TIP3   OH2 3703  -0.036   4.413   2.535
 1273TIP3    H1 3704  -0.005   4.322   2.520
 1273TIP3    H2 3705   0.034   4.466   2.495
 1274TIP3   OH2 3706   0.004   4.644   2.263
 1274TIP3    H1 3707  -0.053   4.702   2.207
 1274TIP3    H2 3708   0.091   4.667   2.223
 1275TIP3   OH2 3709  -0.413   4.185   2.561
 1275TIP3    H1 3710  -0.398   4.161   2.655
 1275TIP3    H2 3711  -0.509   4.196   2.565
 1276TIP3   OH2 3712  -0.099   4.157   2.428
 1276TIP3    H1 3713  -0.181   4.129   2.471
 1276TIP3    H2 3714  -0.031   4.106   2.477
 1277TIP3   OH2 3715   0.099   4.045   2.577
 1277TIP3    H1 3716   0.093   3.950   2.600
 1277TIP3    H2 3717   0.085   4.090   2.663
 1278TIP3   OH2 3718   0.141   5.413   1.482
 1278TIP3    H1 3719   0.182   5.384   1.563
 1278TIP3    H2 3720   0.205   5.386   1.414
 1279TIP3   OH2 3721   0.165   5.386   1.765
 1279TIP3    H1 3722   0.112   5.305   1.752
 1279TIP3    H2 3723   0.232   5.351   1.826
 1280TIP3   OH2 3724   0.196   5.056   2.325
 1280TIP3    H1 3725   0.121   5.064   2.388
 1280TIP3    H2 3726   0.235   5.145   2.329
 1281TIP3   OH2 3727   0.192   4.823   1.582
 1281TIP3    H1 3728   0.249   4.760   1.532
 1281TIP3    H2 3729   0.192   4.901   1.524
 1282TIP3   OH2 3730   0.039   5.136   1.783
 1282TIP3    H1 3731  -0.031   5.181   1.834
 1282TIP3    H2 3732  -0.014   5.084   1.718
 1283TIP3   OH2 3733   0.241   4.717   2.152
 1283TIP3    H1 3734   0.315   4.653   2.143
 1283TIP3    H2 3735   0.269   4.789   2.092
 1284TIP3   OH2 3736   0.427   4.525   2.173
 1284TIP3    H1 3737   0.353   4.474   2.212
 1284TIP3    H2 3738   0.500   4.461   2.186
 1285TIP3   OH2 3739   0.182   4.326   1.931
 1285TIP3    H1 3740   0.112   4.375   1.978
 1285TIP3    H2 3741   0.218   4.395   1.872
 1286TIP3   OH2 3742   0.628   3.915   2.476
 1286TIP3    H1 3743   0.689   3.852   2.432
 1286TIP3    H2 3744   0.602   3.973   2.402
 1287TIP3   OH2 3745   0.502   4.060   2.286
 1287TIP3    H1 3746   0.415   4.097   2.311
 1287TIP3    H2 3747   0.475   3.996   2.218
 1288TIP3   OH2 3748  -0.549   5.282   2.209
 1288TIP3    H1 3749  -0.542   5.326   2.295
 1288TIP3    H2 3750  -0.518   5.352   2.148
 1289TIP3   OH2 3751  -0.370   5.431   2.050
 1289TIP3    H1 3752  -0.281   5.393   2.051
 1289TIP3    H2 3753  -0.355   5.507   2.110
 1290TIP3   OH2 3754   0.400   3.816   2.153
 1290TIP3    H1 3755   0.312   3.838   2.119
 1290TIP3    H2 3756   0.404   3.721   2.137
 1291TIP3   OH2 3757   0.127   3.758   2.582
 1291TIP3    H1 3758   0.150   3.742   2.676
 1291TIP3    H2 3759   0.216   3.773   2.543
 1292TIP3   OH2 3760   0.083   5.337   2.088
 1292TIP3    H1 3761   0.006   5.306   2.036
 1292TIP3    H2 3762   0.061   5.432   2.097
 1293TIP3   OH2 3763   1.363   4.732   0.872
 1293TIP3    H1 3764   1.325   4.817   0.841
 1293TIP3    H2 3765   1.293   4.672   0.841
 1294TIP3   OH2 3766   1.333   4.713   1.235
 1294TIP3    H1 3767   1.369   4.676   1.318
 1294TIP3    H2 3768   1.305   4.631   1.190
 1295TIP3   OH2 3769   0.640   4.609   1.601
 1295TIP3    H1 3770   0.668   4.533   1.657
 1295TIP3    H2 3771   0.722   4.659   1.596
 1296TIP3   OH2 3772   1.588   5.010   0.910
 1296TIP3    H1 3773   1.566   4.935   0.968
 1296TIP3    H2 3774   1.607   5.080   0.973
 1297TIP3   OH2 3775   0.610   5.011   1.323
 1297TIP3    H1 3776   0.598   4.914   1.327
 1297TIP3    H2 3777   0.707   5.018   1.323
 1298TIP3   OH2 3778   1.226   5.471   0.922
 1298TIP3    H1 3779   1.282   5.401   0.882
 1298TIP3    H2 3780   1.222   5.443   1.014
 1299TIP3   OH2 3781   1.140   4.933   1.278
 1299TIP3    H1 3782   1.179   4.853   1.237
 1299TIP3    H2 3783   1.223   4.979   1.301
 1300TIP3   OH2 3784   2.157   4.253   1.278
 1300TIP3    H1 3785   2.183   4.339   1.318
 1300TIP3    H2 3786   2.164   4.274   1.183
 1301TIP3   OH2 3787   1.552   4.435   1.315
 1301TIP3    H1 3788   1.603   4.354   1.334
 1301TIP3    H2 3789   1.523   4.419   1.224
 1302TIP3   OH2 3790   0.976   4.485   1.179
 1302TIP3    H1 3791   1.072   4.475   1.198
 1302TIP3    H2 3792   0.955   4.394   1.155
 1303TIP3   OH2 3793   2.229   4.465   1.446
 1303TIP3    H1 3794   2.144   4.510   1.426
 1303TIP3    H2 3795   2.232   4.477   1.542
 1304TIP3   OH2 3796   0.877   4.068   1.715
 1304TIP3    H1 3797   0.821   4.113   1.648
 1304TIP3    H2 3798   0.831   4.096   1.796
 1305TIP3   OH2 3799   1.237   4.935   0.732
 1305TIP3    H1 3800   1.204   4.911   0.643
 1305TIP3    H2 3801   1.195   5.021   0.743
 1306TIP3   OH2 3802   0.991   4.853   1.506
 1306TIP3    H1 3803   0.928   4.917   1.545
 1306TIP3    H2 3804   1.035   4.906   1.437
 1307TIP3   OH2 3805   0.755   4.195   1.514
 1307TIP3    H1 3806   0.823   4.264   1.504
 1307TIP3    H2 3807   0.770   4.135   1.439
 1308TIP3   OH2 3808   0.819   5.046   1.603
 1308TIP3    H1 3809   0.793   5.133   1.566
 1308TIP3    H2 3810   0.741   5.030   1.661
 1309TIP3   OH2 3811   1.656   5.254   1.082
 1309TIP3    H1 3812   1.567   5.242   1.121
 1309TIP3    H2 3813   1.644   5.339   1.036
 1310TIP3   OH2 3814   1.940   4.157   1.444
 1310TIP3    H1 3815   1.848   4.175   1.414
 1310TIP3    H2 3816   1.992   4.184   1.367
 1311TIP3   OH2 3817   1.267   3.808   1.436
 1311TIP3    H1 3818   1.243   3.714   1.448
 1311TIP3    H2 3819   1.185   3.851   1.466
 1312TIP3   OH2 3820   1.368   5.299   0.767
 1312TIP3    H1 3821   1.414   5.216   0.741
 1312TIP3    H2 3822   1.428   5.364   0.725
 1313TIP3   OH2 3823   1.497   5.085   0.660
 1313TIP3    H1 3824   1.471   5.006   0.610
 1313TIP3    H2 3825   1.532   5.046   0.742
 1314TIP3   OH2 3826   1.881   5.168   1.423
 1314TIP3    H1 3827   1.868   5.088   1.366
 1314TIP3    H2 3828   1.863   5.241   1.360
 1315TIP3   OH2 3829   1.194   4.597   0.709
 1315TIP3    H1 3830   1.109   4.632   0.677
 1315TIP3    H2 3831   1.250   4.609   0.629
 1316TIP3   OH2 3832   2.077   4.807   1.269
 1316TIP3    H1 3833   1.992   4.855   1.276
 1316TIP3    H2 3834   2.101   4.825   1.176
 1317TIP3   OH2 3835   1.527   4.652   0.665
 1317TIP3    H1 3836   1.478   4.679   0.746
 1317TIP3    H2 3837   1.605   4.609   0.705
 1318TIP3   OH2 3838   1.754   4.684   1.561
 1318TIP3    H1 3839   1.747   4.767   1.610
 1318TIP3    H2 3840   1.667   4.683   1.516
 1319TIP3   OH2 3841   0.781   4.640   1.068
 1319TIP3    H1 3842   0.729   4.561   1.043
 1319TIP3    H2 3843   0.860   4.597   1.107
 1320TIP3   OH2 3844   0.889   5.047   1.211
 1320TIP3    H1 3845   0.870   4.982   1.143
 1320TIP3    H2 3846   0.979   5.021   1.237
 1321TIP3   OH2 3847   0.882   4.616   1.418
 1321TIP3    H1 3848   0.928   4.589   1.336
 1321TIP3    H2 3849   0.929   4.698   1.444
 1322TIP3   OH2 3850   1.414   5.248   1.200
 1322TIP3    H1 3851   1.402   5.327   1.256
 1322TIP3    H2 3852   1.401   5.174   1.262
 1323TIP3   OH2 3853   1.025   5.169   1.746
 1323TIP3    H1 3854   0.965   5.231   1.794
 1323TIP3    H2 3855   0.958   5.115   1.698
 1324TIP3   OH2 3856   1.349   4.542   0.487
 1324TIP3    H1 3857   1.426   4.556   0.546
 1324TIP3    H2 3858   1.390   4.537   0.400
 1325TIP3   OH2 3859   0.781   4.727   1.848
 1325TIP3    H1 3860   0.782   4.813   1.894
 1325TIP3    H2 3861   0.685   4.706   1.853
 1326TIP3   OH2 3862   1.105   5.195   0.735
 1326TIP3    H1 3863   1.183   5.235   0.776
 1326TIP3    H2 3864   1.033   5.254   0.760
 1327TIP3   OH2 3865   0.820   5.338   1.834
 1327TIP3    H1 3866   0.785   5.334   1.743
 1327TIP3    H2 3867   0.740   5.316   1.888
 1328TIP3   OH2 3868   1.684   5.114   0.090
 1328TIP3    H1 3869   1.688   5.206   0.058
 1328TIP3    H2 3870   1.770   5.078   0.063
 1329TIP3   OH2 3871   0.399   4.868   1.781
 1329TIP3    H1 3872   0.336   4.843   1.711
 1329TIP3    H2 3873   0.436   4.781   1.808
 1330TIP3   OH2 3874   0.254   5.039   1.418
 1330TIP3    H1 3875   0.347   5.057   1.398
 1330TIP3    H2 3876   0.223   5.127   1.444
 1331TIP3   OH2 3877   2.118   5.509   1.466
 1331TIP3    H1 3878   2.117   5.413   1.483
 1331TIP3    H2 3879   2.035   5.535   1.513
 1332TIP3   OH2 3880   1.223   5.299   1.604
 1332TIP3    H1 3881   1.222   5.391   1.637
 1332TIP3    H2 3882   1.152   5.258   1.658
 1333TIP3   OH2 3883   1.264   5.380   0.514
 1333TIP3    H1 3884   1.182   5.389   0.562
 1333TIP3    H2 3885   1.311   5.314   0.566
 1334TIP3   OH2 3886   2.008   4.643   1.742
 1334TIP3    H1 3887   1.927   4.655   1.689
 1334TIP3    H2 3888   2.023   4.547   1.732
 1335TIP3   OH2 3889   0.605   5.050   1.771
 1335TIP3    H1 3890   0.655   5.032   1.854
 1335TIP3    H2 3891   0.531   4.986   1.778
 1336TIP3   OH2 3892   1.027   3.896   1.549
 1336TIP3    H1 3893   0.954   3.846   1.510
 1336TIP3    H2 3894   0.980   3.968   1.594
 1337TIP3   OH2 3895   1.539   3.992   1.747
 1337TIP3    H1 3896   1.605   3.961   1.812
 1337TIP3    H2 3897   1.453   3.970   1.790
 1338TIP3   OH2 3898   1.783   4.421   1.671
 1338TIP3    H1 3899   1.728   4.414   1.753
 1338TIP3    H2 3900   1.750   4.503   1.631
 1339TIP3   OH2 3901   0.941   4.396   1.570
 1339TIP3    H1 3902   0.883   4.407   1.648
 1339TIP3    H2 3903   0.917   4.476   1.518
 1340TIP3   OH2 3904   1.306   4.379   0.833
 1340TIP3    H1 3905   1.260   4.453   0.789
 1340TIP3    H2 3906   1.373   4.356   0.764
 1341TIP3   OH2 3907   1.484   4.643   1.905
 1341TIP3    H1 3908   1.461   4.567   1.963
 1341TIP3    H2 3909   1.579   4.650   1.922
 1342TIP3   OH2 3910   1.479   4.387   1.053
 1342TIP3    H1 3911   1.418   4.392   0.977
 1342TIP3    H2 3912   1.511   4.294   1.045
 1343TIP3   OH2 3913   0.759   4.424   1.777
 1343TIP3    H1 3914   0.783   4.479   1.853
 1343TIP3    H2 3915   0.735   4.340   1.819
 1344TIP3   OH2 3916   1.481   4.637   1.477
 1344TIP3    H1 3917   1.510   4.563   1.417
 1344TIP3    H2 3918   1.449   4.584   1.553
 1345TIP3   OH2 3919   1.151   4.153   1.175
 1345TIP3    H1 3920   1.086   4.084   1.190
 1345TIP3    H2 3921   1.231   4.109   1.212
 1346TIP3   OH2 3922   1.660   4.179   1.365
 1346TIP3    H1 3923   1.582   4.168   1.423
 1346TIP3    H2 3924   1.629   4.142   1.280
 1347TIP3   OH2 3925   1.807   5.861   1.568
 1347TIP3    H1 3926   1.806   5.887   1.475
 1347TIP3    H2 3927   1.884   5.910   1.602
 1348TIP3   OH2 3928   0.764   4.973   1.991
 1348TIP3    H1 3929   0.844   5.002   2.039
 1348TIP3    H2 3930   0.700   4.972   2.064
 1349TIP3   OH2 3931   1.236   4.435   1.249
 1349TIP3    H1 3932   1.285   4.378   1.187
 1349TIP3    H2 3933   1.241   4.381   1.330
 1350TIP3   OH2 3934   1.206   4.317   1.542
 1350TIP3    H1 3935   1.117   4.358   1.552
 1350TIP3    H2 3936   1.265   4.380   1.587
 1351TIP3   OH2 3937   0.948   4.703   0.643
 1351TIP3    H1 3938   0.885   4.630   0.649
 1351TIP3    H2 3939   0.936   4.748   0.730
 1352TIP3   OH2 3940   1.842   4.949   1.261
 1352TIP3    H1 3941   1.863   4.996   1.178
 1352TIP3    H2 3942   1.757   4.904   1.238
 1353TIP3   OH2 3943   1.345   5.033   1.626
 1353TIP3    H1 3944   1.362   5.005   1.717
 1353TIP3    H2 3945   1.303   5.120   1.637
 1354TIP3   OH2 3946   1.490   4.322   0.645
 1354TIP3    H1 3947   1.584   4.296   0.652
 1354TIP3    H2 3948   1.466   4.294   0.554
 1355TIP3   OH2 3949   0.634   4.732   1.313
 1355TIP3    H1 3950   0.670   4.709   1.226
 1355TIP3    H2 3951   0.685   4.673   1.372
 1356TIP3   OH2 3952   1.095   4.891   0.496
 1356TIP3    H1 3953   1.044   4.965   0.460
 1356TIP3    H2 3954   1.029   4.834   0.540
 1357TIP3   OH2 3955   0.513   4.657   1.919
 1357TIP3    H1 3956   0.534   4.640   2.013
 1357TIP3    H2 3957   0.447   4.588   1.900
 1358TIP3   OH2 3958   1.239   4.769   1.940
 1358TIP3    H1 3959   1.180   4.710   1.889
 1358TIP3    H2 3960   1.327   4.735   1.912
 1359TIP3   OH2 3961   1.503   5.296   1.519
 1359TIP3    H1 3962   1.408   5.288   1.533
 1359TIP3    H2 3963   1.530   5.343   1.600
 1360TIP3   OH2 3964   1.917   4.358   0.424
 1360TIP3    H1 3965   1.845   4.309   0.382
 1360TIP3    H2 3966   1.907   4.446   0.382
 1361TIP3   OH2 3967   2.131   5.221   1.511
 1361TIP3    H1 3968   2.033   5.214   1.505
 1361TIP3    H2 3969   2.156   5.190   1.422
 1362TIP3   OH2 3970   1.623   5.180   0.348
 1362TIP3    H1 3971   1.575   5.111   0.395
 1362TIP3    H2 3972   1.627   5.142   0.258
 1363TIP3   OH2 3973   1.610   4.810   1.180
 1363TIP3    H1 3974   1.516   4.784   1.191
 1363TIP3    H2 3975   1.644   4.730   1.134
 1364TIP3   OH2 3976   0.722   5.044   0.908
 1364TIP3    H1 3977   0.747   5.131   0.942
 1364TIP3    H2 3978   0.636   5.029   0.950
 1365TIP3   OH2 3979   0.877   4.813   0.874
 1365TIP3    H1 3980   0.830   4.898   0.886
 1365TIP3    H2 3981   0.843   4.760   0.949
 1366TIP3   OH2 3982   1.007   5.383   1.402
 1366TIP3    H1 3983   1.049   5.451   1.347
 1366TIP3    H2 3984   1.084   5.348   1.451
 1367TIP3   OH2 3985   1.396   5.019   1.357
 1367TIP3    H1 3986   1.386   5.015   1.455
 1367TIP3    H2 3987   1.470   4.958   1.343
 1368TIP3   OH2 3988   1.355   4.907   0.256
 1368TIP3    H1 3989   1.404   4.882   0.336
 1368TIP3    H2 3990   1.276   4.852   0.260
 1369TIP3   OH2 3991   1.645   5.551   1.410
 1369TIP3    H1 3992   1.566   5.493   1.405
 1369TIP3    H2 3993   1.626   5.615   1.338
 1370TIP3   OH2 3994   1.705   5.391   0.061
 1370TIP3    H1 3995   1.755   5.461   0.016
 1370TIP3    H2 3996   1.614   5.416   0.041
 1371TIP3   OH2 3997   0.728   4.159   1.932
 1371TIP3    H1 3998   0.632   4.162   1.942
 1371TIP3    H2 3999   0.755   4.101   2.004
 1372TIP3   OH2 4000   1.527   4.849   0.472
 1372TIP3    H1 4001   1.519   4.778   0.539
 1372TIP3    H2 4002   1.621   4.842   0.449
 1373TIP3   OH2 4003   0.446   5.247   1.566
 1373TIP3    H1 4004   0.490   5.165   1.592
 1373TIP3    H2 4005   0.481   5.308   1.632
 1374TIP3   OH2 4006   1.545   4.244   1.633
 1374TIP3    H1 4007   1.640   4.260   1.635
 1374TIP3    H2 4008   1.539   4.153   1.671
 1375TIP3   OH2 4009   1.189   4.137   0.870
 1375TIP3    H1 4010   1.232   4.223   0.854
 1375TIP3    H2 4011   1.169   4.145   0.964
 1376TIP3   OH2 4012   1.400   4.476   1.682
 1376TIP3    H1 4013   1.427   4.521   1.764
 1376TIP3    H2 4014   1.453   4.394   1.683
 1377TIP3   OH2 4015   1.310   3.903   0.995
 1377TIP3    H1 4016   1.305   3.933   1.087
 1377TIP3    H2 4017   1.394   3.946   0.972
 1378TIP3   OH2 4018   2.047   4.372   1.658
 1378TIP3    H1 4019   1.949   4.376   1.672
 1378TIP3    H2 4020   2.048   4.326   1.573
 1379TIP3   OH2 4021   1.690   4.574   1.050
 1379TIP3    H1 4022   1.617   4.509   1.056
 1379TIP3    H2 4023   1.762   4.527   1.097
 1380TIP3   OH2 4024   1.663   5.526   1.002
 1380TIP3    H1 4025   1.619   5.574   0.928
 1380TIP3    H2 4026   1.757   5.542   0.979
 1381TIP3   OH2 4027   0.434   5.552   1.977
 1381TIP3    H1 4028   0.519   5.551   2.026
 1381TIP3    H2 4029   0.411   5.458   1.978
 1382TIP3   OH2 4030   0.918   5.521   2.022
 1382TIP3    H1 4031   1.012   5.498   2.032
 1382TIP3    H2 4032   0.891   5.461   1.950
 1383TIP3   OH2 4033   1.555   5.424   1.757
 1383TIP3    H1 4034   1.546   5.354   1.826
 1383TIP3    H2 4035   1.632   5.474   1.789
 1384TIP3   OH2 4036   0.565   4.959   2.182
 1384TIP3    H1 4037   0.581   4.863   2.185
 1384TIP3    H2 4038   0.476   4.962   2.138
 1385TIP3   OH2 4039   1.173   5.043   1.954
 1385TIP3    H1 4040   1.130   5.057   1.867
 1385TIP3    H2 4041   1.204   4.950   1.948
 1386TIP3   OH2 4042   1.666   5.051   1.562
 1386TIP3    H1 4043   1.738   5.099   1.517
 1386TIP3    H2 4044   1.592   5.113   1.548
 1387TIP3   OH2 4045   0.683   4.691   2.163
 1387TIP3    H1 4046   0.759   4.638   2.141
 1387TIP3    H2 4047   0.708   4.725   2.252
 1388TIP3   OH2 4048   1.022   4.582   1.830
 1388TIP3    H1 4049   0.942   4.639   1.829
 1388TIP3    H2 4050   1.068   4.611   1.748
 1389TIP3   OH2 4051   1.536   4.981   1.959
 1389TIP3    H1 4052   1.615   4.957   1.909
 1389TIP3    H2 4053   1.532   4.912   2.027
 1390TIP3   OH2 4054   1.686   4.652   0.067
 1390TIP3    H1 4055   1.646   4.633  -0.019
 1390TIP3    H2 4056   1.652   4.742   0.081
 1391TIP3   OH2 4057   1.140   4.364   1.953
 1391TIP3    H1 4058   1.141   4.285   1.895
 1391TIP3    H2 4059   1.099   4.431   1.894
 1392TIP3   OH2 4060   1.139   4.152   1.760
 1392TIP3    H1 4061   1.170   4.192   1.676
 1392TIP3    H2 4062   1.047   4.126   1.737
 1393TIP3   OH2 4063   1.172   4.690   1.632
 1393TIP3    H1 4064   1.254   4.689   1.581
 1393TIP3    H2 4065   1.118   4.757   1.586
 1394TIP3   OH2 4066   1.757   4.658   2.016
 1394TIP3    H1 4067   1.798   4.570   2.016
 1394TIP3    H2 4068   1.826   4.713   1.977
 1395TIP3   OH2 4069   1.795   4.910   1.752
 1395TIP3    H1 4070   1.738   4.962   1.691
 1395TIP3    H2 4071   1.882   4.927   1.709
 1396TIP3   OH2 4072   1.019   4.480   2.182
 1396TIP3    H1 4073   0.950   4.412   2.194
 1396TIP3    H2 4074   1.054   4.456   2.093
 1397TIP3   OH2 4075   1.282   3.923   1.828
 1397TIP3    H1 4076   1.231   4.003   1.801
 1397TIP3    H2 4077   1.215   3.853   1.812
 1398TIP3   OH2 4078   1.401   4.423   2.041
 1398TIP3    H1 4079   1.389   4.410   2.137
 1398TIP3    H2 4080   1.311   4.396   2.010
 1399TIP3   OH2 4081   1.648   4.383   1.902
 1399TIP3    H1 4082   1.568   4.372   1.957
 1399TIP3    H2 4083   1.717   4.341   1.958
 1400TIP3   OH2 4084   1.878   4.311   2.050
 1400TIP3    H1 4085   1.886   4.215   2.068
 1400TIP3    H2 4086   1.869   4.350   2.140
 1401TIP3   OH2 4087   0.857   4.260   2.234
 1401TIP3    H1 4088   0.868   4.171   2.196
 1401TIP3    H2 4089   0.894   4.247   2.324
 1402TIP3   OH2 4090   1.370   3.925   2.086
 1402TIP3    H1 4091   1.438   3.855   2.078
 1402TIP3    H2 4092   1.333   3.923   1.995
 1403TIP3   OH2 4093   1.436   4.141   2.241
 1403TIP3    H1 4094   1.414   4.070   2.177
 1403TIP3    H2 4095   1.359   4.201   2.233
 1404TIP3   OH2 4096   1.921   5.610   0.954
 1404TIP3    H1 4097   1.936   5.638   1.046
 1404TIP3    H2 4098   1.968   5.679   0.905
 1405TIP3   OH2 4099   1.947   5.633   1.234
 1405TIP3    H1 4100   1.901   5.547   1.236
 1405TIP3    H2 4101   2.016   5.616   1.300
 1406TIP3   OH2 4102   1.990   5.313   1.811
 1406TIP3    H1 4103   1.917   5.320   1.876
 1406TIP3    H2 4104   2.031   5.402   1.817
 1407TIP3   OH2 4105   1.809   4.821   0.431
 1407TIP3    H1 4106   1.877   4.887   0.409
 1407TIP3    H2 4107   1.847   4.782   0.513
 1408TIP3   OH2 4108   1.934   4.695   0.640
 1408TIP3    H1 4109   1.867   4.647   0.695
 1408TIP3    H2 4110   1.995   4.730   0.707
 1409TIP3   OH2 4111   1.991   5.087   1.071
 1409TIP3    H1 4112   2.044   5.019   1.024
 1409TIP3    H2 4113   1.963   5.146   1.000
 1410TIP3   OH2 4114   1.821   5.387   1.262
 1410TIP3    H1 4115   1.751   5.426   1.318
 1410TIP3    H2 4116   1.768   5.337   1.196
 1411TIP3   OH2 4117   1.864   4.595   0.280
 1411TIP3    H1 4118   1.798   4.607   0.207
 1411TIP3    H2 4119   1.840   4.671   0.337
 1412TIP3   OH2 4120   1.755   4.543   0.783
 1412TIP3    H1 4121   1.749   4.446   0.776
 1412TIP3    H2 4122   1.737   4.557   0.879
 1413TIP3   OH2 4123   0.380   4.621   1.528
 1413TIP3    H1 4124   0.388   4.594   1.435
 1413TIP3    H2 4125   0.476   4.627   1.553
 1414TIP3   OH2 4126   2.037   4.974   1.640
 1414TIP3    H1 4127   2.109   4.907   1.632
 1414TIP3    H2 4128   2.065   5.043   1.577
 1415TIP3   OH2 4129   2.224   4.782   1.659
 1415TIP3    H1 4130   2.149   4.731   1.695
 1415TIP3    H2 4131   2.296   4.716   1.673
 1416TIP3   OH2 4132   1.760   4.267   0.662
 1416TIP3    H1 4133   1.789   4.180   0.698
 1416TIP3    H2 4134   1.834   4.290   0.604
 1417TIP3   OH2 4135   1.906   4.466   1.174
 1417TIP3    H1 4136   1.995   4.479   1.136
 1417TIP3    H2 4137   1.923   4.484   1.268
 1418TIP3   OH2 4138   1.981   4.587   1.415
 1418TIP3    H1 4139   1.898   4.617   1.457
 1418TIP3    H2 4140   2.008   4.667   1.365
 1419TIP3   OH2 4141   0.590   4.309   2.199
 1419TIP3    H1 4142   0.688   4.304   2.203
 1419TIP3    H2 4143   0.567   4.226   2.245
 1420TIP3   OH2 4144   2.428   4.175   1.962
 1420TIP3    H1 4145   2.485   4.109   1.917
 1420TIP3    H2 4146   2.399   4.231   1.886
 1421TIP3   OH2 4147   1.860   4.006   0.712
 1421TIP3    H1 4148   1.907   4.006   0.799
 1421TIP3    H2 4149   1.798   3.934   0.727
 1422TIP3   OH2 4150   0.432   4.304   1.645
 1422TIP3    H1 4151   0.386   4.242   1.585
 1422TIP3    H2 4152   0.399   4.389   1.615
 1423TIP3   OH2 4153   2.299   4.316   1.768
 1423TIP3    H1 4154   2.211   4.354   1.786
 1423TIP3    H2 4155   2.272   4.243   1.708
 1424TIP3   OH2 4156   2.004   3.938   0.349
 1424TIP3    H1 4157   2.025   3.892   0.267
 1424TIP3    H2 4158   2.057   4.020   0.339
 1425TIP3   OH2 4159   1.527   5.476   0.636
 1425TIP3    H1 4160   1.555   5.461   0.544
 1425TIP3    H2 4161   1.575   5.556   0.660
 1426TIP3   OH2 4162   0.552   3.879   1.920
 1426TIP3    H1 4163   0.515   3.855   2.006
 1426TIP3    H2 4164   0.496   3.955   1.897
 1427TIP3   OH2 4165   0.600   5.286   2.002
 1427TIP3    H1 4166   0.509   5.258   1.983
 1427TIP3    H2 4167   0.608   5.267   2.096
 1428TIP3   OH2 4168   0.779   5.316   1.550
 1428TIP3    H1 4169   0.729   5.389   1.509
 1428TIP3    H2 4170   0.864   5.331   1.504
 1429TIP3   OH2 4171   1.223   5.566   1.686
 1429TIP3    H1 4172   1.264   5.564   1.775
 1429TIP3    H2 4173   1.290   5.615   1.635
 1430TIP3   OH2 4174   1.401   5.717   1.541
 1430TIP3    H1 4175   1.472   5.662   1.504
 1430TIP3    H2 4176   1.453   5.772   1.604
 1431TIP3   OH2 4177   2.196   4.078   1.645
 1431TIP3    H1 4178   2.105   4.075   1.610
 1431TIP3    H2 4179   2.225   3.985   1.631
 1432TIP3   OH2 4180   0.470   5.577   1.579
 1432TIP3    H1 4181   0.392   5.630   1.554
 1432TIP3    H2 4182   0.476   5.596   1.673
 1433TIP3   OH2 4183   0.698   5.557   1.427
 1433TIP3    H1 4184   0.613   5.564   1.477
 1433TIP3    H2 4185   0.672   5.592   1.340
 1434TIP3   OH2 4186   1.130   5.581   1.236
 1434TIP3    H1 4187   1.051   5.596   1.179
 1434TIP3    H2 4188   1.142   5.671   1.272
 1435TIP3   OH2 4189   1.394   5.523   1.279
 1435TIP3    H1 4190   1.298   5.535   1.263
 1435TIP3    H2 4191   1.431   5.601   1.235
 1436TIP3   OH2 4192   1.598   5.718   1.194
 1436TIP3    H1 4193   1.580   5.802   1.145
 1436TIP3    H2 4194   1.619   5.656   1.121
 1437TIP3   OH2 4195   0.363   5.367   1.330
 1437TIP3    H1 4196   0.406   5.335   1.414
 1437TIP3    H2 4197   0.427   5.331   1.265
 1438TIP3   OH2 4198   0.553   5.242   1.178
 1438TIP3    H1 4199   0.570   5.159   1.226
 1438TIP3    H2 4200   0.643   5.280   1.169
 1439TIP3   OH2 4201   0.818   5.316   1.180
 1439TIP3    H1 4202   0.857   5.226   1.186
 1439TIP3    H2 4203   0.864   5.361   1.252
 1440TIP3   OH2 4204   1.354   3.993   1.253
 1440TIP3    H1 4205   1.351   3.916   1.314
 1440TIP3    H2 4206   1.444   3.991   1.214
 1441TIP3   OH2 4207   1.921   3.876   1.166
 1441TIP3    H1 4208   1.963   3.929   1.095
 1441TIP3    H2 4209   1.831   3.911   1.163
 1442TIP3   OH2 4210   2.023   3.981   0.934
 1442TIP3    H1 4211   2.094   3.927   0.892
 1442TIP3    H2 4212   2.057   4.072   0.919
 1443TIP3   OH2 4213   1.642   5.448   0.380
 1443TIP3    H1 4214   1.642   5.349   0.381
 1443TIP3    H2 4215   1.598   5.461   0.295
 1444TIP3   OH2 4216   0.857   3.980   2.171
 1444TIP3    H1 4217   0.826   3.909   2.230
 1444TIP3    H2 4218   0.952   3.983   2.195
 1445TIP3   OH2 4219   1.106   3.979   2.290
 1445TIP3    H1 4220   1.191   3.957   2.248
 1445TIP3    H2 4221   1.097   3.906   2.355
 1446TIP3   OH2 4222   1.931   4.039   2.079
 1446TIP3    H1 4223   1.952   4.009   2.170
 1446TIP3    H2 4224   2.019   4.035   2.036
 1447TIP3   OH2 4225   1.874   5.594   1.567
 1447TIP3    H1 4226   1.793   5.561   1.524
 1447TIP3    H2 4227   1.852   5.689   1.574
 1448TIP3   OH2 4228   3.138   4.967   0.339
 1448TIP3    H1 4229   3.106   5.056   0.316
 1448TIP3    H2 4230   3.064   4.913   0.304
 1449TIP3   OH2 4231   3.130   4.968   0.721
 1449TIP3    H1 4232   3.165   4.934   0.805
 1449TIP3    H2 4233   3.095   4.886   0.681
 1450TIP3   OH2 4234   2.435   4.862   1.081
 1450TIP3    H1 4235   2.462   4.793   1.145
 1450TIP3    H2 4236   2.517   4.914   1.076
 1451TIP3   OH2 4237   3.374   5.262   0.399
 1451TIP3    H1 4238   3.361   5.177   0.445
 1451TIP3    H2 4239   3.407   5.316   0.471
 1452TIP3   OH2 4240   2.404   5.260   0.799
 1452TIP3    H1 4241   2.398   5.162   0.809
 1452TIP3    H2 4242   2.500   5.271   0.810
 1453TIP3   OH2 4243   2.116   4.483   0.594
 1453TIP3    H1 4244   2.059   4.561   0.605
 1453TIP3    H2 4245   2.049   4.417   0.568
 1454TIP3   OH2 4246   2.179   4.763   0.764
 1454TIP3    H1 4247   2.223   4.685   0.804
 1454TIP3    H2 4248   2.228   4.770   0.681
 1455TIP3   OH2 4249   3.022   5.724   0.416
 1455TIP3    H1 4250   3.069   5.656   0.363
 1455TIP3    H2 4251   3.027   5.688   0.505
 1456TIP3   OH2 4252   2.935   5.192   0.764
 1456TIP3    H1 4253   2.971   5.112   0.723
 1456TIP3    H2 4254   3.020   5.235   0.788
 1457TIP3   OH2 4255   3.945   4.510   0.761
 1457TIP3    H1 4256   3.976   4.593   0.804
 1457TIP3    H2 4257   3.978   4.522   0.670
 1458TIP3   OH2 4258   3.345   4.694   0.799
 1458TIP3    H1 4259   3.390   4.609   0.820
 1458TIP3    H2 4260   3.317   4.677   0.707
 1459TIP3   OH2 4261   2.683   4.352   0.765
 1459TIP3    H1 4262   2.663   4.424   0.701
 1459TIP3    H2 4263   2.637   4.278   0.721
 1460TIP3   OH2 4264   3.377   4.444   0.386
 1460TIP3    H1 4265   3.449   4.427   0.451
 1460TIP3    H2 4266   3.430   4.476   0.311
 1461TIP3   OH2 4267   2.319   4.555   0.870
 1461TIP3    H1 4268   2.401   4.532   0.918
 1461TIP3    H2 4269   2.328   4.497   0.792
 1462TIP3   OH2 4270   2.759   4.753   0.663
 1462TIP3    H1 4271   2.852   4.727   0.676
 1462TIP3    H2 4272   2.719   4.669   0.632
 1463TIP3   OH2 4273   4.021   4.716   0.934
 1463TIP3    H1 4274   3.938   4.764   0.916
 1463TIP3    H2 4275   4.040   4.744   1.025
 1464TIP3   OH2 4276   2.682   4.335   1.198
 1464TIP3    H1 4277   2.621   4.371   1.131
 1464TIP3    H2 4278   2.630   4.353   1.279
 1465TIP3   OH2 4279   3.025   5.185   0.212
 1465TIP3    H1 4280   2.992   5.164   0.124
 1465TIP3    H2 4281   2.979   5.270   0.230
 1466TIP3   OH2 4282   2.789   5.110   0.993
 1466TIP3    H1 4283   2.725   5.174   1.032
 1466TIP3    H2 4284   2.833   5.163   0.924
 1467TIP3   OH2 4285   3.586   4.447   0.559
 1467TIP3    H1 4286   3.593   4.388   0.634
 1467TIP3    H2 4287   3.648   4.518   0.582
 1468TIP3   OH2 4288   2.552   4.451   0.983
 1468TIP3    H1 4289   2.616   4.523   1.005
 1468TIP3    H2 4290   2.600   4.409   0.908
 1469TIP3   OH2 4291   2.613   5.303   1.088
 1469TIP3    H1 4292   2.589   5.392   1.056
 1469TIP3    H2 4293   2.537   5.285   1.147
 1470TIP3   OH2 4294   2.008   5.000   0.325
 1470TIP3    H1 4295   1.972   4.994   0.233
 1470TIP3    H2 4296   1.981   5.090   0.348
 1471TIP3   OH2 4297   3.450   5.595   0.558
 1471TIP3    H1 4298   3.384   5.554   0.619
 1471TIP3    H2 4299   3.431   5.545   0.478
 1472TIP3   OH2 4300   3.741   4.411   0.930
 1472TIP3    H1 4301   3.654   4.440   0.899
 1472TIP3    H2 4302   3.801   4.441   0.859
 1473TIP3   OH2 4303   3.040   4.055   0.911
 1473TIP3    H1 4304   3.026   3.960   0.928
 1473TIP3    H2 4305   2.961   4.092   0.958
 1474TIP3   OH2 4306   3.152   5.555   0.244
 1474TIP3    H1 4307   3.199   5.472   0.219
 1474TIP3    H2 4308   3.213   5.620   0.203
 1475TIP3   OH2 4309   3.291   5.341   0.146
 1475TIP3    H1 4310   3.271   5.261   0.095
 1475TIP3    H2 4311   3.324   5.302   0.230
 1476TIP3   OH2 4312   3.670   5.429   0.903
 1476TIP3    H1 4313   3.667   5.342   0.857
 1476TIP3    H2 4314   3.651   5.489   0.830
 1477TIP3   OH2 4315   2.969   4.820   0.168
 1477TIP3    H1 4316   2.888   4.868   0.140
 1477TIP3    H2 4317   3.017   4.810   0.084
 1478TIP3   OH2 4318   2.920   4.593  -0.098
 1478TIP3    H1 4319   2.995   4.647  -0.068
 1478TIP3    H2 4320   2.965   4.516  -0.136
 1479TIP3   OH2 4321   3.870   5.058   0.756
 1479TIP3    H1 4322   3.789   5.113   0.761
 1479TIP3    H2 4323   3.901   5.078   0.665
 1480TIP3   OH2 4324   3.314   4.899   0.139
 1480TIP3    H1 4325   3.261   4.922   0.219
 1480TIP3    H2 4326   3.397   4.868   0.182
 1481TIP3   OH2 4327   3.551   4.939   1.050
 1481TIP3    H1 4328   3.548   5.021   1.102
 1481TIP3    H2 4329   3.464   4.943   1.005
 1482TIP3   OH2 4330   2.549   4.899   0.554
 1482TIP3    H1 4331   2.505   4.839   0.490
 1482TIP3    H2 4332   2.624   4.844   0.585
 1483TIP3   OH2 4333   2.680   5.313   0.700
 1483TIP3    H1 4334   2.660   5.251   0.629
 1483TIP3    H2 4335   2.770   5.282   0.726
 1484TIP3   OH2 4336   2.684   4.868   0.910
 1484TIP3    H1 4337   2.718   4.845   0.821
 1484TIP3    H2 4338   2.729   4.953   0.930
 1485TIP3   OH2 4339   3.224   5.504   0.688
 1485TIP3    H1 4340   3.208   5.576   0.751
 1485TIP3    H2 4341   3.201   5.424   0.742
 1486TIP3   OH2 4342   2.820   5.427   1.231
 1486TIP3    H1 4343   2.761   5.488   1.281
 1486TIP3    H2 4344   2.754   5.371   1.186
 1487TIP3   OH2 4345   3.150   4.759  -0.035
 1487TIP3    H1 4346   3.213   4.814   0.017
 1487TIP3    H2 4347   3.178   4.781  -0.127
 1488TIP3   OH2 4348   2.574   4.986   1.331
 1488TIP3    H1 4349   2.578   5.070   1.381
 1488TIP3    H2 4350   2.480   4.962   1.343
 1489TIP3   OH2 4351   2.891   5.444   0.251
 1489TIP3    H1 4352   2.974   5.493   0.262
 1489TIP3    H2 4353   2.840   5.501   0.192
 1490TIP3   OH2 4354   2.614   5.595   1.322
 1490TIP3    H1 4355   2.577   5.588   1.232
 1490TIP3    H2 4356   2.536   5.573   1.378
 1491TIP3   OH2 4357   3.675   4.001   0.011
 1491TIP3    H1 4358   3.593   4.018   0.062
 1491TIP3    H2 4359   3.684   4.085  -0.039
 1492TIP3   OH2 4360   2.412   4.742   0.364
 1492TIP3    H1 4361   2.345   4.783   0.305
 1492TIP3    H2 4362   2.375   4.653   0.376
 1493TIP3   OH2 4363   2.197   5.124   1.266
 1493TIP3    H1 4364   2.128   5.099   1.201
 1493TIP3    H2 4365   2.232   5.036   1.294
 1494TIP3   OH2 4366   2.061   5.325   0.885
 1494TIP3    H1 4367   2.148   5.311   0.924
 1494TIP3    H2 4368   2.024   5.391   0.946
 1495TIP3   OH2 4369   3.924   5.757   0.963
 1495TIP3    H1 4370   3.918   5.662   0.982
 1495TIP3    H2 4371   3.835   5.788   0.993
 1496TIP3   OH2 4372   3.016   5.558   1.087
 1496TIP3    H1 4373   3.017   5.649   1.124
 1496TIP3    H2 4374   2.947   5.516   1.143
 1497TIP3   OH2 4375   2.775   5.678   0.044
 1497TIP3    H1 4376   2.737   5.661  -0.045
 1497TIP3    H2 4377   2.753   5.772   0.058
 1498TIP3   OH2 4378   2.977   5.591  -0.303
 1498TIP3    H1 4379   3.024   5.520  -0.348
 1498TIP3    H2 4380   3.013   5.588  -0.213
 1499TIP3   OH2 4381   3.032   5.623  -0.036
 1499TIP3    H1 4382   2.942   5.633  -0.000
 1499TIP3    H2 4383   3.079   5.582   0.038
 1500TIP3   OH2 4384   3.801   4.898   1.231
 1500TIP3    H1 4385   3.724   4.908   1.174
 1500TIP3    H2 4386   3.820   4.802   1.222
 1501TIP3   OH2 4387   2.399   5.308   1.256
 1501TIP3    H1 4388   2.449   5.292   1.338
 1501TIP3    H2 4389   2.327   5.242   1.264
 1502TIP3   OH2 4390   2.800   4.130   1.041
 1502TIP3    H1 4391   2.711   4.098   1.015
 1502TIP3    H2 4392   2.774   4.213   1.085
 1503TIP3   OH2 4393   3.333   4.246   1.234
 1503TIP3    H1 4394   3.401   4.219   1.299
 1503TIP3    H2 4395   3.249   4.225   1.281
 1504TIP3   OH2 4396   3.571   4.672   1.151
 1504TIP3    H1 4397   3.525   4.670   1.238
 1504TIP3    H2 4398   3.548   4.761   1.117
 1505TIP3   OH2 4399   3.229   4.808  -0.290
 1505TIP3    H1 4400   3.200   4.799  -0.382
 1505TIP3    H2 4401   3.314   4.856  -0.303
 1506TIP3   OH2 4402   2.953   4.200   0.015
 1506TIP3    H1 4403   2.919   4.189   0.106
 1506TIP3    H2 4404   2.921   4.119  -0.027
 1507TIP3   OH2 4405   2.731   4.646   1.060
 1507TIP3    H1 4406   2.680   4.665   1.140
 1507TIP3    H2 4407   2.713   4.727   1.006
 1508TIP3   OH2 4408   2.613   4.534   0.574
 1508TIP3    H1 4409   2.521   4.503   0.591
 1508TIP3    H2 4410   2.629   4.492   0.486
 1509TIP3   OH2 4411   3.106   4.619   0.301
 1509TIP3    H1 4412   3.053   4.688   0.257
 1509TIP3    H2 4413   3.161   4.586   0.227
 1510TIP3   OH2 4414   3.280   4.899   1.390
 1510TIP3    H1 4415   3.258   4.824   1.450
 1510TIP3    H2 4416   3.375   4.909   1.409
 1511TIP3   OH2 4417   3.263   4.647   0.539
 1511TIP3    H1 4418   3.203   4.672   0.465
 1511TIP3    H2 4419   3.299   4.565   0.499
 1512TIP3   OH2 4420   2.549   4.675   1.267
 1512TIP3    H1 4421   2.576   4.735   1.338
 1512TIP3    H2 4422   2.534   4.592   1.316
 1513TIP3   OH2 4423   2.597   4.137  -0.021
 1513TIP3    H1 4424   2.603   4.138   0.077
 1513TIP3    H2 4425   2.516   4.183  -0.037
 1514TIP3   OH2 4426   2.141   4.208   0.848
 1514TIP3    H1 4427   2.222   4.229   0.898
 1514TIP3    H2 4428   2.173   4.165   0.767
 1515TIP3   OH2 4429   2.129   4.186   0.367
 1515TIP3    H1 4430   2.176   4.224   0.290
 1515TIP3    H2 4431   2.068   4.260   0.389
 1516TIP3   OH2 4432   3.272   4.894   0.962
 1516TIP3    H1 4433   3.305   4.821   0.904
 1516TIP3    H2 4434   3.245   4.842   1.041
 1517TIP3   OH2 4435   2.941   4.359   0.635
 1517TIP3    H1 4436   2.860   4.353   0.690
 1517TIP3    H2 4437   3.011   4.350   0.702
 1518TIP3   OH2 4438   2.378   4.408   0.642
 1518TIP3    H1 4439   2.283   4.415   0.616
 1518TIP3    H2 4440   2.400   4.316   0.622
 1519TIP3   OH2 4441   2.649   4.408   0.335
 1519TIP3    H1 4442   2.744   4.419   0.315
 1519TIP3    H2 4443   2.605   4.430   0.249
 1520TIP3   OH2 4444   3.434   4.432   0.841
 1520TIP3    H1 4445   3.394   4.441   0.930
 1520TIP3    H2 4446   3.374   4.369   0.799
 1521TIP3   OH2 4447   2.487   4.442   0.117
 1521TIP3    H1 4448   2.398   4.411   0.095
 1521TIP3    H2 4449   2.524   4.473   0.032
 1522TIP3   OH2 4450   3.600   6.115   1.057
 1522TIP3    H1 4451   3.597   6.142   0.963
 1522TIP3    H2 4452   3.680   6.162   1.088
 1523TIP3   OH2 4453   2.561   5.232   1.476
 1523TIP3    H1 4454   2.640   5.260   1.526
 1523TIP3    H2 4455   2.496   5.227   1.549
 1524TIP3   OH2 4456   3.026   4.684   0.732
 1524TIP3    H1 4457   3.096   4.642   0.679
 1524TIP3    H2 4458   3.036   4.639   0.818
 1525TIP3   OH2 4459   2.551   4.169   0.610
 1525TIP3    H1 4460   2.514   4.090   0.656
 1525TIP3    H2 4461   2.601   4.129   0.538
 1526TIP3   OH2 4462   3.002   4.577   1.022
 1526TIP3    H1 4463   2.912   4.613   1.037
 1526TIP3    H2 4464   3.060   4.636   1.073
 1527TIP3   OH2 4465   2.735   4.974   0.112
 1527TIP3    H1 4466   2.665   4.905   0.104
 1527TIP3    H2 4467   2.721   5.004   0.205
 1528TIP3   OH2 4468   3.639   5.209   0.747
 1528TIP3    H1 4469   3.667   5.249   0.662
 1528TIP3    H2 4470   3.556   5.161   0.721
 1529TIP3   OH2 4471   3.211   4.281  -0.025
 1529TIP3    H1 4472   3.116   4.260  -0.023
 1529TIP3    H2 4473   3.215   4.376  -0.003
 1530TIP3   OH2 4474   3.137   5.287   1.112
 1530TIP3    H1 4475   3.161   5.258   1.201
 1530TIP3    H2 4476   3.099   5.375   1.126
 1531TIP3   OH2 4477   3.267   4.531   0.084
 1531TIP3    H1 4478   3.364   4.530   0.099
 1531TIP3    H2 4479   3.254   4.607   0.026
 1532TIP3   OH2 4480   2.432   4.993   0.792
 1532TIP3    H1 4481   2.471   4.957   0.710
 1532TIP3    H2 4482   2.461   4.927   0.857
 1533TIP3   OH2 4483   2.886   5.122  -0.067
 1533TIP3    H1 4484   2.842   5.209  -0.054
 1533TIP3    H2 4485   2.832   5.065  -0.008
 1534TIP3   OH2 4486   2.310   4.913   1.406
 1534TIP3    H1 4487   2.330   4.897   1.500
 1534TIP3    H2 4488   2.241   4.846   1.388
 1535TIP3   OH2 4489   3.036   5.027   1.425
 1535TIP3    H1 4490   2.978   4.966   1.376
 1535TIP3    H2 4491   3.124   4.992   1.399
 1536TIP3   OH2 4492   3.297   5.542   1.012
 1536TIP3    H1 4493   3.200   5.543   1.023
 1536TIP3    H2 4494   3.325   5.597   1.088
 1537TIP3   OH2 4495   3.705   4.617  -0.068
 1537TIP3    H1 4496   3.653   4.569  -0.136
 1537TIP3    H2 4497   3.704   4.706  -0.110
 1538TIP3   OH2 4498   3.922   5.471   1.002
 1538TIP3    H1 4499   3.825   5.468   0.990
 1538TIP3    H2 4500   3.951   5.444   0.911
 1539TIP3   OH2 4501   3.414   5.434  -0.185
 1539TIP3    H1 4502   3.383   5.373  -0.116
 1539TIP3    H2 4503   3.410   5.380  -0.265
 1540TIP3   OH2 4504   3.404   5.070   0.662
 1540TIP3    H1 4505   3.312   5.041   0.678
 1540TIP3    H2 4506   3.441   4.988   0.621
 1541TIP3   OH2 4507   2.508   5.293   0.421
 1541TIP3    H1 4508   2.555   5.374   0.395
 1541TIP3    H2 4509   2.457   5.277   0.341
 1542TIP3   OH2 4510   2.097   4.601   0.125
 1542TIP3    H1 4511   2.140   4.687   0.143
 1542TIP3    H2 4512   2.016   4.607   0.179
 1543TIP3   OH2 4513   2.671   5.063   0.363
 1543TIP3    H1 4514   2.636   5.149   0.391
 1543TIP3    H2 4515   2.637   5.005   0.434
 1544TIP3   OH2 4516   2.798   5.639   0.886
 1544TIP3    H1 4517   2.841   5.712   0.836
 1544TIP3    H2 4518   2.873   5.604   0.936
 1545TIP3   OH2 4519   2.450   5.540   0.277
 1545TIP3    H1 4520   2.359   5.570   0.286
 1545TIP3    H2 4521   2.497   5.626   0.276
 1546TIP3   OH2 4522   3.192   5.274   0.843
 1546TIP3    H1 4523   3.182   5.272   0.941
 1546TIP3    H2 4524   3.268   5.215   0.831
 1547TIP3   OH2 4525   3.153   5.145  -0.263
 1547TIP3    H1 4526   3.213   5.131  -0.187
 1547TIP3    H2 4527   3.067   5.142  -0.220
 1548TIP3   OH2 4528   2.522   4.419   1.413
 1548TIP3    H1 4529   2.425   4.425   1.426
 1548TIP3    H2 4530   2.547   4.357   1.484
 1549TIP3   OH2 4531   3.323   5.109  -0.043
 1549TIP3    H1 4532   3.313   5.034   0.020
 1549TIP3    H2 4533   3.418   5.102  -0.064
 1550TIP3   OH2 4534   2.249   5.498   1.044
 1550TIP3    H1 4535   2.295   5.426   1.090
 1550TIP3    H2 4536   2.257   5.569   1.110
 1551TIP3   OH2 4537   2.524   5.148  -0.273
 1551TIP3    H1 4538   2.584   5.078  -0.301
 1551TIP3    H2 4539   2.502   5.126  -0.181
 1552TIP3   OH2 4540   2.476   5.151   0.011
 1552TIP3    H1 4541   2.559   5.124   0.053
 1552TIP3    H2 4542   2.484   5.249   0.007
 1553TIP3   OH2 4543   2.213   4.850   0.204
 1553TIP3    H1 4544   2.149   4.897   0.260
 1553TIP3    H2 4545   2.228   4.915   0.133
 1554TIP3   OH2 4546   3.353   4.486   1.100
 1554TIP3    H1 4547   3.439   4.521   1.131
 1554TIP3    H2 4548   3.344   4.403   1.151
 1555TIP3   OH2 4549   3.229   4.239   0.257
 1555TIP3    H1 4550   3.226   4.256   0.161
 1555TIP3    H2 4551   3.276   4.318   0.291
 1556TIP3   OH2 4552   2.746   5.351  -0.039
 1556TIP3    H1 4553   2.658   5.388  -0.015
 1556TIP3    H2 4554   2.748   5.370  -0.135
 1557TIP3   OH2 4555   2.927   4.413   0.362
 1557TIP3    H1 4556   2.996   4.480   0.343
 1557TIP3    H2 4557   2.935   4.404   0.459
 1558TIP3   OH2 4558   3.199   4.732   1.170
 1558TIP3    H1 4559   3.221   4.782   1.251
 1558TIP3    H2 4560   3.254   4.652   1.179
 1559TIP3   OH2 4561   3.075   4.140   0.465
 1559TIP3    H1 4562   3.075   4.215   0.527
 1559TIP3    H2 4563   3.133   4.177   0.394
 1560TIP3   OH2 4564   2.483   5.424   0.018
 1560TIP3    H1 4565   2.459   5.490  -0.051
 1560TIP3    H2 4566   2.471   5.476   0.100
 1561TIP3   OH2 4567   2.590   4.137   0.256
 1561TIP3    H1 4568   2.584   4.226   0.295
 1561TIP3    H2 4569   2.686   4.121   0.267
 1562TIP3   OH2 4570   3.839   4.632   1.151
 1562TIP3    H1 4571   3.741   4.629   1.156
 1562TIP3    H2 4572   3.853   4.593   1.064
 1563TIP3   OH2 4573   3.488   4.829   0.541
 1563TIP3    H1 4574   3.416   4.765   0.549
 1563TIP3    H2 4575   3.562   4.782   0.586
 1564TIP3   OH2 4576   2.205   5.064   0.010
 1564TIP3    H1 4577   2.280   5.126   0.018
 1564TIP3    H2 4578   2.246   5.001  -0.054
 1565TIP3   OH2 4579   2.169   4.339   0.133
 1565TIP3    H1 4580   2.145   4.434   0.125
 1565TIP3    H2 4581   2.097   4.297   0.085
 1566TIP3   OH2 4582   2.536   4.050   1.016
 1566TIP3    H1 4583   2.503   4.018   0.929
 1566TIP3    H2 4584   2.524   3.971   1.073
 1567TIP3   OH2 4585   2.230   5.808   1.464
 1567TIP3    H1 4586   2.314   5.809   1.514
 1567TIP3    H2 4587   2.207   5.714   1.467
 1568TIP3   OH2 4588   2.718   5.773   1.512
 1568TIP3    H1 4589   2.811   5.747   1.515
 1568TIP3    H2 4590   2.686   5.718   1.439
 1569TIP3   OH2 4591   2.713   5.344  -0.312
 1569TIP3    H1 4592   2.635   5.285  -0.308
 1569TIP3    H2 4593   2.744   5.325  -0.402
 1570TIP3   OH2 4594   3.352   5.683   1.245
 1570TIP3    H1 4595   3.343   5.611   1.311
 1570TIP3    H2 4596   3.432   5.730   1.277
 1571TIP3   OH2 4597   2.361   5.216   1.667
 1571TIP3    H1 4598   2.378   5.120   1.673
 1571TIP3    H2 4599   2.273   5.218   1.625
 1572TIP3   OH2 4600   2.345   4.878  -0.124
 1572TIP3    H1 4601   2.407   4.835  -0.063
 1572TIP3    H2 4602   2.382   4.860  -0.210
 1573TIP3   OH2 4603   2.970   5.300   1.440
 1573TIP3    H1 4604   2.928   5.311   1.353
 1573TIP3    H2 4605   3.002   5.208   1.436
 1574TIP3   OH2 4606   2.797   5.033  -0.320
 1574TIP3    H1 4607   2.831   5.084  -0.245
 1574TIP3    H2 4608   2.856   4.956  -0.320
 1575TIP3   OH2 4609   3.461   5.308   1.046
 1575TIP3    H1 4610   3.534   5.356   1.003
 1575TIP3    H2 4611   3.389   5.372   1.035
 1576TIP3   OH2 4612   2.481   4.952   1.648
 1576TIP3    H1 4613   2.551   4.887   1.632
 1576TIP3    H2 4614   2.504   4.983   1.738
 1577TIP3   OH2 4615   2.548   4.769   0.083
 1577TIP3    H1 4616   2.521   4.727   0.166
 1577TIP3    H2 4617   2.583   4.692   0.032
 1578TIP3   OH2 4618   2.814   4.836   1.313
 1578TIP3    H1 4619   2.737   4.896   1.315
 1578TIP3    H2 4620   2.863   4.868   1.233
 1579TIP3   OH2 4621   2.645   4.564  -0.081
 1579TIP3    H1 4622   2.640   4.521  -0.167
 1579TIP3    H2 4623   2.742   4.578  -0.074
 1580TIP3   OH2 4624   3.333   5.238   1.445
 1580TIP3    H1 4625   3.414   5.214   1.398
 1580TIP3    H2 4626   3.329   5.170   1.514
 1581TIP3   OH2 4627   3.470   4.919  -0.371
 1581TIP3    H1 4628   3.486   4.877  -0.458
 1581TIP3    H2 4629   3.481   5.012  -0.397
 1582TIP3   OH2 4630   2.937   4.622   1.439
 1582TIP3    H1 4631   2.938   4.542   1.383
 1582TIP3    H2 4632   2.894   4.687   1.380
 1583TIP3   OH2 4633   2.941   4.409   1.245
 1583TIP3    H1 4634   2.968   4.449   1.160
 1583TIP3    H2 4635   2.847   4.386   1.226
 1584TIP3   OH2 4636   2.969   4.945   1.118
 1584TIP3    H1 4637   3.051   4.947   1.068
 1584TIP3    H2 4638   2.915   5.013   1.072
 1585TIP3   OH2 4639   3.552   4.913   1.500
 1585TIP3    H1 4640   3.597   4.828   1.510
 1585TIP3    H2 4641   3.623   4.968   1.465
 1586TIP3   OH2 4642   3.591   5.166   1.236
 1586TIP3    H1 4643   3.535   5.219   1.175
 1586TIP3    H2 4644   3.680   5.183   1.196
 1587TIP3   OH2 4645   2.815   4.737   1.666
 1587TIP3    H1 4646   2.746   4.669   1.681
 1587TIP3    H2 4647   2.851   4.710   1.580
 1588TIP3   OH2 4648   3.073   4.174   1.312
 1588TIP3    H1 4649   3.025   4.257   1.289
 1588TIP3    H2 4650   3.002   4.107   1.299
 1589TIP3   OH2 4651   3.198   4.680   1.528
 1589TIP3    H1 4652   3.189   4.667   1.624
 1589TIP3    H2 4653   3.108   4.653   1.499
 1590TIP3   OH2 4654   3.439   4.630   1.384
 1590TIP3    H1 4655   3.363   4.628   1.445
 1590TIP3    H2 4656   3.512   4.597   1.440
 1591TIP3   OH2 4657   3.664   4.566   1.535
 1591TIP3    H1 4658   3.679   4.471   1.553
 1591TIP3    H2 4659   3.662   4.606   1.624
 1592TIP3   OH2 4660   2.657   4.516   1.719
 1592TIP3    H1 4661   2.662   4.425   1.684
 1592TIP3    H2 4662   2.691   4.502   1.810
 1593TIP3   OH2 4663   3.167   4.182   1.569
 1593TIP3    H1 4664   3.236   4.113   1.563
 1593TIP3    H2 4665   3.127   4.177   1.480
 1594TIP3   OH2 4666   3.232   4.397   1.728
 1594TIP3    H1 4667   3.209   4.326   1.664
 1594TIP3    H2 4668   3.155   4.457   1.721
 1595TIP3   OH2 4669   2.450   5.621  -0.166
 1595TIP3    H1 4670   2.543   5.626  -0.196
 1595TIP3    H2 4671   2.402   5.657  -0.241
 1596TIP3   OH2 4672   1.943   4.998   0.060
 1596TIP3    H1 4673   2.031   5.032   0.034
 1596TIP3    H2 4674   1.931   4.925  -0.002
 1597TIP3   OH2 4675   1.846   5.615   0.465
 1597TIP3    H1 4676   1.778   5.558   0.423
 1597TIP3    H2 4677   1.896   5.549   0.515
 1598TIP3   OH2 4678   2.032   5.452   0.638
 1598TIP3    H1 4679   1.971   5.400   0.694
 1598TIP3    H2 4680   2.041   5.530   0.696
 1599TIP3   OH2 4681   3.677   5.874   0.484
 1599TIP3    H1 4682   3.740   5.939   0.520
 1599TIP3    H2 4683   3.702   5.879   0.390
 1600TIP3   OH2 4684   3.783   5.573   1.295
 1600TIP3    H1 4685   3.714   5.580   1.364
 1600TIP3    H2 4686   3.829   5.659   1.303
 1601TIP3   OH2 4687   3.599   5.089  -0.075
 1601TIP3    H1 4688   3.678   5.139  -0.102
 1601TIP3    H2 4689   3.633   5.047   0.008
 1602TIP3   OH2 4690   3.719   4.965   0.129
 1602TIP3    H1 4691   3.664   4.910   0.188
 1602TIP3    H2 4692   3.796   4.986   0.186
 1603TIP3   OH2 4693   3.772   5.338   0.545
 1603TIP3    H1 4694   3.835   5.272   0.507
 1603TIP3    H2 4695   3.787   5.415   0.487
 1604TIP3   OH2 4696   3.671   4.855  -0.205
 1604TIP3    H1 4697   3.595   4.857  -0.266
 1604TIP3    H2 4698   3.650   4.934  -0.152
 1605TIP3   OH2 4699   3.547   4.538  -0.280
 1605TIP3    H1 4700   3.480   4.569  -0.340
 1605TIP3    H2 4701   3.523   4.443  -0.272
 1606TIP3   OH2 4702   3.542   4.805   0.269
 1606TIP3    H1 4703   3.555   4.708   0.261
 1606TIP3    H2 4704   3.533   4.816   0.366
 1607TIP3   OH2 4705   2.171   4.887   1.012
 1607TIP3    H1 4706   2.172   4.850   0.920
 1607TIP3    H2 4707   2.268   4.884   1.032
 1608TIP3   OH2 4708   3.833   5.230   1.124
 1608TIP3    H1 4709   3.904   5.163   1.119
 1608TIP3    H2 4710   3.869   5.302   1.068
 1609TIP3   OH2 4711   4.017   5.038   1.150
 1609TIP3    H1 4712   3.944   4.984   1.186
 1609TIP3    H2 4713   4.092   4.975   1.161
 1610TIP3   OH2 4714   3.481   4.279  -0.264
 1610TIP3    H1 4715   3.569   4.240  -0.241
 1610TIP3    H2 4716   3.420   4.210  -0.234
 1611TIP3   OH2 4717   3.540   4.525   0.163
 1611TIP3    H1 4718   3.579   4.436   0.181
 1611TIP3    H2 4719   3.601   4.556   0.094
 1612TIP3   OH2 4720   3.703   4.703   0.658
 1612TIP3    H1 4721   3.790   4.727   0.618
 1612TIP3    H2 4722   3.719   4.734   0.749
 1613TIP3   OH2 4723   3.772   4.840   0.895
 1613TIP3    H1 4724   3.693   4.875   0.941
 1613TIP3    H2 4725   3.805   4.919   0.848
 1614TIP3   OH2 4726   2.390   4.571   1.698
 1614TIP3    H1 4727   2.487   4.560   1.695
 1614TIP3    H2 4728   2.364   4.484   1.735
 1615TIP3   OH2 4729   4.221   4.429   1.449
 1615TIP3    H1 4730   4.280   4.364   1.406
 1615TIP3    H2 4731   4.196   4.486   1.373
 1616TIP3   OH2 4732   3.642   4.277   0.209
 1616TIP3    H1 4733   3.698   4.257   0.286
 1616TIP3    H2 4734   3.588   4.195   0.204
 1617TIP3   OH2 4735   2.353   4.257   1.018
 1617TIP3    H1 4736   2.415   4.183   1.030
 1617TIP3    H2 4737   2.415   4.332   1.016
 1618TIP3   OH2 4738   2.162   4.531   1.100
 1618TIP3    H1 4739   2.203   4.519   1.013
 1618TIP3    H2 4740   2.194   4.618   1.125
 1619TIP3   OH2 4741   4.095   4.573   1.255
 1619TIP3    H1 4742   4.006   4.610   1.273
 1619TIP3    H2 4743   4.071   4.499   1.195
 1620TIP3   OH2 4744   3.735   4.204  -0.182
 1620TIP3    H1 4745   3.804   4.145  -0.215
 1620TIP3    H2 4746   3.788   4.287  -0.172
 1621TIP3   OH2 4747   2.138   4.059   0.611
 1621TIP3    H1 4748   2.045   4.035   0.623
 1621TIP3    H2 4749   2.139   4.100   0.522
 1622TIP3   OH2 4750   3.309   5.729   0.113
 1622TIP3    H1 4751   3.349   5.718   0.024
 1622TIP3    H2 4752   3.346   5.814   0.140
 1623TIP3   OH2 4753   2.357   4.115   1.412
 1623TIP3    H1 4754   2.305   4.110   1.494
 1623TIP3    H2 4755   2.291   4.155   1.351
 1624TIP3   OH2 4756   2.396   5.542   1.489
 1624TIP3    H1 4757   2.304   5.514   1.472
 1624TIP3    H2 4758   2.405   5.522   1.583
 1625TIP3   OH2 4759   2.573   5.573   1.034
 1625TIP3    H1 4760   2.523   5.648   0.998
 1625TIP3    H2 4761   2.659   5.589   0.989
 1626TIP3   OH2 4762   3.021   5.820   1.179
 1626TIP3    H1 4763   3.064   5.823   1.267
 1626TIP3    H2 4764   3.084   5.873   1.125
 1627TIP3   OH2 4765   3.193   5.971   1.030
 1627TIP3    H1 4766   3.260   5.914   0.990
 1627TIP3    H2 4767   3.248   6.028   1.088
 1628TIP3   OH2 4768   3.991   4.334   1.133
 1628TIP3    H1 4769   3.901   4.327   1.097
 1628TIP3    H2 4770   4.024   4.242   1.120
 1629TIP3   OH2 4771   2.254   5.834   1.060
 1629TIP3    H1 4772   2.163   5.865   1.039
 1629TIP3    H2 4773   2.263   5.869   1.150
 1630TIP3   OH2 4774   2.478   5.820   0.905
 1630TIP3    H1 4775   2.404   5.832   0.970
 1630TIP3    H2 4776   2.428   5.821   0.823
 1631TIP3   OH2 4777   2.913   5.835   0.718
 1631TIP3    H1 4778   2.863   5.863   0.640
 1631TIP3    H2 4779   2.929   5.921   0.763
 1632TIP3   OH2 4780   3.192   5.808   0.736
 1632TIP3    H1 4781   3.096   5.792   0.734
 1632TIP3    H2 4782   3.196   5.902   0.717
 1633TIP3   OH2 4783   2.176   5.633   0.802
 1633TIP3    H1 4784   2.189   5.604   0.895
 1633TIP3    H2 4785   2.242   5.577   0.757
 1634TIP3   OH2 4786   2.346   5.470   0.650
 1634TIP3    H1 4787   2.387   5.410   0.717
 1634TIP3    H2 4788   2.427   5.522   0.625
 1635TIP3   OH2 4789   2.612   5.591   0.666
 1635TIP3    H1 4790   2.647   5.501   0.652
 1635TIP3    H2 4791   2.661   5.614   0.747
 1636TIP3   OH2 4792   3.193   4.248   0.745
 1636TIP3    H1 4793   3.154   4.177   0.800
 1636TIP3    H2 4794   3.269   4.202   0.703
 1637TIP3   OH2 4795   3.721   4.136   0.661
 1637TIP3    H1 4796   3.760   4.183   0.583
 1637TIP3    H2 4797   3.626   4.149   0.647
 1638TIP3   OH2 4798   3.816   4.235   0.422
 1638TIP3    H1 4799   3.884   4.176   0.381
 1638TIP3    H2 4800   3.856   4.322   0.400
 1639TIP3   OH2 4801   2.447   3.959   0.769
 1639TIP3    H1 4802   2.354   3.927   0.763
 1639TIP3    H2 4803   2.495   3.874   0.764
 1640TIP3   OH2 4804   2.264   3.816   0.423
 1640TIP3    H1 4805   2.285   3.873   0.347
 1640TIP3    H2 4806   2.198   3.870   0.470
 1641TIP3   OH2 4807   2.888   3.992   0.646
 1641TIP3    H1 4808   2.949   4.039   0.587
 1641TIP3    H2 4809   2.912   4.028   0.732
 1642TIP3   OH2 4810   3.435   4.137   0.632
 1642TIP3    H1 4811   3.438   4.101   0.542
 1642TIP3    H2 4812   3.422   4.055   0.685
 1643TIP3   OH2 4813   3.470   4.056   0.194
 1643TIP3    H1 4814   3.380   4.091   0.191
 1643TIP3    H2 4815   3.455   3.971   0.242
 1644TIP3   OH2 4816   1.956   5.386   0.218
 1644TIP3    H1 4817   1.875   5.343   0.186
 1644TIP3    H2 4818   1.945   5.474   0.178
 1645TIP3   OH2 4819   2.351   3.987   0.202
 1645TIP3    H1 4820   2.389   3.911   0.157
 1645TIP3    H2 4821   2.430   4.041   0.224
 1646TIP3   OH2 4822   2.865   4.160   0.278
 1646TIP3    H1 4823   2.925   4.115   0.338
 1646TIP3    H2 4824   2.885   4.253   0.302
 1647TIP3   OH2 4825   2.715   5.605  -0.230
 1647TIP3    H1 4826   2.806   5.619  -0.262
 1647TIP3    H2 4827   2.698   5.521  -0.277
 1648TIP3   OH2 4828   3.437   5.702  -0.135
 1648TIP3    H1 4829   3.429   5.604  -0.150
 1648TIP3    H2 4830   3.373   5.737  -0.199
 1649TIP3   OH2 4831   2.654   4.239   1.659
 1649TIP3    H1 4832   2.621   4.168   1.717
 1649TIP3    H2 4833   2.749   4.240   1.685
 1650TIP3   OH2 4834   2.903   4.236   1.778
 1650TIP3    H1 4835   2.988   4.212   1.737
 1650TIP3    H2 4836   2.891   4.164   1.843
 1651TIP3   OH2 4837   2.034   5.452  -0.146
 1651TIP3    H1 4838   2.016   5.466  -0.052
 1651TIP3    H2 4839   2.109   5.392  -0.146
 1652TIP3   OH2 4840   3.727   4.297   1.565
 1652TIP3    H1 4841   3.749   4.266   1.656
 1652TIP3    H2 4842   3.816   4.293   1.522
 1653TIP3   OH2 4843   3.672   5.848   1.040
 1653TIP3    H1 4844   3.588   5.805   1.057
 1653TIP3    H2 4845   3.649   5.943   1.049
 1654TIP3   OH2 4846   4.911   5.224   0.211
 1654TIP3    H1 4847   4.959   5.197   0.292
 1654TIP3    H2 4848   4.889   5.139   0.171
 1655TIP3   OH2 4849   4.228   5.121   0.577
 1655TIP3    H1 4850   4.262   5.051   0.636
 1655TIP3    H2 4851   4.310   5.166   0.553
 1656TIP3   OH2 4852   4.200   5.523   0.301
 1656TIP3    H1 4853   4.196   5.425   0.299
 1656TIP3    H2 4854   4.296   5.535   0.289
 1657TIP3   OH2 4855   3.907   4.760   0.102
 1657TIP3    H1 4856   3.836   4.823   0.085
 1657TIP3    H2 4857   3.871   4.678   0.065
 1658TIP3   OH2 4858   3.968   5.021   0.253
 1658TIP3    H1 4859   4.011   4.938   0.285
 1658TIP3    H2 4860   4.026   5.041   0.178
 1659TIP3   OH2 4861   4.732   5.446   0.252
 1659TIP3    H1 4862   4.771   5.363   0.217
 1659TIP3    H2 4863   4.816   5.491   0.275
 1660TIP3   OH2 4864   5.742   4.764   0.258
 1660TIP3    H1 4865   5.767   4.846   0.306
 1660TIP3    H2 4866   5.784   4.780   0.171
 1661TIP3   OH2 4867   5.139   4.947   0.295
 1661TIP3    H1 4868   5.186   4.863   0.307
 1661TIP3    H2 4869   5.118   4.945   0.200
 1662TIP3   OH2 4870   4.468   4.595   0.243
 1662TIP3    H1 4871   4.451   4.668   0.180
 1662TIP3    H2 4872   4.402   4.531   0.208
 1663TIP3   OH2 4873   5.124   4.683  -0.059
 1663TIP3    H1 4874   5.188   4.667   0.013
 1663TIP3    H2 4875   5.192   4.679  -0.131
 1664TIP3   OH2 4876   4.106   4.802   0.352
 1664TIP3    H1 4877   4.195   4.778   0.385
 1664TIP3    H2 4878   4.097   4.742   0.276
 1665TIP3   OH2 4879   4.551   5.003   0.152
 1665TIP3    H1 4880   4.645   4.979   0.164
 1665TIP3    H2 4881   4.512   4.920   0.119
 1666TIP3   OH2 4882   5.815   4.971   0.425
 1666TIP3    H1 4883   5.731   5.020   0.411
 1666TIP3    H2 4884   5.849   5.015   0.506
 1667TIP3   OH2 4885   4.478   4.593   0.684
 1667TIP3    H1 4886   4.417   4.625   0.615
 1667TIP3    H2 4887   4.425   4.612   0.764
 1668TIP3   OH2 4888   4.584   5.366   0.480
 1668TIP3    H1 4889   4.521   5.432   0.518
 1668TIP3    H2 4890   4.627   5.417   0.409
 1669TIP3   OH2 4891   5.379   4.717   0.073
 1669TIP3    H1 4892   5.398   4.653   0.142
 1669TIP3    H2 4893   5.434   4.794   0.099
 1670TIP3   OH2 4894   4.347   4.703   0.464
 1670TIP3    H1 4895   4.411   4.775   0.485
 1670TIP3    H2 4896   4.394   4.660   0.389
 1671TIP3   OH2 4897   4.411   5.560   0.579
 1671TIP3    H1 4898   4.386   5.644   0.537
 1671TIP3    H2 4899   4.333   5.545   0.636
 1672TIP3   OH2 4900   3.804   5.244  -0.177
 1672TIP3    H1 4901   3.736   5.276  -0.238
 1672TIP3    H2 4902   3.819   5.320  -0.119
 1673TIP3   OH2 4903   5.226   5.789   0.088
 1673TIP3    H1 4904   5.138   5.758   0.118
 1673TIP3    H2 4905   5.200   5.842   0.012
 1674TIP3   OH2 4906   5.534   4.664   0.417
 1674TIP3    H1 4907   5.446   4.695   0.388
 1674TIP3    H2 4908   5.593   4.698   0.347
 1675TIP3   OH2 4909   4.839   4.313   0.401
 1675TIP3    H1 4910   4.824   4.217   0.412
 1675TIP3    H2 4911   4.759   4.348   0.446
 1676TIP3   OH2 4912   5.451   5.674   0.398
 1676TIP3    H1 4913   5.493   5.606   0.345
 1676TIP3    H2 4914   5.480   5.756   0.356
 1677TIP3   OH2 4915   5.671   5.307   0.271
 1677TIP3    H1 4916   5.590   5.364   0.269
 1677TIP3    H2 4917   5.693   5.306   0.177
 1678TIP3   OH2 4918   5.345   5.196   0.533
 1678TIP3    H1 4919   5.340   5.276   0.588
 1678TIP3    H2 4920   5.261   5.204   0.482
 1679TIP3   OH2 4921   4.345   5.157   0.045
 1679TIP3    H1 4922   4.299   5.098  -0.019
 1679TIP3    H2 4923   4.420   5.101   0.073
 1680TIP3   OH2 4924   4.469   5.564   0.196
 1680TIP3    H1 4925   4.445   5.528   0.109
 1680TIP3    H2 4926   4.559   5.527   0.209
 1681TIP3   OH2 4927   4.474   5.127   0.398
 1681TIP3    H1 4928   4.509   5.102   0.310
 1681TIP3    H2 4929   4.522   5.210   0.417
 1682TIP3   OH2 4930   4.975   5.759   0.181
 1682TIP3    H1 4931   4.978   5.835   0.242
 1682TIP3    H2 4932   4.975   5.683   0.243
 1683TIP3   OH2 4933   4.618   5.682   0.720
 1683TIP3    H1 4934   4.559   5.745   0.767
 1683TIP3    H2 4935   4.552   5.628   0.672
 1684TIP3   OH2 4936   4.374   5.239   0.824
 1684TIP3    H1 4937   4.376   5.326   0.869
 1684TIP3    H2 4938   4.278   5.221   0.825
 1685TIP3   OH2 4939   4.412   5.851   0.806
 1685TIP3    H1 4940   4.377   5.847   0.715
 1685TIP3    H2 4941   4.333   5.830   0.860
 1686TIP3   OH2 4942   4.200   5.001  -0.130
 1686TIP3    H1 4943   4.141   5.028  -0.203
 1686TIP3    H2 4944   4.171   4.911  -0.112
 1687TIP3   OH2 4945   3.987   5.379   0.756
 1687TIP3    H1 4946   3.936   5.348   0.679
 1687TIP3    H2 4947   4.030   5.296   0.787
 1688TIP3   OH2 4948   3.849   5.574   0.402
 1688TIP3    H1 4949   3.935   5.546   0.367
 1688TIP3    H2 4950   3.876   5.654   0.452
 1689TIP3   OH2 4951   5.703   6.015   0.443
 1689TIP3    H1 4952   5.698   5.919   0.456
 1689TIP3    H2 4953   5.624   6.044   0.493
 1690TIP3   OH2 4954   4.816   5.812   0.577
 1690TIP3    H1 4955   4.816   5.905   0.611
 1690TIP3    H2 4956   4.745   5.772   0.633
 1691TIP3   OH2 4957   4.005   5.788  -0.084
 1691TIP3    H1 4958   4.074   5.782  -0.014
 1691TIP3    H2 4959   3.956   5.706  -0.066
 1692TIP3   OH2 4960   5.594   5.160   0.736
 1692TIP3    H1 4961   5.537   5.177   0.660
 1692TIP3    H2 4962   5.625   5.069   0.718
 1693TIP3   OH2 4963   4.195   5.562   0.745
 1693TIP3    H1 4964   4.247   5.547   0.827
 1693TIP3    H2 4965   4.122   5.498   0.754
 1694TIP3   OH2 4966   4.597   4.386   0.527
 1694TIP3    H1 4967   4.507   4.356   0.503
 1694TIP3    H2 4968   4.573   4.470   0.570
 1695TIP3   OH2 4969   5.129   4.503   0.722
 1695TIP3    H1 4970   5.197   4.474   0.786
 1695TIP3    H2 4971   5.045   4.481   0.767
 1696TIP3   OH2 4972   5.368   4.928   0.637
 1696TIP3    H1 4973   5.322   4.927   0.724
 1696TIP3    H2 4974   5.348   5.017   0.603
 1697TIP3   OH2 4975   4.525   4.901   0.544
 1697TIP3    H1 4976   4.476   4.923   0.626
 1697TIP3    H2 4977   4.509   4.982   0.490
 1698TIP3   OH2 4978   4.395   4.776   0.055
 1698TIP3    H1 4979   4.314   4.720   0.062
 1698TIP3    H2 4980   4.422   4.747  -0.035
 1699TIP3   OH2 4981   5.076   5.155   0.876
 1699TIP3    H1 4982   5.055   5.080   0.936
 1699TIP3    H2 4983   5.171   5.166   0.895
 1700TIP3   OH2 4984   5.047   4.931   0.033
 1700TIP3    H1 4985   5.023   4.977  -0.049
 1700TIP3    H2 4986   5.070   4.842  -0.001
 1701TIP3   OH2 4987   4.343   4.933   0.756
 1701TIP3    H1 4988   4.383   4.992   0.822
 1701TIP3    H2 4989   4.335   4.849   0.806
 1702TIP3   OH2 4990   3.952   4.451   0.328
 1702TIP3    H1 4991   4.018   4.485   0.392
 1702TIP3    H2 4992   4.006   4.449   0.247
 1703TIP3   OH2 4993   3.895   4.430  -0.169
 1703TIP3    H1 4994   3.980   4.460  -0.204
 1703TIP3    H2 4995   3.863   4.509  -0.122
 1704TIP3   OH2 4996   5.058   5.151   0.450
 1704TIP3    H1 4997   5.096   5.080   0.393
 1704TIP3    H2 4998   5.036   5.098   0.529
 1705TIP3   OH2 4999   4.738   4.605   0.128
 1705TIP3    H1 5000   4.654   4.599   0.178
 1705TIP3    H2 5001   4.804   4.609   0.200
 1706TIP3   OH2 5002   4.450   4.684  -0.196
 1706TIP3    H1 5003   4.548   4.685  -0.186
 1706TIP3    H2 5004   4.437   4.720  -0.284
 1707TIP3   OH2 5005   5.231   4.685   0.333
 1707TIP3    H1 5006   5.188   4.698   0.420
 1707TIP3    H2 5007   5.169   4.625   0.289
 1708TIP3   OH2 5008   5.397   6.375   0.567
 1708TIP3    H1 5009   5.401   6.393   0.470
 1708TIP3    H2 5010   5.472   6.429   0.597
 1709TIP3   OH2 5011   4.355   5.486   0.964
 1709TIP3    H1 5012   4.437   5.515   1.010
 1709TIP3    H2 5013   4.293   5.487   1.040
 1710TIP3   OH2 5014   4.818   4.935   0.217
 1710TIP3    H1 5015   4.897   4.911   0.164
 1710TIP3    H2 5016   4.838   4.894   0.303
 1711TIP3   OH2 5017   4.798   4.830   0.514
 1711TIP3    H1 5018   4.710   4.870   0.523
 1711TIP3    H2 5019   4.857   4.892   0.561
 1712TIP3   OH2 5020   5.447   5.448   0.221
 1712TIP3    H1 5021   5.434   5.527   0.165
 1712TIP3    H2 5022   5.357   5.409   0.224
 1713TIP3   OH2 5023   4.935   5.545   0.600
 1713TIP3    H1 5024   4.959   5.521   0.690
 1713TIP3    H2 5025   4.894   5.633   0.610
 1714TIP3   OH2 5026   4.225   5.247   0.280
 1714TIP3    H1 5027   4.262   5.223   0.192
 1714TIP3    H2 5028   4.271   5.184   0.337
 1715TIP3   OH2 5029   4.102   5.175   0.896
 1715TIP3    H1 5030   4.133   5.158   0.988
 1715TIP3    H2 5031   4.042   5.100   0.881
 1716TIP3   OH2 5032   4.832   5.281   0.913
 1716TIP3    H1 5033   4.776   5.225   0.857
 1716TIP3    H2 5034   4.922   5.249   0.887
 1717TIP3   OH2 5035   5.089   5.820   0.488
 1717TIP3    H1 5036   4.995   5.807   0.510
 1717TIP3    H2 5037   5.122   5.859   0.571
 1718TIP3   OH2 5038   5.207   5.317   0.201
 1718TIP3    H1 5039   5.113   5.308   0.177
 1718TIP3    H2 5040   5.243   5.244   0.146
 1719TIP3   OH2 5041   4.338   5.563  -0.075
 1719TIP3    H1 5042   4.350   5.652  -0.114
 1719TIP3    H2 5043   4.264   5.530  -0.131
 1720TIP3   OH2 5044   3.865   4.857  -0.397
 1720TIP3    H1 5045   3.921   4.933  -0.371
 1720TIP3    H2 5046   3.797   4.858  -0.328
 1721TIP3   OH2 5047   4.488   5.331  -0.126
 1721TIP3    H1 5048   4.440   5.414  -0.116
 1721TIP3    H2 5049   4.437   5.272  -0.067
 1722TIP3   OH2 5050   4.596   5.895   0.374
 1722TIP3    H1 5051   4.638   5.967   0.323
 1722TIP3    H2 5052   4.673   5.860   0.423
 1723TIP3   OH2 5053   4.992   5.527   0.332
 1723TIP3    H1 5054   4.980   5.524   0.430
 1723TIP3    H2 5055   5.070   5.471   0.321
 1724TIP3   OH2 5056   5.230   6.064   0.393
 1724TIP3    H1 5057   5.160   5.995   0.397
 1724TIP3    H2 5058   5.200   6.115   0.317
 1725TIP3   OH2 5059   4.320   4.677   0.902
 1725TIP3    H1 5060   4.223   4.677   0.913
 1725TIP3    H2 5061   4.348   4.613   0.970
 1726TIP3   OH2 5062   4.025   5.758   0.540
 1726TIP3    H1 5063   4.086   5.684   0.559
 1726TIP3    H2 5064   4.063   5.827   0.596
 1727TIP3   OH2 5065   3.995   5.079  -0.304
 1727TIP3    H1 5066   3.941   5.137  -0.246
 1727TIP3    H2 5067   4.039   5.144  -0.364
 1728TIP3   OH2 5068   5.148   4.744   0.589
 1728TIP3    H1 5069   5.234   4.779   0.616
 1728TIP3    H2 5070   5.140   4.661   0.640
 1729TIP3   OH2 5071   4.714   4.679  -0.138
 1729TIP3    H1 5072   4.793   4.724  -0.172
 1729TIP3    H2 5073   4.732   4.671  -0.042
 1730TIP3   OH2 5074   4.992   4.987   0.659
 1730TIP3    H1 5075   5.018   5.038   0.738
 1730TIP3    H2 5076   5.050   4.908   0.665
 1731TIP3   OH2 5077   4.882   4.419  -0.046
 1731TIP3    H1 5078   4.857   4.481   0.025
 1731TIP3    H2 5079   4.966   4.458  -0.074
 1732TIP3   OH2 5080   4.371   4.387  -0.245
 1732TIP3    H1 5081   4.346   4.454  -0.179
 1732TIP3    H2 5082   4.461   4.365  -0.212
 1733TIP3   OH2 5083   5.637   4.888   0.644
 1733TIP3    H1 5084   5.538   4.887   0.647
 1733TIP3    H2 5085   5.652   4.861   0.553
 1734TIP3   OH2 5086   5.295   5.099   0.058
 1734TIP3    H1 5087   5.222   5.043   0.029
 1734TIP3    H2 5088   5.365   5.034   0.077
 1735TIP3   OH2 5089   3.960   4.600  -0.401
 1735TIP3    H1 5090   3.917   4.688  -0.401
 1735TIP3    H2 5091   3.886   4.541  -0.390
 1736TIP3   OH2 5092   4.330   4.314   0.520
 1736TIP3    H1 5093   4.300   4.281   0.431
 1736TIP3    H2 5094   4.320   4.232   0.572
 1737TIP3   OH2 5095   3.855   5.554  -0.072
 1737TIP3    H1 5096   3.765   5.587  -0.075
 1737TIP3    H2 5097   3.875   5.537  -0.167
 1738TIP3   OH2 5098   4.026   6.066   0.955
 1738TIP3    H1 5099   4.112   6.066   1.002
 1738TIP3    H2 5100   4.008   5.971   0.948
 1739TIP3   OH2 5101   4.506   6.033   0.999
 1739TIP3    H1 5102   4.601   6.016   1.009
 1739TIP3    H2 5103   4.485   5.974   0.923
 1740TIP3   OH2 5104   5.146   5.936   0.731
 1740TIP3    H1 5105   5.139   5.866   0.800
 1740TIP3    H2 5106   5.227   5.985   0.759
 1741TIP3   OH2 5107   4.155   5.471   1.156
 1741TIP3    H1 5108   4.176   5.376   1.158
 1741TIP3    H2 5109   4.068   5.472   1.111
 1742TIP3   OH2 5110   4.764   5.556   0.929
 1742TIP3    H1 5111   4.725   5.571   0.840
 1742TIP3    H2 5112   4.797   5.464   0.922
 1743TIP3   OH2 5113   5.252   5.559   0.539
 1743TIP3    H1 5114   5.323   5.605   0.488
 1743TIP3    H2 5115   5.179   5.621   0.526
 1744TIP3   OH2 5116   4.273   5.204   1.136
 1744TIP3    H1 5117   4.351   5.152   1.112
 1744TIP3    H2 5118   4.300   5.237   1.225
 1745TIP3   OH2 5119   4.608   5.088   0.796
 1745TIP3    H1 5120   4.534   5.153   0.801
 1745TIP3    H2 5121   4.659   5.122   0.719
 1746TIP3   OH2 5122   5.126   5.493   0.932
 1746TIP3    H1 5123   5.207   5.474   0.883
 1746TIP3    H2 5124   5.127   5.425   1.001
 1747TIP3   OH2 5125   4.732   4.878   0.927
 1747TIP3    H1 5126   4.735   4.798   0.870
 1747TIP3    H2 5127   4.691   4.944   0.866
 1748TIP3   OH2 5128   4.737   4.665   0.734
 1748TIP3    H1 5129   4.766   4.707   0.650
 1748TIP3    H2 5130   4.643   4.643   0.713
 1749TIP3   OH2 5131   4.765   5.203   0.607
 1749TIP3    H1 5132   4.847   5.203   0.556
 1749TIP3    H2 5133   4.711   5.270   0.560
 1750TIP3   OH2 5134   5.352   5.171   0.987
 1750TIP3    H1 5135   5.396   5.085   0.988
 1750TIP3    H2 5136   5.420   5.225   0.945
 1751TIP3   OH2 5137   5.400   5.424   0.720
 1751TIP3    H1 5138   5.342   5.478   0.661
 1751TIP3    H2 5139   5.487   5.444   0.683
 1752TIP3   OH2 5140   4.609   4.994   1.154
 1752TIP3    H1 5141   4.542   4.924   1.167
 1752TIP3    H2 5142   4.647   4.968   1.067
 1753TIP3   OH2 5143   4.869   4.431   0.800
 1753TIP3    H1 5144   4.821   4.513   0.775
 1753TIP3    H2 5145   4.800   4.363   0.785
 1754TIP3   OH2 5146   4.994   4.935   1.015
 1754TIP3    H1 5147   4.984   4.924   1.111
 1754TIP3    H2 5148   4.904   4.909   0.985
 1755TIP3   OH2 5149   5.237   4.889   0.871
 1755TIP3    H1 5150   5.160   4.885   0.931
 1755TIP3    H2 5151   5.309   4.855   0.928
 1756TIP3   OH2 5152   5.463   4.824   1.024
 1756TIP3    H1 5153   5.475   4.728   1.042
 1756TIP3    H2 5154   5.460   4.863   1.114
 1757TIP3   OH2 5155   4.450   4.773   1.208
 1757TIP3    H1 5156   4.458   4.684   1.170
 1757TIP3    H2 5157   4.487   4.759   1.297
 1758TIP3   OH2 5158   4.962   4.438   1.057
 1758TIP3    H1 5159   5.031   4.369   1.050
 1758TIP3    H2 5160   4.923   4.434   0.967
 1759TIP3   OH2 5161   5.028   4.653   1.216
 1759TIP3    H1 5162   5.006   4.583   1.151
 1759TIP3    H2 5163   4.951   4.713   1.207
 1760TIP3   OH2 5164   3.633   5.880  -0.055
 1760TIP3    H1 5165   3.571   5.813  -0.091
 1760TIP3    H2 5166   3.679   5.829   0.016
 1761TIP3   OH2 5167   3.756   5.748   0.152
 1761TIP3    H1 5168   3.782   5.657   0.173
 1761TIP3    H2 5169   3.830   5.798   0.190
 1762TIP3   OH2 5170   5.554   6.139   0.219
 1762TIP3    H1 5171   5.512   6.050   0.224
 1762TIP3    H2 5172   5.623   6.127   0.286
 1763TIP3   OH2 5173   5.544   5.851   0.768
 1763TIP3    H1 5174   5.498   5.842   0.852
 1763TIP3    H2 5175   5.614   5.917   0.788
 1764TIP3   OH2 5176   5.411   5.909   0.244
 1764TIP3    H1 5177   5.357   5.947   0.316
 1764TIP3    H2 5178   5.342   5.860   0.194
 1765TIP3   OH2 5179   3.966   5.146   0.503
 1765TIP3    H1 5180   3.966   5.109   0.411
 1765TIP3    H2 5181   4.063   5.144   0.521
 1766TIP3   OH2 5182   5.511   4.951   0.147
 1766TIP3    H1 5183   5.594   4.984   0.106
 1766TIP3    H2 5184   5.521   4.989   0.237
 1767TIP3   OH2 5185   5.562   5.087   0.388
 1767TIP3    H1 5186   5.481   5.120   0.431
 1767TIP3    H2 5187   5.599   5.170   0.349
 1768TIP3   OH2 5188   4.182   4.825   1.179
 1768TIP3    H1 5189   4.280   4.819   1.178
 1768TIP3    H2 5190   4.160   4.739   1.220
 1769TIP3   OH2 5191   6.024   4.688   0.938
 1769TIP3    H1 5192   6.079   4.621   0.891
 1769TIP3    H2 5193   5.990   4.742   0.863
 1770TIP3   OH2 5194   4.142   4.519   0.525
 1770TIP3    H1 5195   4.202   4.442   0.525
 1770TIP3    H2 5196   4.207   4.590   0.505
 1771TIP3   OH2 5197   3.948   4.794   0.581
 1771TIP3    H1 5198   3.996   4.776   0.498
 1771TIP3    H2 5199   3.991   4.875   0.610
 1772TIP3   OH2 5200   5.887   4.824   0.749
 1772TIP3    H1 5201   5.800   4.867   0.760
 1772TIP3    H2 5202   5.863   4.756   0.683
 1773TIP3   OH2 5203   3.923   4.267   0.067
 1773TIP3    H1 5204   3.838   4.297   0.102
 1773TIP3    H2 5205   3.962   4.347   0.030
 1774TIP3   OH2 5206   4.152   4.375   0.901
 1774TIP3    H1 5207   4.099   4.369   0.982
 1774TIP3    H2 5208   4.087   4.410   0.837
 1775TIP3   OH2 5209   4.194   5.800   0.973
 1775TIP3    H1 5210   4.102   5.772   0.959
 1775TIP3    H2 5211   4.206   5.783   1.067
 1776TIP3   OH2 5212   4.367   5.831   0.521
 1776TIP3    H1 5213   4.324   5.909   0.482
 1776TIP3    H2 5214   4.455   5.841   0.479
 1777TIP3   OH2 5215   4.816   6.078   0.660
 1777TIP3    H1 5216   4.858   6.077   0.749
 1777TIP3    H2 5217   4.882   6.128   0.608
 1778TIP3   OH2 5218   4.995   6.227   0.518
 1778TIP3    H1 5219   5.068   6.173   0.484
 1778TIP3    H2 5220   5.045   6.286   0.580
 1779TIP3   OH2 5221   5.789   4.591   0.617
 1779TIP3    H1 5222   5.698   4.589   0.583
 1779TIP3    H2 5223   5.816   4.497   0.604
 1780TIP3   OH2 5224   4.046   6.085   0.546
 1780TIP3    H1 5225   3.958   6.120   0.524
 1780TIP3    H2 5226   4.064   6.129   0.630
 1781TIP3   OH2 5227   4.283   6.066   0.401
 1781TIP3    H1 5228   4.197   6.080   0.446
 1781TIP3    H2 5229   4.266   6.100   0.312
 1782TIP3   OH2 5230   4.715   6.097   0.199
 1782TIP3    H1 5231   4.637   6.115   0.142
 1782TIP3    H2 5232   4.727   6.183   0.243
 1783TIP3   OH2 5233   4.988   6.052   0.239
 1783TIP3    H1 5234   4.890   6.053   0.229
 1783TIP3    H2 5235   5.014   6.117   0.174
 1784TIP3   OH2 5236   3.955   5.877   0.293
 1784TIP3    H1 5237   3.987   5.859   0.384
 1784TIP3    H2 5238   4.029   5.838   0.241
 1785TIP3   OH2 5239   4.152   5.758   0.149
 1785TIP3    H1 5240   4.170   5.670   0.188
 1785TIP3    H2 5241   4.242   5.794   0.141
 1786TIP3   OH2 5242   4.418   5.852   0.148
 1786TIP3    H1 5243   4.447   5.761   0.130
 1786TIP3    H2 5244   4.463   5.868   0.233
 1787TIP3   OH2 5245   4.993   4.501   0.235
 1787TIP3    H1 5246   4.952   4.431   0.289
 1787TIP3    H2 5247   5.069   4.455   0.193
 1788TIP3   OH2 5248   5.512   4.388   0.153
 1788TIP3    H1 5249   5.554   4.428   0.074
 1788TIP3    H2 5250   5.418   4.407   0.138
 1789TIP3   OH2 5251   5.621   4.465  -0.083
 1789TIP3    H1 5252   5.677   4.422  -0.147
 1789TIP3    H2 5253   5.650   4.557  -0.095
 1790TIP3   OH2 5254   4.243   4.209   0.291
 1790TIP3    H1 5255   4.157   4.200   0.247
 1790TIP3    H2 5256   4.294   4.136   0.252
 1791TIP3   OH2 5257   4.012   4.079  -0.108
 1791TIP3    H1 5258   4.056   4.142  -0.168
 1791TIP3    H2 5259   3.984   4.139  -0.036
 1792TIP3   OH2 5260   4.690   4.240   0.139
 1792TIP3    H1 5261   4.747   4.294   0.084
 1792TIP3    H2 5262   4.697   4.283   0.225
 1793TIP3   OH2 5263   5.229   4.394   0.117
 1793TIP3    H1 5264   5.242   4.355   0.029
 1793TIP3    H2 5265   5.219   4.312   0.172
 1794TIP3   OH2 5266   4.142   4.257  -0.322
 1794TIP3    H1 5267   4.199   4.185  -0.349
 1794TIP3    H2 5268   4.209   4.320  -0.290
 1795TIP3   OH2 5269   4.638   4.403  -0.185
 1795TIP3    H1 5270   4.712   4.372  -0.130
 1795TIP3    H2 5271   4.651   4.499  -0.178
 1796TIP3   OH2 5272   4.449   4.495   1.146
 1796TIP3    H1 5273   4.419   4.423   1.204
 1796TIP3    H2 5274   4.544   4.497   1.170
 1797TIP3   OH2 5275   4.699   4.493   1.264
 1797TIP3    H1 5276   4.783   4.470   1.222
 1797TIP3    H2 5277   4.689   4.421   1.329
 1798TIP3   OH2 5278   5.524   4.553   1.052
 1798TIP3    H1 5279   5.545   4.522   1.143
 1798TIP3    H2 5280   5.611   4.549   1.008
 1799TIP3   OH2 5281   5.465   6.110   0.542
 1799TIP3    H1 5282   5.381   6.081   0.504
 1799TIP3    H2 5283   5.448   6.206   0.553
 1800TIP3   OH2 5284   6.252   4.842   0.171
 1800TIP3    H1 5285   6.278   4.923   0.122
 1800TIP3    H2 5286   6.201   4.877   0.247
 1801TIP3   OH2 5287   6.172   5.482   0.312
 1801TIP3    H1 5288   6.180   5.568   0.356
 1801TIP3    H2 5289   6.076   5.467   0.317
 1802TIP3   OH2 5290   5.767   5.639   0.251
 1802TIP3    H1 5291   5.745   5.612   0.162
 1802TIP3    H2 5292   5.810   5.560   0.290
 1803TIP3   OH2 5293   6.016   5.765   0.253
 1803TIP3    H1 5294   6.067   5.762   0.336
 1803TIP3    H2 5295   5.935   5.716   0.276
 1804TIP3   OH2 5296   6.917   4.769   0.225
 1804TIP3    H1 5297   6.991   4.749   0.285
 1804TIP3    H2 5298   6.838   4.755   0.281
 1805TIP3   OH2 5299   6.885   5.413   0.425
 1805TIP3    H1 5300   6.869   5.318   0.436
 1805TIP3    H2 5301   6.961   5.417   0.365
 1806TIP3   OH2 5302   6.111   5.179   0.249
 1806TIP3    H1 5303   6.159   5.255   0.283
 1806TIP3    H2 5304   6.133   5.108   0.312
 1807TIP3   OH2 5305   6.147   5.730   0.486
 1807TIP3    H1 5306   6.219   5.767   0.539
 1807TIP3    H2 5307   6.089   5.692   0.553
 1808TIP3   OH2 5308   5.905   5.436   0.373
 1808TIP3    H1 5309   5.911   5.452   0.469
 1808TIP3    H2 5310   5.838   5.365   0.368
 1809TIP3   OH2 5311   6.623   5.499   0.440
 1809TIP3    H1 5312   6.568   5.478   0.362
 1809TIP3    H2 5313   6.714   5.479   0.408
 1810TIP3   OH2 5314   6.121   4.929   0.398
 1810TIP3    H1 5315   6.024   4.941   0.407
 1810TIP3    H2 5316   6.140   4.863   0.466
 1811TIP3   OH2 5317   6.094   4.540  -0.014
 1811TIP3    H1 5318   6.073   4.495  -0.097
 1811TIP3    H2 5319   6.098   4.467   0.050
 1812TIP3   OH2 5320   5.815   6.301   0.439
 1812TIP3    H1 5321   5.903   6.315   0.481
 1812TIP3    H2 5322   5.803   6.206   0.454
 1813TIP3   OH2 5323   6.305   6.280   0.487
 1813TIP3    H1 5324   6.399   6.258   0.501
 1813TIP3    H2 5325   6.297   6.258   0.394
 1814TIP3   OH2 5326   6.556   5.758   0.467
 1814TIP3    H1 5327   6.516   5.776   0.381
 1814TIP3    H2 5328   6.582   5.664   0.458
 1815TIP3   OH2 5329   6.130   5.451   0.633
 1815TIP3    H1 5330   6.126   5.356   0.624
 1815TIP3    H2 5331   6.035   5.477   0.651
 1816TIP3   OH2 5332   6.399   5.336   0.283
 1816TIP3    H1 5333   6.323   5.394   0.306
 1816TIP3    H2 5334   6.428   5.383   0.203
 1817TIP3   OH2 5335   6.982   5.698   0.419
 1817TIP3    H1 5336   7.032   5.778   0.435
 1817TIP3    H2 5337   6.955   5.668   0.507
 1818TIP3   OH2 5338   6.529   5.146   0.426
 1818TIP3    H1 5339   6.521   5.061   0.378
 1818TIP3    H2 5340   6.485   5.209   0.365
 1819TIP3   OH2 5341   6.515   4.913   0.272
 1819TIP3    H1 5342   6.537   4.959   0.188
 1819TIP3    H2 5343   6.422   4.890   0.252
 1820TIP3   OH2 5344   7.185   5.433   0.501
 1820TIP3    H1 5345   7.188   5.340   0.475
 1820TIP3    H2 5346   7.200   5.478   0.417
 1821TIP3   OH2 5347   6.414   5.248   0.660
 1821TIP3    H1 5348   6.342   5.183   0.660
 1821TIP3    H2 5349   6.447   5.240   0.568
 1822TIP3   OH2 5350   6.653   4.681   0.296
 1822TIP3    H1 5351   6.609   4.769   0.296
 1822TIP3    H2 5352   6.574   4.622   0.288
 1823TIP3   OH2 5353   6.796   5.165   0.498
 1823TIP3    H1 5354   6.780   5.173   0.594
 1823TIP3    H2 5355   6.703   5.160   0.467
 1824TIP3   OH2 5356   7.031   5.138   0.353
 1824TIP3    H1 5357   6.953   5.134   0.411
 1824TIP3    H2 5358   7.102   5.103   0.408
 1825TIP3   OH2 5359   7.282   5.088   0.515
 1825TIP3    H1 5360   7.273   4.991   0.527
 1825TIP3    H2 5361   7.261   5.122   0.605
 1826TIP3   OH2 5362   6.242   5.032   0.697
 1826TIP3    H1 5363   6.251   4.944   0.654
 1826TIP3    H2 5364   6.281   5.013   0.785
 1827TIP3   OH2 5365   6.762   4.695   0.547
 1827TIP3    H1 5366   6.829   4.624   0.542
 1827TIP3    H2 5367   6.717   4.684   0.461
 1828TIP3   OH2 5368   6.824   4.910   0.706
 1828TIP3    H1 5369   6.801   4.841   0.639
 1828TIP3    H2 5370   6.750   4.973   0.696
 1829TIP3   OH2 5371   5.973   5.071   0.647
 1829TIP3    H1 5372   6.071   5.069   0.656
 1829TIP3    H2 5373   5.948   4.996   0.704
 1830TIP3   OH2 5374   5.940   4.803   0.057
 1830TIP3    H1 5375   6.011   4.741   0.083
 1830TIP3    H2 5376   5.991   4.881   0.025
 1831TIP3   OH2 5377   5.756   5.052   0.060
 1831TIP3    H1 5378   5.828   4.990   0.044
 1831TIP3    H2 5379   5.805   5.134   0.073
 1832TIP3   OH2 5380   5.951   4.628   0.386
 1832TIP3    H1 5381   5.901   4.623   0.469
 1832TIP3    H2 5382   5.882   4.666   0.327
 1833TIP3   OH2 5383   5.977   6.052   0.461
 1833TIP3    H1 5384   5.888   6.015   0.454
 1833TIP3    H2 5385   5.997   6.044   0.555
 1834TIP3   OH2 5386   6.245   4.750   0.632
 1834TIP3    H1 5387   6.213   4.680   0.691
 1834TIP3    H2 5388   6.340   4.753   0.659
 1835TIP3   OH2 5389   6.494   4.749   0.752
 1835TIP3    H1 5390   6.581   4.727   0.715
 1835TIP3    H2 5391   6.482   4.678   0.818
 1836TIP3   OH2 5392   7.305   4.805   0.549
 1836TIP3    H1 5393   7.335   4.777   0.638
 1836TIP3    H2 5394   7.388   4.811   0.500
 1837TIP3   OH2 5395  -0.229   5.870   2.231
 1837TIP3    H1 5396  -0.260   5.778   2.234
 1837TIP3    H2 5397  -0.283   5.916   2.299
 1838TIP3   OH2 5398   0.274   5.733   2.114
 1838TIP3    H1 5399   0.327   5.665   2.068
 1838TIP3    H2 5400   0.243   5.788   2.039
 1839TIP3   OH2 5401   0.132   5.876   1.932
 1839TIP3    H1 5402   0.063   5.916   1.989
 1839TIP3    H2 5403   0.088   5.798   1.894
 1840TIP3   OH2 5404   0.042   5.634   1.829
 1840TIP3    H1 5405  -0.010   5.641   1.745
 1840TIP3    H2 5406   0.082   5.545   1.814
 1841TIP3   OH2 5407  -0.239   5.591   2.232
 1841TIP3    H1 5408  -0.217   5.564   2.324
 1841TIP3    H2 5409  -0.150   5.596   2.191
 1842TIP3   OH2 5410   1.805   6.069   0.908
 1842TIP3    H1 5411   1.825   6.147   0.963
 1842TIP3    H2 5412   1.764   6.110   0.831
 1843TIP3   OH2 5413   1.132   6.236   0.964
 1843TIP3    H1 5414   1.185   6.157   0.987
 1843TIP3    H2 5415   1.182   6.268   0.887
 1844TIP3   OH2 5416   1.859   6.273   1.084
 1844TIP3    H1 5417   1.777   6.324   1.068
 1844TIP3    H2 5418   1.878   6.299   1.175
 1845TIP3   OH2 5419   1.429   6.003   0.709
 1845TIP3    H1 5420   1.419   5.946   0.786
 1845TIP3    H2 5421   1.487   6.075   0.742
 1846TIP3   OH2 5422   1.581   5.972   1.079
 1846TIP3    H1 5423   1.491   5.997   1.052
 1846TIP3    H2 5424   1.635   5.997   1.002
 1847TIP3   OH2 5425   0.895   5.628   1.105
 1847TIP3    H1 5426   0.874   5.557   1.042
 1847TIP3    H2 5427   0.806   5.665   1.115
 1848TIP3   OH2 5428   1.516   6.986   1.067
 1848TIP3    H1 5429   1.512   6.917   0.998
 1848TIP3    H2 5430   1.475   7.063   1.021
 1849TIP3   OH2 5431   1.714   6.612   0.901
 1849TIP3    H1 5432   1.636   6.671   0.908
 1849TIP3    H2 5433   1.746   6.642   0.813
 1850TIP3   OH2 5434   1.404   6.497   1.202
 1850TIP3    H1 5435   1.397   6.578   1.257
 1850TIP3    H2 5436   1.312   6.492   1.167
 1851TIP3   OH2 5437   1.768   7.332   1.113
 1851TIP3    H1 5438   1.768   7.237   1.133
 1851TIP3    H2 5439   1.678   7.357   1.143
 1852TIP3   OH2 5440   1.648   6.458   1.379
 1852TIP3    H1 5441   1.565   6.471   1.330
 1852TIP3    H2 5442   1.661   6.361   1.372
 1853TIP3   OH2 5443   0.621   5.708   1.196
 1853TIP3    H1 5444   0.553   5.645   1.169
 1853TIP3    H2 5445   0.575   5.792   1.177
 1854TIP3   OH2 5446   1.174   5.808   1.392
 1854TIP3    H1 5447   1.248   5.779   1.450
 1854TIP3    H2 5448   1.095   5.786   1.445
 1855TIP3   OH2 5449   1.410   6.230   1.300
 1855TIP3    H1 5450   1.367   6.227   1.388
 1855TIP3    H2 5451   1.391   6.320   1.270
 1856TIP3   OH2 5452   1.123   6.454   1.536
 1856TIP3    H1 5453   1.104   6.383   1.601
 1856TIP3    H2 5454   1.215   6.476   1.559
 1857TIP3   OH2 5455   1.146   6.452   1.130
 1857TIP3    H1 5456   1.136   6.380   1.065
 1857TIP3    H2 5457   1.085   6.420   1.199
 1858TIP3   OH2 5458   1.274   5.989   0.992
 1858TIP3    H1 5459   1.239   5.996   1.082
 1858TIP3    H2 5460   1.212   5.921   0.956
 1859TIP3   OH2 5461   0.864   6.031   1.249
 1859TIP3    H1 5462   0.835   6.059   1.161
 1859TIP3    H2 5463   0.958   6.055   1.243
 1860TIP3   OH2 5464   1.491   6.775   0.885
 1860TIP3    H1 5465   1.497   6.814   0.797
 1860TIP3    H2 5466   1.415   6.716   0.877
 1861TIP3   OH2 5467   0.881   6.580   1.574
 1861TIP3    H1 5468   0.835   6.527   1.508
 1861TIP3    H2 5469   0.974   6.556   1.556
 1862TIP3   OH2 5470   1.770   7.024   1.148
 1862TIP3    H1 5471   1.672   7.029   1.140
 1862TIP3    H2 5472   1.793   7.003   1.056
 1863TIP3   OH2 5473   0.436   5.950   1.572
 1863TIP3    H1 5474   0.342   5.941   1.561
 1863TIP3    H2 5475   0.451   5.884   1.644
 1864TIP3   OH2 5476   1.187   6.044   1.252
 1864TIP3    H1 5477   1.272   6.081   1.282
 1864TIP3    H2 5478   1.184   5.960   1.303
 1865TIP3   OH2 5479   1.034   6.289   1.332
 1865TIP3    H1 5480   1.068   6.347   1.404
 1865TIP3    H2 5481   1.101   6.219   1.330
 1866TIP3   OH2 5482   1.678   6.189   1.299
 1866TIP3    H1 5483   1.581   6.186   1.308
 1866TIP3    H2 5484   1.688   6.147   1.213
 1867TIP3   OH2 5485   1.318   6.309   0.770
 1867TIP3    H1 5486   1.321   6.349   0.682
 1867TIP3    H2 5487   1.412   6.290   0.784
 1868TIP3   OH2 5488   1.219   7.247   1.400
 1868TIP3    H1 5489   1.186   7.181   1.465
 1868TIP3    H2 5490   1.285   7.296   1.450
 1869TIP3   OH2 5491   0.815   6.855   1.598
 1869TIP3    H1 5492   0.759   6.855   1.520
 1869TIP3    H2 5493   0.857   6.767   1.595
 1870TIP3   OH2 5494   1.304   6.874   1.202
 1870TIP3    H1 5495   1.383   6.924   1.173
 1870TIP3    H2 5496   1.252   6.941   1.248
 1871TIP3   OH2 5497   0.315   6.543   1.863
 1871TIP3    H1 5498   0.420   6.604   1.844
 1871TIP3    H2 5499   0.304   6.521   1.811
 1872TIP3   OH2 5500   1.165   6.780   1.598
 1872TIP3    H1 5501   1.254   6.783   1.563
 1872TIP3    H2 5502   1.174   6.721   1.675
 1873TIP3   OH2 5503   1.390   6.471   1.648
 1873TIP3    H1 5504   1.441   6.390   1.666
 1873TIP3    H2 5505   1.460   6.532   1.620
 1874TIP3   OH2 5506   1.436   6.716   1.382
 1874TIP3    H1 5507   1.376   6.770   1.325
 1874TIP3    H2 5508   1.523   6.739   1.343
 1875TIP3   OH2 5509   0.664   6.295   1.814
 1875TIP3    H1 5510   0.587   6.242   1.843
 1875TIP3    H2 5511   0.652   6.296   1.719
 1876TIP3   OH2 5512   0.902   5.745   1.452
 1876TIP3    H1 5513   0.891   5.775   1.361
 1876TIP3    H2 5514   0.838   5.670   1.453
 1877TIP3   OH2 5515   1.049   6.239   1.688
 1877TIP3    H1 5516   1.073   6.240   1.782
 1877TIP3    H2 5517   0.960   6.201   1.695
 1878TIP3   OH2 5518   1.281   6.182   1.531
 1878TIP3    H1 5519   1.207   6.186   1.595
 1878TIP3    H2 5520   1.355   6.153   1.588
 1879TIP3   OH2 5521   1.506   6.123   1.683
 1879TIP3    H1 5522   1.520   6.028   1.704
 1879TIP3    H2 5523   1.501   6.165   1.772
 1880TIP3   OH2 5524   0.508   6.074   1.873
 1880TIP3    H1 5525   0.503   5.983   1.839
 1880TIP3    H2 5526   0.542   6.058   1.964
 1881TIP3   OH2 5527   1.008   5.745   1.715
 1881TIP3    H1 5528   1.074   5.673   1.711
 1881TIP3    H2 5529   0.963   5.736   1.629
 1882TIP3   OH2 5530   1.073   5.956   1.879
 1882TIP3    H1 5531   1.052   5.884   1.816
 1882TIP3    H2 5532   0.993   6.012   1.874
 1883TIP3   OH2 5533   1.628   7.125   1.447
 1883TIP3    H1 5534   1.556   7.134   1.513
 1883TIP3    H2 5535   1.670   7.214   1.452
 1884TIP3   OH2 5536   1.674   6.788   1.273
 1884TIP3    H1 5537   1.748   6.724   1.266
 1884TIP3    H2 5538   1.704   6.862   1.219
 1885TIP3   OH2 5539   1.862   6.596   1.290
 1885TIP3    H1 5540   1.788   6.547   1.332
 1885TIP3    H2 5541   1.935   6.532   1.306
 1886TIP3   OH2 5542   1.577   6.233   0.817
 1886TIP3    H1 5543   1.653   6.277   0.773
 1886TIP3    H2 5544   1.578   6.280   0.903
 1887TIP3   OH2 5545   1.611   6.396   1.037
 1887TIP3    H1 5546   1.537   6.430   1.092
 1887TIP3    H2 5547   1.644   6.478   0.995
 1888TIP3   OH2 5548   0.248   6.100   1.796
 1888TIP3    H1 5549   0.339   6.111   1.830
 1888TIP3    H2 5550   0.204   6.060   1.875
 1889TIP3   OH2 5551   2.063   5.987   1.598
 1889TIP3    H1 5552   2.121   5.921   1.554
 1889TIP3    H2 5553   2.037   6.045   1.524
 1890TIP3   OH2 5554   1.504   5.813   0.346
 1890TIP3    H1 5555   1.541   5.811   0.437
 1890TIP3    H2 5556   1.431   5.751   0.354
 1891TIP3   OH2 5557   1.937   6.130   1.405
 1891TIP3    H1 5558   1.852   6.169   1.434
 1891TIP3    H2 5559   1.904   6.059   1.347
 1892TIP3   OH2 5560   0.227   5.727   1.570
 1892TIP3    H1 5561   0.187   5.672   1.640
 1892TIP3    H2 5562   0.156   5.722   1.504
 1893TIP3   OH2 5563   1.835   5.892   1.279
 1893TIP3    H1 5564   1.742   5.887   1.251
 1893TIP3    H2 5565   1.863   5.798   1.269
 1894TIP3   OH2 5566   1.074   5.810   0.927
 1894TIP3    H1 5567   0.995   5.768   0.963
 1894TIP3    H2 5568   1.089   5.757   0.847
 1895TIP3   OH2 5569   1.571   5.703   0.816
 1895TIP3    H1 5570   1.600   5.750   0.735
 1895TIP3    H2 5571   1.474   5.702   0.804
 1896TIP3   OH2 5572   1.661   5.792   0.573
 1896TIP3    H1 5573   1.732   5.739   0.532
 1896TIP3    H2 5574   1.694   5.883   0.558
 1897TIP3   OH2 5575   1.301   5.684   0.770
 1897TIP3    H1 5576   1.286   5.637   0.688
 1897TIP3    H2 5577   1.270   5.617   0.836
 1898TIP3   OH2 5578   0.497   5.792   1.810
 1898TIP3    H1 5579   0.462   5.724   1.869
 1898TIP3    H2 5580   0.591   5.794   1.840
 1899TIP3   OH2 5581   0.746   5.791   1.927
 1899TIP3    H1 5582   0.831   5.761   1.892
 1899TIP3    H2 5583   0.729   5.723   1.995
 1900TIP3   OH2 5584   1.567   5.853   1.716
 1900TIP3    H1 5585   1.587   5.823   1.807
 1900TIP3    H2 5586   1.656   5.849   1.674
 1901TIP3   OH2 5587   1.512   7.407   1.205
 1901TIP3    H1 5588   1.438   7.355   1.171
 1901TIP3    H2 5589   1.475   7.497   1.204
 1902TIP3   OH2 5590   2.758   6.781   0.017
 1902TIP3    H1 5591   2.736   6.876   0.001
 1902TIP3    H2 5592   2.691   6.738  -0.038
 1903TIP3   OH2 5593   2.762   6.786   0.359
 1903TIP3    H1 5594   2.803   6.749   0.439
 1903TIP3    H2 5595   2.743   6.709   0.303
 1904TIP3   OH2 5596   2.096   6.659   0.711
 1904TIP3    H1 5597   2.117   6.604   0.787
 1904TIP3    H2 5598   2.161   6.731   0.721
 1905TIP3   OH2 5599   3.034   7.059   0.034
 1905TIP3    H1 5600   3.010   7.012   0.115
 1905TIP3    H2 5601   3.049   7.149   0.069
 1906TIP3   OH2 5602   2.067   7.063   0.511
 1906TIP3    H1 5603   2.084   6.966   0.502
 1906TIP3    H2 5604   2.134   7.096   0.448
 1907TIP3   OH2 5605   1.853   6.612   0.410
 1907TIP3    H1 5606   1.870   6.521   0.442
 1907TIP3    H2 5607   1.853   6.599   0.314
 1908TIP3   OH2 5608   2.691   7.539   0.046
 1908TIP3    H1 5609   2.739   7.455   0.035
 1908TIP3    H2 5610   2.672   7.536   0.140
 1909TIP3   OH2 5611   2.575   7.002   0.410
 1909TIP3    H1 5612   2.615   6.927   0.362
 1909TIP3    H2 5613   2.658   7.050   0.432
 1910TIP3   OH2 5614   3.591   6.321   0.402
 1910TIP3    H1 5615   3.612   6.405   0.448
 1910TIP3    H2 5616   3.609   6.347   0.310
 1911TIP3   OH2 5617   2.955   6.490   0.449
 1911TIP3    H1 5618   3.021   6.419   0.460
 1911TIP3    H2 5619   2.964   6.507   0.353
 1912TIP3   OH2 5620   3.014   6.257   0.030
 1912TIP3    H1 5621   3.091   6.241   0.090
 1912TIP3    H2 5622   3.062   6.293  -0.048
 1913TIP3   OH2 5623   1.946   6.369   0.498
 1913TIP3    H1 5624   2.032   6.385   0.538
 1913TIP3    H2 5625   1.968   6.306   0.425
 1914TIP3   OH2 5626   2.405   6.556   0.305
 1914TIP3    H1 5627   2.500   6.531   0.309
 1914TIP3    H2 5628   2.365   6.478   0.262
 1915TIP3   OH2 5629   3.654   6.527   0.579
 1915TIP3    H1 5630   3.575   6.581   0.556
 1915TIP3    H2 5631   3.684   6.572   0.660
 1916TIP3   OH2 5632   2.667   7.012  -0.099
 1916TIP3    H1 5633   2.684   6.970  -0.184
 1916TIP3    H2 5634   2.606   7.085  -0.119
 1917TIP3   OH2 5635   2.420   6.919   0.632
 1917TIP3    H1 5636   2.366   6.991   0.668
 1917TIP3    H2 5637   2.467   6.965   0.559
 1918TIP3   OH2 5638   3.232   6.255   0.197
 1918TIP3    H1 5639   3.224   6.216   0.285
 1918TIP3    H2 5640   3.276   6.340   0.216
 1919TIP3   OH2 5641   2.249   7.126   0.730
 1919TIP3    H1 5642   2.212   7.141   0.641
 1919TIP3    H2 5643   2.174   7.083   0.774
 1920TIP3   OH2 5644   3.074   7.313   0.174
 1920TIP3    H1 5645   2.990   7.307   0.225
 1920TIP3    H2 5646   3.109   7.394   0.214
 1921TIP3   OH2 5647   3.396   6.221   0.581
 1921TIP3    H1 5648   3.305   6.237   0.553
 1921TIP3    H2 5649   3.447   6.248   0.502
 1922TIP3   OH2 5650   2.677   5.860   0.536
 1922TIP3    H1 5651   2.679   5.765   0.554
 1922TIP3    H2 5652   2.622   5.892   0.609
 1923TIP3   OH2 5653   3.307   7.243   0.551
 1923TIP3    H1 5654   3.295   7.181   0.477
 1923TIP3    H2 5655   3.275   7.329   0.514
 1924TIP3   OH2 5656   2.611   6.633  -0.186
 1924TIP3    H1 5657   2.518   6.661  -0.190
 1924TIP3    H2 5658   2.632   6.622  -0.279
 1925TIP3   OH2 5659   3.507   6.870   0.391
 1925TIP3    H1 5660   3.425   6.924   0.398
 1925TIP3    H2 5661   3.537   6.896   0.301
 1926TIP3   OH2 5662   2.910   6.646  -0.164
 1926TIP3    H1 5663   2.891   6.701  -0.086
 1926TIP3    H2 5664   3.002   6.669  -0.189
 1927TIP3   OH2 5665   3.187   6.752   0.689
 1927TIP3    H1 5666   3.189   6.836   0.739
 1927TIP3    H2 5667   3.105   6.764   0.638
 1928TIP3   OH2 5668   2.186   6.696   0.214
 1928TIP3    H1 5669   2.167   6.664   0.125
 1928TIP3    H2 5670   2.274   6.656   0.230
 1929TIP3   OH2 5671   2.309   7.085   0.376
 1929TIP3    H1 5672   2.301   7.107   0.282
 1929TIP3    H2 5673   2.405   7.066   0.383
 1930TIP3   OH2 5674   2.353   6.658   0.559
 1930TIP3    H1 5675   2.369   6.653   0.461
 1930TIP3    H2 5676   2.375   6.754   0.576
 1931TIP3   OH2 5677   2.840   7.319   0.317
 1931TIP3    H1 5678   2.841   7.405   0.364
 1931TIP3    H2 5679   2.833   7.254   0.389
 1932TIP3   OH2 5680   2.456   7.226   0.885
 1932TIP3    H1 5681   2.433   7.320   0.880
 1932TIP3    H2 5682   2.397   7.184   0.819
 1933TIP3   OH2 5683   2.207   6.799   0.964
 1933TIP3    H1 5684   2.218   6.879   1.019
 1933TIP3    H2 5685   2.114   6.776   0.986
 1934TIP3   OH2 5686   1.854   6.944   0.897
 1934TIP3    H1 5687   1.811   6.909   0.817
 1934TIP3    H2 5688   1.885   6.860   0.937
 1935TIP3   OH2 5689   3.564   7.581   0.609
 1935TIP3    H1 5690   3.548   7.485   0.605
 1935TIP3    H2 5691   3.475   7.611   0.636
 1936TIP3   OH2 5692   2.645   7.379   0.719
 1936TIP3    H1 5693   2.658   7.468   0.759
 1936TIP3    H2 5694   2.618   7.325   0.794
 1937TIP3   OH2 5695   3.442   6.711   0.871
 1937TIP3    H1 5696   3.365   6.729   0.816
 1937TIP3    H2 5697   3.454   6.614   0.859
 1938TIP3   OH2 5698   2.047   7.157   0.918
 1938TIP3    H1 5699   2.094   7.110   0.992
 1938TIP3    H2 5700   1.969   7.098   0.908
 1939TIP3   OH2 5701   2.972   6.055   0.871
 1939TIP3    H1 5702   3.041   6.036   0.938
 1939TIP3    H2 5703   2.889   6.038   0.919
 1940TIP3   OH2 5704   3.203   6.485   0.785
 1940TIP3    H1 5705   3.161   6.485   0.874
 1940TIP3    H2 5706   3.188   6.577   0.754
 1941TIP3   OH2 5707   2.609   5.987  -0.358
 1941TIP3    H1 5708   2.572   6.008  -0.271
 1941TIP3    H2 5709   2.560   5.907  -0.381
 1942TIP3   OH2 5710   2.320   6.424   0.679
 1942TIP3    H1 5711   2.287   6.448   0.767
 1942TIP3    H2 5712   2.337   6.513   0.642
 1943TIP3   OH2 5713   2.264   6.330   0.226
 1943TIP3    H1 5714   2.170   6.308   0.236
 1943TIP3    H2 5715   2.278   6.302   0.133
 1944TIP3   OH2 5716   2.739   6.425  -0.066
 1944TIP3    H1 5717   2.690   6.503  -0.099
 1944TIP3    H2 5718   2.815   6.428  -0.127
 1945TIP3   OH2 5719   2.916   6.708   1.020
 1945TIP3    H1 5720   2.897   6.637   1.085
 1945TIP3    H2 5721   3.009   6.729   1.043
 1946TIP3   OH2 5722   2.889   6.460   0.174
 1946TIP3    H1 5723   2.837   6.487   0.096
 1946TIP3    H2 5724   2.930   6.379   0.135
 1947TIP3   OH2 5725   2.191   6.482   0.909
 1947TIP3    H1 5726   2.216   6.547   0.977
 1947TIP3    H2 5727   2.176   6.400   0.966
 1948TIP3   OH2 5728   2.255   5.996  -0.366
 1948TIP3    H1 5729   2.251   5.948  -0.281
 1948TIP3    H2 5730   2.165   5.977  -0.397
 1949TIP3   OH2 5731   1.786   6.020   0.487
 1949TIP3    H1 5732   1.874   6.051   0.516
 1949TIP3    H2 5733   1.802   5.981   0.399
 1950TIP3   OH2 5734   2.902   6.705   0.601
 1950TIP3    H1 5735   2.935   6.631   0.545
 1950TIP3    H2 5736   2.880   6.656   0.682
 1951TIP3   OH2 5737   2.586   6.155   0.263
 1951TIP3    H1 5738   2.504   6.195   0.295
 1951TIP3    H2 5739   2.652   6.183   0.329
 1952TIP3   OH2 5740   2.012   6.209   0.284
 1952TIP3    H1 5741   1.929   6.180   0.247
 1952TIP3    H2 5742   2.070   6.131   0.267
 1953TIP3   OH2 5743   2.287   6.215  -0.025
 1953TIP3    H1 5744   2.384   6.226  -0.033
 1953TIP3    H2 5745   2.255   6.263  -0.104
 1954TIP3   OH2 5746   3.079   6.237   0.478
 1954TIP3    H1 5747   3.037   6.254   0.565
 1954TIP3    H2 5748   3.011   6.183   0.435
 1955TIP3   OH2 5749   3.235   7.938   0.693
 1955TIP3    H1 5750   3.236   7.958   0.597
 1955TIP3    H2 5751   3.319   7.979   0.722
 1956TIP3   OH2 5752   2.199   7.048   1.115
 1956TIP3    H1 5753   2.281   7.071   1.165
 1956TIP3    H2 5754   2.136   7.041   1.190
 1957TIP3   OH2 5755   2.667   6.464   0.362
 1957TIP3    H1 5756   2.741   6.458   0.299
 1957TIP3    H2 5757   2.715   6.463   0.445
 1958TIP3   OH2 5758   2.179   5.998   0.245
 1958TIP3    H1 5759   2.160   5.911   0.283
 1958TIP3    H2 5760   2.224   5.975   0.161
 1959TIP3   OH2 5761   2.624   6.390   0.688
 1959TIP3    H1 5762   2.571   6.469   0.674
 1959TIP3    H2 5763   2.709   6.430   0.715
 1960TIP3   OH2 5764   3.274   7.015   0.386
 1960TIP3    H1 5765   3.302   7.063   0.305
 1960TIP3    H2 5766   3.185   6.983   0.361
 1961TIP3   OH2 5767   2.757   7.093   0.765
 1961TIP3    H1 5768   2.807   7.079   0.846
 1961TIP3    H2 5769   2.776   7.186   0.745
 1962TIP3   OH2 5770   2.104   6.802   0.453
 1962TIP3    H1 5771   2.126   6.769   0.362
 1962TIP3    H2 5772   2.115   6.723   0.506
 1963TIP3   OH2 5773   1.948   6.727   1.042
 1963TIP3    H1 5774   1.967   6.712   1.137
 1963TIP3    H2 5775   1.879   6.660   1.026
 1964TIP3   OH2 5776   2.675   6.836   1.064
 1964TIP3    H1 5777   2.622   6.782   1.004
 1964TIP3    H2 5778   2.766   6.808   1.037
 1965TIP3   OH2 5779   2.923   7.322   0.678
 1965TIP3    H1 5780   2.843   7.367   0.645
 1965TIP3    H2 5781   2.971   7.398   0.716
 1966TIP3   OH2 5782   3.561   7.280   0.638
 1966TIP3    H1 5783   3.464   7.285   0.627
 1966TIP3    H2 5784   3.588   7.257   0.547
 1967TIP3   OH2 5785   3.030   6.897   0.312
 1967TIP3    H1 5786   2.936   6.872   0.318
 1967TIP3    H2 5787   3.068   6.810   0.286
 1968TIP3   OH2 5788   2.318   6.870   0.031
 1968TIP3    H1 5789   2.302   6.964   0.017
 1968TIP3    H2 5790   2.268   6.849   0.111
 1969TIP3   OH2 5791   2.438   7.452   0.561
 1969TIP3    H1 5792   2.477   7.517   0.498
 1969TIP3    H2 5793   2.521   7.419   0.603
 1970TIP3   OH2 5794   2.828   7.087   0.484
 1970TIP3    H1 5795   2.825   7.081   0.582
 1970TIP3    H2 5796   2.913   7.045   0.464
 1971TIP3   OH2 5797   2.160   6.241   1.050
 1971TIP3    H1 5798   2.064   6.241   1.070
 1971TIP3    H2 5799   2.194   6.175   1.112
 1972TIP3   OH2 5800   1.848   7.303   0.681
 1972TIP3    H1 5801   1.911   7.233   0.700
 1972TIP3    H2 5802   1.863   7.369   0.750
 1973TIP3   OH2 5803   2.990   6.297   0.733
 1973TIP3    H1 5804   3.071   6.340   0.764
 1973TIP3    H2 5805   2.986   6.216   0.789
 1974TIP3   OH2 5806   2.847   6.073  -0.106
 1974TIP3    H1 5807   2.852   6.093  -0.201
 1974TIP3    H2 5808   2.912   6.137  -0.070
 1975TIP3   OH2 5809   2.560   6.226  -0.005
 1975TIP3    H1 5810   2.629   6.291  -0.033
 1975TIP3    H2 5811   2.582   6.215   0.090
 1976TIP3   OH2 5812   2.833   6.538   0.811
 1976TIP3    H1 5813   2.853   6.599   0.885
 1976TIP3    H2 5814   2.899   6.468   0.824
 1977TIP3   OH2 5815   2.715   5.952   0.099
 1977TIP3    H1 5816   2.701   6.030   0.157
 1977TIP3    H2 5817   2.770   5.994   0.028
 1978TIP3   OH2 5818   2.231   5.947  -0.069
 1978TIP3    H1 5819   2.232   6.045  -0.059
 1978TIP3    H2 5820   2.327   5.931  -0.078
 1979TIP3   OH2 5821   3.472   6.444   0.791
 1979TIP3    H1 5822   3.374   6.437   0.791
 1979TIP3    H2 5823   3.491   6.427   0.697
 1980TIP3   OH2 5824   3.104   6.642   0.244
 1980TIP3    H1 5825   3.050   6.584   0.188
 1980TIP3    H2 5826   3.193   6.604   0.228
 1981TIP3   OH2 5827   3.093   7.625   0.136
 1981TIP3    H1 5828   3.063   7.576   0.058
 1981TIP3    H2 5829   3.189   7.631   0.123
 1982TIP3   OH2 5830   2.180   5.873   0.662
 1982TIP3    H1 5831   2.151   5.840   0.575
 1982TIP3    H2 5832   2.172   5.793   0.718
 1983TIP3   OH2 5833   1.865   7.600   1.111
 1983TIP3    H1 5834   1.942   7.600   1.170
 1983TIP3    H2 5835   1.835   7.507   1.113
 1984TIP3   OH2 5836   2.352   7.577   1.126
 1984TIP3    H1 5837   2.430   7.556   1.180
 1984TIP3    H2 5838   2.394   7.608   1.046
 1985TIP3   OH2 5839   2.978   7.508   0.892
 1985TIP3    H1 5840   2.978   7.429   0.950
 1985TIP3    H2 5841   3.063   7.551   0.914
 1986TIP3   OH2 5842   1.999   7.031   1.303
 1986TIP3    H1 5843   2.012   6.935   1.315
 1986TIP3    H2 5844   1.910   7.034   1.263
 1987TIP3   OH2 5845   2.611   7.110   1.084
 1987TIP3    H1 5846   2.570   7.128   0.997
 1987TIP3    H2 5847   2.644   7.019   1.073
 1988TIP3   OH2 5848   3.100   7.116   0.681
 1988TIP3    H1 5849   3.176   7.160   0.637
 1988TIP3    H2 5850   3.033   7.188   0.677
 1989TIP3   OH2 5851   2.121   6.762   1.284
 1989TIP3    H1 5852   2.193   6.699   1.275
 1989TIP3    H2 5853   2.140   6.798   1.374
 1990TIP3   OH2 5854   2.450   6.641   0.936
 1990TIP3    H1 5855   2.378   6.706   0.947
 1990TIP3    H2 5856   2.501   6.680   0.862
 1991TIP3   OH2 5857   2.965   7.046   1.080
 1991TIP3    H1 5858   3.051   7.035   1.037
 1991TIP3    H2 5859   2.971   6.984   1.155
 1992TIP3   OH2 5860   2.574   6.441   1.080
 1992TIP3    H1 5861   2.581   6.360   1.026
 1992TIP3    H2 5862   2.533   6.505   1.018
 1993TIP3   OH2 5863   2.566   6.203   0.877
 1993TIP3    H1 5864   2.600   6.264   0.807
 1993TIP3    H2 5865   2.475   6.231   0.887
 1994TIP3   OH2 5866   2.608   6.756   0.749
 1994TIP3    H1 5867   2.693   6.772   0.705
 1994TIP3    H2 5868   2.553   6.826   0.709
 1995TIP3   OH2 5869   3.187   6.728   1.136
 1995TIP3    H1 5870   3.241   6.648   1.147
 1995TIP3    H2 5871   3.253   6.791   1.103
 1996TIP3   OH2 5872   3.228   6.976   0.870
 1996TIP3    H1 5873   3.171   7.031   0.810
 1996TIP3    H2 5874   3.316   6.998   0.831
 1997TIP3   OH2 5875   2.448   6.553   1.303
 1997TIP3    H1 5876   2.381   6.484   1.320
 1997TIP3    H2 5877   2.487   6.523   1.219
 1998TIP3   OH2 5878   2.711   5.981   0.947
 1998TIP3    H1 5879   2.663   6.064   0.924
 1998TIP3    H2 5880   2.639   5.915   0.936
 1999TIP3   OH2 5881   2.838   6.493   1.166
 1999TIP3    H1 5882   2.833   6.485   1.263
 1999TIP3    H2 5883   2.746   6.471   1.143
 2000TIP3   OH2 5884   3.073   6.436   1.017
 2000TIP3    H1 5885   2.999   6.444   1.081
 2000TIP3    H2 5886   3.148   6.410   1.076
 2001TIP3   OH2 5887   3.297   6.378   1.172
 2001TIP3    H1 5888   3.313   6.284   1.194
 2001TIP3    H2 5889   3.296   6.422   1.260
 2002TIP3   OH2 5890   2.292   6.329   1.355
 2002TIP3    H1 5891   2.299   6.238   1.324
 2002TIP3    H2 5892   2.327   6.320   1.447
 2003TIP3   OH2 5893   2.805   5.997   1.205
 2003TIP3    H1 5894   2.873   5.927   1.203
 2003TIP3    H2 5895   2.766   5.988   1.116
 2004TIP3   OH2 5896   2.867   6.211   1.368
 2004TIP3    H1 5897   2.845   6.142   1.301
 2004TIP3    H2 5898   2.791   6.272   1.361
 2005TIP3   OH2 5899   3.360   7.695   0.085
 2005TIP3    H1 5900   3.385   7.703   0.178
 2005TIP3    H2 5901   3.442   7.723   0.041
 2006TIP3   OH2 5902   3.425   7.381   0.940
 2006TIP3    H1 5903   3.350   7.393   1.001
 2006TIP3    H2 5904   3.464   7.471   0.938
 2007TIP3   OH2 5905   3.418   7.142   0.196
 2007TIP3    H1 5906   3.474   7.088   0.138
 2007TIP3    H2 5907   3.428   7.231   0.156
 2008TIP3   OH2 5908   3.221   6.560   0.001
 2008TIP3    H1 5909   3.201   6.494  -0.067
 2008TIP3    H2 5910   3.170   6.637  -0.029
 2009TIP3   OH2 5911   1.834   6.729   0.679
 2009TIP3    H1 5912   1.802   6.693   0.594
 2009TIP3    H2 5913   1.929   6.708   0.674
 2010TIP3   OH2 5914   3.468   7.043   0.764
 2010TIP3    H1 5915   3.544   6.981   0.753
 2010TIP3    H2 5916   3.493   7.117   0.706
 2011TIP3   OH2 5917   3.655   6.850   0.780
 2011TIP3    H1 5918   3.582   6.800   0.823
 2011TIP3    H2 5919   3.730   6.789   0.793
 2012TIP3   OH2 5920   3.177   6.338  -0.172
 2012TIP3    H1 5921   3.218   6.248  -0.171
 2012TIP3    H2 5922   3.233   6.382  -0.239
 2013TIP3   OH2 5923   3.347   6.501   0.300
 2013TIP3    H1 5924   3.428   6.534   0.255
 2013TIP3    H2 5925   3.355   6.547   0.386
 2014TIP3   OH2 5926   3.408   6.655   0.532
 2014TIP3    H1 5927   3.329   6.691   0.577
 2014TIP3    H2 5928   3.440   6.735   0.484
 2015TIP3   OH2 5929   2.025   6.380   1.323
 2015TIP3    H1 5930   2.122   6.376   1.329
 2015TIP3    H2 5931   2.001   6.297   1.369
 2016TIP3   OH2 5932   3.852   6.237   1.087
 2016TIP3    H1 5933   3.916   6.176   1.044
 2016TIP3    H2 5934   3.831   6.299   1.014
 2017TIP3   OH2 5935   3.285   6.089  -0.154
 2017TIP3    H1 5936   3.336   6.074  -0.072
 2017TIP3    H2 5937   3.224   6.013  -0.149
 2018TIP3   OH2 5938   2.030   6.104   0.635
 2018TIP3    H1 5939   2.068   6.017   0.661
 2018TIP3    H2 5940   1.987   6.134   0.716
 2019TIP3   OH2 5941   1.811   6.344   0.737
 2019TIP3    H1 5942   1.846   6.351   0.646
 2019TIP3    H2 5943   1.807   6.437   0.764
 2020TIP3   OH2 5944   3.731   6.389   0.896
 2020TIP3    H1 5945   3.648   6.431   0.927
 2020TIP3    H2 5946   3.694   6.319   0.840
 2021TIP3   OH2 5947   1.759   5.893   0.240
 2021TIP3    H1 5948   1.670   5.859   0.258
 2021TIP3    H2 5949   1.765   5.884   0.144
 2022TIP3   OH2 5950   1.994   5.921   1.045
 2022TIP3    H1 5951   1.948   5.920   1.130
 2022TIP3    H2 5952   1.928   5.967   0.989
 2023TIP3   OH2 5953   2.202   7.411   0.723
 2023TIP3    H1 5954   2.153   7.465   0.657
 2023TIP3    H2 5955   2.290   7.417   0.677
 2024TIP3   OH2 5956   2.655   7.638   0.814
 2024TIP3    H1 5957   2.701   7.637   0.900
 2024TIP3    H2 5958   2.723   7.683   0.758
 2025TIP3   OH2 5959   2.834   7.779   0.666
 2025TIP3    H1 5960   2.899   7.735   0.608
 2025TIP3    H2 5961   2.892   7.833   0.723
 2026TIP3   OH2 5962   3.608   6.161   0.775
 2026TIP3    H1 5963   3.526   6.184   0.726
 2026TIP3    H2 5964   3.642   6.088   0.721
 2027TIP3   OH2 5965   2.551   7.656   0.363
 2027TIP3    H1 5966   2.481   7.669   0.297
 2027TIP3    H2 5967   2.565   7.749   0.391
 2028TIP3   OH2 5968   2.814   7.582   0.401
 2028TIP3    H1 5969   2.726   7.619   0.384
 2028TIP3    H2 5970   2.874   7.655   0.376
 2029TIP3   OH2 5971   3.003   7.804   0.325
 2029TIP3    H1 5972   3.016   7.873   0.259
 2029TIP3    H2 5973   3.044   7.727   0.280
 2030TIP3   OH2 5974   2.312   7.475   0.327
 2030TIP3    H1 5975   2.341   7.406   0.266
 2030TIP3    H2 5976   2.340   7.437   0.412
 2031TIP3   OH2 5977   2.842   6.065   0.393
 2031TIP3    H1 5978   2.796   5.988   0.430
 2031TIP3    H2 5979   2.912   6.024   0.338
 2032TIP3   OH2 5980   3.364   5.942   0.313
 2032TIP3    H1 5981   3.397   5.992   0.235
 2032TIP3    H2 5982   3.268   5.961   0.306
 2033TIP3   OH2 5983   3.447   6.035   0.069
 2033TIP3    H1 5984   3.517   5.986   0.022
 2033TIP3    H2 5985   3.482   6.126   0.059
 2034TIP3   OH2 5986   2.086   5.764   0.422
 2034TIP3    H1 5987   1.990   5.745   0.415
 2034TIP3    H2 5988   2.122   5.679   0.395
 2035TIP3   OH2 5989   1.896   5.618   0.082
 2035TIP3    H1 5990   1.900   5.680   0.006
 2035TIP3    H2 5991   1.818   5.655   0.126
 2036TIP3   OH2 5992   2.531   5.803   0.290
 2036TIP3    H1 5993   2.576   5.851   0.219
 2036TIP3    H2 5994   2.576   5.839   0.368
 2037TIP3   OH2 5995   3.074   5.950   0.270
 2037TIP3    H1 5996   3.074   5.925   0.176
 2037TIP3    H2 5997   3.057   5.865   0.315
 2038TIP3   OH2 5998   3.120   5.876  -0.119
 2038TIP3    H1 5999   3.071   5.886  -0.204
 2038TIP3    H2 6000   3.089   5.788  -0.090
 2039TIP3   OH2 6001   2.089   5.795  -0.275
 2039TIP3    H1 6002   2.042   5.712  -0.260
 2039TIP3    H2 6003   2.093   5.834  -0.186
 2040TIP3   OH2 6004   2.504   5.971  -0.085
 2040TIP3    H1 6005   2.574   5.931  -0.031
 2040TIP3    H2 6006   2.522   6.066  -0.067
 2041TIP3   OH2 6007   2.294   6.049   1.292
 2041TIP3    H1 6008   2.258   5.983   1.353
 2041TIP3    H2 6009   2.387   6.053   1.322
 2042TIP3   OH2 6010   2.540   6.049   1.413
 2042TIP3    H1 6011   2.627   6.023   1.378
 2042TIP3    H2 6012   2.525   5.981   1.482
 2043TIP3   OH2 6013   3.363   6.105   1.202
 2043TIP3    H1 6014   3.385   6.078   1.293
 2043TIP3    H2 6015   3.451   6.110   1.160
 2044TIP3   OH2 6016   3.314   7.670   0.716
 2044TIP3    H1 6017   3.275   7.619   0.641
 2044TIP3    H2 6018   3.279   7.759   0.699
 2045TIP3   OH2 6019   3.873   6.929   0.205
 2045TIP3    H1 6020   3.909   6.874   0.277
 2045TIP3    H2 6021   3.932   7.005   0.205
 2046TIP3   OH2 6022   3.742   6.611  -0.013
 2046TIP3    H1 6023   3.828   6.606   0.032
 2046TIP3    H2 6024   3.760   6.563  -0.094
 2047TIP3   OH2 6025   4.109   6.399   0.322
 2047TIP3    H1 6026   4.056   6.442   0.252
 2047TIP3    H2 6027   4.057   6.425   0.402
 2048TIP3   OH2 6028   3.989   6.516   0.096
 2048TIP3    H1 6029   4.049   6.586   0.129
 2048TIP3    H2 6030   4.028   6.500   0.008
 2049TIP3   OH2 6031   4.052   7.314   0.252
 2049TIP3    H1 6032   4.030   7.383   0.187
 2049TIP3    H2 6033   3.974   7.320   0.310
 2050TIP3   OH2 6034   4.480   6.115   0.054
 2050TIP3    H1 6035   4.455   6.024   0.076
 2050TIP3    H2 6036   4.398   6.163   0.076
 2051TIP3   OH2 6037   4.232   7.455   0.417
 2051TIP3    H1 6038   4.204   7.547   0.408
 2051TIP3    H2 6039   4.179   7.411   0.348
 2052TIP3   OH2 6040   4.005   7.050   0.460
 2052TIP3    H1 6041   4.014   7.139   0.498
 2052TIP3    H2 6042   3.909   7.035   0.473
 2053TIP3   OH2 6043   4.037   7.681   0.441
 2053TIP3    H1 6044   4.001   7.648   0.358
 2053TIP3    H2 6045   3.969   7.652   0.505
 2054TIP3   OH2 6046   3.629   7.192   0.391
 2054TIP3    H1 6047   3.562   7.166   0.325
 2054TIP3    H2 6048   3.665   7.106   0.420
 2055TIP3   OH2 6049   3.527   7.373   0.083
 2055TIP3    H1 6050   3.616   7.371   0.048
 2055TIP3    H2 6051   3.537   7.451   0.142
 2056TIP3   OH2 6052   5.264   6.994   0.358
 2056TIP3    H1 6053   5.175   7.005   0.321
 2056TIP3    H2 6054   5.278   6.899   0.349
 2057TIP3   OH2 6055   3.824   7.385   0.387
 2057TIP3    H1 6056   3.872   7.372   0.472
 2057TIP3    H2 6057   3.752   7.319   0.395
 2058TIP3   OH2 6058   4.229   6.201   0.164
 2058TIP3    H1 6059   4.139   6.170   0.143
 2058TIP3    H2 6060   4.207   6.283   0.212
 2059TIP3   OH2 6061   4.767   6.315   0.356
 2059TIP3    H1 6062   4.836   6.291   0.421
 2059TIP3    H2 6063   4.684   6.294   0.404
 2060TIP3   OH2 6064   5.001   6.715   0.284
 2060TIP3    H1 6065   4.977   6.698   0.378
 2060TIP3    H2 6066   4.919   6.755   0.253
 2061TIP3   OH2 6067   4.171   6.693   0.218
 2061TIP3    H1 6068   4.118   6.728   0.293
 2061TIP3    H2 6069   4.138   6.747   0.144
 2062TIP3   OH2 6070   4.712   6.966   0.507
 2062TIP3    H1 6071   4.691   6.893   0.569
 2062TIP3    H2 6072   4.806   6.981   0.529
 2063TIP3   OH2 6073   3.973   6.749   0.403
 2063TIP3    H1 6074   4.007   6.814   0.466
 2063TIP3    H2 6075   3.968   6.667   0.456
 2064TIP3   OH2 6076   3.602   6.247  -0.001
 2064TIP3    H1 6077   3.648   6.301   0.066
 2064TIP3    H2 6078   3.678   6.201  -0.041
 2065TIP3   OH2 6079   3.990   7.295   0.600
 2065TIP3    H1 6080   4.072   7.331   0.638
 2065TIP3    H2 6081   3.931   7.302   0.677
 2066TIP3   OH2 6082   4.447   6.618   0.179
 2066TIP3    H1 6083   4.362   6.668   0.181
 2066TIP3    H2 6084   4.511   6.687   0.206
 2067TIP3   OH2 6085   4.529   7.301   0.274
 2067TIP3    H1 6086   4.559   7.296   0.367
 2067TIP3    H2 6087   4.541   7.396   0.259
 2068TIP3   OH2 6088   3.743   6.982   0.530
 2068TIP3    H1 6089   3.768   6.971   0.624
 2068TIP3    H2 6090   3.674   6.915   0.520
 2069TIP3   OH2 6091   4.471   7.092   0.554
 2069TIP3    H1 6092   4.419   7.048   0.485
 2069TIP3    H2 6093   4.561   7.061   0.529
 2070TIP3   OH2 6094   3.957   6.486   0.540
 2070TIP3    H1 6095   3.863   6.498   0.562
 2070TIP3    H2 6096   3.990   6.435   0.616
 2071TIP3   OH2 6097   3.674   7.568   0.198
 2071TIP3    H1 6098   3.737   7.509   0.244
 2071TIP3    H2 6099   3.703   7.655   0.226
 2072TIP3   OH2 6100   4.775   6.562   0.236
 2072TIP3    H1 6101   4.871   6.574   0.240
 2072TIP3    H2 6102   4.766   6.472   0.273
 2073TIP3   OH2 6103   4.638   6.804   0.283
 2073TIP3    H1 6104   4.656   6.862   0.360
 2073TIP3    H2 6105   4.684   6.721   0.309
 2074TIP3   OH2 6106   3.965   6.120   0.147
 2074TIP3    H1 6107   3.933   6.089   0.059
 2074TIP3    H2 6108   3.956   6.039   0.201
 2075TIP3   OH2 6109   3.661   7.879   0.594
 2075TIP3    H1 6110   3.748   7.873   0.640
 2075TIP3    H2 6111   3.636   7.785   0.589
 2076TIP3   OH2 6112   4.147   7.848   0.637
 2076TIP3    H1 6113   4.242   7.829   0.640
 2076TIP3    H2 6114   4.120   7.794   0.559
 2077TIP3   OH2 6115   4.781   7.722   0.356
 2077TIP3    H1 6116   4.767   7.676   0.442
 2077TIP3    H2 6117   4.852   7.784   0.376
 2078TIP3   OH2 6118   3.792   7.287   0.794
 2078TIP3    H1 6119   3.809   7.191   0.795
 2078TIP3    H2 6120   3.704   7.291   0.750
 2079TIP3   OH2 6121   4.422   7.367   0.579
 2079TIP3    H1 6122   4.359   7.387   0.506
 2079TIP3    H2 6123   4.438   7.272   0.567
 2080TIP3   OH2 6124   3.911   7.013   0.775
 2080TIP3    H1 6125   3.994   6.968   0.752
 2080TIP3    H2 6126   3.935   7.052   0.862
 2081TIP3   OH2 6127   4.233   6.895   0.440
 2081TIP3    H1 6128   4.163   6.964   0.448
 2081TIP3    H2 6129   4.291   6.936   0.372
 2082TIP3   OH2 6130   4.762   7.294   0.564
 2082TIP3    H1 6131   4.855   7.288   0.538
 2082TIP3    H2 6132   4.759   7.233   0.640
 2083TIP3   OH2 6133   4.369   6.692   0.566
 2083TIP3    H1 6134   4.368   6.610   0.513
 2083TIP3    H2 6135   4.323   6.756   0.507
 2084TIP3   OH2 6136   4.365   6.468   0.391
 2084TIP3    H1 6137   4.400   6.514   0.311
 2084TIP3    H2 6138   4.273   6.449   0.363
 2085TIP3   OH2 6139   4.406   7.023   0.279
 2085TIP3    H1 6140   4.454   6.968   0.215
 2085TIP3    H2 6141   4.413   7.112   0.241
 2086TIP3   OH2 6142   4.984   6.983   0.628
 2086TIP3    H1 6143   5.032   6.899   0.636
 2086TIP3    H2 6144   5.050   7.041   0.588
 2087TIP3   OH2 6145   5.027   7.216   0.370
 2087TIP3    H1 6146   4.955   7.226   0.306
 2087TIP3    H2 6147   5.091   7.281   0.336
 2088TIP3   OH2 6148   4.246   6.808   0.792
 2088TIP3    H1 6149   4.178   6.740   0.804
 2088TIP3    H2 6150   4.284   6.784   0.705
 2089TIP3   OH2 6151   4.509   6.239   0.435
 2089TIP3    H1 6152   4.458   6.322   0.420
 2089TIP3    H2 6153   4.440   6.171   0.422
 2090TIP3   OH2 6154   4.630   6.751   0.653
 2090TIP3    H1 6155   4.622   6.740   0.750
 2090TIP3    H2 6156   4.539   6.725   0.626
 2091TIP3   OH2 6157   4.870   6.695   0.519
 2091TIP3    H1 6158   4.793   6.700   0.578
 2091TIP3    H2 6159   4.942   6.667   0.579
 2092TIP3   OH2 6160   5.099   6.636   0.662
 2092TIP3    H1 6161   5.113   6.541   0.680
 2092TIP3    H2 6162   5.098   6.676   0.751
 2093TIP3   OH2 6163   4.085   6.587   0.844
 2093TIP3    H1 6164   4.103   6.498   0.810
 2093TIP3    H2 6165   4.122   6.578   0.935
 2094TIP3   OH2 6166   4.599   6.253   0.694
 2094TIP3    H1 6167   4.669   6.185   0.689
 2094TIP3    H2 6168   4.562   6.246   0.603
 2095TIP3   OH2 6169   4.664   6.468   0.853
 2095TIP3    H1 6170   4.643   6.397   0.787
 2095TIP3    H2 6171   4.588   6.528   0.844
 2096TIP3   OH2 6172   5.211   7.658   0.465
 2096TIP3    H1 6173   5.134   7.672   0.526
 2096TIP3    H2 6174   5.231   7.748   0.437
 2097TIP3   OH2 6175   3.612   6.943   0.140
 2097TIP3    H1 6176   3.618   6.931   0.045
 2097TIP3    H2 6177   3.708   6.942   0.165
 2098TIP3   OH2 6178   3.819   6.634   0.803
 2098TIP3    H1 6179   3.917   6.633   0.812
 2098TIP3    H2 6180   3.796   6.553   0.854
 2099TIP3   OH2 6181   5.682   6.492   0.590
 2099TIP3    H1 6182   5.726   6.430   0.528
 2099TIP3    H2 6183   5.628   6.546   0.528
 2100TIP3   OH2 6184   3.792   6.334   0.170
 2100TIP3    H1 6185   3.855   6.259   0.171
 2100TIP3    H2 6186   3.853   6.408   0.148
 2101TIP3   OH2 6187   3.590   6.603   0.221
 2101TIP3    H1 6188   3.638   6.599   0.136
 2101TIP3    H2 6189   3.614   6.691   0.253
 2102TIP3   OH2 6190   5.507   6.638   0.452
 2102TIP3    H1 6191   5.418   6.672   0.434
 2102TIP3    H2 6192   5.538   6.625   0.361
 2103TIP3   OH2 6193   3.771   6.161   0.540
 2103TIP3    H1 6194   3.751   6.218   0.615
 2103TIP3    H2 6195   3.721   6.208   0.470
 2104TIP3   OH2 6196   3.835   7.608   0.615
 2104TIP3    H1 6197   3.740   7.589   0.599
 2104TIP3    H2 6198   3.840   7.599   0.711
 2105TIP3   OH2 6199   5.432   6.389   0.300
 2105TIP3    H1 6200   5.370   6.409   0.230
 2105TIP3    H2 6201   5.487   6.318   0.262
 2106TIP3   OH2 6202   3.663   7.896   0.162
 2106TIP3    H1 6203   3.579   7.946   0.164
 2106TIP3    H2 6204   3.707   7.932   0.240
 2107TIP3   OH2 6205   3.870   6.029  -0.091
 2107TIP3    H1 6206   3.784   5.990  -0.116
 2107TIP3    H2 6207   3.929   5.952  -0.108
 2108TIP3   OH2 6208   4.086   6.301   0.777
 2108TIP3    H1 6209   4.056   6.235   0.842
 2108TIP3    H2 6210   4.181   6.307   0.802
 2109TIP3   OH2 6211   4.333   6.306   0.898
 2109TIP3    H1 6212   4.420   6.285   0.859
 2109TIP3    H2 6213   4.325   6.235   0.966
 2110TIP3   OH2 6214   5.155   6.366   0.694
 2110TIP3    H1 6215   5.177   6.335   0.784
 2110TIP3    H2 6216   5.245   6.365   0.652
 2111TIP3   OH2 6217   6.123   6.579   0.404
 2111TIP3    H1 6218   6.207   6.554   0.365
 2111TIP3    H2 6219   6.099   6.499   0.455
 2112TIP3   OH2 6220   1.721   7.814   1.213
 2112TIP3    H1 6221   1.759   7.726   1.192
 2112TIP3    H2 6222   1.694   7.843   1.125
 2113TIP3   OH2 6223   3.218   8.348   0.247
 2113TIP3    H1 6224   3.260   8.409   0.183
 2113TIP3    H2 6225   3.283   8.354   0.319
 2114TIP3   OH2 6226   3.048   8.073   0.227
 2114TIP3    H1 6227   2.959   8.099   0.252
 2114TIP3    H2 6228   3.033   8.049   0.132
 2115TIP3   OH2 6229   3.085   8.527   0.554
 2115TIP3    H1 6230   3.051   8.536   0.463
 2115TIP3    H2 6231   3.097   8.430   0.560
 2116TIP3   OH2 6232   2.614   7.878   0.523
 2116TIP3    H1 6233   2.687   7.845   0.579
 2116TIP3    H2 6234   2.534   7.850   0.570
 2117TIP3   OH2 6235   2.852   8.324   0.431
 2117TIP3    H1 6236   2.815   8.296   0.518
 2117TIP3    H2 6237   2.783   8.385   0.405
 2118TIP3   OH2 6238   2.598   8.560   0.745
 2118TIP3    H1 6239   2.556   8.472   0.749
 2118TIP3    H2 6240   2.693   8.537   0.735
 2119TIP3   OH2 6241   2.649   8.110   0.363
 2119TIP3    H1 6242   2.702   8.141   0.436
 2119TIP3    H2 6243   2.616   8.025   0.399
 2120TIP3   OH2 6244   3.105   8.240   0.475
 2120TIP3    H1 6245   3.009   8.253   0.468
 2120TIP3    H2 6246   3.128   8.236   0.380
 2121TIP3   OH2 6247   2.876   8.548   0.765
 2121TIP3    H1 6248   2.894   8.460   0.800
 2121TIP3    H2 6249   2.958   8.564   0.715
 2122TIP3   OH2 6250   2.340   7.818   0.592
 2122TIP3    H1 6251   2.319   7.882   0.523
 2122TIP3    H2 6252   2.276   7.747   0.573
 2123TIP3   OH2 6253   2.487   8.306   0.802
 2123TIP3    H1 6254   2.492   8.306   0.899
 2123TIP3    H2 6255   2.393   8.292   0.790
 2124TIP3   OH2 6256   2.723   8.259   0.655
 2124TIP3    H1 6257   2.641   8.260   0.707
 2124TIP3    H2 6258   2.790   8.227   0.720
 2125TIP3   OH2 6259   2.942   8.196   0.813
 2125TIP3    H1 6260   2.956   8.101   0.830
 2125TIP3    H2 6261   2.940   8.234   0.903
 2126TIP3   OH2 6262   2.038   8.214   0.998
 2126TIP3    H1 6263   1.988   8.166   0.930
 2126TIP3    H2 6264   2.003   8.175   1.080
 2127TIP3   OH2 6265   2.433   7.801   0.852
 2127TIP3    H1 6266   2.511   7.743   0.837
 2127TIP3    H2 6267   2.396   7.805   0.761
 2128TIP3   OH2 6268   2.502   8.025   1.003
 2128TIP3    H1 6269   2.480   7.954   0.939
 2128TIP3    H2 6270   2.428   8.088   0.991
 2129TIP3   OH2 6271   3.287   8.674   0.432
 2129TIP3    H1 6272   3.213   8.623   0.471
 2129TIP3    H2 6273   3.361   8.611   0.446
 2130TIP3   OH2 6274   3.032   8.585   0.295
 2130TIP3    H1 6275   2.981   8.522   0.243
 2130TIP3    H2 6276   3.091   8.622   0.228
 2131TIP3   OH2 6277   3.494   8.058   0.721
 2131TIP3    H1 6278   3.554   7.992   0.681
 2131TIP3    H2 6279   3.475   8.117   0.645
 2132TIP3   OH2 6280   3.370   8.204   0.525
 2132TIP3    H1 6281   3.277   8.228   0.546
 2132TIP3    H2 6282   3.355   8.124   0.473
 2133TIP3   OH2 6283   3.263   7.956   0.406
 2133TIP3    H1 6284   3.173   7.980   0.375
 2133TIP3    H2 6285   3.256   7.859   0.408
 2134TIP3   OH2 6286   1.986   7.753   0.908
 2134TIP3    H1 6287   1.935   7.723   0.985
 2134TIP3    H2 6288   2.048   7.817   0.948
 2135TIP3   OH2 6289   2.180   7.880   1.066
 2135TIP3    H1 6290   2.264   7.858   1.024
 2135TIP3    H2 6291   2.168   7.805   1.128
 2136TIP3   OH2 6292   2.999   7.924   0.839
 2136TIP3    H1 6293   3.021   7.893   0.929
 2136TIP3    H2 6294   3.087   7.922   0.795
 2137TIP3   OH2 6295   3.566   8.805   0.421
 2137TIP3    H1 6296   3.612   8.732   0.466
 2137TIP3    H2 6297   3.562   8.873   0.492
 2138TIP3   OH2 6298   3.850   8.634   0.399
 2138TIP3    H1 6299   3.801   8.554   0.429
 2138TIP3    H2 6300   3.912   8.597   0.334
 2139TIP3   OH2 6301   3.726   8.407   0.488
 2139TIP3    H1 6302   3.731   8.326   0.433
 2139TIP3    H2 6303   3.761   8.375   0.573
 2140TIP3   OH2 6304   4.276   8.264   0.470
 2140TIP3    H1 6305   4.242   8.235   0.384
 2140TIP3    H2 6306   4.223   8.345   0.482
 2141TIP3   OH2 6307   3.455   8.461   0.459
 2141TIP3    H1 6308   3.552   8.451   0.449
 2141TIP3    H2 6309   3.434   8.373   0.497
 2142TIP3   OH2 6310   3.407   8.000   0.167
 2142TIP3    H1 6311   3.366   7.985   0.254
 2142TIP3    H2 6312   3.352   8.071   0.131
 2143TIP3   OH2 6313   3.720   8.113   0.428
 2143TIP3    H1 6314   3.697   8.039   0.486
 2143TIP3    H2 6315   3.815   8.125   0.451
 2144TIP3   OH2 6316   3.968   8.129   0.548
 2144TIP3    H1 6317   4.047   8.108   0.497
 2144TIP3    H2 6318   3.962   8.052   0.608
 2145TIP3   OH2 6319   1.638  -0.093   4.791
 2145TIP3    H1 6320   1.572  -0.158   4.764
 2145TIP3    H2 6321   1.607  -0.013   4.745
 2146TIP3   OH2 6322   1.856   0.256   4.849
 2146TIP3    H1 6323   1.855   0.160   4.863
 2146TIP3    H2 6324   1.772   0.281   4.895
 2147TIP3   OH2 6325   1.542   0.605   4.947
 2147TIP3    H1 6326   1.540   0.629   4.853
 2147TIP3    H2 6327   1.619   0.656   4.979
 2148TIP3   OH2 6328   1.877  -0.031   4.893
 2148TIP3    H1 6329   1.779  -0.039   4.886
 2148TIP3    H2 6330   1.900  -0.062   4.802
 2149TIP3   OH2 6331   1.386   0.293   4.782
 2149TIP3    H1 6332   1.302   0.249   4.798
 2149TIP3    H2 6333   1.363   0.362   4.716
 2150TIP3   OH2 6334   1.362   0.150   5.102
 2150TIP3    H1 6335   1.273   0.138   5.140
 2150TIP3    H2 6336   1.398   0.219   5.160
 2151TIP3   OH2 6337   1.640   0.366   4.328
 2151TIP3    H1 6338   1.671   0.396   4.414
 2151TIP3    H2 6339   1.711   0.394   4.269
 2152TIP3   OH2 6340   1.683   0.382   4.618
 2152TIP3    H1 6341   1.643   0.293   4.611
 2152TIP3    H2 6342   1.760   0.362   4.673
 2153TIP3   OH2 6343   1.744   0.052   5.184
 2153TIP3    H1 6344   1.666   0.056   5.243
 2153TIP3    H2 6345   1.776   0.144   5.191
 2154TIP3   OH2 6346   1.555   0.128   4.647
 2154TIP3    H1 6347   1.496   0.183   4.703
 2154TIP3    H2 6348   1.497   0.100   4.576
 2155TIP3   OH2 6349   1.782  -0.278   5.020
 2155TIP3    H1 6350   1.846  -0.350   5.006
 2155TIP3    H2 6351   1.805  -0.214   4.951
 2156TIP3   OH2 6352   1.949  -0.494   5.032
 2156TIP3    H1 6353   1.890  -0.560   5.071
 2156TIP3    H2 6354   2.037  -0.524   5.059
 2157TIP3   OH2 6355   1.140   0.469   4.908
 2157TIP3    H1 6356   1.206   0.400   4.907
 2157TIP3    H2 6357   1.176   0.526   4.979
 2158TIP3   OH2 6358   1.347   0.463   4.570
 2158TIP3    H1 6359   1.315   0.550   4.539
 2158TIP3    H2 6360   1.370   0.422   4.485
 2159TIP3   OH2 6361   1.613   0.338   4.955
 2159TIP3    H1 6362   1.533   0.298   4.914
 2159TIP3    H2 6363   1.588   0.432   4.953
 2160TIP3   OH2 6364   2.910  -0.264   3.767
 2160TIP3    H1 6365   2.893  -0.170   3.753
 2160TIP3    H2 6366   2.832  -0.303   3.725
 2161TIP3   OH2 6367   2.861  -0.295   4.104
 2161TIP3    H1 6368   2.905  -0.305   4.190
 2161TIP3    H2 6369   2.832  -0.387   4.089
 2162TIP3   OH2 6370   2.169  -0.400   4.453
 2162TIP3    H1 6371   2.205  -0.459   4.521
 2162TIP3    H2 6372   2.247  -0.347   4.431
 2163TIP3   OH2 6373   3.114   0.004   3.781
 2163TIP3    H1 6374   3.108  -0.061   3.852
 2163TIP3    H2 6375   3.140   0.085   3.828
 2164TIP3   OH2 6376   2.172   0.017   4.233
 2164TIP3    H1 6377   2.126  -0.044   4.172
 2164TIP3    H2 6378   2.263   0.020   4.197
 2165TIP3   OH2 6379   2.752   0.466   3.794
 2165TIP3    H1 6380   2.808   0.402   3.745
 2165TIP3    H2 6381   2.758   0.434   3.884
 2166TIP3   OH2 6382   2.674  -0.069   4.142
 2166TIP3    H1 6383   2.719  -0.148   4.106
 2166TIP3    H2 6384   2.755  -0.018   4.166
 2167TIP3   OH2 6385   3.097  -0.554   4.177
 2167TIP3    H1 6386   3.115  -0.641   4.213
 2167TIP3    H2 6387   3.050  -0.576   4.094
 2168TIP3   OH2 6388   3.736  -0.560   4.330
 2168TIP3    H1 6389   3.671  -0.490   4.309
 2168TIP3    H2 6390   3.777  -0.529   4.412
 2169TIP3   OH2 6391   2.777  -0.018   3.638
 2169TIP3    H1 6392   2.794  -0.045   3.547
 2169TIP3    H2 6393   2.729   0.067   3.624
 2170TIP3   OH2 6394   2.523  -0.148   4.373
 2170TIP3    H1 6395   2.461  -0.084   4.414
 2170TIP3    H2 6396   2.565  -0.094   4.304
 2171TIP3   OH2 6397   2.358   0.046   4.477
 2171TIP3    H1 6398   2.325   0.122   4.425
 2171TIP3    H2 6399   2.277   0.031   4.531
 2172TIP3   OH2 6400   3.189   0.253   3.948
 2172TIP3    H1 6401   3.099   0.246   3.986
 2172TIP3    H2 6402   3.181   0.338   3.900
 2173TIP3   OH2 6403   2.890   0.302   3.625
 2173TIP3    H1 6404   2.940   0.222   3.600
 2173TIP3    H2 6405   2.948   0.369   3.583
 2174TIP3   OH2 6406   3.040   0.096   3.529
 2174TIP3    H1 6407   3.051   0.020   3.469
 2174TIP3    H2 6408   3.070   0.058   3.614
 2175TIP3   OH2 6409   3.413   0.167   4.290
 2175TIP3    H1 6410   3.403   0.091   4.230
 2175TIP3    H2 6411   3.396   0.242   4.230
 2176TIP3   OH2 6412   3.608  -0.199   4.137
 2176TIP3    H1 6413   3.525  -0.146   4.141
 2176TIP3    H2 6414   3.638  -0.176   4.046
 2177TIP3   OH2 6415   3.061  -0.332   3.548
 2177TIP3    H1 6416   3.045  -0.305   3.640
 2177TIP3    H2 6417   3.147  -0.378   3.554
 2178TIP3   OH2 6418   3.283  -0.312   4.423
 2178TIP3    H1 6419   3.280  -0.227   4.471
 2178TIP3    H2 6420   3.198  -0.307   4.374
 2179TIP3   OH2 6421   2.413   0.042   4.087
 2179TIP3    H1 6422   2.402   0.002   4.000
 2179TIP3    H2 6423   2.506   0.019   4.107
 2180TIP3   OH2 6424   2.425  -0.396   4.295
 2180TIP3    H1 6425   2.457  -0.413   4.206
 2180TIP3    H2 6426   2.462  -0.307   4.315
 2181TIP3   OH2 6427   2.948   0.251   4.069
 2181TIP3    H1 6428   2.930   0.330   4.121
 2181TIP3    H2 6429   2.932   0.178   4.131
 2182TIP3   OH2 6430   2.558   0.172   4.616
 2182TIP3    H1 6431   2.497   0.235   4.659
 2182TIP3    H2 6432   2.493   0.118   4.565
 2183TIP3   OH2 6433   2.301  -0.264   4.711
 2183TIP3    H1 6434   2.306  -0.179   4.760
 2183TIP3    H2 6435   2.205  -0.281   4.711
 2184TIP3   OH2 6436   2.621   0.210   3.620
 2184TIP3    H1 6437   2.698   0.263   3.644
 2184TIP3    H2 6438   2.564   0.274   3.576
 2185TIP3   OH2 6439   2.353   0.340   4.701
 2185TIP3    H1 6440   2.321   0.337   4.609
 2185TIP3    H2 6441   2.273   0.317   4.752
 2186TIP3   OH2 6442   3.222   0.115   2.946
 2186TIP3    H1 6443   3.230   0.211   2.961
 2186TIP3    H2 6444   3.313   0.082   2.950
 2187TIP3   OH2 6445   1.940  -0.133   4.649
 2187TIP3    H1 6446   1.893  -0.154   4.567
 2187TIP3    H2 6447   1.971  -0.221   4.679
 2188TIP3   OH2 6448   7.459   5.698   9.963
 2188TIP3    H1 6449   7.542   5.724   9.921
 2188TIP3    H2 6450   7.422   5.783   9.987
 2189TIP3   OH2 6451   3.650   0.511   4.336
 2189TIP3    H1 6452   3.648   0.415   4.347
 2189TIP3    H2 6453   3.566   0.535   4.381
 2190TIP3   OH2 6454   2.759   0.298   4.473
 2190TIP3    H1 6455   2.757   0.391   4.504
 2190TIP3    H2 6456   2.685   0.259   4.525
 2191TIP3   OH2 6457   2.511   0.427   3.427
 2191TIP3    H1 6458   2.449   0.414   3.355
 2191TIP3    H2 6459   2.494   0.520   3.453
 2192TIP3   OH2 6460   2.770   0.388   3.340
 2192TIP3    H1 6461   2.679   0.391   3.375
 2192TIP3    H2 6462   2.817   0.339   3.409
 2193TIP3   OH2 6463   3.543  -0.359   4.623
 2193TIP3    H1 6464   3.468  -0.329   4.570
 2193TIP3    H2 6465   3.558  -0.449   4.591
 2194TIP3   OH2 6466   2.139   0.054   4.641
 2194TIP3    H1 6467   2.189   0.035   4.723
 2194TIP3    H2 6468   2.065  -0.009   4.646
 2195TIP3   OH2 6469   3.223  -0.492   4.631
 2195TIP3    H1 6470   3.251  -0.582   4.610
 2195TIP3    H2 6471   3.231  -0.446   4.546
 2196TIP3   OH2 6472   2.483  -0.620   4.452
 2196TIP3    H1 6473   2.412  -0.602   4.517
 2196TIP3    H2 6474   2.461  -0.552   4.385
 2197TIP3   OH2 6475   3.023  -0.306   4.737
 2197TIP3    H1 6476   3.006  -0.362   4.816
 2197TIP3    H2 6477   3.118  -0.321   4.728
 2198TIP3   OH2 6478   3.003  -0.613   3.918
 2198TIP3    H1 6479   2.959  -0.558   3.851
 2198TIP3    H2 6480   3.052  -0.676   3.863
 2199TIP3   OH2 6481   2.284  -0.576   4.644
 2199TIP3    H1 6482   2.322  -0.514   4.708
 2199TIP3    H2 6483   2.239  -0.640   4.699
 2200TIP3   OH2 6484   3.014  -0.355   4.338
 2200TIP3    H1 6485   3.045  -0.426   4.278
 2200TIP3    H2 6486   2.982  -0.408   4.413
 2201TIP3   OH2 6487   3.340   0.863   4.434
 2201TIP3    H1 6488   3.338   0.882   4.339
 2201TIP3    H2 6489   3.420   0.910   4.463
 2202TIP3   OH2 6490   2.298  -0.028   4.858
 2202TIP3    H1 6491   2.378   0.004   4.905
 2202TIP3    H2 6492   2.233  -0.024   4.931
 2203TIP3   OH2 6493   2.793  -0.560   4.133
 2203TIP3    H1 6494   2.820  -0.627   4.069
 2203TIP3    H2 6495   2.773  -0.614   4.212
 2204TIP3   OH2 6496   2.749  -0.678   4.398
 2204TIP3    H1 6497   2.657  -0.654   4.420
 2204TIP3    H2 6498   2.801  -0.621   4.459
 2205TIP3   OH2 6499   3.377  -0.051   4.127
 2205TIP3    H1 6500   3.402  -0.002   4.046
 2205TIP3    H2 6501   3.291  -0.091   4.101
 2206TIP3   OH2 6502   2.878   0.034   4.492
 2206TIP3    H1 6503   2.890   0.006   4.584
 2206TIP3    H2 6504   2.837   0.121   4.501
 2207TIP3   OH2 6505   2.040  -0.346   4.793
 2207TIP3    H1 6506   2.084  -0.343   4.880
 2207TIP3    H2 6507   1.986  -0.426   4.801
 2208TIP3   OH2 6508   2.771  -0.216   4.803
 2208TIP3    H1 6509   2.715  -0.273   4.748
 2208TIP3    H2 6510   2.860  -0.239   4.769
 2209TIP3   OH2 6511   3.037   0.290   4.391
 2209TIP3    H1 6512   2.941   0.288   4.400
 2209TIP3    H2 6513   3.062   0.345   4.468
 2210TIP3   OH2 6514   3.663   0.219   4.379
 2210TIP3    H1 6515   3.566   0.215   4.369
 2210TIP3    H2 6516   3.690   0.191   4.289
 2211TIP3   OH2 6517   3.147   0.179   3.205
 2211TIP3    H1 6518   3.125   0.112   3.271
 2211TIP3    H2 6519   3.147   0.127   3.122
 2212TIP3   OH2 6520   3.141  -0.189   4.046
 2212TIP3    H1 6521   3.048  -0.215   4.053
 2212TIP3    H2 6522   3.178  -0.267   4.000
 2213TIP3   OH2 6523   2.538   0.383   4.265
 2213TIP3    H1 6524   2.575   0.457   4.212
 2213TIP3    H2 6525   2.617   0.353   4.313
 2214TIP3   OH2 6526   2.927   0.017   4.224
 2214TIP3    H1 6527   2.919   0.016   4.322
 2214TIP3    H2 6528   3.008  -0.034   4.210
 2215TIP3   OH2 6529   3.174   0.555   4.276
 2215TIP3    H1 6530   3.096   0.498   4.266
 2215TIP3    H2 6531   3.161   0.618   4.202
 2216TIP3   OH2 6532   3.242   0.390   2.925
 2216TIP3    H1 6533   3.285   0.470   2.889
 2216TIP3    H2 6534   3.160   0.432   2.960
 2217TIP3   OH2 6535   3.075  -0.121   3.374
 2217TIP3    H1 6536   3.089  -0.204   3.422
 2217TIP3    H2 6537   3.144  -0.129   3.305
 2218TIP3   OH2 6538   1.975   0.255   4.433
 2218TIP3    H1 6539   2.022   0.171   4.445
 2218TIP3    H2 6540   2.019   0.311   4.498
 2219TIP3   OH2 6541   2.940  -0.514   4.546
 2219TIP3    H1 6542   2.938  -0.452   4.620
 2219TIP3    H2 6543   3.021  -0.564   4.566
 2220TIP3   OH2 6544   3.226  -0.428   3.918
 2220TIP3    H1 6545   3.157  -0.490   3.944
 2220TIP3    H2 6546   3.304  -0.467   3.964
 2221TIP3   OH2 6547   3.196   0.525   3.873
 2221TIP3    H1 6548   3.153   0.571   3.796
 2221TIP3    H2 6549   3.290   0.542   3.849
 2222TIP3   OH2 6550   1.965   0.552   4.847
 2222TIP3    H1 6551   2.052   0.550   4.893
 2222TIP3    H2 6552   1.943   0.458   4.845
 2223TIP3   OH2 6553   2.449   0.519   4.894
 2223TIP3    H1 6554   2.545   0.502   4.896
 2223TIP3    H2 6555   2.423   0.462   4.818
 2224TIP3   OH2 6556   3.084   0.429   4.627
 2224TIP3    H1 6557   3.078   0.356   4.693
 2224TIP3    H2 6558   3.166   0.474   4.653
 2225TIP3   OH2 6559   2.103  -0.034   5.048
 2225TIP3    H1 6560   2.111  -0.129   5.064
 2225TIP3    H2 6561   2.014  -0.030   5.006
 2226TIP3   OH2 6562   2.708   0.056   4.821
 2226TIP3    H1 6563   2.662   0.070   4.736
 2226TIP3    H2 6564   2.736  -0.038   4.815
 2227TIP3   OH2 6565   3.200   0.052   4.429
 2227TIP3    H1 6566   3.271   0.099   4.382
 2227TIP3    H2 6567   3.126   0.115   4.417
 2228TIP3   OH2 6568   2.209  -0.322   5.029
 2228TIP3    H1 6569   2.292  -0.366   5.007
 2228TIP3    H2 6570   2.233  -0.283   5.116
 2229TIP3   OH2 6571   2.533  -0.403   4.684
 2229TIP3    H1 6572   2.453  -0.342   4.688
 2229TIP3    H2 6573   2.579  -0.369   4.605
 2230TIP3   OH2 6574   3.074  -0.013   4.832
 2230TIP3    H1 6575   3.142  -0.048   4.773
 2230TIP3    H2 6576   3.065  -0.086   4.896
 2231TIP3   OH2 6577   2.720  -0.571   4.770
 2231TIP3    H1 6578   2.688  -0.657   4.732
 2231TIP3    H2 6579   2.657  -0.510   4.734
 2232TIP3   OH2 6580   2.708  -0.301   4.504
 2232TIP3    H1 6581   2.785  -0.310   4.446
 2232TIP3    H2 6582   2.652  -0.239   4.454
 2233TIP3   OH2 6583   3.297  -0.331   4.894
 2233TIP3    H1 6584   3.318  -0.422   4.872
 2233TIP3    H2 6585   3.361  -0.281   4.841
 2234TIP3   OH2 6586   3.331  -0.091   4.616
 2234TIP3    H1 6587   3.272  -0.038   4.558
 2234TIP3    H2 6588   3.418  -0.069   4.575
 2235TIP3   OH2 6589   2.530  -0.499   5.044
 2235TIP3    H1 6590   2.467  -0.573   5.040
 2235TIP3    H2 6591   2.595  -0.523   4.976
 2236TIP3   OH2 6592   2.973  -0.474   4.933
 2236TIP3    H1 6593   2.935  -0.498   5.019
 2236TIP3    H2 6594   2.963  -0.557   4.883
 2237TIP3   OH2 6595   3.451   0.612   3.826
 2237TIP3    H1 6596   3.478   0.654   3.909
 2237TIP3    H2 6597   3.503   0.660   3.760
 2238TIP3   OH2 6598   3.477   0.641   4.111
 2238TIP3    H1 6599   3.433   0.554   4.100
 2238TIP3    H2 6600   3.555   0.614   4.161
 2239TIP3   OH2 6601   3.525   0.315   4.680
 2239TIP3    H1 6602   3.452   0.324   4.744
 2239TIP3    H2 6603   3.566   0.404   4.685
 2240TIP3   OH2 6604   3.351  -0.152   3.309
 2240TIP3    H1 6605   3.429  -0.098   3.286
 2240TIP3    H2 6606   3.388  -0.215   3.373
 2241TIP3   OH2 6607   3.477  -0.311   3.499
 2241TIP3    H1 6608   3.404  -0.352   3.551
 2241TIP3    H2 6609   3.530  -0.265   3.567
 2242TIP3   OH2 6610   3.521   0.085   3.937
 2242TIP3    H1 6611   3.574   0.022   3.884
 2242TIP3    H2 6612   3.514   0.161   3.876
 2243TIP3   OH2 6613   3.354   0.387   4.132
 2243TIP3    H1 6614   3.281   0.429   4.180
 2243TIP3    H2 6615   3.306   0.339   4.060
 2244TIP3   OH2 6616   3.294  -0.454   3.652
 2244TIP3    H1 6617   3.282  -0.550   3.650
 2244TIP3    H2 6618   3.276  -0.434   3.747
 2245TIP3   OH2 6619   3.575  -0.029   4.507
 2245TIP3    H1 6620   3.648  -0.094   4.492
 2245TIP3    H2 6621   3.597   0.041   4.444
 2246TIP3   OH2 6622   3.761  -0.229   4.520
 2246TIP3    H1 6623   3.692  -0.279   4.568
 2246TIP3    H2 6624   3.842  -0.273   4.551
 2247TIP3   OH2 6625   3.446  -0.526   4.043
 2247TIP3    H1 6626   3.535  -0.516   4.004
 2247TIP3    H2 6627   3.464  -0.508   4.136
 2248TIP3   OH2 6628   3.508  -0.407   4.292
 2248TIP3    H1 6629   3.424  -0.366   4.321
 2248TIP3    H2 6630   3.544  -0.336   4.233
 2249TIP3   OH2 6631   3.048   0.471   3.488
 2249TIP3    H1 6632   3.091   0.463   3.401
 2249TIP3    H2 6633   3.079   0.558   3.518
 2250TIP3   OH2 6634   2.133   0.286   4.869
 2250TIP3    H1 6635   2.042   0.259   4.848
 2250TIP3    H2 6636   2.138   0.267   4.964
 2251TIP3   OH2 6637   2.312   0.322   4.419
 2251TIP3    H1 6638   2.261   0.394   4.377
 2251TIP3    H2 6639   2.396   0.335   4.371
 2252TIP3   OH2 6640   2.758   0.563   4.556
 2252TIP3    H1 6641   2.800   0.570   4.644
 2252TIP3    H2 6642   2.821   0.614   4.501
 2253TIP3   OH2 6643   2.934   0.715   4.412
 2253TIP3    H1 6644   3.004   0.665   4.366
 2253TIP3    H2 6645   2.988   0.772   4.471
 2254TIP3   OH2 6646   1.991   0.583   4.436
 2254TIP3    H1 6647   1.901   0.614   4.412
 2254TIP3    H2 6648   1.991   0.606   4.530
 2255TIP3   OH2 6649   2.226   0.556   4.296
 2255TIP3    H1 6650   2.140   0.570   4.341
 2255TIP3    H2 6651   2.206   0.588   4.206
 2256TIP3   OH2 6652   2.649   0.583   4.094
 2256TIP3    H1 6653   2.584   0.598   4.022
 2256TIP3    H2 6654   2.661   0.674   4.128
 2257TIP3   OH2 6655   2.917   0.526   4.147
 2257TIP3    H1 6656   2.822   0.539   4.127
 2257TIP3    H2 6657   2.957   0.598   4.095
 2258TIP3   OH2 6658   3.133   0.720   4.059
 2258TIP3    H1 6659   3.113   0.801   4.008
 2258TIP3    H2 6660   3.154   0.657   3.987
 2259TIP3   OH2 6661   1.908   0.379   4.196
 2259TIP3    H1 6662   1.924   0.351   4.289
 2259TIP3    H2 6663   1.987   0.336   4.155
 2260TIP3   OH2 6664   2.104   0.247   4.069
 2260TIP3    H1 6665   2.126   0.156   4.094
 2260TIP3    H2 6666   2.192   0.283   4.048
 2261TIP3   OH2 6667   2.364   0.341   4.041
 2261TIP3    H1 6668   2.402   0.253   4.021
 2261TIP3    H2 6669   2.408   0.360   4.126
 2262TIP3   OH2 6670   3.182   0.448   3.245
 2262TIP3    H1 6671   3.169   0.350   3.235
 2262TIP3    H2 6672   3.130   0.482   3.170
 2263TIP3   OH2 6673   3.402   0.593   4.440
 2263TIP3    H1 6674   3.325   0.561   4.388
 2263TIP3    H2 6675   3.384   0.689   4.439
 2264TIP3   OH2 6676   4.671  -0.033   3.204
 2264TIP3    H1 6677   4.643   0.058   3.184
 2264TIP3    H2 6678   4.594  -0.083   3.171
 2265TIP3   OH2 6679   4.667  -0.034   3.583
 2265TIP3    H1 6680   4.698  -0.066   3.670
 2265TIP3    H2 6681   4.627  -0.114   3.546
 2266TIP3   OH2 6682   3.968  -0.134   3.949
 2266TIP3    H1 6683   4.004  -0.201   4.010
 2266TIP3    H2 6684   4.048  -0.081   3.932
 2267TIP3   OH2 6685   4.912   0.267   3.265
 2267TIP3    H1 6686   4.899   0.197   3.330
 2267TIP3    H2 6687   4.940   0.342   3.320
 2268TIP3   OH2 6688   3.941   0.270   3.677
 2268TIP3    H1 6689   3.932   0.173   3.679
 2268TIP3    H2 6690   4.037   0.278   3.668
 2269TIP3   OH2 6691   3.639  -0.531   3.456
 2269TIP3    H1 6692   3.606  -0.440   3.467
 2269TIP3    H2 6693   3.557  -0.579   3.469
 2270TIP3   OH2 6694   3.713  -0.238   3.633
 2270TIP3    H1 6695   3.763  -0.314   3.670
 2270TIP3    H2 6696   3.770  -0.209   3.561
 2271TIP3   OH2 6697   4.560   0.730   3.280
 2271TIP3    H1 6698   4.607   0.659   3.232
 2271TIP3    H2 6699   4.555   0.694   3.369
 2272TIP3   OH2 6700   4.467   0.191   3.633
 2272TIP3    H1 6701   4.504   0.114   3.586
 2272TIP3    H2 6702   4.552   0.235   3.655
 2273TIP3   OH2 6703   4.883  -0.300   3.665
 2273TIP3    H1 6704   4.915  -0.387   3.689
 2273TIP3    H2 6705   4.851  -0.315   3.574
 2274TIP3   OH2 6706   3.854  -0.450   3.739
 2274TIP3    H1 6707   3.934  -0.475   3.789
 2274TIP3    H2 6708   3.870  -0.502   3.658
 2275TIP3   OH2 6709   4.294  -0.246   3.536
 2275TIP3    H1 6710   4.385  -0.278   3.549
 2275TIP3    H2 6711   4.249  -0.328   3.504
 2276TIP3   OH2 6712   5.536  -0.299   3.814
 2276TIP3    H1 6713   5.467  -0.232   3.796
 2276TIP3    H2 6714   5.573  -0.271   3.899
 2277TIP3   OH2 6715   4.563   0.188   3.074
 2277TIP3    H1 6716   4.520   0.165   2.991
 2277TIP3    H2 6717   4.519   0.273   3.096
 2278TIP3   OH2 6718   4.321   0.110   3.860
 2278TIP3    H1 6719   4.257   0.176   3.897
 2278TIP3    H2 6720   4.362   0.161   3.788
 2279TIP3   OH2 6721   4.093  -0.544   3.835
 2279TIP3    H1 6722   4.157  -0.474   3.861
 2279TIP3    H2 6723   4.136  -0.583   3.758
 2280TIP3   OH2 6724   4.148   0.304   3.958
 2280TIP3    H1 6725   4.122   0.389   3.916
 2280TIP3    H2 6726   4.069   0.289   4.014
 2281TIP3   OH2 6727   3.556   0.001   3.201
 2281TIP3    H1 6728   3.504   0.019   3.120
 2281TIP3    H2 6729   3.574   0.091   3.235
 2282TIP3   OH2 6730   4.984   0.510   3.435
 2282TIP3    H1 6731   4.894   0.502   3.473
 2282TIP3    H2 6732   4.977   0.595   3.388
 2283TIP3   OH2 6733   4.686   0.557   3.109
 2283TIP3    H1 6734   4.736   0.476   3.086
 2283TIP3    H2 6735   4.745   0.624   3.067
 2284TIP3   OH2 6736   4.828   0.342   3.013
 2284TIP3    H1 6737   4.790   0.262   2.973
 2284TIP3    H2 6738   4.863   0.308   3.097
 2285TIP3   OH2 6739   5.210   0.423   3.778
 2285TIP3    H1 6740   5.199   0.347   3.717
 2285TIP3    H2 6741   5.192   0.499   3.717
 2286TIP3   OH2 6742   4.502  -0.182   3.034
 2286TIP3    H1 6743   4.420  -0.133   3.012
 2286TIP3    H2 6744   4.546  -0.186   2.947
 2287TIP3   OH2 6745   4.457  -0.382   2.767
 2287TIP3    H1 6746   4.539  -0.347   2.807
 2287TIP3    H2 6747   4.491  -0.462   2.724
 2288TIP3   OH2 6748   5.405   0.059   3.625
 2288TIP3    H1 6749   5.321   0.111   3.628
 2288TIP3    H2 6750   5.434   0.079   3.533
 2289TIP3   OH2 6751   4.848  -0.100   3.007
 2289TIP3    H1 6752   4.794  -0.074   3.085
 2289TIP3    H2 6753   4.931  -0.128   3.050
 2290TIP3   OH2 6754   5.079  -0.053   3.908
 2290TIP3    H1 6755   5.076   0.034   3.950
 2290TIP3    H2 6756   4.993  -0.052   3.860
 2291TIP3   OH2 6757   4.083  -0.101   3.423
 2291TIP3    H1 6758   4.041  -0.160   3.357
 2291TIP3    H2 6759   4.158  -0.157   3.453
 2292TIP3   OH2 6760   4.209   0.308   3.572
 2292TIP3    H1 6761   4.189   0.265   3.487
 2292TIP3    H2 6762   4.300   0.275   3.589
 2293TIP3   OH2 6763   4.219  -0.135   3.781
 2293TIP3    H1 6764   4.249  -0.158   3.690
 2293TIP3    H2 6765   4.261  -0.048   3.796
 2294TIP3   OH2 6766   4.742   0.508   3.553
 2294TIP3    H1 6767   4.727   0.587   3.608
 2294TIP3    H2 6768   4.728   0.434   3.616
 2295TIP3   OH2 6769   4.353   0.426   4.101
 2295TIP3    H1 6770   4.293   0.489   4.146
 2295TIP3    H2 6771   4.288   0.373   4.051
 2296TIP3   OH2 6772   4.696  -0.250   2.834
 2296TIP3    H1 6773   4.753  -0.191   2.888
 2296TIP3    H2 6774   4.720  -0.221   2.743
 2297TIP3   OH2 6775   4.097  -0.004   4.197
 2297TIP3    H1 6776   4.102   0.080   4.248
 2297TIP3    H2 6777   4.003  -0.027   4.206
 2298TIP3   OH2 6778   4.431   0.439   3.106
 2298TIP3    H1 6779   4.510   0.493   3.125
 2298TIP3    H2 6780   4.370   0.505   3.069
 2299TIP3   OH2 6781   4.149   0.596   4.187
 2299TIP3    H1 6782   4.115   0.593   4.095
 2299TIP3    H2 6783   4.069   0.574   4.239
 2300TIP3   OH2 6784   3.952  -0.252   3.230
 2300TIP3    H1 6785   3.888  -0.202   3.175
 2300TIP3    H2 6786   3.915  -0.340   3.234
 2301TIP3   OH2 6787   5.003   0.367   2.428
 2301TIP3    H1 6788   5.011   0.464   2.414
 2301TIP3    H2 6789   5.096   0.338   2.415
 2302TIP3   OH2 6790   3.727   0.126   4.134
 2302TIP3    H1 6791   3.663   0.105   4.063
 2302TIP3    H2 6792   3.764   0.038   4.156
 2303TIP3   OH2 6793   3.582   0.314   3.773
 2303TIP3    H1 6794   3.677   0.313   3.757
 2303TIP3    H2 6795   3.571   0.398   3.820
 2304TIP3   OH2 6796   5.447   0.768   3.823
 2304TIP3    H1 6797   5.444   0.672   3.834
 2304TIP3    H2 6798   5.363   0.793   3.868
 2305TIP3   OH2 6799   4.554   0.555   3.958
 2305TIP3    H1 6800   4.553   0.648   3.989
 2305TIP3    H2 6801   4.481   0.516   4.012
 2306TIP3   OH2 6802   4.311   0.686   2.910
 2306TIP3    H1 6803   4.267   0.668   2.825
 2306TIP3    H2 6804   4.280   0.775   2.932
 2307TIP3   OH2 6805   3.751   0.534   3.292
 2307TIP3    H1 6806   3.798   0.524   3.377
 2307TIP3    H2 6807   3.691   0.458   3.296
 2308TIP3   OH2 6808   4.514   0.584   2.549
 2308TIP3    H1 6809   4.574   0.515   2.513
 2308TIP3    H2 6810   4.549   0.595   2.640
 2309TIP3   OH2 6811   4.563   0.633   2.819
 2309TIP3    H1 6812   4.476   0.643   2.863
 2309TIP3    H2 6813   4.616   0.593   2.891
 2310TIP3   OH2 6814   5.335  -0.102   4.124
 2310TIP3    H1 6815   5.264  -0.071   4.066
 2310TIP3    H2 6816   5.356  -0.189   4.086
 2311TIP3   OH2 6817   3.933   0.309   4.125
 2311TIP3    H1 6818   3.983   0.290   4.207
 2311TIP3    H2 6819   3.860   0.244   4.131
 2312TIP3   OH2 6820   5.019  -0.229   4.121
 2312TIP3    H1 6821   5.040  -0.321   4.104
 2312TIP3    H2 6822   5.025  -0.188   4.033
 2313TIP3   OH2 6823   4.764  -0.197   2.576
 2313TIP3    H1 6824   4.733  -0.223   2.487
 2313TIP3    H2 6825   4.843  -0.144   2.553
 2314TIP3   OH2 6826   4.271  -0.358   3.933
 2314TIP3    H1 6827   4.212  -0.333   4.007
 2314TIP3    H2 6828   4.258  -0.280   3.874
 2315TIP3   OH2 6829   4.134  -0.443   3.435
 2315TIP3    H1 6830   4.059  -0.497   3.466
 2315TIP3    H2 6831   4.160  -0.492   3.354
 2316TIP3   OH2 6832   4.645  -0.378   3.165
 2316TIP3    H1 6833   4.590  -0.307   3.125
 2316TIP3    H2 6834   4.690  -0.414   3.087
 2317TIP3   OH2 6835   4.815  -0.053   4.217
 2317TIP3    H1 6836   4.800  -0.105   4.299
 2317TIP3    H2 6837   4.904  -0.082   4.193
 2318TIP3   OH2 6838   4.802  -0.351   3.404
 2318TIP3    H1 6839   4.742  -0.324   3.331
 2318TIP3    H2 6840   4.833  -0.436   3.371
 2319TIP3   OH2 6841   4.080  -0.316   4.129
 2319TIP3    H1 6842   4.115  -0.260   4.201
 2319TIP3    H2 6843   4.032  -0.386   4.176
 2320TIP3   OH2 6844   4.815  -0.099   3.827
 2320TIP3    H1 6845   4.842  -0.171   3.766
 2320TIP3    H2 6846   4.779  -0.153   3.901
 2321TIP3   OH2 6847   3.904  -0.592   3.509
 2321TIP3    H1 6848   3.812  -0.576   3.478
 2321TIP3    H2 6849   3.918  -0.685   3.487
 2322TIP3   OH2 6850   4.196  -0.577   3.206
 2322TIP3    H1 6851   4.285  -0.594   3.171
 2322TIP3    H2 6852   4.141  -0.571   3.125
 2323TIP3   OH2 6853   4.022  -0.536   2.992
 2323TIP3    H1 6854   3.956  -0.595   2.954
 2323TIP3    H2 6855   4.075  -0.514   2.913
 2324TIP3   OH2 6856   5.136   1.119   3.921
 2324TIP3    H1 6857   5.134   1.142   3.826
 2324TIP3    H2 6858   5.215   1.169   3.951
 2325TIP3   OH2 6859   4.092   0.232   4.346
 2325TIP3    H1 6860   4.173   0.261   4.392
 2325TIP3    H2 6861   4.029   0.232   4.421
 2326TIP3   OH2 6862   4.563  -0.314   3.607
 2326TIP3    H1 6863   4.621  -0.369   3.553
 2326TIP3    H2 6864   4.559  -0.365   3.690
 2327TIP3   OH2 6865   4.542  -0.420   3.888
 2327TIP3    H1 6866   4.451  -0.389   3.907
 2327TIP3    H2 6867   4.596  -0.363   3.946
 2328TIP3   OH2 6868   4.271  -0.030   2.982
 2328TIP3    H1 6869   4.197  -0.094   2.973
 2328TIP3    H2 6870   4.255   0.004   3.074
 2329TIP3   OH2 6871   5.173   0.206   3.614
 2329TIP3    H1 6872   5.198   0.254   3.532
 2329TIP3    H2 6873   5.087   0.165   3.588
 2330TIP3   OH2 6874   4.675   0.290   3.980
 2330TIP3    H1 6875   4.687   0.265   4.072
 2330TIP3    H2 6876   4.634   0.378   3.986
 2331TIP3   OH2 6877   4.791  -0.493   2.940
 2331TIP3    H1 6878   4.888  -0.484   2.954
 2331TIP3    H2 6879   4.771  -0.413   2.889
 2332TIP3   OH2 6880   3.965  -0.008   3.659
 2332TIP3    H1 6881   4.003  -0.035   3.572
 2332TIP3    H2 6882   4.004  -0.075   3.718
 2333TIP3   OH2 6883   4.415   0.119   2.801
 2333TIP3    H1 6884   4.369   0.206   2.809
 2333TIP3    H2 6885   4.362   0.064   2.863
 2334TIP3   OH2 6886   3.840  -0.085   4.273
 2334TIP3    H1 6887   3.866  -0.103   4.366
 2334TIP3    H2 6888   3.772  -0.153   4.257
 2335TIP3   OH2 6889   4.565   0.039   4.290
 2335TIP3    H1 6890   4.508  -0.018   4.236
 2335TIP3    H2 6891   4.653   0.017   4.253
 2336TIP3   OH2 6892   4.833   0.547   3.876
 2336TIP3    H1 6893   4.737   0.546   3.887
 2336TIP3    H2 6894   4.859   0.601   3.954
 2337TIP3   OH2 6895   5.244  -0.385   2.783
 2337TIP3    H1 6896   5.183  -0.432   2.723
 2337TIP3    H2 6897   5.241  -0.296   2.741
 2338TIP3   OH2 6898   5.460   0.475   3.867
 2338TIP3    H1 6899   5.362   0.471   3.856
 2338TIP3    H2 6900   5.487   0.447   3.776
 2339TIP3   OH2 6901   4.939   0.439   2.691
 2339TIP3    H1 6902   4.919   0.368   2.754
 2339TIP3    H2 6903   4.955   0.392   2.607
 2340TIP3   OH2 6904   4.938   0.067   3.535
 2340TIP3    H1 6905   4.844   0.041   3.545
 2340TIP3    H2 6906   4.973  -0.011   3.488
 2341TIP3   OH2 6907   4.064   0.296   3.285
 2341TIP3    H1 6908   4.066   0.377   3.231
 2341TIP3    H2 6909   3.969   0.281   3.292
 2342TIP3   OH2 6910   3.677  -0.359   3.025
 2342TIP3    H1 6911   3.725  -0.275   3.041
 2342TIP3    H2 6912   3.596  -0.343   3.074
 2343TIP3   OH2 6913   4.204   0.063   3.228
 2343TIP3    H1 6914   4.169   0.152   3.248
 2343TIP3    H2 6915   4.169   0.011   3.303
 2344TIP3   OH2 6916   4.333   0.640   3.754
 2344TIP3    H1 6917   4.373   0.713   3.701
 2344TIP3    H2 6918   4.412   0.607   3.801
 2345TIP3   OH2 6919   3.986   0.534   3.137
 2345TIP3    H1 6920   3.899   0.543   3.182
 2345TIP3    H2 6921   4.018   0.627   3.140
 2346TIP3   OH2 6922   4.724   0.275   3.710
 2346TIP3    H1 6923   4.716   0.272   3.808
 2346TIP3    H2 6924   4.801   0.219   3.695
 2347TIP3   OH2 6925   4.695   0.164   2.595
 2347TIP3    H1 6926   4.750   0.140   2.674
 2347TIP3    H2 6927   4.607   0.142   2.629
 2348TIP3   OH2 6928   4.971   0.810   3.763
 2348TIP3    H1 6929   4.892   0.753   3.754
 2348TIP3    H2 6930   4.957   0.874   3.690
 2349TIP3   OH2 6931   5.036   0.642   2.414
 2349TIP3    H1 6932   5.077   0.714   2.363
 2349TIP3    H2 6933   4.956   0.689   2.447
 2350TIP3   OH2 6934   4.856   0.100   2.811
 2350TIP3    H1 6935   4.847   0.034   2.882
 2350TIP3    H2 6936   4.953   0.099   2.799
 2351TIP3   OH2 6937   3.772   0.505   3.914
 2351TIP3    H1 6938   3.822   0.427   3.940
 2351TIP3    H2 6939   3.808   0.571   3.975
 2352TIP3   OH2 6940   4.062   0.147   2.593
 2352TIP3    H1 6941   4.076   0.054   2.568
 2352TIP3    H2 6942   4.044   0.138   2.689
 2353TIP3   OH2 6943   4.010   0.153   2.865
 2353TIP3    H1 6944   4.079   0.124   2.926
 2353TIP3    H2 6945   4.014   0.251   2.875
 2354TIP3   OH2 6946   3.768  -0.115   3.079
 2354TIP3    H1 6947   3.700  -0.072   3.135
 2354TIP3    H2 6948   3.774  -0.049   3.007
 2355TIP3   OH2 6949   4.272   0.350   2.813
 2355TIP3    H1 6950   4.187   0.379   2.850
 2355TIP3    H2 6951   4.293   0.425   2.756
 2356TIP3   OH2 6952   4.483  -0.592   3.226
 2356TIP3    H1 6953   4.528  -0.507   3.208
 2356TIP3    H2 6954   4.451  -0.580   3.317
 2357TIP3   OH2 6955   4.732  -0.260   4.029
 2357TIP3    H1 6956   4.732  -0.201   4.106
 2357TIP3    H2 6957   4.807  -0.319   4.049
 2358TIP3   OH2 6958   4.014   0.425   2.882
 2358TIP3    H1 6959   3.987   0.496   2.819
 2358TIP3    H2 6960   4.000   0.469   2.968
 2359TIP3   OH2 6961   5.022  -0.168   3.404
 2359TIP3    H1 6962   4.950  -0.233   3.417
 2359TIP3    H2 6963   5.097  -0.211   3.451
 2360TIP3   OH2 6964   3.734   0.068   2.869
 2360TIP3    H1 6965   3.802   0.138   2.875
 2360TIP3    H2 6966   3.782   0.005   2.810
 2361TIP3   OH2 6967   4.991   0.782   3.356
 2361TIP3    H1 6968   4.949   0.829   3.281
 2361TIP3    H2 6969   5.085   0.801   3.335
 2362TIP3   OH2 6970   3.606   0.272   3.265
 2362TIP3    H1 6971   3.533   0.303   3.320
 2362TIP3    H2 6972   3.583   0.312   3.178
 2363TIP3   OH2 6973   3.763   0.809   4.336
 2363TIP3    H1 6974   3.850   0.808   4.381
 2363TIP3    H2 6975   3.743   0.714   4.331
 2364TIP3   OH2 6976   4.245   0.777   4.379
 2364TIP3    H1 6977   4.340   0.758   4.386
 2364TIP3    H2 6978   4.220   0.719   4.304
 2365TIP3   OH2 6979   4.225   0.352   2.505
 2365TIP3    H1 6980   4.172   0.280   2.546
 2365TIP3    H2 6981   4.302   0.301   2.474
 2366TIP3   OH2 6982   4.883   0.684   4.111
 2366TIP3    H1 6983   4.875   0.614   4.180
 2366TIP3    H2 6984   4.961   0.734   4.142
 2367TIP3   OH2 6985   4.662   0.392   2.417
 2367TIP3    H1 6986   4.710   0.331   2.476
 2367TIP3    H2 6987   4.720   0.395   2.338
 2368TIP3   OH2 6988   3.892   0.217   4.537
 2368TIP3    H1 6989   3.911   0.121   4.539
 2368TIP3    H2 6990   3.806   0.218   4.490
 2369TIP3   OH2 6991   3.873  -0.132   2.746
 2369TIP3    H1 6992   3.938  -0.159   2.814
 2369TIP3    H2 6993   3.930  -0.131   2.667
 2370TIP3   OH2 6994   4.503   0.312   4.308
 2370TIP3    H1 6995   4.458   0.327   4.222
 2370TIP3    H2 6996   4.531   0.218   4.302
 2371TIP3   OH2 6997   4.377   0.063   2.534
 2371TIP3    H1 6998   4.382   0.078   2.630
 2371TIP3    H2 6999   4.374  -0.035   2.530
 2372TIP3   OH2 7000   4.996   0.309   3.917
 2372TIP3    H1 7001   5.067   0.355   3.869
 2372TIP3    H2 7002   4.922   0.371   3.903
 2373TIP3   OH2 7003   4.011  -0.056   4.518
 2373TIP3    H1 7004   4.089  -0.108   4.495
 2373TIP3    H2 7005   4.037  -0.023   4.606
 2374TIP3   OH2 7006   4.074  -0.226   2.947
 2374TIP3    H1 7007   4.056  -0.268   3.033
 2374TIP3    H2 7008   4.113  -0.301   2.897
 2375TIP3   OH2 7009   4.328  -0.147   4.167
 2375TIP3    H1 7010   4.248  -0.085   4.172
 2375TIP3    H2 7011   4.376  -0.109   4.091
 2376TIP3   OH2 7012   4.183  -0.432   2.790
 2376TIP3    H1 7013   4.175  -0.487   2.711
 2376TIP3    H2 7014   4.279  -0.413   2.791
 2377TIP3   OH2 7015   4.871   0.245   4.318
 2377TIP3    H1 7016   4.931   0.211   4.251
 2377TIP3    H2 7017   4.864   0.170   4.380
 2378TIP3   OH2 7018   5.001  -0.104   2.453
 2378TIP3    H1 7019   4.981  -0.149   2.368
 2378TIP3    H2 7020   4.972  -0.013   2.430
 2379TIP3   OH2 7021   4.516  -0.313   4.254
 2379TIP3    H1 7022   4.481  -0.402   4.224
 2379TIP3    H2 7023   4.452  -0.253   4.217
 2380TIP3   OH2 7024   4.504  -0.044   3.991
 2380TIP3    H1 7025   4.582  -0.051   3.934
 2380TIP3    H2 7026   4.448   0.019   3.940
 2381TIP3   OH2 7027   5.126   0.170   4.106
 2381TIP3    H1 7028   5.067   0.221   4.046
 2381TIP3    H2 7029   5.212   0.189   4.063
 2382TIP3   OH2 7030   4.328  -0.241   4.529
 2382TIP3    H1 7031   4.262  -0.313   4.527
 2382TIP3    H2 7032   4.392  -0.271   4.463
 2383TIP3   OH2 7033   4.778  -0.215   4.423
 2383TIP3    H1 7034   4.726  -0.241   4.501
 2383TIP3    H2 7035   4.784  -0.300   4.376
 2384TIP3   OH2 7036   3.985   0.621   2.691
 2384TIP3    H1 7037   4.081   0.624   2.675
 2384TIP3    H2 7038   3.955   0.676   2.616
 2385TIP3   OH2 7039   3.476   0.002   2.929
 2385TIP3    H1 7040   3.564   0.037   2.904
 2385TIP3    H2 7041   3.451  -0.046   2.850
 2386TIP3   OH2 7042   3.387   0.619   3.316
 2386TIP3    H1 7043   3.314   0.560   3.286
 2386TIP3    H2 7044   3.426   0.564   3.387
 2387TIP3   OH2 7045   3.518   0.475   3.509
 2387TIP3    H1 7046   3.500   0.402   3.570
 2387TIP3    H2 7047   3.568   0.535   3.568
 2388TIP3   OH2 7048   5.243   0.875   3.310
 2388TIP3    H1 7049   5.272   0.910   3.396
 2388TIP3    H2 7050   5.305   0.916   3.249
 2389TIP3   OH2 7051   5.273   0.896   3.595
 2389TIP3    H1 7052   5.231   0.807   3.588
 2389TIP3    H2 7053   5.351   0.873   3.647
 2390TIP3   OH2 7054   5.321   0.570   4.168
 2390TIP3    H1 7055   5.246   0.580   4.230
 2390TIP3    H2 7056   5.361   0.659   4.170
 2391TIP3   OH2 7057   5.136   0.082   2.785
 2391TIP3    H1 7058   5.205   0.147   2.757
 2391TIP3    H2 7059   5.179   0.044   2.865
 2392TIP3   OH2 7060   5.264  -0.050   2.988
 2392TIP3    H1 7061   5.199  -0.092   3.049
 2392TIP3    H2 7062   5.329  -0.012   3.050
 2393TIP3   OH2 7063   5.318   0.342   3.423
 2393TIP3    H1 7064   5.370   0.278   3.371
 2393TIP3    H2 7065   5.310   0.417   3.361
 2394TIP3   OH2 7066   5.150   0.642   3.619
 2394TIP3    H1 7067   5.078   0.686   3.668
 2394TIP3    H2 7068   5.101   0.595   3.549
 2395TIP3   OH2 7069   5.201  -0.145   2.636
 2395TIP3    H1 7070   5.130  -0.135   2.568
 2395TIP3    H2 7071   5.179  -0.069   2.693
 2396TIP3   OH2 7072   5.078  -0.475   2.585
 2396TIP3    H1 7073   5.043  -0.406   2.528
 2396TIP3    H2 7074   5.041  -0.554   2.545
 2397TIP3   OH2 7075   5.079  -0.193   3.138
 2397TIP3    H1 7076   5.087  -0.289   3.139
 2397TIP3    H2 7077   5.064  -0.173   3.233
 2398TIP3   OH2 7078   3.704  -0.123   3.886
 2398TIP3    H1 7079   3.703  -0.151   3.792
 2398TIP3    H2 7080   3.801  -0.117   3.901
 2399TIP3   OH2 7081   5.370   0.227   3.995
 2399TIP3    H1 7082   5.443   0.162   3.980
 2399TIP3    H2 7083   5.391   0.297   3.931
 2400TIP3   OH2 7084   5.555   0.026   4.011
 2400TIP3    H1 7085   5.488  -0.023   4.063
 2400TIP3    H2 7086   5.635  -0.023   4.031
 2401TIP3   OH2 7087   5.060  -0.476   2.984
 2401TIP3    H1 7088   5.105  -0.513   3.062
 2401TIP3    H2 7089   5.134  -0.441   2.931
 2402TIP3   OH2 7090   5.241  -0.266   3.530
 2402TIP3    H1 7091   5.330  -0.258   3.491
 2402TIP3    H2 7092   5.262  -0.254   3.624
 2403TIP3   OH2 7093   5.306  -0.149   3.782
 2403TIP3    H1 7094   5.221  -0.109   3.810
 2403TIP3    H2 7095   5.340  -0.080   3.721
 2404TIP3   OH2 7096   3.699  -0.462   3.966
 2404TIP3    H1 7097   3.744  -0.475   3.880
 2404TIP3    H2 7098   3.720  -0.370   3.983
 2405TIP3   OH2 7099   4.828   0.739   2.969
 2405TIP3    H1 7100   4.879   0.723   2.886
 2405TIP3    H2 7101   4.882   0.807   3.012
 2406TIP3   OH2 7102   3.929   0.545   4.355
 2406TIP3    H1 7103   3.837   0.516   4.337
 2406TIP3    H2 7104   3.938   0.525   4.448
 2407TIP3   OH2 7105   4.107   0.576   3.903
 2407TIP3    H1 7106   4.059   0.651   3.863
 2407TIP3    H2 7107   4.192   0.589   3.857
 2408TIP3   OH2 7108   4.553   0.821   4.040
 2408TIP3    H1 7109   4.595   0.823   4.128
 2408TIP3    H2 7110   4.618   0.871   3.987
 2409TIP3   OH2 7111   4.731   0.972   3.898
 2409TIP3    H1 7112   4.802   0.922   3.854
 2409TIP3    H2 7113   4.783   1.029   3.958
 2410TIP3   OH2 7114   3.785   0.835   3.924
 2410TIP3    H1 7115   3.696   0.869   3.899
 2410TIP3    H2 7116   3.791   0.867   4.015
 2411TIP3   OH2 7117   4.021   0.812   3.782
 2411TIP3    H1 7118   3.934   0.825   3.827
 2411TIP3    H2 7119   4.001   0.844   3.692
 2412TIP3   OH2 7120   4.446   0.841   3.581
 2412TIP3    H1 7121   4.379   0.861   3.513
 2412TIP3    H2 7122   4.459   0.929   3.621
 2413TIP3   OH2 7123   4.714   0.782   3.633
 2413TIP3    H1 7124   4.620   0.797   3.612
 2413TIP3    H2 7125   4.756   0.857   3.588
 2414TIP3   OH2 7126   4.923   0.974   3.547
 2414TIP3    H1 7127   4.908   1.058   3.500
 2414TIP3    H2 7128   4.948   0.914   3.474
 2415TIP3   OH2 7129   3.696   0.628   3.670
 2415TIP3    H1 7130   3.722   0.603   3.761
 2415TIP3    H2 7131   3.768   0.585   3.619
 2416TIP3   OH2 7132   3.888   0.499   3.527
 2416TIP3    H1 7133   3.905   0.414   3.574
 2416TIP3    H2 7134   3.978   0.536   3.522
 2417TIP3   OH2 7135   4.153   0.594   3.529
 2417TIP3    H1 7136   4.186   0.503   3.515
 2417TIP3    H2 7137   4.198   0.615   3.613
 2418TIP3   OH2 7138   3.486   0.396   3.059
 2418TIP3    H1 7139   3.399   0.365   3.027
 2418TIP3    H2 7140   3.472   0.492   3.051
 2419TIP3   OH2 7141   4.255   0.588   2.644
 2419TIP3    H1 7142   4.343   0.611   2.608
 2419TIP3    H2 7143   4.233   0.513   2.584
 2420TIP3   OH2 7144   4.973   0.706   2.736
 2420TIP3    H1 7145   4.964   0.608   2.721
 2420TIP3    H2 7146   4.929   0.740   2.655
 2421TIP3   OH2 7147   3.560   0.429   2.700
 2421TIP3    H1 7148   3.554   0.453   2.793
 2421TIP3    H2 7149   3.648   0.384   2.695
 2422TIP3   OH2 7150   5.199   0.850   3.926
 2422TIP3    H1 7151   5.121   0.818   3.876
 2422TIP3    H2 7152   5.182   0.946   3.926
 2423TIP3   OH2 7153   6.464   0.224   2.700
 2423TIP3    H1 7154   6.436   0.315   2.674
 2423TIP3    H2 7155   6.389   0.174   2.662
 2424TIP3   OH2 7156   6.467   0.223   3.070
 2424TIP3    H1 7157   6.495   0.193   3.158
 2424TIP3    H2 7158   6.422   0.145   3.035
 2425TIP3   OH2 7159   5.765   0.123   3.437
 2425TIP3    H1 7160   5.803   0.055   3.496
 2425TIP3    H2 7161   5.843   0.176   3.418
 2426TIP3   OH2 7162   6.708   0.521   2.752
 2426TIP3    H1 7163   6.695   0.453   2.820
 2426TIP3    H2 7164   6.736   0.598   2.804
 2427TIP3   OH2 7165   5.737   0.526   3.165
 2427TIP3    H1 7166   5.729   0.429   3.166
 2427TIP3    H2 7167   5.833   0.535   3.153
 2428TIP3   OH2 7168   5.436  -0.278   2.954
 2428TIP3    H1 7169   5.390  -0.193   2.967
 2428TIP3    H2 7170   5.373  -0.325   2.897
 2429TIP3   OH2 7171   5.504   0.017   3.117
 2429TIP3    H1 7172   5.554  -0.059   3.155
 2429TIP3    H2 7173   5.564   0.047   3.048
 2430TIP3   OH2 7174   6.351   0.980   2.774
 2430TIP3    H1 7175   6.402   0.922   2.712
 2430TIP3    H2 7176   6.366   0.935   2.858
 2431TIP3   OH2 7177   6.263   0.447   3.121
 2431TIP3    H1 7178   6.300   0.375   3.068
 2431TIP3    H2 7179   6.348   0.492   3.144
 2432TIP3   OH2 7180   6.678  -0.049   3.159
 2432TIP3    H1 7181   6.731  -0.128   3.176
 2432TIP3    H2 7182   6.671  -0.051   3.064
 2433TIP3   OH2 7183   5.648  -0.191   3.224
 2433TIP3    H1 7184   5.728  -0.217   3.275
 2433TIP3    H2 7185   5.663  -0.245   3.144
 2434TIP3   OH2 7186   6.087   0.010   3.023
 2434TIP3    H1 7187   6.179  -0.019   3.034
 2434TIP3    H2 7188   6.043  -0.072   2.990
 2435TIP3   OH2 7189   7.329  -0.047   3.305
 2435TIP3    H1 7190   7.266   0.024   3.281
 2435TIP3    H2 7191   7.370  -0.013   3.387
 2436TIP3   OH2 7192   6.349   0.438   2.568
 2436TIP3    H1 7193   6.325   0.426   2.476
 2436TIP3    H2 7194   6.315   0.528   2.586
 2437TIP3   OH2 7195   6.116   0.367   3.347
 2437TIP3    H1 7196   6.054   0.433   3.383
 2437TIP3    H2 7197   6.159   0.417   3.275
 2438TIP3   OH2 7198   5.884  -0.283   3.325
 2438TIP3    H1 7199   5.952  -0.216   3.347
 2438TIP3    H2 7200   5.923  -0.329   3.250
 2439TIP3   OH2 7201   5.944   0.561   3.444
 2439TIP3    H1 7202   5.919   0.645   3.402
 2439TIP3    H2 7203   5.865   0.547   3.501
 2440TIP3   OH2 7204   5.340   0.252   2.681
 2440TIP3    H1 7205   5.301   0.278   2.596
 2440TIP3    H2 7206   5.370   0.337   2.717
 2441TIP3   OH2 7207   6.781   0.768   2.925
 2441TIP3    H1 7208   6.690   0.759   2.961
 2441TIP3    H2 7209   6.771   0.849   2.872
 2442TIP3   OH2 7210   6.487   0.828   2.587
 2442TIP3    H1 7211   6.541   0.750   2.559
 2442TIP3    H2 7212   6.543   0.902   2.556
 2443TIP3   OH2 7213   6.617   0.599   2.499
 2443TIP3    H1 7214   6.605   0.520   2.445
 2443TIP3    H2 7215   6.652   0.561   2.583
 2444TIP3   OH2 7216   7.006   0.680   3.264
 2444TIP3    H1 7217   6.995   0.604   3.203
 2444TIP3    H2 7218   6.988   0.756   3.204
 2445TIP3   OH2 7219   6.294   0.075   2.537
 2445TIP3    H1 7220   6.213   0.124   2.510
 2445TIP3    H2 7221   6.343   0.073   2.453
 2446TIP3   OH2 7222   6.241  -0.084   2.271
 2446TIP3    H1 7223   6.330  -0.055   2.298
 2446TIP3    H2 7224   6.259  -0.139   2.193
 2447TIP3   OH2 7225   7.201   0.317   3.116
 2447TIP3    H1 7226   7.118   0.369   3.116
 2447TIP3    H2 7227   7.230   0.333   3.023
 2448TIP3   OH2 7228   6.644   0.156   2.505
 2448TIP3    H1 7229   6.596   0.186   2.586
 2448TIP3    H2 7230   6.731   0.130   2.543
 2449TIP3   OH2 7231   6.876   0.201   3.399
 2449TIP3    H1 7232   6.875   0.286   3.446
 2449TIP3    H2 7233   6.791   0.207   3.350
 2450TIP3   OH2 7234   5.875   0.155   2.911
 2450TIP3    H1 7235   5.834   0.097   2.842
 2450TIP3    H2 7236   5.952   0.100   2.938
 2451TIP3   OH2 7237   6.003   0.561   3.060
 2451TIP3    H1 7238   5.985   0.524   2.973
 2451TIP3    H2 7239   6.094   0.531   3.077
 2452TIP3   OH2 7240   6.015   0.122   3.269
 2452TIP3    H1 7241   6.043   0.101   3.177
 2452TIP3    H2 7242   6.056   0.209   3.285
 2453TIP3   OH2 7243   6.538   0.765   3.041
 2453TIP3    H1 7244   6.523   0.843   3.096
 2453TIP3    H2 7245   6.524   0.690   3.103
 2454TIP3   OH2 7246   6.149   0.683   3.587
 2454TIP3    H1 7247   6.089   0.747   3.632
 2454TIP3    H2 7248   6.084   0.630   3.537
 2455TIP3   OH2 7249   6.475   0.046   2.329
 2455TIP3    H1 7250   6.537   0.081   2.397
 2455TIP3    H2 7251   6.518   0.083   2.250
 2456TIP3   OH2 7252   5.894   0.251   3.686
 2456TIP3    H1 7253   5.899   0.336   3.734
 2456TIP3    H2 7254   5.799   0.231   3.692
 2457TIP3   OH2 7255   6.228   0.701   2.599
 2457TIP3    H1 7256   6.309   0.754   2.612
 2457TIP3    H2 7257   6.170   0.764   2.553
 2458TIP3   OH2 7258   5.945   0.853   3.673
 2458TIP3    H1 7259   5.912   0.850   3.581
 2458TIP3    H2 7260   5.865   0.830   3.725
 2459TIP3   OH2 7261   5.742   0.002   2.715
 2459TIP3    H1 7262   5.675   0.041   2.656
 2459TIP3    H2 7263   5.708  -0.087   2.728
 2460TIP3   OH2 7264   6.788   0.631   1.896
 2460TIP3    H1 7265   6.798   0.729   1.893
 2460TIP3    H2 7266   6.878   0.601   1.877
 2461TIP3   OH2 7267   5.523   0.382   3.621
 2461TIP3    H1 7268   5.459   0.361   3.550
 2461TIP3    H2 7269   5.560   0.294   3.643
 2462TIP3   OH2 7270   5.379   0.572   3.258
 2462TIP3    H1 7271   5.474   0.566   3.243
 2462TIP3    H2 7272   5.372   0.654   3.309
 2463TIP3   OH2 7273   7.243   1.025   3.310
 2463TIP3    H1 7274   7.241   0.928   3.321
 2463TIP3    H2 7275   7.159   1.050   3.354
 2464TIP3   OH2 7276   6.350   0.812   3.445
 2464TIP3    H1 7277   6.349   0.905   3.476
 2464TIP3    H2 7278   6.278   0.773   3.498
 2465TIP3   OH2 7279   6.100   0.935   2.400
 2465TIP3    H1 7280   6.066   0.921   2.310
 2465TIP3    H2 7281   6.079   1.029   2.417
 2466TIP3   OH2 7282   5.545   0.791   2.780
 2466TIP3    H1 7283   5.595   0.781   2.864
 2466TIP3    H2 7284   5.489   0.712   2.783
 2467TIP3   OH2 7285   6.307   0.840   2.037
 2467TIP3    H1 7286   6.369   0.772   2.002
 2467TIP3    H2 7287   6.343   0.853   2.128
 2468TIP3   OH2 7288   6.357   0.886   2.306
 2468TIP3    H1 7289   6.274   0.897   2.357
 2468TIP3    H2 7290   6.420   0.862   2.376
 2469TIP3   OH2 7291   7.136   0.152   3.598
 2469TIP3    H1 7292   7.063   0.186   3.543
 2469TIP3    H2 7293   7.154   0.066   3.560
 2470TIP3   OH2 7294   5.729   0.565   3.612
 2470TIP3    H1 7295   5.779   0.548   3.694
 2470TIP3    H2 7296   5.655   0.501   3.618
 2471TIP3   OH2 7297   6.806   0.017   3.598
 2471TIP3    H1 7298   6.853  -0.066   3.582
 2471TIP3    H2 7299   6.826   0.070   3.519
 2472TIP3   OH2 7300   6.069  -0.103   3.418
 2472TIP3    H1 7301   6.010  -0.079   3.493
 2472TIP3    H2 7302   6.056  -0.024   3.361
 2473TIP3   OH2 7303   5.933  -0.193   2.923
 2473TIP3    H1 7304   5.854  -0.241   2.951
 2473TIP3    H2 7305   5.954  -0.238   2.838
 2474TIP3   OH2 7306   6.427  -0.134   2.665
 2474TIP3    H1 7307   6.382  -0.053   2.631
 2474TIP3    H2 7308   6.488  -0.154   2.590
 2475TIP3   OH2 7309   6.612   0.205   3.709
 2475TIP3    H1 7310   6.598   0.150   3.789
 2475TIP3    H2 7311   6.708   0.196   3.700
 2476TIP3   OH2 7312   5.878  -0.062   3.615
 2476TIP3    H1 7313   5.908  -0.004   3.686
 2476TIP3    H2 7314   5.824  -0.128   3.661
 2477TIP3   OH2 7315   6.605   0.155   3.317
 2477TIP3    H1 7316   6.633   0.081   3.258
 2477TIP3    H2 7317   6.574   0.103   3.394
 2478TIP3   OH2 7318   5.701  -0.335   2.995
 2478TIP3    H1 7319   5.606  -0.319   2.972
 2478TIP3    H2 7320   5.707  -0.430   2.980
 2479TIP3   OH2 7321   5.989  -0.314   2.682
 2479TIP3    H1 7322   6.071  -0.338   2.638
 2479TIP3    H2 7323   5.924  -0.318   2.609
 2480TIP3   OH2 7324   5.808  -0.307   2.467
 2480TIP3    H1 7325   5.733  -0.342   2.418
 2480TIP3    H2 7326   5.858  -0.260   2.397
 2481TIP3   OH2 7327   6.932   1.376   3.408
 2481TIP3    H1 7328   6.930   1.398   3.313
 2481TIP3    H2 7329   7.011   1.425   3.438
 2482TIP3   OH2 7330   5.888   0.488   3.833
 2482TIP3    H1 7331   5.970   0.517   3.878
 2482TIP3    H2 7332   5.825   0.492   3.908
 2483TIP3   OH2 7333   6.358  -0.057   3.100
 2483TIP3    H1 7334   6.387  -0.138   3.058
 2483TIP3    H2 7335   6.356  -0.086   3.194
 2484TIP3   OH2 7336   6.340  -0.155   3.364
 2484TIP3    H1 7337   6.250  -0.131   3.392
 2484TIP3    H2 7338   6.397  -0.109   3.429
 2485TIP3   OH2 7339   6.067   0.228   2.470
 2485TIP3    H1 7340   5.992   0.166   2.461
 2485TIP3    H2 7341   6.052   0.263   2.561
 2486TIP3   OH2 7342   6.969   0.463   3.101
 2486TIP3    H1 7343   6.995   0.511   3.019
 2486TIP3    H2 7344   6.883   0.423   3.075
 2487TIP3   OH2 7345   6.466   0.543   3.468
 2487TIP3    H1 7346   6.491   0.523   3.559
 2487TIP3    H2 7347   6.430   0.633   3.473
 2488TIP3   OH2 7348   6.596  -0.198   2.456
 2488TIP3    H1 7349   6.692  -0.205   2.475
 2488TIP3    H2 7350   6.593  -0.125   2.392
 2489TIP3   OH2 7351   5.759   0.247   3.147
 2489TIP3    H1 7352   5.797   0.222   3.059
 2489TIP3    H2 7353   5.801   0.181   3.204
 2490TIP3   OH2 7354   6.215   0.373   2.288
 2490TIP3    H1 7355   6.168   0.459   2.295
 2490TIP3    H2 7356   6.163   0.319   2.352
 2491TIP3   OH2 7357   5.636   0.171   3.761
 2491TIP3    H1 7358   5.661   0.153   3.853
 2491TIP3    H2 7359   5.567   0.104   3.744
 2492TIP3   OH2 7360   6.364   0.297   3.778
 2492TIP3    H1 7361   6.311   0.241   3.719
 2492TIP3    H2 7362   6.454   0.276   3.745
 2493TIP3   OH2 7363   6.629   0.801   3.366
 2493TIP3    H1 7364   6.532   0.803   3.374
 2493TIP3    H2 7365   6.655   0.856   3.442
 2494TIP3   OH2 7366   7.256   0.731   3.353
 2494TIP3    H1 7367   7.158   0.728   3.343
 2494TIP3    H2 7368   7.282   0.703   3.263
 2495TIP3   OH2 7369   6.722   0.688   2.174
 2495TIP3    H1 7370   6.717   0.622   2.244
 2495TIP3    H2 7371   6.750   0.636   2.097
 2496TIP3   OH2 7372   6.733   0.326   3.025
 2496TIP3    H1 7373   6.639   0.301   3.032
 2496TIP3    H2 7374   6.768   0.249   2.976
 2497TIP3   OH2 7375   5.861   0.553   2.775
 2497TIP3    H1 7376   5.868   0.633   2.719
 2497TIP3    H2 7377   5.766   0.538   2.775
 2498TIP3   OH2 7378   5.429  -0.148   2.477
 2498TIP3    H1 7379   5.474  -0.063   2.492
 2498TIP3    H2 7380   5.350  -0.137   2.534
 2499TIP3   OH2 7381   5.999   0.318   2.716
 2499TIP3    H1 7382   5.967   0.409   2.735
 2499TIP3    H2 7383   5.962   0.269   2.792
 2500TIP3   OH2 7384   6.129   0.896   3.241
 2500TIP3    H1 7385   6.169   0.969   3.188
 2500TIP3    H2 7386   6.208   0.863   3.287
 2501TIP3   OH2 7387   5.781   0.792   2.624
 2501TIP3    H1 7388   5.695   0.801   2.669
 2501TIP3    H2 7389   5.814   0.884   2.626
 2502TIP3   OH2 7390   6.519   0.532   3.198
 2502TIP3    H1 7391   6.512   0.528   3.296
 2502TIP3    H2 7392   6.599   0.478   3.182
 2503TIP3   OH2 7393   6.437   0.426   2.108
 2503TIP3    H1 7394   6.518   0.405   2.159
 2503TIP3    H2 7395   6.368   0.407   2.174
 2504TIP3   OH2 7396   6.767   1.067   3.250
 2504TIP3    H1 7397   6.688   1.011   3.240
 2504TIP3    H2 7398   6.754   1.131   3.177
 2505TIP3   OH2 7399   6.835   0.905   1.888
 2505TIP3    H1 7400   6.878   0.990   1.866
 2505TIP3    H2 7401   6.756   0.940   1.935
 2506TIP3   OH2 7402   6.638   0.362   2.311
 2506TIP3    H1 7403   6.643   0.292   2.378
 2506TIP3    H2 7404   6.730   0.359   2.277
 2507TIP3   OH2 7405   5.566   0.761   3.401
 2507TIP3    H1 7406   5.620   0.685   3.427
 2507TIP3    H2 7407   5.602   0.829   3.459
 2508TIP3   OH2 7408   5.851   0.409   2.081
 2508TIP3    H1 7409   5.878   0.321   2.050
 2508TIP3    H2 7410   5.838   0.393   2.177
 2509TIP3   OH2 7411   5.804   0.408   2.357
 2509TIP3    H1 7412   5.879   0.383   2.411
 2509TIP3    H2 7413   5.809   0.506   2.360
 2510TIP3   OH2 7414   5.537   0.100   2.554
 2510TIP3    H1 7415   5.474   0.148   2.612
 2510TIP3    H2 7416   5.558   0.170   2.489
 2511TIP3   OH2 7417   6.069   0.601   2.302
 2511TIP3    H1 7418   5.984   0.636   2.336
 2511TIP3    H2 7419   6.095   0.673   2.243
 2512TIP3   OH2 7420   6.279  -0.339   2.749
 2512TIP3    H1 7421   6.304  -0.254   2.707
 2512TIP3    H2 7422   6.205  -0.314   2.806
 2513TIP3   OH2 7423   6.531  -0.007   3.524
 2513TIP3    H1 7424   6.528   0.059   3.595
 2513TIP3    H2 7425   6.618  -0.046   3.540
 2514TIP3   OH2 7426   5.810   0.681   2.368
 2514TIP3    H1 7427   5.783   0.752   2.304
 2514TIP3    H2 7428   5.798   0.727   2.454
 2515TIP3   OH2 7429   6.819   0.090   2.899
 2515TIP3    H1 7430   6.765   0.012   2.886
 2515TIP3    H2 7431   6.900   0.052   2.942
 2516TIP3   OH2 7432   5.530   0.316   2.363
 2516TIP3    H1 7433   5.597   0.386   2.372
 2516TIP3    H2 7434   5.576   0.260   2.296
 2517TIP3   OH2 7435   5.453  -0.431   2.496
 2517TIP3    H1 7436   5.488  -0.339   2.493
 2517TIP3    H2 7437   5.362  -0.413   2.522
 2518TIP3   OH2 7438   6.779   1.046   2.833
 2518TIP3    H1 7439   6.738   1.053   2.745
 2518TIP3    H2 7440   6.873   1.066   2.812
 2519TIP3   OH2 7441   5.405   0.527   2.753
 2519TIP3    H1 7442   5.329   0.559   2.803
 2519TIP3    H2 7443   5.385   0.566   2.664
 2520TIP3   OH2 7444   5.558   1.066   3.823
 2520TIP3    H1 7445   5.645   1.065   3.868
 2520TIP3    H2 7446   5.538   0.971   3.818
 2521TIP3   OH2 7447   6.041   1.033   3.866
 2521TIP3    H1 7448   6.136   1.014   3.873
 2521TIP3    H2 7449   6.017   0.976   3.791
 2522TIP3   OH2 7450   6.017   0.615   1.999
 2522TIP3    H1 7451   5.968   0.538   2.034
 2522TIP3    H2 7452   6.097   0.572   1.962
 2523TIP3   OH2 7453   6.678   0.941   3.599
 2523TIP3    H1 7454   6.671   0.869   3.667
 2523TIP3    H2 7455   6.757   0.990   3.629
 2524TIP3   OH2 7456   6.464   0.655   1.912
 2524TIP3    H1 7457   6.513   0.598   1.973
 2524TIP3    H2 7458   6.522   0.659   1.833
 2525TIP3   OH2 7459   5.688   0.472   4.024
 2525TIP3    H1 7460   5.706   0.377   4.024
 2525TIP3    H2 7461   5.601   0.476   3.978
 2526TIP3   OH2 7462   5.665   0.125   2.218
 2526TIP3    H1 7463   5.724   0.096   2.290
 2526TIP3    H2 7464   5.730   0.125   2.143
 2527TIP3   OH2 7465   6.297   0.569   3.796
 2527TIP3    H1 7466   6.256   0.583   3.708
 2527TIP3    H2 7467   6.330   0.476   3.789
 2528TIP3   OH2 7468   6.146   0.315   2.024
 2528TIP3    H1 7469   6.173   0.327   2.117
 2528TIP3    H2 7470   6.157   0.219   2.011
 2529TIP3   OH2 7471   6.791   0.566   3.402
 2529TIP3    H1 7472   6.864   0.611   3.355
 2529TIP3    H2 7473   6.720   0.631   3.389
 2530TIP3   OH2 7474   5.808   0.196   4.006
 2530TIP3    H1 7475   5.889   0.152   3.979
 2530TIP3    H2 7476   5.835   0.234   4.092
 2531TIP3   OH2 7477   5.865   0.037   2.441
 2531TIP3    H1 7478   5.850  -0.005   2.528
 2531TIP3    H2 7479   5.905  -0.036   2.389
 2532TIP3   OH2 7480   6.123   0.109   3.653
 2532TIP3    H1 7481   6.047   0.170   3.659
 2532TIP3    H2 7482   6.174   0.147   3.577
 2533TIP3   OH2 7483   5.969  -0.164   2.289
 2533TIP3    H1 7484   5.968  -0.244   2.232
 2533TIP3    H2 7485   6.057  -0.126   2.266
 2534TIP3   OH2 7486   6.661   0.499   3.804
 2534TIP3    H1 7487   6.737   0.471   3.751
 2534TIP3    H2 7488   6.657   0.429   3.871
 2535TIP3   OH2 7489   6.310  -0.061   3.747
 2535TIP3    H1 7490   6.280  -0.144   3.708
 2535TIP3    H2 7491   6.247   0.004   3.706
 2536TIP3   OH2 7492   6.300   0.209   3.474
 2536TIP3    H1 7493   6.381   0.210   3.423
 2536TIP3    H2 7494   6.245   0.275   3.427
 2537TIP3   OH2 7495   6.885   0.183   3.864
 2537TIP3    H1 7496   6.916   0.093   3.849
 2537TIP3    H2 7497   6.952   0.237   3.820
 2538TIP3   OH2 7498   6.923   0.420   3.586
 2538TIP3    H1 7499   6.864   0.475   3.530
 2538TIP3    H2 7500   7.010   0.444   3.546
 2539TIP3   OH2 7501   6.123   0.016   4.018
 2539TIP3    H1 7502   6.060  -0.059   4.010
 2539TIP3    H2 7503   6.189  -0.007   3.951
 2540TIP3   OH2 7504   6.564   0.039   3.907
 2540TIP3    H1 7505   6.526   0.015   3.993
 2540TIP3    H2 7506   6.556  -0.043   3.857
 2541TIP3   OH2 7507   5.782   0.884   2.181
 2541TIP3    H1 7508   5.878   0.880   2.165
 2541TIP3    H2 7509   5.755   0.933   2.100
 2542TIP3   OH2 7510   5.263   0.266   2.400
 2542TIP3    H1 7511   5.357   0.289   2.386
 2542TIP3    H2 7512   5.259   0.177   2.359
 2543TIP3   OH2 7513   5.175   0.879   2.811
 2543TIP3    H1 7514   5.108   0.816   2.776
 2543TIP3    H2 7515   5.220   0.822   2.877
 2544TIP3   OH2 7516   5.311   0.732   2.998
 2544TIP3    H1 7517   5.302   0.657   3.057
 2544TIP3    H2 7518   5.364   0.792   3.053
 2545TIP3   OH2 7519   7.038   1.130   2.797
 2545TIP3    H1 7520   7.068   1.165   2.882
 2545TIP3    H2 7521   7.098   1.173   2.734
 2546TIP3   OH2 7522   7.070   1.152   3.082
 2546TIP3    H1 7523   7.027   1.065   3.074
 2546TIP3    H2 7524   7.146   1.128   3.136
 2547TIP3   OH2 7525   7.117   0.826   3.654
 2547TIP3    H1 7526   7.043   0.835   3.717
 2547TIP3    H2 7527   7.157   0.915   3.657
 2548TIP3   OH2 7528   6.912   0.346   2.285
 2548TIP3    H1 7529   6.975   0.415   2.255
 2548TIP3    H2 7530   6.969   0.292   2.343
 2549TIP3   OH2 7531   7.060   0.198   2.475
 2549TIP3    H1 7532   6.993   0.157   2.533
 2549TIP3    H2 7533   7.123   0.238   2.538
 2550TIP3   OH2 7534   7.114   0.598   2.911
 2550TIP3    H1 7535   7.165   0.534   2.858
 2550TIP3    H2 7536   7.108   0.674   2.851
 2551TIP3   OH2 7537   6.947   0.900   3.106
 2551TIP3    H1 7538   6.874   0.943   3.155
 2551TIP3    H2 7539   6.898   0.852   3.036
 2552TIP3   OH2 7540   6.873   0.061   2.625
 2552TIP3    H1 7541   6.896  -0.033   2.619
 2552TIP3    H2 7542   6.868   0.077   2.721
 2553TIP3   OH2 7543   5.500   0.133   3.371
 2553TIP3    H1 7544   5.499   0.106   3.277
 2553TIP3    H2 7545   5.598   0.139   3.386
 2554TIP3   OH2 7546   7.167   0.484   3.480
 2554TIP3    H1 7547   7.240   0.420   3.465
 2554TIP3    H2 7548   7.189   0.555   3.418
 2555TIP3   OH2 7549   7.353   0.283   3.493
 2555TIP3    H1 7550   7.285   0.235   3.544
 2555TIP3    H2 7551   7.434   0.241   3.524
 2556TIP3   OH2 7552   7.034  -0.019   3.020
 2556TIP3    H1 7553   7.121  -0.010   2.975
 2556TIP3    H2 7554   7.060   0.006   3.110
 2557TIP3   OH2 7555   7.100   0.106   3.265
 2557TIP3    H1 7556   7.017   0.148   3.295
 2557TIP3    H2 7557   7.137   0.177   3.207
 2558TIP3   OH2 7558   5.495  -0.205   3.453
 2558TIP3    H1 7559   5.539  -0.220   3.367
 2558TIP3    H2 7560   5.519  -0.113   3.468
 2559TIP3   OH2 7561   5.725   0.800   3.841
 2559TIP3    H1 7562   5.633   0.772   3.824
 2559TIP3    H2 7563   5.734   0.785   3.936
 2560TIP3   OH2 7564   5.903   0.833   3.389
 2560TIP3    H1 7565   5.856   0.909   3.349
 2560TIP3    H2 7566   5.989   0.845   3.344
 2561TIP3   OH2 7567   6.349   1.078   3.527
 2561TIP3    H1 7568   6.392   1.079   3.615
 2561TIP3    H2 7569   6.415   1.128   3.474
 2562TIP3   OH2 7570   6.527   1.228   3.385
 2562TIP3    H1 7571   6.597   1.178   3.340
 2562TIP3    H2 7572   6.580   1.286   3.444
 2563TIP3   OH2 7573   5.580   1.089   3.412
 2563TIP3    H1 7574   5.491   1.124   3.387
 2563TIP3    H2 7575   5.588   1.125   3.501
 2564TIP3   OH2 7576   5.816   1.068   3.270
 2564TIP3    H1 7577   5.730   1.082   3.314
 2564TIP3    H2 7578   5.798   1.101   3.179
 2565TIP3   OH2 7579   6.240   1.096   3.072
 2565TIP3    H1 7580   6.179   1.115   2.999
 2565TIP3    H2 7581   6.254   1.186   3.109
 2566TIP3   OH2 7582   6.510   1.039   3.121
 2566TIP3    H1 7583   6.416   1.053   3.100
 2566TIP3    H2 7584   6.552   1.111   3.073
 2567TIP3   OH2 7585   6.721   1.231   3.034
 2567TIP3    H1 7586   6.704   1.315   2.987
 2567TIP3    H2 7587   6.742   1.171   2.959
 2568TIP3   OH2 7588   5.490   0.884   3.157
 2568TIP3    H1 7589   5.518   0.859   3.248
 2568TIP3    H2 7590   5.563   0.841   3.106
 2569TIP3   OH2 7591   5.683   0.756   3.014
 2569TIP3    H1 7592   5.701   0.671   3.060
 2569TIP3    H2 7593   5.774   0.793   3.008
 2570TIP3   OH2 7594   5.948   0.852   3.017
 2570TIP3    H1 7595   5.983   0.763   2.998
 2570TIP3    H2 7596   5.994   0.871   3.100
 2571TIP3   OH2 7597   5.278   0.654   2.550
 2571TIP3    H1 7598   5.194   0.622   2.514
 2571TIP3    H2 7599   5.268   0.749   2.533
 2572TIP3   OH2 7600   6.050   0.850   2.132
 2572TIP3    H1 7601   6.140   0.868   2.097
 2572TIP3    H2 7602   6.028   0.772   2.075
 2573TIP3   OH2 7603   6.808   0.952   2.186
 2573TIP3    H1 7604   6.772   0.861   2.201
 2573TIP3    H2 7605   6.731   0.995   2.147
 2574TIP3   OH2 7606   5.355   0.681   2.188
 2574TIP3    H1 7607   5.359   0.707   2.280
 2574TIP3    H2 7608   5.444   0.639   2.174
 2575TIP3   OH2 7609   6.996   1.107   3.412
 2575TIP3    H1 7610   6.918   1.075   3.363
 2575TIP3    H2 7611   6.977   1.203   3.413
 2576TIP3   OH2 7612   8.224   0.480   2.552
 2576TIP3    H1 7613   8.281   0.459   2.629
 2576TIP3    H2 7614   8.209   0.394   2.510
 2577TIP3   OH2 7615   7.562   0.378   2.920
 2577TIP3    H1 7616   7.596   0.310   2.981
 2577TIP3    H2 7617   7.635   0.441   2.920
 2578TIP3   OH2 7618   7.533   0.788   2.653
 2578TIP3    H1 7619   7.523   0.690   2.658
 2578TIP3    H2 7620   7.630   0.793   2.638
 2579TIP3   OH2 7621   7.301   0.280   2.606
 2579TIP3    H1 7622   7.362   0.215   2.648
 2579TIP3    H2 7623   7.345   0.294   2.521
 2580TIP3   OH2 7624   8.148   1.247   2.254
 2580TIP3    H1 7625   8.215   1.180   2.228
 2580TIP3    H2 7626   8.125   1.217   2.343
 2581TIP3   OH2 7627   8.059   0.705   2.607
 2581TIP3    H1 7628   8.100   0.627   2.564
 2581TIP3    H2 7629   8.141   0.753   2.630
 2582TIP3   OH2 7630   7.462   0.101   2.731
 2582TIP3    H1 7631   7.538   0.066   2.782
 2582TIP3    H2 7632   7.453   0.030   2.664
 2583TIP3   OH2 7633   7.913   0.624   2.837
 2583TIP3    H1 7634   7.848   0.689   2.874
 2583TIP3    H2 7635   7.951   0.675   2.763
 2584TIP3   OH2 7636   7.682  -0.018   2.823
 2584TIP3    H1 7637   7.766   0.029   2.844
 2584TIP3    H2 7638   7.710  -0.100   2.780
 2585TIP3   OH2 7639   7.741   0.817   2.932
 2585TIP3    H1 7640   7.714   0.900   2.889
 2585TIP3    H2 7641   7.662   0.802   2.988
 2586TIP3   OH2 7642   7.089   0.542   2.194
 2586TIP3    H1 7643   7.122   0.525   2.106
 2586TIP3    H2 7644   7.151   0.609   2.226
 2587TIP3   OH2 7645   8.569   1.023   2.407
 2587TIP3    H1 7646   8.479   1.012   2.445
 2587TIP3    H2 7647   8.561   1.112   2.369
 2588TIP3   OH2 7648   8.340   1.090   2.146
 2588TIP3    H1 7649   8.350   0.997   2.118
 2588TIP3    H2 7650   8.375   1.141   2.070
 2589TIP3   OH2 7651   8.678   0.466   2.868
 2589TIP3    H1 7652   8.677   0.529   2.941
 2589TIP3    H2 7653   8.586   0.467   2.838
 2590TIP3   OH2 7654   7.670   0.433   2.415
 2590TIP3    H1 7655   7.618   0.423   2.333
 2590TIP3    H2 7656   7.721   0.350   2.411
 2591TIP3   OH2 7657   7.799   0.819   2.544
 2591TIP3    H1 7658   7.777   0.783   2.456
 2591TIP3    H2 7659   7.890   0.786   2.558
 2592TIP3   OH2 7660   7.824   0.378   2.757
 2592TIP3    H1 7661   7.837   0.381   2.661
 2592TIP3    H2 7662   7.852   0.468   2.784
 2593TIP3   OH2 7663   8.329   1.019   2.526
 2593TIP3    H1 7664   8.313   1.100   2.578
 2593TIP3    H2 7665   8.314   0.947   2.591
 2594TIP3   OH2 7666   7.946   0.939   3.073
 2594TIP3    H1 7667   7.886   1.002   3.119
 2594TIP3    H2 7668   7.879   0.886   3.024
 2595TIP3   OH2 7669   7.690   0.509   3.167
 2595TIP3    H1 7670   7.695   0.592   3.219
 2595TIP3    H2 7671   7.597   0.485   3.181
 2596TIP3   OH2 7672   7.966   0.990   2.128
 2596TIP3    H1 7673   8.059   1.013   2.125
 2596TIP3    H2 7674   7.928   1.047   2.060
 2597TIP3   OH2 7675   7.742   1.109   3.161
 2597TIP3    H1 7676   7.707   1.105   3.069
 2597TIP3    H2 7677   7.662   1.086   3.214
 2598TIP3   OH2 7678   7.320   0.639   3.107
 2598TIP3    H1 7679   7.255   0.618   3.036
 2598TIP3    H2 7680   7.356   0.550   3.129
 2599TIP3   OH2 7681   7.174   0.826   2.752
 2599TIP3    H1 7682   7.267   0.825   2.728
 2599TIP3    H2 7683   7.165   0.912   2.795
 2600TIP3   OH2 7684   8.146   1.067   2.932
 2600TIP3    H1 7685   8.145   1.160   2.963
 2600TIP3    H2 7686   8.074   1.029   2.985
 2601TIP3   OH2 7687   7.903   1.201   1.883
 2601TIP3    H1 7688   7.830   1.167   1.831
 2601TIP3    H2 7689   7.873   1.290   1.910
 2602TIP3   OH2 7690   7.346   1.050   2.265
 2602TIP3    H1 7691   7.390   1.038   2.352
 2602TIP3    H2 7692   7.285   0.973   2.266
 2603TIP3   OH2 7693   8.159   1.163   1.813
 2603TIP3    H1 7694   8.066   1.182   1.836
 2603TIP3    H2 7695   8.155   1.067   1.806
 2604TIP3   OH2 7696   7.526   0.821   3.099
 2604TIP3    H1 7697   7.575   0.803   3.181
 2604TIP3    H2 7698   7.452   0.757   3.105
 2605TIP3   OH2 7699   7.869   0.158   2.913
 2605TIP3    H1 7700   7.805   0.181   2.984
 2605TIP3    H2 7701   7.855   0.234   2.852
 2606TIP3   OH2 7702   8.418   0.458   3.195
 2606TIP3    H1 7703   8.392   0.402   3.272
 2606TIP3    H2 7704   8.513   0.464   3.213
 2607TIP3   OH2 7705   7.673   0.199   3.103
 2607TIP3    H1 7706   7.703   0.251   3.179
 2607TIP3    H2 7707   7.625   0.126   3.144
 2608TIP3   OH2 7708   8.395   0.405   2.786
 2608TIP3    H1 7709   8.443   0.329   2.752
 2608TIP3    H2 7710   8.372   0.369   2.875
 2609TIP3   OH2 7711   8.722   1.637   2.892
 2609TIP3    H1 7712   8.724   1.655   2.796
 2609TIP3    H2 7713   8.790   1.699   2.924
 2610TIP3   OH2 7714   7.685   0.744   3.320
 2610TIP3    H1 7715   7.766   0.773   3.367
 2610TIP3    H2 7716   7.621   0.745   3.393
 2611TIP3   OH2 7717   8.130   0.080   2.880
 2611TIP3    H1 7718   8.042   0.120   2.882
 2611TIP3    H2 7719   8.185   0.146   2.926
 2612TIP3   OH2 7720   8.275   0.806   2.955
 2612TIP3    H1 7721   8.279   0.776   3.046
 2612TIP3    H2 7722   8.227   0.890   2.962
 2613TIP3   OH2 7723   7.556   0.513   2.650
 2613TIP3    H1 7724   7.592   0.487   2.563
 2613TIP3    H2 7725   7.576   0.436   2.705
 2614TIP3   OH2 7726   7.435   0.426   3.246
 2614TIP3    H1 7727   7.457   0.409   3.339
 2614TIP3    H2 7728   7.364   0.362   3.229
 2615TIP3   OH2 7729   8.162   0.553   3.262
 2615TIP3    H1 7730   8.103   0.493   3.214
 2615TIP3    H2 7731   8.249   0.528   3.225
 2616TIP3   OH2 7732   8.424   1.060   2.848
 2616TIP3    H1 7733   8.328   1.058   2.861
 2616TIP3    H2 7734   8.452   1.113   2.926
 2617TIP3   OH2 7735   7.657   0.807   2.262
 2617TIP3    H1 7736   7.666   0.884   2.204
 2617TIP3    H2 7737   7.562   0.791   2.257
 2618TIP3   OH2 7738   7.835   0.584   2.243
 2618TIP3    H1 7739   7.792   0.669   2.223
 2618TIP3    H2 7740   7.769   0.543   2.301
 2619TIP3   OH2 7741   7.926   1.153   2.728
 2619TIP3    H1 7742   7.965   1.225   2.676
 2619TIP3    H2 7743   8.003   1.120   2.776
 2620TIP3   OH2 7744   7.579   1.048   2.109
 2620TIP3    H1 7745   7.492   1.051   2.155
 2620TIP3    H2 7746   7.606   1.141   2.115
 2621TIP3   OH2 7747   8.314   0.789   2.686
 2621TIP3    H1 7748   8.305   0.791   2.784
 2621TIP3    H2 7749   8.392   0.733   2.675
 2622TIP3   OH2 7750   8.555   1.318   2.736
 2622TIP3    H1 7751   8.472   1.267   2.722
 2622TIP3    H2 7752   8.546   1.384   2.664
 2623TIP3   OH2 7753   7.365   1.020   2.888
 2623TIP3    H1 7754   7.413   0.940   2.912
 2623TIP3    H2 7755   7.399   1.083   2.952
 2624TIP3   OH2 7756   8.348   0.248   3.002
 2624TIP3    H1 7757   8.333   0.306   3.079
 2624TIP3    H2 7758   8.370   0.164   3.045
 2625TIP3   OH2 7759   7.562   0.945   1.844
 2625TIP3    H1 7760   7.561   1.031   1.799
 2625TIP3    H2 7761   7.578   0.969   1.937
 2626TIP3   OH2 7762   8.600   1.307   2.325
 2626TIP3    H1 7763   8.560   1.348   2.246
 2626TIP3    H2 7764   8.680   1.264   2.288
 2627TIP3   OH2 7765   7.206   0.801   2.240
 2627TIP3    H1 7766   7.126   0.818   2.291
 2627TIP3    H2 7767   7.177   0.828   2.150
 2628TIP3   OH2 7768   7.354   1.323   3.308
 2628TIP3    H1 7769   7.441   1.322   3.355
 2628TIP3    H2 7770   7.333   1.228   3.306
 2629TIP3   OH2 7771   7.838   1.291   3.352
 2629TIP3    H1 7772   7.932   1.270   3.359
 2629TIP3    H2 7773   7.813   1.232   3.278
 2630TIP3   OH2 7774   8.480   1.193   3.083
 2630TIP3    H1 7775   8.467   1.124   3.152
 2630TIP3    H2 7776   8.551   1.247   3.121
 2631TIP3   OH2 7777   7.485   0.730   3.509
 2631TIP3    H1 7778   7.503   0.634   3.513
 2631TIP3    H2 7779   7.398   0.732   3.464
 2632TIP3   OH2 7780   8.096   0.825   3.281
 2632TIP3    H1 7781   8.050   0.838   3.196
 2632TIP3    H2 7782   8.126   0.731   3.276
 2633TIP3   OH2 7783   8.592   0.825   2.883
 2633TIP3    H1 7784   8.639   0.877   2.816
 2633TIP3    H2 7785   8.509   0.875   2.888
 2634TIP3   OH2 7786   7.604   0.457   3.492
 2634TIP3    H1 7787   7.682   0.404   3.470
 2634TIP3    H2 7788   7.629   0.490   3.580
 2635TIP3   OH2 7789   7.926   0.371   3.148
 2635TIP3    H1 7790   7.844   0.427   3.151
 2635TIP3    H2 7791   7.969   0.404   3.067
 2636TIP3   OH2 7792   8.457   0.756   3.290
 2636TIP3    H1 7793   8.534   0.726   3.241
 2636TIP3    H2 7794   8.450   0.688   3.360
 2637TIP3   OH2 7795   8.120   0.194   3.209
 2637TIP3    H1 7796   8.073   0.109   3.194
 2637TIP3    H2 7797   8.050   0.258   3.184
 2638TIP3   OH2 7798   8.099   0.467   2.960
 2638TIP3    H1 7799   8.175   0.465   2.900
 2638TIP3    H2 7800   8.040   0.531   2.915
 2639TIP3   OH2 7801   8.676   0.434   3.334
 2639TIP3    H1 7802   8.716   0.347   3.340
 2639TIP3    H2 7803   8.751   0.492   3.317
 2640TIP3   OH2 7804   8.733   0.689   3.069
 2640TIP3    H1 7805   8.667   0.737   3.015
 2640TIP3    H2 7806   8.812   0.701   3.014
 2641TIP3   OH2 7807   7.919   0.271   3.503
 2641TIP3    H1 7808   7.852   0.201   3.500
 2641TIP3    H2 7809   7.987   0.236   3.444
 2642TIP3   OH2 7810   8.363   0.296   3.395
 2642TIP3    H1 7811   8.322   0.276   3.481
 2642TIP3    H2 7812   8.372   0.208   3.356
 2643TIP3   OH2 7813   7.586   1.161   1.670
 2643TIP3    H1 7814   7.646   1.235   1.683
 2643TIP3    H2 7815   7.535   1.196   1.595
 2644TIP3   OH2 7816   6.989   1.135   2.283
 2644TIP3    H1 7817   6.910   1.084   2.257
 2644TIP3    H2 7818   7.016   1.085   2.362
 2645TIP3   OH2 7819   7.113   0.991   2.483
 2645TIP3    H1 7820   7.088   0.916   2.539
 2645TIP3    H2 7821   7.161   1.047   2.546
 2646TIP3   OH2 7822   8.724   1.117   2.621
 2646TIP3    H1 7823   8.656   1.175   2.661
 2646TIP3    H2 7824   8.674   1.074   2.549
 2647TIP3   OH2 7825   7.296   0.389   2.860
 2647TIP3    H1 7826   7.291   0.363   2.766
 2647TIP3    H2 7827   7.393   0.393   2.873
 2648TIP3   OH2 7828   7.287   0.051   2.947
 2648TIP3    H1 7829   7.322   0.015   2.864
 2648TIP3    H2 7830   7.321   0.141   2.941
 2649TIP3   OH2 7831   8.453   1.230   1.942
 2649TIP3    H1 7832   8.458   1.248   1.846
 2649TIP3    H2 7833   8.461   1.320   1.980
 2650TIP3   OH2 7834   7.522   1.057   3.329
 2650TIP3    H1 7835   7.430   1.029   3.310
 2650TIP3    H2 7836   7.530   1.039   3.423
 2651TIP3   OH2 7837   7.699   1.089   2.877
 2651TIP3    H1 7838   7.649   1.163   2.837
 2651TIP3    H2 7839   7.784   1.103   2.831
 2652TIP3   OH2 7840   8.145   1.333   3.012
 2652TIP3    H1 7841   8.186   1.335   3.101
 2652TIP3    H2 7842   8.211   1.385   2.960
 2653TIP3   OH2 7843   8.324   1.484   2.870
 2653TIP3    H1 7844   8.396   1.435   2.829
 2653TIP3    H2 7845   8.374   1.543   2.931
 2654TIP3   OH2 7846   7.379   1.350   2.897
 2654TIP3    H1 7847   7.289   1.382   2.872
 2654TIP3    H2 7848   7.382   1.379   2.989
 2655TIP3   OH2 7849   7.614   1.326   2.756
 2655TIP3    H1 7850   7.528   1.339   2.802
 2655TIP3    H2 7851   7.592   1.357   2.666
 2656TIP3   OH2 7852   8.040   1.355   2.551
 2656TIP3    H1 7853   7.967   1.375   2.489
 2656TIP3    H2 7854   8.052   1.442   2.595
 2657TIP3   OH2 7855   8.305   1.292   2.603
 2657TIP3    H1 7856   8.211   1.310   2.584
 2657TIP3    H2 7857   8.348   1.371   2.565
 2658TIP3   OH2 7858   8.511   1.480   2.523
 2658TIP3    H1 7859   8.495   1.568   2.482
 2658TIP3    H2 7860   8.540   1.427   2.447
 2659TIP3   OH2 7861   7.288   1.143   2.647
 2659TIP3    H1 7862   7.316   1.116   2.737
 2659TIP3    H2 7863   7.358   1.099   2.594
 2660TIP3   OH2 7864   7.480   1.015   2.502
 2660TIP3    H1 7865   7.496   0.929   2.548
 2660TIP3    H2 7866   7.571   1.050   2.495
 2661TIP3   OH2 7867   7.748   1.112   2.500
 2661TIP3    H1 7868   7.778   1.022   2.479
 2661TIP3    H2 7869   7.790   1.125   2.587
 2662TIP3   OH2 7870   7.080   0.905   2.024
 2662TIP3    H1 7871   6.989   0.876   2.005
 2662TIP3    H2 7872   7.062   0.997   2.051
 2663TIP3   OH2 7873   7.171   0.967   1.698
 2663TIP3    H1 7874   7.140   0.995   1.786
 2663TIP3    H2 7875   7.245   0.908   1.721
 2664TIP3   OH2 7876   8.763   1.368   2.910
 2664TIP3    H1 7877   8.696   1.329   2.850
 2664TIP3    H2 7878   8.741   1.463   2.900
 2665TIP3   OH2 7879   0.957   1.557   3.938
 2665TIP3    H1 7880   0.953   1.498   4.014
 2665TIP3    H2 7881   0.984   1.640   3.979
 2666TIP3   OH2 7882   0.609   2.036   3.943
 2666TIP3    H1 7883   0.651   1.959   3.899
 2666TIP3    H2 7884   0.586   1.999   4.029
 2667TIP3   OH2 7885   0.516   1.488   4.319
 2667TIP3    H1 7886   0.523   1.444   4.233
 2667TIP3    H2 7887   0.606   1.525   4.331
 2668TIP3   OH2 7888   1.524   0.813   4.295
 2668TIP3    H1 7889   1.556   0.897   4.334
 2668TIP3    H2 7890   1.552   0.824   4.202
 2669TIP3   OH2 7891   1.601   1.022   4.464
 2669TIP3    H1 7892   1.519   1.070   4.444
 2669TIP3    H2 7893   1.611   1.043   4.558
 2670TIP3   OH2 7894   0.370   1.413   4.539
 2670TIP3    H1 7895   0.301   1.477   4.565
 2670TIP3    H2 7896   0.410   1.453   4.459
 2671TIP3   OH2 7897   0.188   1.608   4.622
 2671TIP3    H1 7898   0.163   1.696   4.588
 2671TIP3    H2 7899   0.109   1.586   4.676
 2672TIP3   OH2 7900   1.030   1.811   4.093
 2672TIP3    H1 7901   0.941   1.802   4.136
 2672TIP3    H2 7902   1.020   1.900   4.053
 2673TIP3   OH2 7903   1.321   0.713   4.460
 2673TIP3    H1 7904   1.242   0.765   4.443
 2673TIP3    H2 7905   1.381   0.742   4.388
 2674TIP3   OH2 7906   0.746   1.855   3.786
 2674TIP3    H1 7907   0.822   1.796   3.788
 2674TIP3    H2 7908   0.777   1.923   3.721
 2675TIP3   OH2 7909   1.255   1.728   4.440
 2675TIP3    H1 7910   1.244   1.649   4.383
 2675TIP3    H2 7911   1.239   1.801   4.377
 2676TIP3   OH2 7912   1.451   1.364   4.287
 2676TIP3    H1 7913   1.368   1.416   4.291
 2676TIP3    H2 7914   1.479   1.384   4.195
 2677TIP3   OH2 7915   1.135   1.245   4.580
 2677TIP3    H1 7916   1.127   1.328   4.630
 2677TIP3    H2 7917   1.046   1.241   4.538
 2678TIP3   OH2 7918   0.792   1.807   4.219
 2678TIP3    H1 7919   0.773   1.887   4.271
 2678TIP3    H2 7920   0.774   1.734   4.281
 2679TIP3   OH2 7921   0.399   1.727   4.763
 2679TIP3    H1 7922   0.338   1.789   4.809
 2679TIP3    H2 7923   0.334   1.672   4.714
 2680TIP3   OH2 7924   0.152   1.287   4.854
 2680TIP3    H1 7925   0.147   1.372   4.901
 2680TIP3    H2 7926   0.059   1.266   4.839
 2681TIP3   OH2 7927   0.192   1.895   4.852
 2681TIP3    H1 7928   0.159   1.896   4.761
 2681TIP3    H2 7929   0.111   1.875   4.904
 2682TIP3   OH2 7930   1.487   2.072   4.480
 2682TIP3    H1 7931   1.492   1.975   4.494
 2682TIP3    H2 7932   1.406   2.093   4.531
 2683TIP3   OH2 7933   0.597   1.857   4.620
 2683TIP3    H1 7934   0.597   1.950   4.654
 2683TIP3    H2 7935   0.525   1.817   4.674
 2684TIP3   OH2 7936   1.382   1.204   4.760
 2684TIP3    H1 7937   1.300   1.216   4.709
 2684TIP3    H2 7938   1.396   1.107   4.751
 2685TIP3   OH2 7939  -0.031   1.591   4.793
 2685TIP3    H1 7940   0.030   1.590   4.869
 2685TIP3    H2 7941  -0.107   1.542   4.828
 2686TIP3   OH2 7942   0.913   0.559   4.772
 2686TIP3    H1 7943   0.992   0.525   4.819
 2686TIP3    H2 7944   0.841   0.537   4.831
 2687TIP3   OH2 7945   1.159   0.980   4.684
 2687TIP3    H1 7946   1.106   0.970   4.766
 2687TIP3    H2 7947   1.123   1.063   4.648
 2688TIP3   OH2 7948   0.860   1.209   4.927
 2688TIP3    H1 7949   0.840   1.131   4.983
 2688TIP3    H2 7950   0.956   1.216   4.940
 2689TIP3   OH2 7951   0.879   1.203   4.485
 2689TIP3    H1 7952   0.869   1.125   4.428
 2689TIP3    H2 7953   0.844   1.165   4.569
 2690TIP3   OH2 7954   1.180   2.421   4.585
 2690TIP3    H1 7955   1.180   2.442   4.490
 2690TIP3    H2 7956   1.260   2.469   4.616
 2691TIP3   OH2 7957   0.144   1.542   5.005
 2691TIP3    H1 7958   0.230   1.578   5.033
 2691TIP3    H2 7959   0.110   1.515   5.092
 2692TIP3   OH2 7960   1.219   1.511   4.275
 2692TIP3    H1 7961   1.246   1.559   4.194
 2692TIP3    H2 7962   1.132   1.474   4.249
 2693TIP3   OH2 7963   0.731   1.600   4.639
 2693TIP3    H1 7964   0.729   1.557   4.726
 2693TIP3    H2 7965   0.676   1.679   4.652
 2694TIP3   OH2 7966   0.610   1.328   4.959
 2694TIP3    H1 7967   0.548   1.272   4.908
 2694TIP3    H2 7968   0.696   1.294   4.926
 2695TIP3   OH2 7969   0.878   1.857   4.534
 2695TIP3    H1 7970   0.783   1.846   4.550
 2695TIP3    H2 7971   0.904   1.904   4.617
 2696TIP3   OH2 7972   1.506   1.778   4.529
 2696TIP3    H1 7973   1.408   1.773   4.519
 2696TIP3    H2 7974   1.533   1.751   4.438
 2697TIP3   OH2 7975   0.983   1.383   4.194
 2697TIP3    H1 7976   0.901   1.361   4.239
 2697TIP3    H2 7977   1.019   1.292   4.180
 2698TIP3   OH2 7978   0.380   1.936   4.424
 2698TIP3    H1 7979   0.414   2.008   4.369
 2698TIP3    H2 7980   0.461   1.906   4.469
 2699TIP3   OH2 7981   0.777   1.569   4.374
 2699TIP3    H1 7982   0.760   1.576   4.471
 2699TIP3    H2 7983   0.867   1.534   4.375
 2700TIP3   OH2 7984   1.017   2.110   4.428
 2700TIP3    H1 7985   0.940   2.050   4.423
 2700TIP3    H2 7986   0.998   2.172   4.354
 2701TIP3   OH2 7987  -0.184   1.795   4.597
 2701TIP3    H1 7988  -0.129   1.722   4.627
 2701TIP3    H2 7989  -0.147   1.870   4.644
 2702TIP3   OH2 7990   0.931   0.794   4.625
 2702TIP3    H1 7991   1.016   0.821   4.662
 2702TIP3    H2 7992   0.917   0.706   4.668
 2703TIP3   OH2 7993   0.803   1.055   4.692
 2703TIP3    H1 7994   0.796   1.090   4.782
 2703TIP3    H2 7995   0.823   0.961   4.705
 2704TIP3   OH2 7996   1.423   0.934   4.680
 2704TIP3    H1 7997   1.325   0.935   4.690
 2704TIP3    H2 7998   1.430   0.896   4.591
 2705TIP3   OH2 7999   1.041   1.121   4.151
 2705TIP3    H1 8000   0.992   1.042   4.126
 2705TIP3    H2 8001   1.131   1.084   4.166
 2706TIP3   OH2 8002   1.036   2.084   4.018
 2706TIP3    H1 8003   0.993   2.132   3.945
 2706TIP3    H2 8004   1.130   2.103   3.998
 2707TIP3   OH2 8005  -0.176   2.120   4.975
 2707TIP3    H1 8006  -0.100   2.123   5.037
 2707TIP3    H2 8007  -0.209   2.031   4.990
 2708TIP3   OH2 8008   0.292   2.080   5.040
 2708TIP3    H1 8009   0.386   2.056   5.050
 2708TIP3    H2 8010   0.266   2.021   4.967
 2709TIP3   OH2 8011   0.930   1.983   4.774
 2709TIP3    H1 8012   0.919   1.913   4.842
 2709TIP3    H2 8013   1.007   2.033   4.807
 2710TIP3   OH2 8014   0.547   1.602   4.969
 2710TIP3    H1 8015   0.504   1.616   4.883
 2710TIP3    H2 8016   0.577   1.508   4.963
 2711TIP3   OH2 8017   1.040   1.606   4.573
 2711TIP3    H1 8018   1.110   1.660   4.532
 2711TIP3    H2 8019   0.964   1.667   4.571
 2712TIP3   OH2 8020   0.398   1.150   4.855
 2712TIP3    H1 8021   0.310   1.191   4.848
 2712TIP3    H2 8022   0.438   1.172   4.768
 2713TIP3   OH2 8023   0.911   1.542   4.978
 2713TIP3    H1 8024   0.988   1.514   4.926
 2713TIP3    H2 8025   0.904   1.471   5.044
 2714TIP3   OH2 8026   0.550   0.935   4.957
 2714TIP3    H1 8027   0.497   0.866   4.912
 2714TIP3    H2 8028   0.493   1.012   4.938
 2715TIP3   OH2 8029   0.557   1.259   4.658
 2715TIP3    H1 8030   0.622   1.246   4.589
 2715TIP3    H2 8031   0.491   1.317   4.613
 2716TIP3   OH2 8032   1.130   1.217   5.031
 2716TIP3    H1 8033   1.175   1.131   5.037
 2716TIP3    H2 8034   1.199   1.274   4.995
 2717TIP3   OH2 8035   1.169   1.469   4.767
 2717TIP3    H1 8036   1.111   1.520   4.706
 2717TIP3    H2 8037   1.257   1.487   4.725
 2718TIP3   OH2 8038   0.797   0.981   5.060
 2718TIP3    H1 8039   0.785   0.984   5.156
 2718TIP3    H2 8040   0.706   0.962   5.026
 2719TIP3   OH2 8041   1.025   0.931   4.912
 2719TIP3    H1 8042   0.946   0.934   4.969
 2719TIP3    H2 8043   1.094   0.897   4.972
 2720TIP3   OH2 8044   1.254   0.870   5.065
 2720TIP3    H1 8045   1.261   0.775   5.085
 2720TIP3    H2 8046   1.243   0.910   5.154
 2721TIP3   OH2 8047   1.287   2.179   3.973
 2721TIP3    H1 8048   1.316   2.207   4.062
 2721TIP3    H2 8049   1.354   2.220   3.916
 2722TIP3   OH2 8050   1.322   2.195   4.255
 2722TIP3    H1 8051   1.275   2.109   4.252
 2722TIP3    H2 8052   1.394   2.170   4.315
 2723TIP3   OH2 8053   1.365   1.872   4.829
 2723TIP3    H1 8054   1.291   1.879   4.893
 2723TIP3    H2 8055   1.405   1.961   4.835
 2724TIP3   OH2 8056   1.303   1.263   3.645
 2724TIP3    H1 8057   1.262   1.201   3.706
 2724TIP3    H2 8058   1.385   1.287   3.692
 2725TIP3   OH2 8059   1.363   1.643   4.084
 2725TIP3    H1 8060   1.416   1.579   4.033
 2725TIP3    H2 8061   1.349   1.715   4.019
 2726TIP3   OH2 8062   1.194   1.946   4.279
 2726TIP3    H1 8063   1.123   1.985   4.333
 2726TIP3    H2 8064   1.143   1.896   4.211
 2727TIP3   OH2 8065   1.412   1.533   4.656
 2727TIP3    H1 8066   1.484   1.468   4.647
 2727TIP3    H2 8067   1.439   1.604   4.595
 2728TIP3   OH2 8068   1.598   1.340   4.673
 2728TIP3    H1 8069   1.523   1.291   4.711
 2728TIP3    H2 8070   1.670   1.275   4.689
 2729TIP3   OH2 8071   1.285   1.011   4.194
 2729TIP3    H1 8072   1.371   1.029   4.150
 2729TIP3    H2 8073   1.307   1.043   4.284
 2730TIP3   OH2 8074   1.353   1.145   4.427
 2730TIP3    H1 8075   1.274   1.179   4.476
 2730TIP3    H2 8076   1.383   1.226   4.381
 2731TIP3   OH2 8077   1.805   0.735   4.980
 2731TIP3    H1 8078   1.860   0.667   4.934
 2731TIP3    H2 8079   1.774   0.789   4.904
 2732TIP3   OH2 8080   1.674   0.874   4.787
 2732TIP3    H1 8081   1.586   0.913   4.805
 2732TIP3    H2 8082   1.648   0.803   4.726
 2733TIP3   OH2 8083   0.865   2.052   3.633
 2733TIP3    H1 8084   0.911   2.025   3.552
 2733TIP3    H2 8085   0.929   2.109   3.677
 2734TIP3   OH2 8086  -0.036   1.836   5.019
 2734TIP3    H1 8087  -0.117   1.785   5.003
 2734TIP3    H2 8088  -0.028   1.834   5.115
 2735TIP3   OH2 8089   0.150   1.877   4.568
 2735TIP3    H1 8090   0.102   1.952   4.528
 2735TIP3    H2 8091   0.237   1.891   4.524
 2736TIP3   OH2 8092   0.598   2.123   4.703
 2736TIP3    H1 8093   0.640   2.123   4.792
 2736TIP3    H2 8094   0.664   2.173   4.651
 2737TIP3   OH2 8095   0.776   2.274   4.560
 2737TIP3    H1 8096   0.846   2.220   4.521
 2737TIP3    H2 8097   0.828   2.330   4.622
 2738TIP3   OH2 8098   1.573   0.637   4.663
 2738TIP3    H1 8099   1.482   0.631   4.629
 2738TIP3    H2 8100   1.603   0.544   4.650
 2739TIP3   OH2 8101  -0.169   2.148   4.584
 2739TIP3    H1 8102  -0.262   2.173   4.567
 2739TIP3    H2 8103  -0.164   2.158   4.679
 2740TIP3   OH2 8104   0.070   2.118   4.450
 2740TIP3    H1 8105  -0.018   2.132   4.492
 2740TIP3    H2 8106   0.051   2.137   4.356
 2741TIP3   OH2 8107   0.495   2.143   4.243
 2741TIP3    H1 8108   0.419   2.159   4.183
 2741TIP3    H2 8109   0.503   2.230   4.286
 2742TIP3   OH2 8110   0.760   2.083   4.294
 2742TIP3    H1 8111   0.665   2.096   4.276
 2742TIP3    H2 8112   0.798   2.161   4.251
 2743TIP3   OH2 8113   0.974   2.278   4.211
 2743TIP3    H1 8114   0.955   2.360   4.162
 2743TIP3    H2 8115   0.994   2.215   4.139
 2744TIP3   OH2 8116   0.206   1.941   4.191
 2744TIP3    H1 8117   0.205   1.862   4.133
 2744TIP3    H2 8118   0.245   1.908   4.273
 2745TIP3   OH2 8119   1.008   2.004   3.389
 2745TIP3    H1 8120   1.000   1.910   3.368
 2745TIP3    H2 8121   0.967   2.045   3.310
 2746TIP3   OH2 8122   1.302   0.599   5.098
 2746TIP3    H1 8123   1.325   0.568   5.188
 2746TIP3    H2 8124   1.388   0.593   5.052
 2747TIP3   OH2 8125   1.245   2.152   4.588
 2747TIP3    H1 8126   1.166   2.118   4.541
 2747TIP3    H2 8127   1.223   2.247   4.592
 2748TIP3   OH2 8128   2.516   1.533   3.358
 2748TIP3    H1 8129   2.482   1.621   3.331
 2748TIP3    H2 8130   2.446   1.476   3.321
 2749TIP3   OH2 8131   2.524   1.514   3.725
 2749TIP3    H1 8132   2.540   1.482   3.815
 2749TIP3    H2 8133   2.481   1.437   3.684
 2750TIP3   OH2 8134   1.824   1.418   4.088
 2750TIP3    H1 8135   1.851   1.360   4.161
 2750TIP3    H2 8136   1.873   1.499   4.111
 2751TIP3   OH2 8137   2.753   1.828   3.413
 2751TIP3    H1 8138   2.737   1.752   3.471
 2751TIP3    H2 8139   2.783   1.896   3.475
 2752TIP3   OH2 8140   1.543   1.315   3.778
 2752TIP3    H1 8141   1.596   1.241   3.816
 2752TIP3    H2 8142   1.605   1.355   3.716
 2753TIP3   OH2 8143   2.402   2.289   3.433
 2753TIP3    H1 8144   2.451   2.220   3.383
 2753TIP3    H2 8145   2.395   2.248   3.520
 2754TIP3   OH2 8146   2.338   1.710   3.802
 2754TIP3    H1 8147   2.375   1.654   3.731
 2754TIP3    H2 8148   2.409   1.778   3.803
 2755TIP3   OH2 8149   3.324   1.066   3.780
 2755TIP3    H1 8150   3.359   1.151   3.814
 2755TIP3    H2 8151   3.336   1.077   3.684
 2756TIP3   OH2 8152   2.736   1.259   3.830
 2756TIP3    H1 8153   2.744   1.169   3.866
 2756TIP3    H2 8154   2.688   1.232   3.749
 2757TIP3   OH2 8155   2.053   0.913   3.788
 2757TIP3    H1 8156   2.037   0.980   3.719
 2757TIP3    H2 8157   2.017   0.833   3.744
 2758TIP3   OH2 8158   1.695   1.114   3.889
 2758TIP3    H1 8159   1.777   1.093   3.938
 2758TIP3    H2 8160   1.708   1.057   3.811
 2759TIP3   OH2 8161   2.131   1.308   3.697
 2759TIP3    H1 8162   2.226   1.285   3.695
 2759TIP3    H2 8163   2.092   1.226   3.658
 2760TIP3   OH2 8164   3.406   1.273   3.948
 2760TIP3    H1 8165   3.327   1.328   3.932
 2760TIP3    H2 8166   3.438   1.309   4.034
 2761TIP3   OH2 8167   2.055   0.897   4.216
 2761TIP3    H1 8168   1.994   0.930   4.148
 2761TIP3    H2 8169   2.002   0.912   4.297
 2762TIP3   OH2 8170   2.408   1.749   3.224
 2762TIP3    H1 8171   2.364   1.713   3.145
 2762TIP3    H2 8172   2.357   1.832   3.238
 2763TIP3   OH2 8173   3.015   0.986   3.592
 2763TIP3    H1 8174   2.924   0.961   3.611
 2763TIP3    H2 8175   3.017   1.081   3.607
 2764TIP3   OH2 8176   1.927   1.013   4.003
 2764TIP3    H1 8177   1.992   1.084   4.021
 2764TIP3    H2 8178   1.971   0.969   3.926
 2765TIP3   OH2 8179   1.384   1.562   3.349
 2765TIP3    H1 8180   1.362   1.587   3.258
 2765TIP3    H2 8181   1.426   1.642   3.384
 2766TIP3   OH2 8182   2.826   2.067   3.583
 2766TIP3    H1 8183   2.737   2.059   3.623
 2766TIP3    H2 8184   2.818   2.152   3.536
 2767TIP3   OH2 8185   3.122   0.984   3.955
 2767TIP3    H1 8186   3.036   0.999   3.914
 2767TIP3    H2 8187   3.181   0.997   3.878
 2768TIP3   OH2 8188   2.410   0.603   3.941
 2768TIP3    H1 8189   2.392   0.508   3.957
 2768TIP3    H2 8190   2.330   0.644   3.979
 2769TIP3   OH2 8191   2.530   2.119   3.262
 2769TIP3    H1 8192   2.577   2.035   3.241
 2769TIP3    H2 8193   2.589   2.182   3.215
 2770TIP3   OH2 8194   2.668   1.904   3.162
 2770TIP3    H1 8195   2.629   1.825   3.123
 2770TIP3    H2 8196   2.704   1.868   3.246
 2771TIP3   OH2 8197   3.055   1.980   3.922
 2771TIP3    H1 8198   3.036   1.902   3.866
 2771TIP3    H2 8199   3.034   2.054   3.862
 2772TIP3   OH2 8200   2.349   1.395   3.185
 2772TIP3    H1 8201   2.258   1.417   3.159
 2772TIP3    H2 8202   2.389   1.372   3.099
 2773TIP3   OH2 8203   2.325   1.143   3.001
 2773TIP3    H1 8204   2.403   1.201   2.998
 2773TIP3    H2 8205   2.344   1.084   2.926
 2774TIP3   OH2 8206   3.244   1.611   3.771
 2774TIP3    H1 8207   3.164   1.667   3.777
 2774TIP3    H2 8208   3.274   1.636   3.681
 2775TIP3   OH2 8209   2.693   1.467   3.159
 2775TIP3    H1 8210   2.636   1.488   3.237
 2775TIP3    H2 8211   2.772   1.431   3.203
 2776TIP3   OH2 8212   2.922   1.495   4.056
 2776TIP3    H1 8213   2.925   1.574   4.114
 2776TIP3    H2 8214   2.832   1.506   4.018
 2777TIP3   OH2 8215   1.926   1.452   3.569
 2777TIP3    H1 8216   1.888   1.393   3.501
 2777TIP3    H2 8217   2.002   1.399   3.601
 2778TIP3   OH2 8218   2.115   1.484   3.924
 2778TIP3    H1 8219   2.114   1.419   3.850
 2778TIP3    H2 8220   2.049   1.548   3.895
 2779TIP3   OH2 8221   2.585   2.069   3.706
 2779TIP3    H1 8222   2.562   2.145   3.762
 2779TIP3    H2 8223   2.572   1.992   3.765
 2780TIP3   OH2 8224   2.189   1.982   4.242
 2780TIP3    H1 8225   2.123   2.035   4.291
 2780TIP3    H2 8226   2.131   1.929   4.183
 2781TIP3   OH2 8227   2.541   1.314   2.990
 2781TIP3    H1 8228   2.598   1.376   3.039
 2781TIP3    H2 8229   2.560   1.339   2.896
 2782TIP3   OH2 8230   1.938   1.544   4.339
 2782TIP3    H1 8231   1.954   1.629   4.385
 2782TIP3    H2 8232   1.845   1.528   4.360
 2783TIP3   OH2 8233   2.274   1.997   3.253
 2783TIP3    H1 8234   2.351   2.050   3.277
 2783TIP3    H2 8235   2.210   2.061   3.221
 2784TIP3   OH2 8236   1.992   2.154   4.345
 2784TIP3    H1 8237   1.961   2.151   4.252
 2784TIP3    H2 8238   1.911   2.130   4.394
 2785TIP3   OH2 8239   3.047   0.557   3.028
 2785TIP3    H1 8240   2.966   0.571   3.081
 2785TIP3    H2 8241   3.055   0.644   2.984
 2786TIP3   OH2 8242   1.794   1.284   3.366
 2786TIP3    H1 8243   1.727   1.349   3.335
 2786TIP3    H2 8244   1.737   1.213   3.403
 2787TIP3   OH2 8245   2.845   1.925   2.580
 2787TIP3    H1 8246   2.853   2.021   2.564
 2787TIP3    H2 8247   2.937   1.895   2.566
 2788TIP3   OH2 8248   1.571   1.680   4.283
 2788TIP3    H1 8249   1.505   1.657   4.214
 2788TIP3    H2 8250   1.607   1.592   4.309
 2789TIP3   OH2 8251   1.418   1.880   3.914
 2789TIP3    H1 8252   1.512   1.861   3.919
 2789TIP3    H2 8253   1.410   1.954   3.975
 2790TIP3   OH2 8254   3.295   2.322   3.967
 2790TIP3    H1 8255   3.290   2.226   3.985
 2790TIP3    H2 8256   3.213   2.353   4.014
 2791TIP3   OH2 8257   2.412   2.108   4.141
 2791TIP3    H1 8258   2.392   2.203   4.149
 2791TIP3    H2 8259   2.327   2.068   4.171
 2792TIP3   OH2 8260   2.152   2.246   3.056
 2792TIP3    H1 8261   2.098   2.223   2.978
 2792TIP3    H2 8262   2.116   2.333   3.081
 2793TIP3   OH2 8263   1.593   2.094   3.442
 2793TIP3    H1 8264   1.638   2.082   3.529
 2793TIP3    H2 8265   1.539   2.012   3.438
 2794TIP3   OH2 8266   2.356   2.143   2.702
 2794TIP3    H1 8267   2.413   2.074   2.662
 2794TIP3    H2 8268   2.392   2.147   2.793
 2795TIP3   OH2 8269   2.406   2.191   2.972
 2795TIP3    H1 8270   2.318   2.198   3.015
 2795TIP3    H2 8271   2.455   2.140   3.039
 2796TIP3   OH2 8272   1.755   1.888   4.292
 2796TIP3    H1 8273   1.832   1.854   4.341
 2796TIP3    H2 8274   1.702   1.808   4.281
 2797TIP3   OH2 8275   2.169   0.687   4.059
 2797TIP3    H1 8276   2.080   0.657   4.032
 2797TIP3    H2 8277   2.145   0.772   4.100
 2798TIP3   OH2 8278   2.705   0.809   4.247
 2798TIP3    H1 8279   2.772   0.779   4.311
 2798TIP3    H2 8280   2.621   0.785   4.290
 2799TIP3   OH2 8281   2.966   1.261   4.186
 2799TIP3    H1 8282   2.905   1.235   4.260
 2799TIP3    H2 8283   2.907   1.323   4.136
 2800TIP3   OH2 8284   2.614   1.371   2.729
 2800TIP3    H1 8285   2.582   1.350   2.640
 2800TIP3    H2 8286   2.697   1.418   2.709
 2801TIP3   OH2 8287   2.107   1.217   4.075
 2801TIP3    H1 8288   2.049   1.228   4.154
 2801TIP3    H2 8289   2.094   1.301   4.029
 2802TIP3   OH2 8290   1.986   1.094   3.595
 2802TIP3    H1 8291   1.891   1.071   3.599
 2802TIP3    H2 8292   2.009   1.058   3.506
 2803TIP3   OH2 8293   2.473   1.174   3.302
 2803TIP3    H1 8294   2.424   1.251   3.266
 2803TIP3    H2 8295   2.531   1.149   3.228
 2804TIP3   OH2 8296   2.655   1.457   4.405
 2804TIP3    H1 8297   2.637   1.383   4.467
 2804TIP3    H2 8298   2.750   1.471   4.421
 2805TIP3   OH2 8299   1.938   1.237   4.290
 2805TIP3    H1 8300   1.931   1.305   4.359
 2805TIP3    H2 8301   1.917   1.155   4.339
 2806TIP3   OH2 8302   2.653   1.459   3.986
 2806TIP3    H1 8303   2.686   1.388   3.927
 2806TIP3    H2 8304   2.611   1.407   4.058
 2807TIP3   OH2 8305   2.311   0.911   3.651
 2807TIP3    H1 8306   2.244   0.907   3.721
 2807TIP3    H2 8307   2.391   0.940   3.698
 2808TIP3   OH2 8308   1.745   0.961   3.669
 2808TIP3    H1 8309   1.658   0.961   3.625
 2808TIP3    H2 8310   1.782   0.878   3.637
 2809TIP3   OH2 8311   2.049   0.992   3.356
 2809TIP3    H1 8312   2.147   0.983   3.352
 2809TIP3    H2 8313   2.026   1.008   3.264
 2810TIP3   OH2 8314   2.975   2.679   4.070
 2810TIP3    H1 8315   2.977   2.702   3.975
 2810TIP3    H2 8316   3.055   2.724   4.103
 2811TIP3   OH2 8317   1.939   1.785   4.493
 2811TIP3    H1 8318   2.016   1.817   4.543
 2811TIP3    H2 8319   1.870   1.786   4.562
 2812TIP3   OH2 8320   2.406   1.238   3.749
 2812TIP3    H1 8321   2.465   1.181   3.694
 2812TIP3    H2 8322   2.415   1.191   3.833
 2813TIP3   OH2 8323   1.951   0.706   3.636
 2813TIP3    H1 8324   1.969   0.614   3.659
 2813TIP3    H2 8325   2.011   0.718   3.561
 2814TIP3   OH2 8326   2.373   1.127   4.046
 2814TIP3    H1 8327   2.284   1.169   4.050
 2814TIP3    H2 8328   2.431   1.192   4.089
 2815TIP3   OH2 8329   2.103   1.556   3.130
 2815TIP3    H1 8330   2.061   1.467   3.132
 2815TIP3    H2 8331   2.096   1.581   3.225
 2816TIP3   OH2 8332   3.016   1.761   3.762
 2816TIP3    H1 8333   3.037   1.810   3.680
 2816TIP3    H2 8334   2.929   1.722   3.742
 2817TIP3   OH2 8335   2.558   0.837   2.991
 2817TIP3    H1 8336   2.463   0.852   2.996
 2817TIP3    H2 8337   2.593   0.928   2.999
 2818TIP3   OH2 8338   2.513   1.844   4.138
 2818TIP3    H1 8339   2.531   1.825   4.231
 2818TIP3    H2 8340   2.467   1.930   4.141
 2819TIP3   OH2 8341   2.649   1.077   3.095
 2819TIP3    H1 8342   2.743   1.091   3.118
 2819TIP3    H2 8343   2.628   1.153   3.038
 2820TIP3   OH2 8344   1.779   1.519   3.804
 2820TIP3    H1 8345   1.834   1.512   3.724
 2820TIP3    H2 8346   1.828   1.470   3.872
 2821TIP3   OH2 8347   2.266   1.692   2.963
 2821TIP3    H1 8348   2.215   1.775   2.974
 2821TIP3    H2 8349   2.211   1.630   3.017
 2822TIP3   OH2 8350   1.686   1.466   4.420
 2822TIP3    H1 8351   1.703   1.454   4.516
 2822TIP3    H2 8352   1.613   1.403   4.405
 2823TIP3   OH2 8353   2.413   1.585   4.440
 2823TIP3    H1 8354   2.364   1.506   4.414
 2823TIP3    H2 8355   2.504   1.560   4.413
 2824TIP3   OH2 8356   3.088   1.175   2.935
 2824TIP3    H1 8357   3.022   1.131   2.877
 2824TIP3    H2 8358   3.083   1.264   2.895
 2825TIP3   OH2 8359   3.297   2.035   4.021
 2825TIP3    H1 8360   3.200   2.029   4.008
 2825TIP3    H2 8361   3.326   2.004   3.932
 2826TIP3   OH2 8362   2.781   1.996   2.844
 2826TIP3    H1 8363   2.758   1.924   2.904
 2826TIP3    H2 8364   2.794   1.950   2.759
 2827TIP3   OH2 8365   2.781   1.625   3.683
 2827TIP3    H1 8366   2.688   1.596   3.696
 2827TIP3    H2 8367   2.815   1.546   3.636
 2828TIP3   OH2 8368   1.899   1.863   3.434
 2828TIP3    H1 8369   1.896   1.939   3.373
 2828TIP3    H2 8370   1.808   1.830   3.429
 2829TIP3   OH2 8371   2.048   1.628   3.385
 2829TIP3    H1 8372   2.014   1.716   3.409
 2829TIP3    H2 8373   2.012   1.573   3.457
 2830TIP3   OH2 8374   2.171   2.201   3.886
 2830TIP3    H1 8375   2.221   2.275   3.846
 2830TIP3    H2 8376   2.239   2.157   3.939
 2831TIP3   OH2 8377   1.823   2.095   3.283
 2831TIP3    H1 8378   1.737   2.100   3.330
 2831TIP3    H2 8379   1.851   2.189   3.287
 2832TIP3   OH2 8380   2.577   1.840   3.866
 2832TIP3    H1 8381   2.561   1.825   3.961
 2832TIP3    H2 8382   2.654   1.784   3.850
 2833TIP3   OH2 8383   2.538   1.727   2.744
 2833TIP3    H1 8384   2.590   1.702   2.824
 2833TIP3    H2 8385   2.451   1.691   2.770
 2834TIP3   OH2 8386   2.878   2.200   2.564
 2834TIP3    H1 8387   2.918   2.272   2.512
 2834TIP3    H2 8388   2.797   2.247   2.595
 2835TIP3   OH2 8389   1.896   0.979   4.433
 2835TIP3    H1 8390   1.799   0.981   4.443
 2835TIP3    H2 8391   1.921   0.913   4.500
 2836TIP3   OH2 8392   2.698   1.664   2.961
 2836TIP3    H1 8393   2.685   1.597   3.032
 2836TIP3    H2 8394   2.795   1.657   2.949
 2837TIP3   OH2 8395   1.621   2.057   4.064
 2837TIP3    H1 8396   1.675   1.983   4.097
 2837TIP3    H2 8397   1.650   2.124   4.127
 2838TIP3   OH2 8398   1.892   1.718   2.746
 2838TIP3    H1 8399   1.924   1.637   2.704
 2838TIP3    H2 8400   1.889   1.694   2.841
 2839TIP3   OH2 8401   1.861   1.708   3.018
 2839TIP3    H1 8402   1.932   1.671   3.073
 2839TIP3    H2 8403   1.871   1.805   3.032
 2840TIP3   OH2 8404   1.610   1.440   3.247
 2840TIP3    H1 8405   1.529   1.456   3.298
 2840TIP3    H2 8406   1.591   1.494   3.169
 2841TIP3   OH2 8407   2.717   1.072   4.136
 2841TIP3    H1 8408   2.812   1.072   4.150
 2841TIP3    H2 8409   2.695   0.979   4.159
 2842TIP3   OH2 8410   2.619   0.802   3.269
 2842TIP3    H1 8411   2.599   0.819   3.175
 2842TIP3    H2 8412   2.647   0.890   3.298
 2843TIP3   OH2 8413   2.114   1.915   2.968
 2843TIP3    H1 8414   2.026   1.942   3.000
 2843TIP3    H2 8415   2.128   1.975   2.895
 2844TIP3   OH2 8416   2.318   0.969   3.381
 2844TIP3    H1 8417   2.381   1.043   3.361
 2844TIP3    H2 8418   2.327   0.962   3.479
 2845TIP3   OH2 8419   2.560   1.293   4.189
 2845TIP3    H1 8420   2.598   1.340   4.266
 2845TIP3    H2 8421   2.616   1.213   4.184
 2846TIP3   OH2 8422   2.461   0.701   3.483
 2846TIP3    H1 8423   2.458   0.776   3.545
 2846TIP3    H2 8424   2.518   0.739   3.412
 2847TIP3   OH2 8425   1.857   1.985   3.032
 2847TIP3    H1 8426   1.826   2.056   2.972
 2847TIP3    H2 8427   1.839   2.025   3.120
 2848TIP3   OH2 8428   3.221   1.212   4.167
 2848TIP3    H1 8429   3.135   1.179   4.186
 2848TIP3    H2 8430   3.248   1.152   4.093
 2849TIP3   OH2 8431   2.862   1.381   3.555
 2849TIP3    H1 8432   2.791   1.316   3.565
 2849TIP3    H2 8433   2.936   1.337   3.603
 2850TIP3   OH2 8434   1.591   1.667   3.056
 2850TIP3    H1 8435   1.680   1.707   3.050
 2850TIP3    H2 8436   1.598   1.597   2.991
 2851TIP3   OH2 8437   2.832   2.342   3.508
 2851TIP3    H1 8438   2.789   2.390   3.433
 2851TIP3    H2 8439   2.926   2.362   3.487
 2852TIP3   OH2 8440   1.904   0.602   4.030
 2852TIP3    H1 8441   1.878   0.549   3.953
 2852TIP3    H2 8442   1.901   0.533   4.100
 2853TIP3   OH2 8443   1.457   1.845   3.414
 2853TIP3    H1 8444   1.375   1.864   3.462
 2853TIP3    H2 8445   1.431   1.871   3.323
 2854TIP3   OH2 8446   1.602   2.367   4.482
 2854TIP3    H1 8447   1.689   2.361   4.528
 2854TIP3    H2 8448   1.578   2.272   4.480
 2855TIP3   OH2 8449   2.092   2.342   4.519
 2855TIP3    H1 8450   2.181   2.307   4.535
 2855TIP3    H2 8451   2.060   2.278   4.452
 2856TIP3   OH2 8452   2.076   1.912   2.671
 2856TIP3    H1 8453   2.018   1.842   2.707
 2856TIP3    H2 8454   2.154   1.859   2.643
 2857TIP3   OH2 8455   2.508   1.956   2.571
 2857TIP3    H1 8456   2.548   1.888   2.628
 2857TIP3    H2 8457   2.564   1.953   2.491
 2858TIP3   OH2 8458   1.736   1.776   4.684
 2858TIP3    H1 8459   1.753   1.680   4.686
 2858TIP3    H2 8460   1.648   1.779   4.640
 2859TIP3   OH2 8461   2.343   1.865   4.454
 2859TIP3    H1 8462   2.292   1.879   4.371
 2859TIP3    H2 8463   2.371   1.772   4.447
 2860TIP3   OH2 8464   2.232   1.646   2.699
 2860TIP3    H1 8465   2.243   1.662   2.795
 2860TIP3    H2 8466   2.232   1.548   2.702
 2861TIP3   OH2 8467   2.838   1.833   4.035
 2861TIP3    H1 8468   2.912   1.895   4.025
 2861TIP3    H2 8469   2.773   1.889   4.079
 2862TIP3   OH2 8470   1.853   1.509   4.667
 2862TIP3    H1 8471   1.924   1.448   4.649
 2862TIP3    H2 8472   1.878   1.542   4.756
 2863TIP3   OH2 8473   1.997   1.311   3.154
 2863TIP3    H1 8474   1.941   1.289   3.230
 2863TIP3    H2 8475   1.967   1.248   3.087
 2864TIP3   OH2 8476   2.703   1.806   4.454
 2864TIP3    H1 8477   2.793   1.803   4.420
 2864TIP3    H2 8478   2.706   1.740   4.525
 2865TIP3   OH2 8479   2.849   1.467   2.611
 2865TIP3    H1 8480   2.826   1.417   2.530
 2865TIP3    H2 8481   2.815   1.555   2.586
 2866TIP3   OH2 8482   2.308   1.176   4.451
 2866TIP3    H1 8483   2.321   1.086   4.417
 2866TIP3    H2 8484   2.264   1.215   4.375
 2867TIP3   OH2 8485   2.314   0.966   4.265
 2867TIP3    H1 8486   2.343   1.004   4.180
 2867TIP3    H2 8487   2.221   0.942   4.245
 2868TIP3   OH2 8488   2.921   1.471   4.508
 2868TIP3    H1 8489   2.969   1.392   4.537
 2868TIP3    H2 8490   2.977   1.541   4.545
 2869TIP3   OH2 8491   2.977   1.693   4.236
 2869TIP3    H1 8492   2.917   1.763   4.201
 2869TIP3    H2 8493   3.063   1.731   4.213
 2870TIP3   OH2 8494   2.190   1.294   4.678
 2870TIP3    H1 8495   2.119   1.229   4.698
 2870TIP3    H2 8496   2.226   1.259   4.595
 2871TIP3   OH2 8497   2.448   0.734   4.330
 2871TIP3    H1 8498   2.399   0.815   4.305
 2871TIP3    H2 8499   2.380   0.665   4.315
 2872TIP3   OH2 8500   2.572   1.238   4.546
 2872TIP3    H1 8501   2.562   1.226   4.642
 2872TIP3    H2 8502   2.483   1.210   4.516
 2873TIP3   OH2 8503   2.817   1.187   4.402
 2873TIP3    H1 8504   2.737   1.185   4.458
 2873TIP3    H2 8505   2.886   1.158   4.465
 2874TIP3   OH2 8506   3.050   1.133   4.559
 2874TIP3    H1 8507   3.056   1.036   4.577
 2874TIP3    H2 8508   3.040   1.171   4.649
 2875TIP3   OH2 8509   2.031   1.076   4.737
 2875TIP3    H1 8510   2.034   0.985   4.701
 2875TIP3    H2 8511   2.065   1.061   4.827
 2876TIP3   OH2 8512   2.542   0.742   4.587
 2876TIP3    H1 8513   2.609   0.671   4.579
 2876TIP3    H2 8514   2.502   0.738   4.498
 2877TIP3   OH2 8515   2.608   0.956   4.746
 2877TIP3    H1 8516   2.586   0.885   4.682
 2877TIP3    H2 8517   2.530   1.014   4.740
 2878TIP3   OH2 8518   1.829   2.188   2.850
 2878TIP3    H1 8519   1.920   2.187   2.815
 2878TIP3    H2 8520   1.779   2.220   2.774
 2879TIP3   OH2 8521   1.215   2.178   3.476
 2879TIP3    H1 8522   1.153   2.113   3.438
 2879TIP3    H2 8523   1.263   2.123   3.541
 2880TIP3   OH2 8524   1.354   2.037   3.664
 2880TIP3    H1 8525   1.348   1.958   3.722
 2880TIP3    H2 8526   1.405   2.096   3.723
 2881TIP3   OH2 8527   3.082   2.438   3.460
 2881TIP3    H1 8528   3.114   2.469   3.546
 2881TIP3    H2 8529   3.150   2.473   3.400
 2882TIP3   OH2 8530   3.116   2.453   3.743
 2882TIP3    H1 8531   3.075   2.364   3.738
 2882TIP3    H2 8532   3.191   2.432   3.801
 2883TIP3   OH2 8533   2.977   1.643   2.937
 2883TIP3    H1 8534   3.048   1.704   2.910
 2883TIP3    H2 8535   3.017   1.602   3.017
 2884TIP3   OH2 8536   3.104   1.510   3.140
 2884TIP3    H1 8537   3.038   1.463   3.197
 2884TIP3    H2 8538   3.166   1.547   3.206
 2885TIP3   OH2 8539   3.159   1.902   3.571
 2885TIP3    H1 8540   3.212   1.836   3.522
 2885TIP3    H2 8541   3.150   1.974   3.506
 2886TIP3   OH2 8542   2.986   2.203   3.762
 2886TIP3    H1 8543   2.902   2.241   3.790
 2886TIP3    H2 8544   2.954   2.145   3.689
 2887TIP3   OH2 8545   3.047   1.417   2.791
 2887TIP3    H1 8546   2.974   1.422   2.725
 2887TIP3    H2 8547   3.021   1.491   2.849
 2888TIP3   OH2 8548   2.916   1.091   2.744
 2888TIP3    H1 8549   2.896   1.129   2.658
 2888TIP3    H2 8550   2.887   0.998   2.734
 2889TIP3   OH2 8551   2.922   1.362   3.285
 2889TIP3    H1 8552   2.920   1.265   3.272
 2889TIP3    H2 8553   2.904   1.371   3.381
 2890TIP3   OH2 8554   1.548   1.436   4.032
 2890TIP3    H1 8555   1.541   1.408   3.938
 2890TIP3    H2 8556   1.646   1.439   4.042
 2891TIP3   OH2 8557   3.228   1.767   4.139
 2891TIP3    H1 8558   3.314   1.743   4.103
 2891TIP3    H2 8559   3.211   1.851   4.092
 2892TIP3   OH2 8560   2.857   0.824   2.737
 2892TIP3    H1 8561   2.941   0.801   2.781
 2892TIP3    H2 8562   2.792   0.780   2.792
 2893TIP3   OH2 8563   2.920   1.090   3.171
 2893TIP3    H1 8564   2.950   1.002   3.201
 2893TIP3    H2 8565   2.985   1.109   3.101
 2894TIP3   OH2 8566   3.076   1.264   3.679
 2894TIP3    H1 8567   3.163   1.285   3.638
 2894TIP3    H2 8568   3.093   1.289   3.770
 2895TIP3   OH2 8569   3.160   1.423   3.956
 2895TIP3    H1 8570   3.064   1.447   3.959
 2895TIP3    H2 8571   3.189   1.483   3.884
 2896TIP3   OH2 8572   1.764   1.128   4.713
 2896TIP3    H1 8573   1.861   1.119   4.710
 2896TIP3    H2 8574   1.739   1.042   4.752
 2897TIP3   OH2 8575   3.597   0.984   4.468
 2897TIP3    H1 8576   3.656   0.919   4.424
 2897TIP3    H2 8577   3.572   1.042   4.393
 2898TIP3   OH2 8578   3.027   0.831   3.217
 2898TIP3    H1 8579   3.069   0.817   3.304
 2898TIP3    H2 8580   2.963   0.756   3.216
 2899TIP3   OH2 8581   1.726   0.819   4.067
 2899TIP3    H1 8582   1.784   0.742   4.055
 2899TIP3    H2 8583   1.784   0.891   4.040
 2900TIP3   OH2 8584   1.532   1.096   4.115
 2900TIP3    H1 8585   1.581   1.080   4.031
 2900TIP3    H2 8586   1.560   1.186   4.135
 2901TIP3   OH2 8587   3.471   1.123   4.276
 2901TIP3    H1 8588   3.385   1.161   4.300
 2901TIP3    H2 8589   3.445   1.052   4.213
 2902TIP3   OH2 8590   3.106   0.774   2.849
 2902TIP3    H1 8591   3.151   0.700   2.802
 2902TIP3    H2 8592   3.175   0.844   2.848
 2903TIP3   OH2 8593   2.665   2.305   3.117
 2903TIP3    H1 8594   2.716   2.282   3.036
 2903TIP3    H2 8595   2.728   2.360   3.164
 2904TIP3   OH2 8596   1.733   0.680   4.431
 2904TIP3    H1 8597   1.679   0.671   4.511
 2904TIP3    H2 8598   1.667   0.715   4.368
 2905TIP3   OH2 8599   1.769   2.114   4.514
 2905TIP3    H1 8600   1.689   2.070   4.479
 2905TIP3    H2 8601   1.774   2.078   4.603
 2906TIP3   OH2 8602   1.939   2.150   4.076
 2906TIP3    H1 8603   1.913   2.223   4.017
 2906TIP3    H2 8604   2.008   2.106   4.023
 2907TIP3   OH2 8605   2.392   2.382   4.192
 2907TIP3    H1 8606   2.435   2.378   4.280
 2907TIP3    H2 8607   2.459   2.433   4.141
 2908TIP3   OH2 8608   2.571   2.529   4.048
 2908TIP3    H1 8609   2.628   2.503   3.974
 2908TIP3    H2 8610   2.633   2.580   4.105
 2909TIP3   OH2 8611   3.363   0.892   4.149
 2909TIP3    H1 8612   3.273   0.880   4.112
 2909TIP3    H2 8613   3.399   0.802   4.138
 2910TIP3   OH2 8614   1.626   2.400   4.068
 2910TIP3    H1 8615   1.536   2.433   4.051
 2910TIP3    H2 8616   1.630   2.407   4.164
 2911TIP3   OH2 8617   1.864   2.379   3.931
 2911TIP3    H1 8618   1.778   2.386   3.978
 2911TIP3    H2 8619   1.838   2.404   3.840
 2912TIP3   OH2 8620   2.291   2.405   3.726
 2912TIP3    H1 8621   2.217   2.421   3.664
 2912TIP3    H2 8622   2.300   2.493   3.769
 2913TIP3   OH2 8623   2.555   2.343   3.792
 2913TIP3    H1 8624   2.466   2.364   3.760
 2913TIP3    H2 8625   2.611   2.409   3.746
 2914TIP3   OH2 8626   2.755   2.535   3.699
 2914TIP3    H1 8627   2.747   2.618   3.647
 2914TIP3    H2 8628   2.788   2.472   3.632
 2915TIP3   OH2 8629   1.538   2.187   3.824
 2915TIP3    H1 8630   1.565   2.158   3.914
 2915TIP3    H2 8631   1.609   2.142   3.772
 2916TIP3   OH2 8632   1.733   2.059   3.677
 2916TIP3    H1 8633   1.757   1.968   3.700
 2916TIP3    H2 8634   1.821   2.102   3.673
 2917TIP3   OH2 8635   1.995   2.156   3.679
 2917TIP3    H1 8636   2.037   2.074   3.650
 2917TIP3    H2 8637   2.043   2.173   3.763
 2918TIP3   OH2 8638   3.111   0.694   3.681
 2918TIP3    H1 8639   3.138   0.749   3.604
 2918TIP3    H2 8640   3.013   0.698   3.671
 2919TIP3   OH2 8641   3.195   0.784   3.432
 2919TIP3    H1 8642   3.271   0.741   3.388
 2919TIP3    H2 8643   3.219   0.879   3.425
 2920TIP3   OH2 8644   2.246   0.577   3.656
 2920TIP3    H1 8645   2.315   0.619   3.602
 2920TIP3    H2 8646   2.288   0.578   3.743
 2921TIP3   OH2 8647   2.844   0.680   3.648
 2921TIP3    H1 8648   2.778   0.701   3.582
 2921TIP3    H2 8649   2.799   0.611   3.701
 2922TIP3   OH2 8650   2.846   0.615   3.206
 2922TIP3    H1 8651   2.758   0.657   3.213
 2922TIP3    H2 8652   2.828   0.530   3.253
 2923TIP3   OH2 8653   1.311   1.954   3.209
 2923TIP3    H1 8654   1.234   1.912   3.167
 2923TIP3    H2 8655   1.300   2.046   3.178
 2924TIP3   OH2 8656   2.235   0.723   3.312
 2924TIP3    H1 8657   2.300   0.676   3.367
 2924TIP3    H2 8658   2.271   0.814   3.322
 2925TIP3   OH2 8659   2.092   2.161   2.774
 2925TIP3    H1 8660   2.187   2.168   2.752
 2925TIP3    H2 8661   2.074   2.076   2.727
 2926TIP3   OH2 8662   2.813   2.262   2.887
 2926TIP3    H1 8663   2.806   2.164   2.874
 2926TIP3    H2 8664   2.773   2.294   2.803
 2927TIP3   OH2 8665   2.027   0.802   4.679
 2927TIP3    H1 8666   1.995   0.728   4.733
 2927TIP3    H2 8667   2.123   0.800   4.703
 2928TIP3   OH2 8668   2.278   0.796   4.795
 2928TIP3    H1 8669   2.361   0.768   4.753
 2928TIP3    H2 8670   2.264   0.725   4.860
 2929TIP3   OH2 8671   1.424   2.019   2.868
 2929TIP3    H1 8672   1.391   2.010   2.958
 2929TIP3    H2 8673   1.490   1.948   2.861
 2930TIP3   OH2 8674   3.102   0.858   4.583
 2930TIP3    H1 8675   3.125   0.828   4.673
 2930TIP3    H2 8676   3.189   0.855   4.537
 2931TIP3   OH2 8677   3.059   2.417   4.063
 2931TIP3    H1 8678   2.977   2.366   4.052
 2931TIP3    H2 8679   3.026   2.509   4.071
 2932TIP3   OH2 8680   4.305   1.774   2.849
 2932TIP3    H1 8681   4.287   1.865   2.822
 2932TIP3    H2 8682   4.252   1.724   2.784
 2933TIP3   OH2 8683   4.303   1.783   3.223
 2933TIP3    H1 8684   4.336   1.748   3.308
 2933TIP3    H2 8685   4.265   1.703   3.182
 2934TIP3   OH2 8686   3.606   1.681   3.594
 2934TIP3    H1 8687   3.640   1.610   3.652
 2934TIP3    H2 8688   3.688   1.725   3.567
 2935TIP3   OH2 8689   4.545   2.086   2.900
 2935TIP3    H1 8690   4.536   2.012   2.961
 2935TIP3    H2 8691   4.578   2.157   2.959
 2936TIP3   OH2 8692   3.577   2.085   3.313
 2936TIP3    H1 8693   3.568   1.988   3.315
 2936TIP3    H2 8694   3.673   2.094   3.306
 2937TIP3   OH2 8695   3.285   1.294   3.099
 2937TIP3    H1 8696   3.231   1.375   3.110
 2937TIP3    H2 8697   3.217   1.233   3.065
 2938TIP3   OH2 8698   3.345   1.578   3.269
 2938TIP3    H1 8699   3.392   1.499   3.305
 2938TIP3    H2 8700   3.399   1.598   3.192
 2939TIP3   OH2 8701   4.198   2.543   2.917
 2939TIP3    H1 8702   4.245   2.471   2.870
 2939TIP3    H2 8703   4.194   2.507   3.007
 2940TIP3   OH2 8704   4.105   2.006   3.270
 2940TIP3    H1 8705   4.142   1.928   3.224
 2940TIP3    H2 8706   4.189   2.050   3.293
 2941TIP3   OH2 8707   5.117   1.326   3.266
 2941TIP3    H1 8708   5.146   1.409   3.309
 2941TIP3    H2 8709   5.140   1.344   3.174
 2942TIP3   OH2 8710   4.518   1.508   3.305
 2942TIP3    H1 8711   4.561   1.422   3.323
 2942TIP3    H2 8712   4.487   1.493   3.214
 2943TIP3   OH2 8713   3.850   1.169   3.270
 2943TIP3    H1 8714   3.834   1.241   3.204
 2943TIP3    H2 8715   3.805   1.095   3.224
 2944TIP3   OH2 8716   4.546   1.263   2.892
 2944TIP3    H1 8717   4.620   1.246   2.954
 2944TIP3    H2 8718   4.597   1.294   2.814
 2945TIP3   OH2 8719   3.488   1.369   3.375
 2945TIP3    H1 8720   3.571   1.347   3.421
 2945TIP3    H2 8721   3.498   1.314   3.295
 2946TIP3   OH2 8722   3.928   1.567   3.170
 2946TIP3    H1 8723   4.022   1.543   3.180
 2946TIP3    H2 8724   3.890   1.484   3.135
 2947TIP3   OH2 8725   5.191   1.533   3.437
 2947TIP3    H1 8726   5.108   1.581   3.418
 2947TIP3    H2 8727   5.207   1.560   3.529
 2948TIP3   OH2 8728   3.852   1.151   3.701
 2948TIP3    H1 8729   3.792   1.186   3.633
 2948TIP3    H2 8730   3.800   1.169   3.782
 2949TIP3   OH2 8731   4.220   2.014   2.696
 2949TIP3    H1 8732   4.159   1.967   2.637
 2949TIP3    H2 8733   4.163   2.087   2.727
 2950TIP3   OH2 8734   3.958   1.925   3.498
 2950TIP3    H1 8735   3.895   1.991   3.534
 2950TIP3    H2 8736   4.001   1.976   3.426
 2951TIP3   OH2 8737   4.760   1.259   3.061
 2951TIP3    H1 8738   4.753   1.208   3.142
 2951TIP3    H2 8739   4.815   1.335   3.088
 2952TIP3   OH2 8740   3.721   1.266   3.488
 2952TIP3    H1 8741   3.785   1.338   3.508
 2952TIP3    H2 8742   3.768   1.224   3.411
 2953TIP3   OH2 8743   3.785   2.119   3.594
 2953TIP3    H1 8744   3.760   2.204   3.554
 2953TIP3    H2 8745   3.707   2.104   3.652
 2954TIP3   OH2 8746   3.183   1.809   2.831
 2954TIP3    H1 8747   3.140   1.833   2.747
 2954TIP3    H2 8748   3.212   1.895   2.866
 2955TIP3   OH2 8749   4.620   2.324   3.071
 2955TIP3    H1 8750   4.530   2.316   3.110
 2955TIP3    H2 8751   4.613   2.411   3.026
 2956TIP3   OH2 8752   4.911   1.227   3.434
 2956TIP3    H1 8753   4.823   1.255   3.403
 2956TIP3    H2 8754   4.969   1.257   3.361
 2957TIP3   OH2 8755   4.211   0.871   3.417
 2957TIP3    H1 8756   4.197   0.775   3.431
 2957TIP3    H2 8757   4.132   0.907   3.462
 2958TIP3   OH2 8758   4.325   2.370   2.743
 2958TIP3    H1 8759   4.378   2.291   2.725
 2958TIP3    H2 8760   4.382   2.439   2.702
 2959TIP3   OH2 8761   4.465   2.142   2.643
 2959TIP3    H1 8762   4.383   2.090   2.649
 2959TIP3    H2 8763   4.506   2.121   2.731
 2960TIP3   OH2 8764   4.846   2.239   3.414
 2960TIP3    H1 8765   4.836   2.161   3.355
 2960TIP3    H2 8766   4.831   2.313   3.352
 2961TIP3   OH2 8767   4.158   1.666   2.632
 2961TIP3    H1 8768   4.069   1.694   2.657
 2961TIP3    H2 8769   4.138   1.603   2.562
 2962TIP3   OH2 8770   4.108   1.426   2.410
 2962TIP3    H1 8771   4.113   1.383   2.499
 2962TIP3    H2 8772   4.157   1.360   2.357
 2963TIP3   OH2 8773   5.042   1.875   3.259
 2963TIP3    H1 8774   4.959   1.927   3.264
 2963TIP3    H2 8775   5.071   1.897   3.168
 2964TIP3   OH2 8776   4.721   1.754   3.554
 2964TIP3    H1 8777   4.717   1.839   3.602
 2964TIP3    H2 8778   4.634   1.757   3.507
 2965TIP3   OH2 8779   3.718   1.714   3.059
 2965TIP3    H1 8780   3.675   1.655   2.993
 2965TIP3    H2 8781   3.794   1.659   3.088
 2966TIP3   OH2 8782   3.847   2.124   3.208
 2966TIP3    H1 8783   3.826   2.079   3.125
 2966TIP3    H2 8784   3.937   2.091   3.227
 2967TIP3   OH2 8785   3.850   1.684   3.416
 2967TIP3    H1 8786   3.883   1.660   3.327
 2967TIP3    H2 8787   3.896   1.769   3.434
 2968TIP3   OH2 8788   4.378   2.322   3.190
 2968TIP3    H1 8789   4.365   2.401   3.246
 2968TIP3    H2 8790   4.366   2.248   3.253
 2969TIP3   OH2 8791   3.991   2.241   3.738
 2969TIP3    H1 8792   3.932   2.303   3.784
 2969TIP3    H2 8793   3.925   2.187   3.689
 2970TIP3   OH2 8794   3.747   1.797   3.845
 2970TIP3    H1 8795   3.751   1.884   3.888
 2970TIP3    H2 8796   3.652   1.789   3.828
 2971TIP3   OH2 8797   4.069   2.252   2.746
 2971TIP3    H1 8798   4.147   2.307   2.764
 2971TIP3    H2 8799   4.007   2.315   2.706
 2972TIP3   OH2 8800   3.786   2.410   3.824
 2972TIP3    H1 8801   3.751   2.406   3.733
 2972TIP3    H2 8802   3.707   2.388   3.878
 2973TIP3   OH2 8803   4.841   0.814   2.516
 2973TIP3    H1 8804   4.761   0.833   2.569
 2973TIP3    H2 8805   4.853   0.898   2.467
 2974TIP3   OH2 8806   3.582   1.557   2.868
 2974TIP3    H1 8807   3.517   1.599   2.808
 2974TIP3    H2 8808   3.546   1.469   2.877
 2975TIP3   OH2 8809   4.641   2.181   2.067
 2975TIP3    H1 8810   4.649   2.278   2.051
 2975TIP3    H2 8811   4.733   2.152   2.052
 2976TIP3   OH2 8812   3.364   1.943   3.772
 2976TIP3    H1 8813   3.298   1.920   3.703
 2976TIP3    H2 8814   3.393   1.855   3.804
 2977TIP3   OH2 8815   3.220   2.133   3.404
 2977TIP3    H1 8816   3.315   2.120   3.392
 2977TIP3    H2 8817   3.217   2.212   3.460
 2978TIP3   OH2 8818   5.083   2.582   3.459
 2978TIP3    H1 8819   5.083   2.485   3.472
 2978TIP3    H2 8820   5.000   2.607   3.505
 2979TIP3   OH2 8821   4.190   2.370   3.594
 2979TIP3    H1 8822   4.189   2.463   3.627
 2979TIP3    H2 8823   4.119   2.331   3.649
 2980TIP3   OH2 8824   3.948   2.498   2.547
 2980TIP3    H1 8825   3.904   2.478   2.462
 2980TIP3    H2 8826   3.917   2.588   2.567
 2981TIP3   OH2 8827   3.387   2.348   2.930
 2981TIP3    H1 8828   3.435   2.338   3.015
 2981TIP3    H2 8829   3.333   2.267   2.930
 2982TIP3   OH2 8830   4.152   2.399   2.187
 2982TIP3    H1 8831   4.210   2.329   2.150
 2982TIP3    H2 8832   4.187   2.408   2.278
 2983TIP3   OH2 8833   4.201   2.448   2.458
 2983TIP3    H1 8834   4.113   2.456   2.500
 2983TIP3    H2 8835   4.253   2.407   2.529
 2984TIP3   OH2 8836   4.973   1.714   3.734
 2984TIP3    H1 8837   4.894   1.727   3.680
 2984TIP3    H2 8838   4.989   1.619   3.723
 2985TIP3   OH2 8839   3.571   2.122   3.761
 2985TIP3    H1 8840   3.620   2.105   3.844
 2985TIP3    H2 8841   3.495   2.060   3.769
 2986TIP3   OH2 8842   3.969   0.945   3.543
 2986TIP3    H1 8843   3.880   0.914   3.518
 2986TIP3    H2 8844   3.945   1.028   3.587
 2987TIP3   OH2 8845   4.503   1.062   3.738
 2987TIP3    H1 8846   4.571   1.033   3.802
 2987TIP3    H2 8847   4.419   1.040   3.783
 2988TIP3   OH2 8848   4.744   1.490   3.657
 2988TIP3    H1 8849   4.695   1.487   3.742
 2988TIP3    H2 8850   4.719   1.576   3.620
 2989TIP3   OH2 8851   4.425   1.616   2.235
 2989TIP3    H1 8852   4.373   1.584   2.158
 2989TIP3    H2 8853   4.496   1.665   2.186
 2990TIP3   OH2 8854   4.125   0.985   2.498
 2990TIP3    H1 8855   4.092   1.022   2.582
 2990TIP3    H2 8856   4.074   0.902   2.492
 2991TIP3   OH2 8857   3.901   1.461   3.563
 2991TIP3    H1 8858   3.852   1.483   3.644
 2991TIP3    H2 8859   3.885   1.541   3.509
 2992TIP3   OH2 8860   3.787   1.348   3.074
 2992TIP3    H1 8861   3.694   1.318   3.087
 2992TIP3    H2 8862   3.808   1.309   2.986
 2993TIP3   OH2 8863   4.450   1.713   3.893
 2993TIP3    H1 8864   4.428   1.639   3.953
 2993TIP3    H2 8865   4.545   1.725   3.912
 2994TIP3   OH2 8866   4.433   1.465   3.047
 2994TIP3    H1 8867   4.383   1.510   2.977
 2994TIP3    H2 8868   4.462   1.384   2.999
 2995TIP3   OH2 8869   3.718   1.493   3.774
 2995TIP3    H1 8870   3.760   1.550   3.839
 2995TIP3    H2 8871   3.710   1.408   3.823
 2996TIP3   OH2 8872   3.771   0.966   2.481
 2996TIP3    H1 8873   3.765   0.965   2.579
 2996TIP3    H2 8874   3.691   1.017   2.458
 2997TIP3   OH2 8875   3.315   1.016   3.349
 2997TIP3    H1 8876   3.392   1.042   3.403
 2997TIP3    H2 8877   3.354   0.975   3.271
 2998TIP3   OH2 8878   3.289   0.993   2.871
 2998TIP3    H1 8879   3.332   1.033   2.793
 2998TIP3    H2 8880   3.227   1.065   2.894
 2999TIP3   OH2 8881   4.444   1.709   3.467
 2999TIP3    H1 8882   4.477   1.637   3.409
 2999TIP3    H2 8883   4.415   1.656   3.545
 3000TIP3   OH2 8884   4.112   1.137   3.153
 3000TIP3    H1 8885   4.027   1.155   3.197
 3000TIP3    H2 8886   4.177   1.168   3.218
 3001TIP3   OH2 8887   3.547   1.225   3.146
 3001TIP3    H1 8888   3.452   1.231   3.120
 3001TIP3    H2 8889   3.570   1.133   3.124
 3002TIP3   OH2 8890   3.837   1.235   2.827
 3002TIP3    H1 8891   3.926   1.252   2.790
 3002TIP3    H2 8892   3.780   1.250   2.748
 3003TIP3   OH2 8893   4.604   1.244   3.343
 3003TIP3    H1 8894   4.566   1.256   3.432
 3003TIP3    H2 8895   4.539   1.182   3.305
 3004TIP3   OH2 8896   3.655   1.255   2.616
 3004TIP3    H1 8897   3.584   1.210   2.568
 3004TIP3    H2 8898   3.709   1.290   2.542
 3005TIP3   OH2 8899   4.773   2.934   3.558
 3005TIP3    H1 8900   4.772   2.957   3.463
 3005TIP3    H2 8901   4.852   2.982   3.589
 3006TIP3   OH2 8902   3.732   2.042   3.981
 3006TIP3    H1 8903   3.811   2.074   4.028
 3006TIP3    H2 8904   3.666   2.045   4.053
 3007TIP3   OH2 8905   4.196   1.496   3.236
 3007TIP3    H1 8906   4.264   1.455   3.182
 3007TIP3    H2 8907   4.209   1.454   3.323
 3008TIP3   OH2 8908   3.720   0.986   3.112
 3008TIP3    H1 8909   3.687   0.905   3.156
 3008TIP3    H2 8910   3.774   0.951   3.041
 3009TIP3   OH2 8911   4.172   1.391   3.528
 3009TIP3    H1 8912   4.083   1.429   3.540
 3009TIP3    H2 8913   4.230   1.452   3.577
 3010TIP3   OH2 8914   3.902   1.790   2.621
 3010TIP3    H1 8915   3.833   1.721   2.610
 3010TIP3    H2 8916   3.885   1.820   2.713
 3011TIP3   OH2 8917   4.810   2.022   3.250
 3011TIP3    H1 8918   4.835   2.069   3.168
 3011TIP3    H2 8919   4.724   1.980   3.226
 3012TIP3   OH2 8920   4.363   1.113   2.481
 3012TIP3    H1 8921   4.272   1.077   2.492
 3012TIP3    H2 8922   4.347   1.206   2.501
 3013TIP3   OH2 8923   4.308   2.102   3.617
 3013TIP3    H1 8924   4.331   2.080   3.708
 3013TIP3    H2 8925   4.270   2.192   3.625
 3014TIP3   OH2 8926   3.602   1.808   3.296
 3014TIP3    H1 8927   3.638   1.781   3.209
 3014TIP3    H2 8928   3.642   1.742   3.354
 3015TIP3   OH2 8929   4.053   1.933   2.439
 3015TIP3    H1 8930   4.007   2.019   2.449
 3015TIP3    H2 8931   4.001   1.877   2.500
 3016TIP3   OH2 8932   3.463   1.736   3.925
 3016TIP3    H1 8933   3.521   1.711   3.999
 3016TIP3    H2 8934   3.424   1.653   3.894
 3017TIP3   OH2 8935   4.206   1.840   3.930
 3017TIP3    H1 8936   4.149   1.784   3.875
 3017TIP3    H2 8937   4.295   1.808   3.903
 3018TIP3   OH2 8938   4.469   2.364   3.512
 3018TIP3    H1 8939   4.373   2.361   3.524
 3018TIP3    H2 8940   4.496   2.415   3.591
 3019TIP3   OH2 8941   4.879   1.432   2.419
 3019TIP3    H1 8942   4.812   1.388   2.362
 3019TIP3    H2 8943   4.878   1.520   2.377
 3020TIP3   OH2 8944   5.097   2.292   3.503
 3020TIP3    H1 8945   4.999   2.286   3.494
 3020TIP3    H2 8946   5.123   2.262   3.413
 3021TIP3   OH2 8947   4.574   2.256   2.328
 3021TIP3    H1 8948   4.559   2.186   2.392
 3021TIP3    H2 8949   4.592   2.209   2.245
 3022TIP3   OH2 8950   4.575   1.883   3.170
 3022TIP3    H1 8951   4.482   1.856   3.182
 3022TIP3    H2 8952   4.610   1.804   3.124
 3023TIP3   OH2 8953   3.701   2.110   2.922
 3023TIP3    H1 8954   3.703   2.191   2.868
 3023TIP3    H2 8955   3.606   2.094   2.927
 3024TIP3   OH2 8956   3.263   1.415   2.622
 3024TIP3    H1 8957   3.312   1.497   2.643
 3024TIP3    H2 8958   3.189   1.420   2.686
 3025TIP3   OH2 8959   3.843   1.879   2.868
 3025TIP3    H1 8960   3.806   1.967   2.887
 3025TIP3    H2 8961   3.806   1.827   2.942
 3026TIP3   OH2 8962   3.971   2.454   3.391
 3026TIP3    H1 8963   4.012   2.526   3.339
 3026TIP3    H2 8964   4.048   2.420   3.439
 3027TIP3   OH2 8965   3.622   2.350   2.774
 3027TIP3    H1 8966   3.535   2.357   2.819
 3027TIP3    H2 8967   3.652   2.443   2.777
 3028TIP3   OH2 8968   4.361   2.091   3.348
 3028TIP3    H1 8969   4.352   2.087   3.446
 3028TIP3    H2 8970   4.439   2.034   3.333
 3029TIP3   OH2 8971   4.333   1.975   2.235
 3029TIP3    H1 8972   4.381   1.943   2.313
 3029TIP3    H2 8973   4.241   1.958   2.261
 3030TIP3   OH2 8974   4.608   2.624   3.401
 3030TIP3    H1 8975   4.530   2.566   3.393
 3030TIP3    H2 8976   4.593   2.688   3.328
 3031TIP3   OH2 8977   4.673   2.456   2.051
 3031TIP3    H1 8978   4.712   2.527   1.998
 3031TIP3    H2 8979   4.593   2.504   2.084
 3032TIP3   OH2 8980   3.695   1.235   3.917
 3032TIP3    H1 8981   3.598   1.233   3.926
 3032TIP3    H2 8982   3.722   1.173   3.987
 3033TIP3   OH2 8983   4.497   1.855   2.451
 3033TIP3    H1 8984   4.484   1.892   2.539
 3033TIP3    H2 8985   4.587   1.890   2.431
 3034TIP3   OH2 8986   3.407   2.319   3.551
 3034TIP3    H1 8987   3.460   2.242   3.578
 3034TIP3    H2 8988   3.441   2.385   3.613
 3035TIP3   OH2 8989   3.701   1.962   2.231
 3035TIP3    H1 8990   3.713   1.871   2.200
 3035TIP3    H2 8991   3.681   1.948   2.326
 3036TIP3   OH2 8992   3.645   1.966   2.504
 3036TIP3    H1 8993   3.718   1.937   2.561
 3036TIP3    H2 8994   3.651   2.064   2.511
 3037TIP3   OH2 8995   3.382   1.660   2.705
 3037TIP3    H1 8996   3.316   1.704   2.763
 3037TIP3    H2 8997   3.397   1.730   2.639
 3038TIP3   OH2 8998   4.525   1.302   3.602
 3038TIP3    H1 8999   4.610   1.335   3.636
 3038TIP3    H2 9000   4.513   1.219   3.653
 3039TIP3   OH2 9001   4.420   1.044   2.763
 3039TIP3    H1 9002   4.384   1.074   2.677
 3039TIP3    H2 9003   4.450   1.129   2.802
 3040TIP3   OH2 9004   3.912   2.164   2.453
 3040TIP3    H1 9005   3.825   2.193   2.488
 3040TIP3    H2 9006   3.928   2.233   2.387
 3041TIP3   OH2 9007   4.367   1.547   3.674
 3041TIP3    H1 9008   4.390   1.598   3.754
 3041TIP3    H2 9009   4.424   1.468   3.683
 3042TIP3   OH2 9010   4.241   0.962   2.968
 3042TIP3    H1 9011   4.216   1.040   3.022
 3042TIP3    H2 9012   4.306   1.000   2.906
 3043TIP3   OH2 9013   3.654   2.240   2.519
 3043TIP3    H1 9014   3.624   2.310   2.456
 3043TIP3    H2 9015   3.638   2.284   2.605
 3044TIP3   OH2 9016   3.758   0.954   2.758
 3044TIP3    H1 9017   3.755   1.045   2.792
 3044TIP3    H2 9018   3.854   0.937   2.768
 3045TIP3   OH2 9019   5.011   1.447   3.654
 3045TIP3    H1 9020   4.913   1.445   3.661
 3045TIP3    H2 9021   5.022   1.408   3.566
 3046TIP3   OH2 9022   4.660   1.643   3.042
 3046TIP3    H1 9023   4.587   1.581   3.053
 3046TIP3    H2 9024   4.734   1.596   3.086
 3047TIP3   OH2 9025   3.372   1.872   2.512
 3047TIP3    H1 9026   3.440   1.942   2.521
 3047TIP3    H2 9027   3.416   1.816   2.445
 3048TIP3   OH2 9028   3.318   1.144   2.644
 3048TIP3    H1 9029   3.314   1.241   2.640
 3048TIP3    H2 9030   3.236   1.117   2.601
 3049TIP3   OH2 9031   4.628   2.596   2.992
 3049TIP3    H1 9032   4.586   2.644   2.917
 3049TIP3    H2 9033   4.722   2.616   2.972
 3050TIP3   OH2 9034   3.704   0.866   3.520
 3050TIP3    H1 9035   3.673   0.833   3.433
 3050TIP3    H2 9036   3.694   0.786   3.576
 3051TIP3   OH2 9037   3.249   2.092   2.903
 3051TIP3    H1 9038   3.171   2.117   2.954
 3051TIP3    H2 9039   3.224   2.127   2.815
 3052TIP3   OH2 9040   3.400   2.625   3.971
 3052TIP3    H1 9041   3.486   2.625   4.019
 3052TIP3    H2 9042   3.380   2.530   3.970
 3053TIP3   OH2 9043   3.883   2.592   4.015
 3053TIP3    H1 9044   3.977   2.571   4.023
 3053TIP3    H2 9045   3.858   2.533   3.940
 3054TIP3   OH2 9046   3.864   2.167   2.146
 3054TIP3    H1 9047   3.808   2.094   2.183
 3054TIP3    H2 9048   3.938   2.115   2.110
 3055TIP3   OH2 9049   4.520   2.497   3.749
 3055TIP3    H1 9050   4.512   2.426   3.817
 3055TIP3    H2 9051   4.598   2.546   3.779
 3056TIP3   OH2 9052   4.299   2.208   2.055
 3056TIP3    H1 9053   4.351   2.148   2.111
 3056TIP3    H2 9054   4.353   2.210   1.973
 3057TIP3   OH2 9055   3.532   2.034   4.168
 3057TIP3    H1 9056   3.542   1.939   4.186
 3057TIP3    H2 9057   3.442   2.037   4.129
 3058TIP3   OH2 9058   3.508   1.684   2.365
 3058TIP3    H1 9059   3.562   1.648   2.437
 3058TIP3    H2 9060   3.576   1.688   2.293
 3059TIP3   OH2 9061   4.139   2.116   3.945
 3059TIP3    H1 9062   4.098   2.131   3.857
 3059TIP3    H2 9063   4.171   2.023   3.938
 3060TIP3   OH2 9064   4.017   1.882   2.171
 3060TIP3    H1 9065   4.017   1.895   2.268
 3060TIP3    H2 9066   4.017   1.783   2.166
 3061TIP3   OH2 9067   4.632   2.124   3.552
 3061TIP3    H1 9068   4.706   2.169   3.506
 3061TIP3    H2 9069   4.560   2.189   3.537
 3062TIP3   OH2 9070   3.631   1.742   4.157
 3062TIP3    H1 9071   3.715   1.700   4.134
 3062TIP3    H2 9072   3.656   1.785   4.242
 3063TIP3   OH2 9073   3.717   1.585   2.589
 3063TIP3    H1 9074   3.692   1.542   2.672
 3063TIP3    H2 9075   3.750   1.509   2.536
 3064TIP3   OH2 9076   3.982   1.647   3.813
 3064TIP3    H1 9077   3.908   1.711   3.820
 3064TIP3    H2 9078   4.032   1.682   3.736
 3065TIP3   OH2 9079   3.811   1.381   2.427
 3065TIP3    H1 9080   3.785   1.380   2.332
 3065TIP3    H2 9081   3.908   1.388   2.421
 3066TIP3   OH2 9082   4.501   2.052   3.949
 3066TIP3    H1 9083   4.581   2.030   3.900
 3066TIP3    H2 9084   4.500   1.984   4.018
 3067TIP3   OH2 9085   4.635   1.712   2.092
 3067TIP3    H1 9086   4.619   1.664   2.008
 3067TIP3    H2 9087   4.606   1.802   2.064
 3068TIP3   OH2 9088   4.107   1.437   3.943
 3068TIP3    H1 9089   4.109   1.357   3.887
 3068TIP3    H2 9090   4.065   1.503   3.883
 3069TIP3   OH2 9091   4.111   1.225   3.749
 3069TIP3    H1 9092   4.139   1.265   3.665
 3069TIP3    H2 9093   4.018   1.201   3.730
 3070TIP3   OH2 9094   4.138   1.762   3.624
 3070TIP3    H1 9095   4.221   1.765   3.573
 3070TIP3    H2 9096   4.084   1.829   3.578
 3071TIP3   OH2 9097   4.723   1.729   4.005
 3071TIP3    H1 9098   4.769   1.644   4.010
 3071TIP3    H2 9099   4.791   1.786   3.967
 3072TIP3   OH2 9100   4.761   1.981   3.740
 3072TIP3    H1 9101   4.704   2.034   3.680
 3072TIP3    H2 9102   4.849   2.000   3.700
 3073TIP3   OH2 9103   3.985   1.551   4.171
 3073TIP3    H1 9104   3.914   1.485   4.184
 3073TIP3    H2 9105   4.020   1.524   4.084
 3074TIP3   OH2 9106   4.243   0.990   3.816
 3074TIP3    H1 9107   4.195   1.072   3.792
 3074TIP3    H2 9108   4.174   0.922   3.802
 3075TIP3   OH2 9109   4.368   1.495   4.031
 3075TIP3    H1 9110   4.357   1.483   4.127
 3075TIP3    H2 9111   4.278   1.469   4.002
 3076TIP3   OH2 9112   4.610   1.446   3.888
 3076TIP3    H1 9113   4.533   1.444   3.947
 3076TIP3    H2 9114   4.682   1.412   3.945
 3077TIP3   OH2 9115   4.838   1.383   4.039
 3077TIP3    H1 9116   4.850   1.288   4.057
 3077TIP3    H2 9117   4.834   1.422   4.129
 3078TIP3   OH2 9118   3.815   1.336   4.223
 3078TIP3    H1 9119   3.824   1.246   4.187
 3078TIP3    H2 9120   3.852   1.323   4.313
 3079TIP3   OH2 9121   4.337   0.998   4.073
 3079TIP3    H1 9122   4.405   0.928   4.067
 3079TIP3    H2 9123   4.298   0.993   3.984
 3080TIP3   OH2 9124   4.402   1.213   4.232
 3080TIP3    H1 9125   4.380   1.142   4.167
 3080TIP3    H2 9126   4.325   1.273   4.224
 3081TIP3   OH2 9127   3.624   2.444   2.333
 3081TIP3    H1 9128   3.719   2.439   2.313
 3081TIP3    H2 9129   3.593   2.490   2.252
 3082TIP3   OH2 9130   3.104   1.825   2.549
 3082TIP3    H1 9131   3.199   1.847   2.536
 3082TIP3    H2 9132   3.100   1.736   2.509
 3083TIP3   OH2 9133   3.013   2.437   2.963
 3083TIP3    H1 9134   2.949   2.372   2.927
 3083TIP3    H2 9135   3.061   2.381   3.029
 3084TIP3   OH2 9136   3.151   2.292   3.150
 3084TIP3    H1 9137   3.144   2.214   3.208
 3084TIP3    H2 9138   3.204   2.350   3.206
 3085TIP3   OH2 9139   4.879   2.691   2.947
 3085TIP3    H1 9140   4.909   2.723   3.034
 3085TIP3    H2 9141   4.943   2.731   2.887
 3086TIP3   OH2 9142   4.911   2.709   3.231
 3086TIP3    H1 9143   4.868   2.621   3.225
 3086TIP3    H2 9144   4.987   2.687   3.286
 3087TIP3   OH2 9145   4.957   2.385   3.803
 3087TIP3    H1 9146   4.884   2.393   3.867
 3087TIP3    H2 9147   4.998   2.474   3.808
 3088TIP3   OH2 9148   4.772   1.901   2.423
 3088TIP3    H1 9149   4.841   1.964   2.394
 3088TIP3    H2 9150   4.816   1.861   2.502
 3089TIP3   OH2 9151   4.900   1.770   2.624
 3089TIP3    H1 9152   4.838   1.721   2.683
 3089TIP3    H2 9153   4.967   1.804   2.688
 3090TIP3   OH2 9154   4.953   2.156   3.058
 3090TIP3    H1 9155   5.008   2.092   3.009
 3090TIP3    H2 9156   4.947   2.231   2.995
 3091TIP3   OH2 9157   4.787   2.458   3.254
 3091TIP3    H1 9158   4.716   2.499   3.306
 3091TIP3    H2 9159   4.737   2.408   3.185
 3092TIP3   OH2 9160   4.836   1.673   2.275
 3092TIP3    H1 9161   4.767   1.680   2.205
 3092TIP3    H2 9162   4.815   1.752   2.328
 3093TIP3   OH2 9163   4.689   1.356   2.236
 3093TIP3    H1 9164   4.676   1.382   2.144
 3093TIP3    H2 9165   4.673   1.259   2.229
 3094TIP3   OH2 9166   4.727   1.617   2.770
 3094TIP3    H1 9167   4.721   1.520   2.766
 3094TIP3    H2 9168   4.699   1.637   2.861
 3095TIP3   OH2 9169   3.341   1.694   3.521
 3095TIP3    H1 9170   3.340   1.664   3.427
 3095TIP3    H2 9171   3.438   1.699   3.537
 3096TIP3   OH2 9172   5.003   2.046   3.630
 3096TIP3    H1 9173   5.076   1.980   3.622
 3096TIP3    H2 9174   5.031   2.115   3.568
 3097TIP3   OH2 9175   5.189   1.853   3.651
 3097TIP3    H1 9176   5.114   1.802   3.688
 3097TIP3    H2 9177   5.262   1.789   3.663
 3098TIP3   OH2 9178   4.654   1.086   2.218
 3098TIP3    H1 9179   4.731   1.053   2.268
 3098TIP3    H2 9180   4.583   1.025   2.243
 3099TIP3   OH2 9181   4.714   1.337   2.679
 3099TIP3    H1 9182   4.751   1.247   2.689
 3099TIP3    H2 9183   4.765   1.368   2.603
 3100TIP3   OH2 9184   4.873   1.514   3.163
 3100TIP3    H1 9185   4.959   1.540   3.123
 3100TIP3    H2 9186   4.887   1.549   3.253
 3101TIP3   OH2 9187   4.942   1.656   3.398
 3101TIP3    H1 9188   4.863   1.690   3.444
 3101TIP3    H2 9189   4.974   1.736   3.351
 3102TIP3   OH2 9190   3.534   1.374   4.177
 3102TIP3    H1 9191   3.630   1.389   4.187
 3102TIP3    H2 9192   3.524   1.296   4.235
 3103TIP3   OH2 9193   5.394   1.246   3.953
 3103TIP3    H1 9194   5.451   1.180   3.909
 3103TIP3    H2 9195   5.366   1.302   3.877
 3104TIP3   OH2 9196   4.821   1.086   2.705
 3104TIP3    H1 9197   4.868   1.070   2.790
 3104TIP3    H2 9198   4.759   1.010   2.704
 3105TIP3   OH2 9199   3.521   1.074   3.528
 3105TIP3    H1 9200   3.583   0.999   3.536
 3105TIP3    H2 9201   3.583   1.148   3.520
 3106TIP3   OH2 9202   3.326   1.350   3.605
 3106TIP3    H1 9203   3.369   1.330   3.519
 3106TIP3    H2 9204   3.357   1.440   3.620
 3107TIP3   OH2 9205   5.265   1.387   3.760
 3107TIP3    H1 9206   5.176   1.426   3.776
 3107TIP3    H2 9207   5.240   1.315   3.699
 3108TIP3   OH2 9208   4.902   1.025   2.335
 3108TIP3    H1 9209   4.943   0.950   2.287
 3108TIP3    H2 9210   4.971   1.093   2.332
 3109TIP3   OH2 9211   3.305   0.851   3.101
 3109TIP3    H1 9212   3.212   0.848   3.130
 3109TIP3    H2 9213   3.302   0.909   3.023
 3110TIP3   OH2 9214   4.465   2.554   2.606
 3110TIP3    H1 9215   4.515   2.539   2.523
 3110TIP3    H2 9216   4.520   2.621   2.650
 3111TIP3   OH2 9217   3.527   0.933   3.917
 3111TIP3    H1 9218   3.473   0.926   3.997
 3111TIP3    H2 9219   3.462   0.970   3.854
 3112TIP3   OH2 9220   3.568   2.358   3.993
 3112TIP3    H1 9221   3.476   2.331   3.974
 3112TIP3    H2 9222   3.575   2.340   4.087
 3113TIP3   OH2 9223   3.743   2.390   3.539
 3113TIP3    H1 9224   3.696   2.466   3.500
 3113TIP3    H2 9225   3.830   2.403   3.495
 3114TIP3   OH2 9226   4.190   2.636   3.677
 3114TIP3    H1 9227   4.232   2.637   3.765
 3114TIP3    H2 9228   4.257   2.686   3.625
 3115TIP3   OH2 9229   4.369   2.787   3.534
 3115TIP3    H1 9230   4.440   2.735   3.493
 3115TIP3    H2 9231   4.420   2.844   3.595
 3116TIP3   OH2 9232   5.162   1.150   3.636
 3116TIP3    H1 9233   5.071   1.144   3.601
 3116TIP3    H2 9234   5.193   1.057   3.623
 3117TIP3   OH2 9235   3.421   2.649   3.561
 3117TIP3    H1 9236   3.332   2.683   3.539
 3117TIP3    H2 9237   3.431   2.682   3.651
 3118TIP3   OH2 9238   3.658   2.627   3.419
 3118TIP3    H1 9239   3.571   2.640   3.464
 3118TIP3    H2 9240   3.637   2.659   3.329
 3119TIP3   OH2 9241   4.083   2.656   3.217
 3119TIP3    H1 9242   4.015   2.677   3.151
 3119TIP3    H2 9243   4.096   2.743   3.260
 3120TIP3   OH2 9244   4.352   2.596   3.269
 3120TIP3    H1 9245   4.257   2.612   3.249
 3120TIP3    H2 9246   4.394   2.672   3.226
 3121TIP3   OH2 9247   4.559   2.788   3.184
 3121TIP3    H1 9248   4.545   2.872   3.137
 3121TIP3    H2 9249   4.585   2.728   3.111
 3122TIP3   OH2 9250   3.331   2.442   3.309
 3122TIP3    H1 9251   3.360   2.416   3.399
 3122TIP3    H2 9252   3.403   2.399   3.257
 3123TIP3   OH2 9253   3.525   2.314   3.164
 3123TIP3    H1 9254   3.541   2.229   3.211
 3123TIP3    H2 9255   3.616   2.350   3.159
 3124TIP3   OH2 9256   3.792   2.409   3.166
 3124TIP3    H1 9257   3.823   2.318   3.152
 3124TIP3    H2 9258   3.836   2.429   3.250
 3125TIP3   OH2 9259   4.382   1.069   3.269
 3125TIP3    H1 9260   4.326   1.000   3.308
 3125TIP3    H2 9261   4.438   1.018   3.208
 3126TIP3   OH2 9262   4.893   0.946   3.161
 3126TIP3    H1 9263   4.929   0.997   3.085
 3126TIP3    H2 9264   4.797   0.962   3.152
 3127TIP3   OH2 9265   4.986   1.046   2.924
 3127TIP3    H1 9266   5.059   0.994   2.883
 3127TIP3    H2 9267   5.019   1.137   2.908
 3128TIP3   OH2 9268   3.618   0.773   3.272
 3128TIP3    H1 9269   3.526   0.739   3.271
 3128TIP3    H2 9270   3.668   0.689   3.268
 3129TIP3   OH2 9271   3.398   0.641   2.919
 3129TIP3    H1 9272   3.430   0.699   2.848
 3129TIP3    H2 9273   3.372   0.705   2.987
 3130TIP3   OH2 9274   4.060   0.805   3.151
 3130TIP3    H1 9275   4.113   0.860   3.091
 3130TIP3    H2 9276   4.079   0.846   3.236
 3131TIP3   OH2 9277   4.614   0.951   3.133
 3131TIP3    H1 9278   4.603   0.916   3.044
 3131TIP3    H2 9279   4.596   0.871   3.188
 3132TIP3   OH2 9280   4.638   0.874   2.696
 3132TIP3    H1 9281   4.554   0.923   2.712
 3132TIP3    H2 9282   4.619   0.790   2.742
 3133TIP3   OH2 9283   3.120   2.212   2.699
 3133TIP3    H1 9284   3.036   2.177   2.663
 3133TIP3    H2 9285   3.107   2.307   2.681
 3134TIP3   OH2 9286   3.521   0.803   2.681
 3134TIP3    H1 9287   3.573   0.742   2.626
 3134TIP3    H2 9288   3.591   0.858   2.720
 3135TIP3   OH2 9289   4.031   0.982   2.786
 3135TIP3    H1 9290   4.098   0.953   2.850
 3135TIP3    H2 9291   4.059   1.075   2.773
 3136TIP3   OH2 9292   3.892   2.404   2.280
 3136TIP3    H1 9293   3.980   2.425   2.244
 3136TIP3    H2 9294   3.870   2.328   2.221
 3137TIP3   OH2 9295   4.609   2.521   2.373
 3137TIP3    H1 9296   4.600   2.424   2.358
 3137TIP3    H2 9297   4.567   2.556   2.292
 3138TIP3   OH2 9298   3.823   1.055   4.163
 3138TIP3    H1 9299   3.793   0.983   4.221
 3138TIP3    H2 9300   3.918   1.058   4.188
 3139TIP3   OH2 9301   4.073   1.052   4.281
 3139TIP3    H1 9302   4.157   1.027   4.239
 3139TIP3    H2 9303   4.062   0.980   4.346
 3140TIP3   OH2 9304   3.199   2.242   2.338
 3140TIP3    H1 9305   3.200   2.262   2.433
 3140TIP3    H2 9306   3.286   2.198   2.325
 3141TIP3   OH2 9307   4.898   1.113   4.069
 3141TIP3    H1 9308   4.918   1.081   4.159
 3141TIP3    H2 9309   4.986   1.108   4.025
 3142TIP3   OH2 9310   4.837   2.665   3.562
 3142TIP3    H1 9311   4.759   2.633   3.514
 3142TIP3    H2 9312   4.818   2.761   3.564
 3143TIP3   OH2 9313   6.104   2.038   2.328
 3143TIP3    H1 9314   6.075   2.129   2.307
 3143TIP3    H2 9315   6.028   1.987   2.295
 3144TIP3   OH2 9316   6.099   2.038   2.709
 3144TIP3    H1 9317   6.132   2.006   2.794
 3144TIP3    H2 9318   6.062   1.958   2.670
 3145TIP3   OH2 9319   5.401   1.934   3.076
 3145TIP3    H1 9320   5.434   1.866   3.138
 3145TIP3    H2 9321   5.482   1.986   3.061
 3146TIP3   OH2 9322   6.345   2.340   2.389
 3146TIP3    H1 9323   6.333   2.268   2.452
 3146TIP3    H2 9324   6.374   2.413   2.445
 3147TIP3   OH2 9325   5.373   2.341   2.800
 3147TIP3    H1 9326   5.364   2.243   2.802
 3147TIP3    H2 9327   5.470   2.349   2.793
 3148TIP3   OH2 9328   5.079   1.547   2.584
 3148TIP3    H1 9329   5.030   1.630   2.597
 3148TIP3    H2 9330   5.008   1.490   2.551
 3149TIP3   OH2 9331   5.140   1.832   2.753
 3149TIP3    H1 9332   5.188   1.756   2.792
 3149TIP3    H2 9333   5.200   1.860   2.684
 3150TIP3   OH2 9334   5.994   2.801   2.405
 3150TIP3    H1 9335   6.040   2.730   2.356
 3150TIP3    H2 9336   5.990   2.763   2.494
 3151TIP3   OH2 9337   5.901   2.262   2.756
 3151TIP3    H1 9338   5.939   2.185   2.711
 3151TIP3    H2 9339   5.985   2.307   2.779
 3152TIP3   OH2 9340   6.913   1.583   2.754
 3152TIP3    H1 9341   6.943   1.666   2.795
 3152TIP3    H2 9342   6.939   1.597   2.661
 3153TIP3   OH2 9343   6.313   1.765   2.790
 3153TIP3    H1 9344   6.358   1.680   2.809
 3153TIP3    H2 9345   6.283   1.749   2.699
 3154TIP3   OH2 9346   5.646   1.424   2.757
 3154TIP3    H1 9347   5.632   1.496   2.692
 3154TIP3    H2 9348   5.601   1.350   2.710
 3155TIP3   OH2 9349   6.339   1.516   2.374
 3155TIP3    H1 9350   6.409   1.497   2.442
 3155TIP3    H2 9351   6.396   1.547   2.301
 3156TIP3   OH2 9352   5.285   1.626   2.861
 3156TIP3    H1 9353   5.368   1.605   2.908
 3156TIP3    H2 9354   5.297   1.571   2.782
 3157TIP3   OH2 9355   5.726   1.824   2.655
 3157TIP3    H1 9356   5.820   1.799   2.667
 3157TIP3    H2 9357   5.687   1.740   2.622
 3158TIP3   OH2 9358   6.989   1.791   2.923
 3158TIP3    H1 9359   6.905   1.838   2.904
 3158TIP3    H2 9360   7.000   1.813   3.017
 3159TIP3   OH2 9361   5.648   1.408   3.189
 3159TIP3    H1 9362   5.588   1.443   3.120
 3159TIP3    H2 9363   5.595   1.427   3.269
 3160TIP3   OH2 9364   5.996   2.259   2.198
 3160TIP3    H1 9365   5.954   2.235   2.114
 3160TIP3    H2 9366   5.951   2.343   2.219
 3161TIP3   OH2 9367   5.754   2.182   2.984
 3161TIP3    H1 9368   5.691   2.247   3.021
 3161TIP3    H2 9369   5.797   2.233   2.913
 3162TIP3   OH2 9370   6.548   1.519   2.545
 3162TIP3    H1 9371   6.570   1.439   2.594
 3162TIP3    H2 9372   6.612   1.584   2.578
 3163TIP3   OH2 9373   5.518   1.523   2.974
 3163TIP3    H1 9374   5.581   1.595   2.995
 3163TIP3    H2 9375   5.565   1.481   2.898
 3164TIP3   OH2 9376   5.581   2.375   3.082
 3164TIP3    H1 9377   5.556   2.461   3.041
 3164TIP3    H2 9378   5.503   2.360   3.138
 3165TIP3   OH2 9379   4.975   2.066   2.318
 3165TIP3    H1 9380   4.938   2.092   2.231
 3165TIP3    H2 9381   5.007   2.151   2.353
 3166TIP3   OH2 9382   6.417   2.581   2.559
 3166TIP3    H1 9383   6.326   2.573   2.597
 3166TIP3    H2 9384   6.409   2.667   2.513
 3167TIP3   OH2 9385   6.705   1.484   2.920
 3167TIP3    H1 9386   6.617   1.509   2.887
 3167TIP3    H2 9387   6.764   1.515   2.848
 3168TIP3   OH2 9388   6.005   1.126   2.901
 3168TIP3    H1 9389   5.994   1.030   2.918
 3168TIP3    H2 9390   5.927   1.161   2.949
 3169TIP3   OH2 9391   6.118   2.629   2.232
 3169TIP3    H1 9392   6.168   2.547   2.211
 3169TIP3    H2 9393   6.178   2.695   2.189
 3170TIP3   OH2 9394   6.261   2.414   2.136
 3170TIP3    H1 9395   6.224   2.334   2.097
 3170TIP3    H2 9396   6.296   2.380   2.221
 3171TIP3   OH2 9397   6.643   2.496   2.901
 3171TIP3    H1 9398   6.632   2.418   2.842
 3171TIP3    H2 9399   6.627   2.570   2.839
 3172TIP3   OH2 9400   5.934   1.890   2.157
 3172TIP3    H1 9401   5.854   1.940   2.132
 3172TIP3    H2 9402   5.982   1.885   2.072
 3173TIP3   OH2 9403   5.892   1.674   1.875
 3173TIP3    H1 9404   5.962   1.721   1.924
 3173TIP3    H2 9405   5.947   1.608   1.828
 3174TIP3   OH2 9406   6.838   2.133   2.747
 3174TIP3    H1 9407   6.755   2.185   2.751
 3174TIP3    H2 9408   6.866   2.153   2.655
 3175TIP3   OH2 9409   6.281   1.972   2.130
 3175TIP3    H1 9410   6.227   1.996   2.209
 3175TIP3    H2 9411   6.364   1.943   2.174
 3176TIP3   OH2 9412   6.517   2.011   3.040
 3176TIP3    H1 9413   6.513   2.095   3.089
 3176TIP3    H2 9414   6.431   2.014   2.994
 3177TIP3   OH2 9415   5.514   1.970   2.547
 3177TIP3    H1 9416   5.472   1.912   2.480
 3177TIP3    H2 9417   5.591   1.916   2.575
 3178TIP3   OH2 9418   5.643   2.380   2.695
 3178TIP3    H1 9419   5.623   2.336   2.611
 3178TIP3    H2 9420   5.733   2.347   2.714
 3179TIP3   OH2 9421   5.647   1.941   2.901
 3179TIP3    H1 9422   5.682   1.918   2.812
 3179TIP3    H2 9423   5.693   2.026   2.920
 3180TIP3   OH2 9424   6.174   2.579   2.677
 3180TIP3    H1 9425   6.162   2.657   2.733
 3180TIP3    H2 9426   6.162   2.504   2.739
 3181TIP3   OH2 9427   5.787   2.498   3.224
 3181TIP3    H1 9428   5.728   2.560   3.271
 3181TIP3    H2 9429   5.722   2.444   3.176
 3182TIP3   OH2 9430   6.122   1.830   1.956
 3182TIP3    H1 9431   6.182   1.888   2.009
 3182TIP3    H2 9432   6.148   1.855   1.864
 3183TIP3   OH2 9433   5.542   2.054   3.326
 3183TIP3    H1 9434   5.546   2.141   3.371
 3183TIP3    H2 9435   5.447   2.035   3.331
 3184TIP3   OH2 9436   5.864   2.510   2.232
 3184TIP3    H1 9437   5.943   2.563   2.249
 3184TIP3    H2 9438   5.804   2.575   2.192
 3185TIP3   OH2 9439   5.582   2.667   3.311
 3185TIP3    H1 9440   5.548   2.663   3.219
 3185TIP3    H2 9441   5.502   2.645   3.364
 3186TIP3   OH2 9442   6.634   1.071   1.999
 3186TIP3    H1 9443   6.553   1.086   2.051
 3186TIP3    H2 9444   6.645   1.157   1.955
 3187TIP3   OH2 9445   5.379   1.813   2.354
 3187TIP3    H1 9446   5.313   1.856   2.294
 3187TIP3    H2 9447   5.342   1.725   2.363
 3188TIP3   OH2 9448   6.436   2.438   1.551
 3188TIP3    H1 9449   6.444   2.535   1.538
 3188TIP3    H2 9450   6.529   2.409   1.539
 3189TIP3   OH2 9451   5.161   2.196   3.258
 3189TIP3    H1 9452   5.097   2.172   3.188
 3189TIP3    H2 9453   5.198   2.109   3.284
 3190TIP3   OH2 9454   5.015   2.388   2.892
 3190TIP3    H1 9455   5.111   2.379   2.880
 3190TIP3    H2 9456   5.009   2.467   2.947
 3191TIP3   OH2 9457   6.880   2.839   2.946
 3191TIP3    H1 9458   6.879   2.742   2.959
 3191TIP3    H2 9459   6.796   2.863   2.992
 3192TIP3   OH2 9460   5.986   2.627   3.081
 3192TIP3    H1 9461   5.985   2.720   3.114
 3192TIP3    H2 9462   5.915   2.587   3.136
 3193TIP3   OH2 9463   5.744   2.755   2.034
 3193TIP3    H1 9464   5.700   2.735   1.949
 3193TIP3    H2 9465   5.714   2.845   2.054
 3194TIP3   OH2 9466   5.183   2.605   2.416
 3194TIP3    H1 9467   5.232   2.595   2.501
 3194TIP3    H2 9468   5.126   2.526   2.420
 3195TIP3   OH2 9469   5.948   2.656   1.674
 3195TIP3    H1 9470   6.007   2.586   1.637
 3195TIP3    H2 9471   5.983   2.664   1.765
 3196TIP3   OH2 9472   5.997   2.704   1.944
 3196TIP3    H1 9473   5.909   2.713   1.987
 3196TIP3    H2 9474   6.049   2.662   2.015
 3197TIP3   OH2 9475   6.770   1.971   3.221
 3197TIP3    H1 9476   6.690   1.984   3.166
 3197TIP3    H2 9477   6.786   1.876   3.210
 3198TIP3   OH2 9478   5.366   2.380   3.249
 3198TIP3    H1 9479   5.417   2.361   3.330
 3198TIP3    H2 9480   5.293   2.315   3.255
 3199TIP3   OH2 9481   5.765   1.201   3.032
 3199TIP3    H1 9482   5.675   1.171   3.005
 3199TIP3    H2 9483   5.742   1.285   3.074
 3200TIP3   OH2 9484   6.299   1.319   3.225
 3200TIP3    H1 9485   6.367   1.290   3.289
 3200TIP3    H2 9486   6.215   1.297   3.270
 3201TIP3   OH2 9487   6.541   1.747   3.144
 3201TIP3    H1 9488   6.491   1.743   3.229
 3201TIP3    H2 9489   6.514   1.833   3.107
 3202TIP3   OH2 9490   6.197   1.879   1.699
 3202TIP3    H1 9491   6.165   1.850   1.612
 3202TIP3    H2 9492   6.279   1.926   1.675
 3203TIP3   OH2 9493   5.910   1.255   2.001
 3203TIP3    H1 9494   5.881   1.251   2.094
 3203TIP3    H2 9495   5.876   1.168   1.970
 3204TIP3   OH2 9496   5.696   1.718   3.049
 3204TIP3    H1 9497   5.646   1.739   3.130
 3204TIP3    H2 9498   5.680   1.799   2.995
 3205TIP3   OH2 9499   5.580   1.605   2.564
 3205TIP3    H1 9500   5.488   1.576   2.581
 3205TIP3    H2 9501   5.596   1.563   2.476
 3206TIP3   OH2 9502   6.072   1.691   2.291
 3206TIP3    H1 9503   6.019   1.761   2.248
 3206TIP3    H2 9504   6.127   1.659   2.218
 3207TIP3   OH2 9505   6.246   1.970   3.380
 3207TIP3    H1 9506   6.224   1.896   3.440
 3207TIP3    H2 9507   6.341   1.981   3.399
 3208TIP3   OH2 9508   6.229   1.720   2.530
 3208TIP3    H1 9509   6.169   1.745   2.457
 3208TIP3    H2 9510   6.264   1.637   2.490
 3209TIP3   OH2 9511   5.515   1.748   3.259
 3209TIP3    H1 9512   5.547   1.810   3.327
 3209TIP3    H2 9513   5.505   1.665   3.309
 3210TIP3   OH2 9514   5.565   1.223   1.967
 3210TIP3    H1 9515   5.560   1.220   2.065
 3210TIP3    H2 9516   5.485   1.275   1.946
 3211TIP3   OH2 9517   5.110   1.270   2.839
 3211TIP3    H1 9518   5.186   1.301   2.892
 3211TIP3    H2 9519   5.150   1.235   2.758
 3212TIP3   OH2 9520   5.083   1.249   2.358
 3212TIP3    H1 9521   5.129   1.288   2.281
 3212TIP3    H2 9522   5.023   1.322   2.381
 3213TIP3   OH2 9523   6.240   1.965   2.954
 3213TIP3    H1 9524   6.272   1.893   2.895
 3213TIP3    H2 9525   6.211   1.913   3.031
 3214TIP3   OH2 9526   5.904   1.438   2.626
 3214TIP3    H1 9527   5.828   1.427   2.686
 3214TIP3    H2 9528   5.980   1.417   2.684
 3215TIP3   OH2 9529   5.343   1.481   2.634
 3215TIP3    H1 9530   5.249   1.486   2.606
 3215TIP3    H2 9531   5.369   1.390   2.610
 3216TIP3   OH2 9532   5.612   1.479   2.322
 3216TIP3    H1 9533   5.707   1.492   2.305
 3216TIP3    H2 9534   5.569   1.503   2.237
 3217TIP3   OH2 9535   6.405   1.506   2.836
 3217TIP3    H1 9536   6.355   1.511   2.920
 3217TIP3    H2 9537   6.355   1.440   2.786
 3218TIP3   OH2 9538   5.450   1.514   2.099
 3218TIP3    H1 9539   5.380   1.467   2.049
 3218TIP3    H2 9540   5.504   1.549   2.025
 3219TIP3   OH2 9541   6.569   3.191   3.045
 3219TIP3    H1 9542   6.568   3.213   2.950
 3219TIP3    H2 9543   6.648   3.239   3.076
 3220TIP3   OH2 9544   5.526   2.301   3.468
 3220TIP3    H1 9545   5.607   2.331   3.515
 3220TIP3    H2 9546   5.463   2.300   3.542
 3221TIP3   OH2 9547   5.993   1.756   2.722
 3221TIP3    H1 9548   6.060   1.713   2.667
 3221TIP3    H2 9549   6.004   1.709   2.807
 3222TIP3   OH2 9550   5.514   1.243   2.598
 3222TIP3    H1 9551   5.484   1.161   2.644
 3222TIP3    H2 9552   5.572   1.207   2.529
 3223TIP3   OH2 9553   5.968   1.647   3.017
 3223TIP3    H1 9554   5.879   1.686   3.027
 3223TIP3    H2 9555   6.026   1.709   3.064
 3224TIP3   OH2 9556   5.703   2.043   2.105
 3224TIP3    H1 9557   5.631   1.977   2.095
 3224TIP3    H2 9558   5.687   2.075   2.197
 3225TIP3   OH2 9559   6.605   2.278   2.737
 3225TIP3    H1 9560   6.630   2.326   2.655
 3225TIP3    H2 9561   6.520   2.236   2.712
 3226TIP3   OH2 9562   6.161   1.359   1.961
 3226TIP3    H1 9563   6.066   1.340   1.976
 3226TIP3    H2 9564   6.172   1.451   1.994
 3227TIP3   OH2 9565   6.104   2.359   3.104
 3227TIP3    H1 9566   6.127   2.337   3.195
 3227TIP3    H2 9567   6.066   2.448   3.112
 3228TIP3   OH2 9568   6.233   1.601   2.072
 3228TIP3    H1 9569   6.329   1.603   2.089
 3228TIP3    H2 9570   6.218   1.680   2.018
 3229TIP3   OH2 9571   5.396   2.062   2.783
 3229TIP3    H1 9572   5.435   2.036   2.697
 3229TIP3    H2 9573   5.439   2.000   2.844
 3230TIP3   OH2 9574   5.850   2.191   1.927
 3230TIP3    H1 9575   5.803   2.278   1.935
 3230TIP3    H2 9576   5.796   2.135   1.986
 3231TIP3   OH2 9577   5.275   1.986   3.397
 3231TIP3    H1 9578   5.299   1.970   3.491
 3231TIP3    H2 9579   5.209   1.917   3.381
 3232TIP3   OH2 9580   6.002   2.097   3.417
 3232TIP3    H1 9581   5.945   2.040   3.363
 3232TIP3    H2 9582   6.091   2.065   3.390
 3233TIP3   OH2 9583   6.266   2.621   2.999
 3233TIP3    H1 9584   6.169   2.618   3.011
 3233TIP3    H2 9585   6.292   2.672   3.078
 3234TIP3   OH2 9586   6.676   1.687   1.907
 3234TIP3    H1 9587   6.613   1.643   1.846
 3234TIP3    H2 9588   6.673   1.777   1.867
 3235TIP3   OH2 9589   6.893   2.549   2.989
 3235TIP3    H1 9590   6.795   2.543   2.981
 3235TIP3    H2 9591   6.919   2.518   2.899
 3236TIP3   OH2 9592   6.374   2.510   1.816
 3236TIP3    H1 9593   6.351   2.440   1.878
 3236TIP3    H2 9594   6.387   2.462   1.732
 3237TIP3   OH2 9595   6.371   2.139   2.656
 3237TIP3    H1 9596   6.278   2.113   2.668
 3237TIP3    H2 9597   6.406   2.059   2.612
 3238TIP3   OH2 9598   5.497   2.367   2.410
 3238TIP3    H1 9599   5.501   2.448   2.355
 3238TIP3    H2 9600   5.402   2.351   2.414
 3239TIP3   OH2 9601   5.060   1.672   2.110
 3239TIP3    H1 9602   5.108   1.755   2.130
 3239TIP3    H2 9603   4.984   1.679   2.172
 3240TIP3   OH2 9604   5.637   2.134   2.353
 3240TIP3    H1 9605   5.603   2.223   2.372
 3240TIP3    H2 9606   5.602   2.083   2.428
 3241TIP3   OH2 9607   5.767   2.711   2.878
 3241TIP3    H1 9608   5.808   2.783   2.826
 3241TIP3    H2 9609   5.844   2.676   2.926
 3242TIP3   OH2 9610   5.418   2.606   2.261
 3242TIP3    H1 9611   5.332   2.614   2.306
 3242TIP3    H2 9612   5.449   2.699   2.264
 3243TIP3   OH2 9613   6.158   2.347   2.835
 3243TIP3    H1 9614   6.149   2.343   2.933
 3243TIP3    H2 9615   6.235   2.291   2.820
 3244TIP3   OH2 9616   6.129   2.237   1.718
 3244TIP3    H1 9617   6.183   2.213   1.797
 3244TIP3    H2 9618   6.041   2.210   1.748
 3245TIP3   OH2 9619   6.404   2.881   2.888
 3245TIP3    H1 9620   6.326   2.823   2.880
 3245TIP3    H2 9621   6.389   2.944   2.815
 3246TIP3   OH2 9622   6.470   2.713   1.538
 3246TIP3    H1 9623   6.508   2.786   1.486
 3246TIP3    H2 9624   6.390   2.759   1.571
 3247TIP3   OH2 9625   5.490   1.492   3.406
 3247TIP3    H1 9626   5.393   1.494   3.417
 3247TIP3    H2 9627   5.517   1.428   3.474
 3248TIP3   OH2 9628   6.289   2.173   1.936
 3248TIP3    H1 9629   6.279   2.106   2.006
 3248TIP3    H2 9630   6.386   2.170   1.923
 3249TIP3   OH2 9631   5.204   2.575   3.038
 3249TIP3    H1 9632   5.257   2.498   3.065
 3249TIP3    H2 9633   5.237   2.642   3.099
 3250TIP3   OH2 9634   5.496   2.219   1.718
 3250TIP3    H1 9635   5.511   2.128   1.688
 3250TIP3    H2 9636   5.477   2.205   1.813
 3251TIP3   OH2 9637   5.441   2.223   1.992
 3251TIP3    H1 9638   5.514   2.195   2.048
 3251TIP3    H2 9639   5.447   2.321   1.998
 3252TIP3   OH2 9640   5.176   1.916   2.193
 3252TIP3    H1 9641   5.112   1.962   2.250
 3252TIP3    H2 9642   5.194   1.985   2.126
 3253TIP3   OH2 9643   6.317   1.561   3.094
 3253TIP3    H1 9644   6.405   1.591   3.120
 3253TIP3    H2 9645   6.308   1.477   3.143
 3254TIP3   OH2 9646   6.197   1.309   2.248
 3254TIP3    H1 9647   6.195   1.332   2.154
 3254TIP3    H2 9648   6.244   1.386   2.288
 3255TIP3   OH2 9649   5.707   2.421   1.940
 3255TIP3    H1 9650   5.620   2.450   1.974
 3255TIP3    H2 9651   5.724   2.491   1.875
 3256TIP3   OH2 9652   5.891   1.487   2.352
 3256TIP3    H1 9653   5.961   1.554   2.335
 3256TIP3    H2 9654   5.900   1.476   2.450
 3257TIP3   OH2 9655   6.163   1.803   3.161
 3257TIP3    H1 9656   6.188   1.853   3.241
 3257TIP3    H2 9657   6.219   1.723   3.167
 3258TIP3   OH2 9658   6.039   1.211   2.454
 3258TIP3    H1 9659   6.053   1.278   2.523
 3258TIP3    H2 9660   6.101   1.245   2.385
 3259TIP3   OH2 9661   5.449   2.497   2.006
 3259TIP3    H1 9662   5.420   2.566   1.942
 3259TIP3    H2 9663   5.434   2.541   2.092
 3260TIP3   OH2 9664   5.551   1.209   2.244
 3260TIP3    H1 9665   5.550   1.299   2.281
 3260TIP3    H2 9666   5.647   1.189   2.253
 3261TIP3   OH2 9667   6.807   1.704   3.139
 3261TIP3    H1 9668   6.709   1.703   3.147
 3261TIP3    H2 9669   6.816   1.661   3.052
 3262TIP3   OH2 9670   6.456   1.899   2.530
 3262TIP3    H1 9671   6.381   1.837   2.539
 3262TIP3    H2 9672   6.528   1.851   2.576
 3263TIP3   OH2 9673   5.168   2.129   1.999
 3263TIP3    H1 9674   5.235   2.199   2.008
 3263TIP3    H2 9675   5.213   2.073   1.932
 3264TIP3   OH2 9676   5.114   1.402   2.134
 3264TIP3    H1 9677   5.113   1.499   2.127
 3264TIP3    H2 9678   5.035   1.378   2.084
 3265TIP3   OH2 9679   6.424   2.854   2.479
 3265TIP3    H1 9680   6.382   2.900   2.404
 3265TIP3    H2 9681   6.518   2.872   2.459
 3266TIP3   OH2 9682   5.499   1.123   3.008
 3266TIP3    H1 9683   5.469   1.090   2.920
 3266TIP3    H2 9684   5.489   1.043   3.063
 3267TIP3   OH2 9685   5.042   2.342   2.389
 3267TIP3    H1 9686   4.967   2.373   2.441
 3267TIP3    H2 9687   5.020   2.381   2.301
 3268TIP3   OH2 9688   5.195   2.881   3.459
 3268TIP3    H1 9689   5.282   2.880   3.505
 3268TIP3    H2 9690   5.175   2.786   3.456
 3269TIP3   OH2 9691   5.679   2.849   3.502
 3269TIP3    H1 9692   5.773   2.828   3.510
 3269TIP3    H2 9693   5.654   2.790   3.427
 3270TIP3   OH2 9694   5.660   2.423   1.632
 3270TIP3    H1 9695   5.604   2.352   1.670
 3270TIP3    H2 9696   5.735   2.370   1.599
 3271TIP3   OH2 9697   6.315   2.754   3.236
 3271TIP3    H1 9698   6.308   2.683   3.304
 3271TIP3    H2 9699   6.395   2.803   3.266
 3272TIP3   OH2 9700   6.096   2.464   1.542
 3272TIP3    H1 9701   6.140   2.400   1.600
 3272TIP3    H2 9702   6.153   2.465   1.463
 3273TIP3   OH2 9703   5.326   2.288   3.659
 3273TIP3    H1 9704   5.344   2.192   3.661
 3273TIP3    H2 9705   5.239   2.290   3.615
 3274TIP3   OH2 9706   5.303   1.940   1.852
 3274TIP3    H1 9707   5.359   1.905   1.923
 3274TIP3    H2 9708   5.370   1.944   1.780
 3275TIP3   OH2 9709   5.934   2.372   3.432
 3275TIP3    H1 9710   5.894   2.387   3.344
 3275TIP3    H2 9711   5.967   2.279   3.425
 3276TIP3   OH2 9712   5.812   2.137   1.658
 3276TIP3    H1 9713   5.815   2.151   1.754
 3276TIP3    H2 9714   5.812   2.039   1.653
 3277TIP3   OH2 9715   6.428   2.381   3.038
 3277TIP3    H1 9716   6.502   2.426   2.993
 3277TIP3    H2 9717   6.356   2.445   3.024
 3278TIP3   OH2 9718   5.445   2.021   3.640
 3278TIP3    H1 9719   5.520   1.966   3.617
 3278TIP3    H2 9720   5.470   2.054   3.729
 3279TIP3   OH2 9721   5.512   1.842   2.073
 3279TIP3    H1 9722   5.489   1.799   2.157
 3279TIP3    H2 9723   5.548   1.768   2.021
 3280TIP3   OH2 9724   5.779   1.906   3.302
 3280TIP3    H1 9725   5.704   1.968   3.305
 3280TIP3    H2 9726   5.829   1.939   3.223
 3281TIP3   OH2 9727   5.612   1.636   1.915
 3281TIP3    H1 9728   5.586   1.637   1.820
 3281TIP3    H2 9729   5.710   1.643   1.907
 3282TIP3   OH2 9730   6.298   2.309   3.436
 3282TIP3    H1 9731   6.378   2.287   3.387
 3282TIP3    H2 9732   6.297   2.241   3.505
 3283TIP3   OH2 9733   6.436   1.969   1.574
 3283TIP3    H1 9734   6.411   1.920   1.493
 3283TIP3    H2 9735   6.403   2.059   1.550
 3284TIP3   OH2 9736   5.903   1.694   3.430
 3284TIP3    H1 9737   5.905   1.614   3.373
 3284TIP3    H2 9738   5.861   1.760   3.370
 3285TIP3   OH2 9739   5.906   1.481   3.237
 3285TIP3    H1 9740   5.935   1.522   3.152
 3285TIP3    H2 9741   5.813   1.458   3.216
 3286TIP3   OH2 9742   5.935   2.019   3.110
 3286TIP3    H1 9743   6.017   2.021   3.060
 3286TIP3    H2 9744   5.880   2.086   3.064
 3287TIP3   OH2 9745   6.519   1.986   3.492
 3287TIP3    H1 9746   6.564   1.900   3.496
 3287TIP3    H2 9747   6.587   2.043   3.454
 3288TIP3   OH2 9748   6.557   2.238   3.227
 3288TIP3    H1 9749   6.500   2.291   3.167
 3288TIP3    H2 9750   6.645   2.256   3.186
 3289TIP3   OH2 9751   5.781   1.809   3.658
 3289TIP3    H1 9752   5.713   1.740   3.671
 3289TIP3    H2 9753   5.817   1.784   3.571
 3290TIP3   OH2 9754   6.040   1.247   3.303
 3290TIP3    H1 9755   5.991   1.329   3.279
 3290TIP3    H2 9756   5.971   1.179   3.289
 3291TIP3   OH2 9757   6.164   1.751   3.518
 3291TIP3    H1 9758   6.153   1.739   3.614
 3291TIP3    H2 9759   6.074   1.725   3.488
 3292TIP3   OH2 9760   6.407   1.705   3.375
 3292TIP3    H1 9761   6.329   1.700   3.434
 3292TIP3    H2 9762   6.479   1.670   3.432
 3293TIP3   OH2 9763   6.634   1.640   3.526
 3293TIP3    H1 9764   6.647   1.544   3.544
 3293TIP3    H2 9765   6.630   1.678   3.616
 3294TIP3   OH2 9766   5.621   1.589   3.711
 3294TIP3    H1 9767   5.629   1.499   3.673
 3294TIP3    H2 9768   5.657   1.574   3.801
 3295TIP3   OH2 9769   6.133   1.254   3.561
 3295TIP3    H1 9770   6.201   1.185   3.554
 3295TIP3    H2 9771   6.094   1.249   3.471
 3296TIP3   OH2 9772   6.198   1.469   3.720
 3296TIP3    H1 9773   6.177   1.398   3.655
 3296TIP3    H2 9774   6.121   1.529   3.711
 3297TIP3   OH2 9775   5.420   2.699   1.819
 3297TIP3    H1 9776   5.515   2.696   1.799
 3297TIP3    H2 9777   5.389   2.747   1.739
 3298TIP3   OH2 9778   4.900   2.079   2.037
 3298TIP3    H1 9779   4.995   2.102   2.022
 3298TIP3    H2 9780   4.895   1.991   1.994
 3299TIP3   OH2 9781   4.812   2.693   2.449
 3299TIP3    H1 9782   4.746   2.630   2.413
 3299TIP3    H2 9783   4.858   2.636   2.515
 3300TIP3   OH2 9784   4.949   2.546   2.635
 3300TIP3    H1 9785   4.940   2.471   2.696
 3300TIP3    H2 9786   5.001   2.607   2.691
 3301TIP3   OH2 9787   6.676   2.947   2.434
 3301TIP3    H1 9788   6.704   2.979   2.521
 3301TIP3    H2 9789   6.739   2.989   2.375
 3302TIP3   OH2 9790   6.707   2.966   2.717
 3302TIP3    H1 9791   6.664   2.878   2.712
 3302TIP3    H2 9792   6.783   2.943   2.773
 3303TIP3   OH2 9793   6.753   2.642   3.289
 3303TIP3    H1 9794   6.680   2.650   3.354
 3303TIP3    H2 9795   6.794   2.731   3.295
 3304TIP3   OH2 9796   6.569   2.156   1.910
 3304TIP3    H1 9797   6.639   2.218   1.883
 3304TIP3    H2 9798   6.610   2.115   1.990
 3305TIP3   OH2 9799   6.694   2.025   2.114
 3305TIP3    H1 9800   6.631   1.979   2.173
 3305TIP3    H2 9801   6.760   2.060   2.177
 3306TIP3   OH2 9802   6.750   2.413   2.546
 3306TIP3    H1 9803   6.804   2.349   2.496
 3306TIP3    H2 9804   6.742   2.487   2.482
 3307TIP3   OH2 9805   6.583   2.715   2.741
 3307TIP3    H1 9806   6.512   2.755   2.793
 3307TIP3    H2 9807   6.533   2.665   2.672
 3308TIP3   OH2 9808   6.636   1.931   1.760
 3308TIP3    H1 9809   6.563   1.933   1.694
 3308TIP3    H2 9810   6.609   2.006   1.816
 3309TIP3   OH2 9811   6.505   1.603   1.713
 3309TIP3    H1 9812   6.460   1.638   1.636
 3309TIP3    H2 9813   6.481   1.508   1.707
 3310TIP3   OH2 9814   6.511   1.876   2.260
 3310TIP3    H1 9815   6.520   1.779   2.256
 3310TIP3    H2 9816   6.498   1.891   2.356
 3311TIP3   OH2 9817   5.137   1.953   3.006
 3311TIP3    H1 9818   5.136   1.922   2.913
 3311TIP3    H2 9819   5.235   1.955   3.023
 3312TIP3   OH2 9820   6.800   2.303   3.117
 3312TIP3    H1 9821   6.872   2.237   3.108
 3312TIP3    H2 9822   6.827   2.372   3.055
 3313TIP3   OH2 9823   6.986   2.110   3.137
 3313TIP3    H1 9824   6.911   2.059   3.174
 3313TIP3    H2 9825   7.058   2.045   3.150
 3314TIP3   OH2 9826   6.450   1.336   1.699
 3314TIP3    H1 9827   6.526   1.310   1.755
 3314TIP3    H2 9828   6.379   1.277   1.729
 3315TIP3   OH2 9829   6.508   1.588   2.156
 3315TIP3    H1 9830   6.550   1.501   2.177
 3315TIP3    H2 9831   6.569   1.619   2.087
 3316TIP3   OH2 9832   6.671   1.775   2.651
 3316TIP3    H1 9833   6.757   1.799   2.611
 3316TIP3    H2 9834   6.685   1.808   2.741
 3317TIP3   OH2 9835   6.739   1.914   2.886
 3317TIP3    H1 9836   6.659   1.947   2.931
 3317TIP3    H2 9837   6.770   1.994   2.839
 3318TIP3   OH2 9838   5.353   1.640   3.683
 3318TIP3    H1 9839   5.451   1.633   3.682
 3318TIP3    H2 9840   5.330   1.554   3.724
 3319TIP3   OH2 9841   7.189   1.503   3.439
 3319TIP3    H1 9842   7.247   1.437   3.395
 3319TIP3    H2 9843   7.162   1.559   3.363
 3320TIP3   OH2 9844   6.619   1.336   2.207
 3320TIP3    H1 9845   6.658   1.303   2.290
 3320TIP3    H2 9846   6.555   1.264   2.192
 3321TIP3   OH2 9847   5.316   1.331   3.015
 3321TIP3    H1 9848   5.378   1.256   3.023
 3321TIP3    H2 9849   5.378   1.406   3.007
 3322TIP3   OH2 9850   5.120   1.606   3.087
 3322TIP3    H1 9851   5.168   1.595   3.002
 3322TIP3    H2 9852   5.152   1.692   3.115
 3323TIP3   OH2 9853   7.061   1.644   3.245
 3323TIP3    H1 9854   6.973   1.682   3.263
 3323TIP3    H2 9855   7.036   1.571   3.185
 3324TIP3   OH2 9856   6.694   1.290   1.826
 3324TIP3    H1 9857   6.728   1.213   1.777
 3324TIP3    H2 9858   6.768   1.353   1.820
 3325TIP3   OH2 9859   5.101   1.109   2.588
 3325TIP3    H1 9860   5.008   1.106   2.613
 3325TIP3    H2 9861   5.100   1.166   2.509
 3326TIP3   OH2 9862   6.261   2.811   2.092
 3326TIP3    H1 9863   6.312   2.795   2.010
 3326TIP3    H2 9864   6.316   2.877   2.137
 3327TIP3   OH2 9865   5.322   1.190   3.403
 3327TIP3    H1 9866   5.270   1.183   3.485
 3327TIP3    H2 9867   5.256   1.227   3.341
 3328TIP3   OH2 9868   5.362   2.616   3.478
 3328TIP3    H1 9869   5.271   2.586   3.461
 3328TIP3    H2 9870   5.372   2.596   3.572
 3329TIP3   OH2 9871   5.539   2.647   3.026
 3329TIP3    H1 9872   5.492   2.723   2.987
 3329TIP3    H2 9873   5.626   2.660   2.982
 3330TIP3   OH2 9874   5.986   2.893   3.164
 3330TIP3    H1 9875   6.029   2.893   3.252
 3330TIP3    H2 9876   6.053   2.943   3.111
 3331TIP3   OH2 9877   6.165   3.043   3.021
 3331TIP3    H1 9878   6.236   2.992   2.979
 3331TIP3    H2 9879   6.217   3.100   3.081
 3332TIP3   OH2 9880   6.958   1.406   3.123
 3332TIP3    H1 9881   6.868   1.400   3.088
 3332TIP3    H2 9882   6.990   1.313   3.110
 3333TIP3   OH2 9883   5.217   2.905   3.048
 3333TIP3    H1 9884   5.128   2.940   3.024
 3333TIP3    H2 9885   5.226   2.937   3.138
 3334TIP3   OH2 9886   5.454   2.883   2.906
 3334TIP3    H1 9887   5.367   2.896   2.951
 3334TIP3    H2 9888   5.434   2.916   2.816
 3335TIP3   OH2 9889   5.879   2.913   2.704
 3335TIP3    H1 9890   5.811   2.934   2.638
 3335TIP3    H2 9891   5.893   3.000   2.747
 3336TIP3   OH2 9892   6.148   2.853   2.756
 3336TIP3    H1 9893   6.053   2.868   2.735
 3336TIP3    H2 9894   6.190   2.928   2.713
 3337TIP3   OH2 9895   6.356   3.045   2.671
 3337TIP3    H1 9896   6.342   3.129   2.623
 3337TIP3    H2 9897   6.381   2.984   2.598
 3338TIP3   OH2 9898   5.128   2.698   2.795
 3338TIP3    H1 9899   5.155   2.673   2.885
 3338TIP3    H2 9900   5.200   2.655   2.743
 3339TIP3   OH2 9901   5.321   2.570   2.651
 3339TIP3    H1 9902   5.338   2.485   2.698
 3339TIP3    H2 9903   5.412   2.607   2.646
 3340TIP3   OH2 9904   5.587   2.666   2.653
 3340TIP3    H1 9905   5.619   2.574   2.639
 3340TIP3    H2 9906   5.632   2.686   2.737
 3341TIP3   OH2 9907   6.139   1.323   2.730
 3341TIP3    H1 9908   6.113   1.250   2.790
 3341TIP3    H2 9909   6.221   1.287   2.690
 3342TIP3   OH2 9910   5.413   1.030   2.759
 3342TIP3    H1 9911   5.321   0.996   2.758
 3342TIP3    H2 9912   5.463   0.946   2.755
 3343TIP3   OH2 9913   5.195   0.899   2.404
 3343TIP3    H1 9914   5.230   0.956   2.333
 3343TIP3    H2 9915   5.170   0.964   2.472
 3344TIP3   OH2 9916   5.852   1.067   2.638
 3344TIP3    H1 9917   5.912   1.110   2.575
 3344TIP3    H2 9918   5.886   1.100   2.723
 3345TIP3   OH2 9919   6.367   1.216   2.633
 3345TIP3    H1 9920   6.441   1.197   2.570
 3345TIP3    H2 9921   6.364   1.130   2.678
 3346TIP3   OH2 9922   6.428   1.133   2.172
 3346TIP3    H1 9923   6.341   1.169   2.196
 3346TIP3    H2 9924   6.436   1.059   2.236
 3347TIP3   OH2 9925   4.915   2.469   2.187
 3347TIP3    H1 9926   4.831   2.437   2.151
 3347TIP3    H2 9927   4.905   2.564   2.168
 3348TIP3   OH2 9928   5.316   1.060   2.168
 3348TIP3    H1 9929   5.365   0.996   2.113
 3348TIP3    H2 9930   5.389   1.114   2.205
 3349TIP3   OH2 9931   5.828   1.235   2.268
 3349TIP3    H1 9932   5.891   1.188   2.326
 3349TIP3    H2 9933   5.850   1.327   2.293
 3350TIP3   OH2 9934   5.688   2.660   1.767
 3350TIP3    H1 9935   5.777   2.682   1.731
 3350TIP3    H2 9936   5.666   2.585   1.708
 3351TIP3   OH2 9937   6.407   2.777   1.860
 3351TIP3    H1 9938   6.398   2.679   1.846
 3351TIP3    H2 9939   6.362   2.810   1.779
 3352TIP3   OH2 9940   5.620   1.311   3.650
 3352TIP3    H1 9941   5.588   1.239   3.707
 3352TIP3    H2 9942   5.715   1.312   3.674
 3353TIP3   OH2 9943   5.869   1.309   3.768
 3353TIP3    H1 9944   5.953   1.285   3.725
 3353TIP3    H2 9945   5.859   1.236   3.832
 3354TIP3   OH2 9946   4.993   2.495   1.825
 3354TIP3    H1 9947   4.995   2.523   1.917
 3354TIP3    H2 9948   5.081   2.454   1.812
 3355TIP3   OH2 9949   6.694   1.369   3.556
 3355TIP3    H1 9950   6.715   1.338   3.646
 3355TIP3    H2 9951   6.782   1.364   3.512
 3356TIP3   OH2 9952   6.634   2.922   3.048
 3356TIP3    H1 9953   6.555   2.890   3.000
 3356TIP3    H2 9954   6.614   3.018   3.051
 3357TIP3   OH2 9955   7.901   2.295   1.813
 3357TIP3    H1 9956   7.872   2.386   1.794
 3357TIP3    H2 9957   7.822   2.245   1.783
 3358TIP3   OH2 9958   7.898   2.293   2.195
 3358TIP3    H1 9959   7.930   2.264   2.282
 3358TIP3    H2 9960   7.856   2.212   2.161
 3359TIP3   OH2 9961   7.198   2.190   2.560
 3359TIP3    H1 9962   7.229   2.122   2.623
 3359TIP3    H2 9963   7.277   2.245   2.552
 3360TIP3   OH2 9964   8.143   2.595   1.875
 3360TIP3    H1 9965   8.127   2.526   1.941
 3360TIP3    H2 9966   8.168   2.670   1.931
 3361TIP3   OH2 9967   7.169   2.599   2.286
 3361TIP3    H1 9968   7.160   2.501   2.288
 3361TIP3    H2 9969   7.266   2.607   2.281
 3362TIP3   OH2 9970   6.880   1.814   2.067
 3362TIP3    H1 9971   6.822   1.891   2.079
 3362TIP3    H2 9972   6.815   1.745   2.048
 3363TIP3   OH2 9973   6.936   2.090   2.242
 3363TIP3    H1 9974   6.983   2.013   2.279
 3363TIP3    H2 9975   6.992   2.112   2.166
 3364TIP3   OH2 9976   7.789   3.057   1.891
 3364TIP3    H1 9977   7.838   2.985   1.845
 3364TIP3    H2 9978   7.784   3.023   1.981
 3365TIP3   OH2 9979   7.698   2.519   2.242
 3365TIP3    H1 9980   7.735   2.442   2.196
 3365TIP3    H2 9981   7.782   2.563   2.267
 3366TIP3   OH2 9982   8.643   1.861   2.247
 3366TIP3    H1 9983   8.714   1.915   2.288
 3366TIP3    H2 9984   8.674   1.855   2.155
 3367TIP3   OH2 9985   8.109   2.021   2.277
 3367TIP3    H1 9986   8.154   1.937   2.297
 3367TIP3    H2 9987   8.080   2.006   2.185
 3368TIP3   OH2 9988   7.448   1.681   2.240
 3368TIP3    H1 9989   7.424   1.753   2.178
 3368TIP3    H2 9990   7.399   1.606   2.198
 3369TIP3   OH2 9991   8.133   1.768   1.861
 3369TIP3    H1 9992   8.200   1.752   1.932
 3369TIP3    H2 9993   8.188   1.809   1.793
 3370TIP3   OH2 9994   7.081   1.884   2.348
 3370TIP3    H1 9995   7.164   1.860   2.394
 3370TIP3    H2 9996   7.086   1.823   2.271
 3371TIP3   OH2 9997   7.522   2.081   2.139
 3371TIP3    H1 9998   7.615   2.054   2.154
 3371TIP3    H2 9999   7.482   1.997   2.108
 3372TIP3   OH210000   8.780   2.043   2.408
 3372TIP3    H110001   8.697   2.094   2.405
 3372TIP3    H210002   8.823   2.079   2.489
 3373TIP3   OH210003   7.445   1.664   2.675
 3373TIP3    H110004   7.383   1.698   2.607
 3373TIP3    H210005   7.392   1.681   2.756
 3374TIP3   OH210006   7.796   2.518   1.682
 3374TIP3    H110007   7.748   2.492   1.602
 3374TIP3    H210008   7.750   2.601   1.705
 3375TIP3   OH210009   7.551   2.439   2.472
 3375TIP3    H110010   7.487   2.503   2.509
 3375TIP3    H210011   7.593   2.491   2.401
 3376TIP3   OH210012   8.332   1.766   2.039
 3376TIP3    H110013   8.327   1.745   2.134
 3376TIP3    H210014   8.421   1.803   2.030
 3377TIP3   OH210015   7.314   1.777   2.459
 3377TIP3    H110016   7.376   1.850   2.481
 3377TIP3    H210017   7.363   1.736   2.384
 3378TIP3   OH210018   7.377   2.632   2.568
 3378TIP3    H110019   7.352   2.718   2.529
 3378TIP3    H210020   7.299   2.616   2.625
 3379TIP3   OH210021   6.775   2.323   1.804
 3379TIP3    H110022   6.732   2.349   1.721
 3379TIP3    H210023   6.804   2.408   1.841
 3380TIP3   OH210024   8.214   2.837   2.043
 3380TIP3    H110025   8.124   2.829   2.083
 3380TIP3    H210026   8.205   2.924   1.999
 3381TIP3   OH210027   8.483   1.726   2.413
 3381TIP3    H110028   8.396   1.761   2.388
 3381TIP3    H210029   8.542   1.772   2.349
 3382TIP3   OH210030   7.803   1.383   2.390
 3382TIP3    H110031   7.789   1.288   2.406
 3382TIP3    H210032   7.724   1.420   2.435
 3383TIP3   OH210033   7.917   2.884   1.720
 3383TIP3    H110034   7.968   2.803   1.697
 3383TIP3    H210035   7.975   2.951   1.677
 3384TIP3   OH210036   8.060   2.669   1.622
 3384TIP3    H110037   8.011   2.592   1.590
 3384TIP3    H210038   8.095   2.636   1.708
 3385TIP3   OH210039   8.437   2.752   2.387
 3385TIP3    H110040   8.424   2.674   2.328
 3385TIP3    H210041   8.419   2.827   2.326
 3386TIP3   OH210042   7.729   2.145   1.644
 3386TIP3    H110043   7.648   2.195   1.623
 3386TIP3    H210044   7.774   2.142   1.558
 3387TIP3   OH210045   7.687   1.931   1.366
 3387TIP3    H110046   7.762   1.975   1.410
 3387TIP3    H210047   7.732   1.860   1.318
 3388TIP3   OH210048   8.633   2.388   2.234
 3388TIP3    H110049   8.549   2.439   2.238
 3388TIP3    H210050   8.659   2.403   2.142
 3389TIP3   OH210051   8.078   2.228   1.618
 3389TIP3    H110052   8.022   2.254   1.695
 3389TIP3    H210053   8.160   2.200   1.663
 3390TIP3   OH210054   8.312   2.268   2.528
 3390TIP3    H110055   8.309   2.351   2.579
 3390TIP3    H210056   8.225   2.272   2.482
 3391TIP3   OH210057   7.311   2.226   2.031
 3391TIP3    H110058   7.269   2.167   1.965
 3391TIP3    H210059   7.387   2.172   2.061
 3392TIP3   OH210060   7.440   2.638   2.181
 3392TIP3    H110061   7.419   2.592   2.099
 3392TIP3    H210062   7.530   2.605   2.200
 3393TIP3   OH210063   7.448   2.196   2.388
 3393TIP3    H110064   7.480   2.177   2.297
 3393TIP3    H210065   7.490   2.283   2.408
 3394TIP3   OH210066   7.973   2.834   2.164
 3394TIP3    H110067   7.958   2.914   2.217
 3394TIP3    H210068   7.958   2.761   2.228
 3395TIP3   OH210069   7.583   2.754   2.711
 3395TIP3    H110070   7.524   2.816   2.758
 3395TIP3    H210071   7.517   2.700   2.663
 3396TIP3   OH210072   7.923   2.079   1.447
 3396TIP3    H110073   7.978   2.141   1.501
 3396TIP3    H210074   7.948   2.109   1.356
 3397TIP3   OH210075   7.338   2.311   2.811
 3397TIP3    H110076   7.342   2.397   2.857
 3397TIP3    H210077   7.243   2.291   2.819
 3398TIP3   OH210078   7.662   2.765   1.717
 3398TIP3    H110079   7.739   2.821   1.738
 3398TIP3    H210080   7.599   2.829   1.680
 3399TIP3   OH210081   7.378   2.923   2.798
 3399TIP3    H110082   7.344   2.919   2.706
 3399TIP3    H210083   7.299   2.901   2.851
 3400TIP3   OH210084   7.178   2.068   1.836
 3400TIP3    H110085   7.110   2.111   1.780
 3400TIP3    H210086   7.136   1.984   1.856
 3401TIP3   OH210087   8.229   2.696   1.036
 3401TIP3    H110088   8.235   2.793   1.026
 3401TIP3    H210089   8.323   2.671   1.022
 3402TIP3   OH210090   6.957   2.452   2.745
 3402TIP3    H110091   6.893   2.429   2.675
 3402TIP3    H210092   6.994   2.365   2.770
 3403TIP3   OH210093   6.811   2.645   2.377
 3403TIP3    H110094   6.907   2.637   2.368
 3403TIP3    H210095   6.804   2.724   2.433
 3404TIP3   OH210096   8.673   3.099   2.431
 3404TIP3    H110097   8.674   3.003   2.444
 3404TIP3    H210098   8.591   3.123   2.478
 3405TIP3   OH210099   7.782   2.883   2.567
 3405TIP3    H110100   7.782   2.976   2.600
 3405TIP3    H210101   7.711   2.844   2.622
 3406TIP3   OH210102   7.542   3.012   1.520
 3406TIP3    H110103   7.496   2.993   1.436
 3406TIP3    H210104   7.510   3.102   1.542
 3407TIP3   OH210105   6.980   2.861   1.903
 3407TIP3    H110106   7.028   2.851   1.988
 3407TIP3    H210107   6.922   2.783   1.906
 3408TIP3   OH210108   7.744   2.913   1.160
 3408TIP3    H110109   7.803   2.843   1.125
 3408TIP3    H210110   7.778   2.922   1.252
 3409TIP3   OH210111   7.794   2.960   1.431
 3409TIP3    H110112   7.705   2.970   1.473
 3409TIP3    H210113   7.844   2.920   1.503
 3410TIP3   OH210114   8.575   2.233   2.701
 3410TIP3    H110115   8.492   2.243   2.653
 3410TIP3    H210116   8.589   2.136   2.694
 3411TIP3   OH210117   7.163   2.636   2.735
 3411TIP3    H110118   7.213   2.618   2.817
 3411TIP3    H210119   7.089   2.571   2.742
 3412TIP3   OH210120   7.562   1.459   2.515
 3412TIP3    H110121   7.473   1.427   2.490
 3412TIP3    H210122   7.536   1.541   2.562
 3413TIP3   OH210123   8.095   1.574   2.711
 3413TIP3    H110124   8.162   1.547   2.777
 3413TIP3    H210125   8.010   1.554   2.757
 3414TIP3   OH210126   8.333   2.002   2.628
 3414TIP3    H110127   8.287   2.000   2.715
 3414TIP3    H210128   8.310   2.091   2.595
 3415TIP3   OH210129   8.003   2.139   1.199
 3415TIP3    H110130   7.962   2.107   1.116
 3415TIP3    H210131   8.075   2.194   1.163
 3416TIP3   OH210132   7.732   1.508   1.496
 3416TIP3    H110133   7.700   1.518   1.587
 3416TIP3    H210134   7.675   1.433   1.468
 3417TIP3   OH210135   7.494   1.973   2.536
 3417TIP3    H110136   7.443   1.993   2.617
 3417TIP3    H210137   7.477   2.054   2.483
 3418TIP3   OH210138   7.376   1.861   2.049
 3418TIP3    H110139   7.284   1.833   2.068
 3418TIP3    H210140   7.389   1.818   1.961
 3419TIP3   OH210141   7.867   1.947   1.778
 3419TIP3    H110142   7.813   2.018   1.737
 3419TIP3    H210143   7.919   1.915   1.702
 3420TIP3   OH210144   8.042   2.226   2.865
 3420TIP3    H110145   8.020   2.152   2.926
 3420TIP3    H210146   8.137   2.239   2.886
 3421TIP3   OH210147   8.024   1.975   2.017
 3421TIP3    H110148   7.965   2.004   1.946
 3421TIP3    H210149   8.055   1.891   1.977
 3422TIP3   OH210150   7.313   2.004   2.745
 3422TIP3    H110151   7.339   2.066   2.814
 3422TIP3    H210152   7.300   1.921   2.795
 3423TIP3   OH210153   7.359   1.479   1.461
 3423TIP3    H110154   7.350   1.476   1.558
 3423TIP3    H210155   7.280   1.530   1.436
 3424TIP3   OH210156   6.922   1.564   2.295
 3424TIP3    H110157   6.978   1.558   2.375
 3424TIP3    H210158   6.929   1.476   2.256
 3425TIP3   OH210159   6.882   1.508   1.842
 3425TIP3    H110160   6.926   1.549   1.766
 3425TIP3    H210161   6.820   1.579   1.868
 3426TIP3   OH210162   8.036   2.223   2.440
 3426TIP3    H110163   8.068   2.149   2.382
 3426TIP3    H210164   8.007   2.171   2.518
 3427TIP3   OH210165   7.703   1.682   2.111
 3427TIP3    H110166   7.620   1.680   2.162
 3427TIP3    H210167   7.770   1.683   2.181
 3428TIP3   OH210168   7.141   1.739   2.117
 3428TIP3    H110169   7.045   1.745   2.097
 3428TIP3    H210170   7.158   1.644   2.105
 3429TIP3   OH210171   7.410   1.732   1.808
 3429TIP3    H110172   7.504   1.753   1.788
 3429TIP3    H210173   7.363   1.758   1.726
 3430TIP3   OH210174   8.194   1.757   2.316
 3430TIP3    H110175   8.158   1.770   2.406
 3430TIP3    H210176   8.127   1.697   2.278
 3431TIP3   OH210177   7.250   1.767   1.588
 3431TIP3    H110178   7.173   1.728   1.542
 3431TIP3    H210179   7.300   1.804   1.513
 3432TIP3   OH210180   8.366   3.447   2.532
 3432TIP3    H110181   8.364   3.471   2.437
 3432TIP3    H210182   8.443   3.498   2.563
 3433TIP3   OH210183   7.323   2.558   2.954
 3433TIP3    H110184   7.403   2.588   3.002
 3433TIP3    H210185   7.259   2.556   3.028
 3434TIP3   OH210186   7.788   2.011   2.209
 3434TIP3    H110187   7.861   1.970   2.160
 3434TIP3    H210188   7.798   1.970   2.297
 3435TIP3   OH210189   7.315   1.496   2.090
 3435TIP3    H110190   7.274   1.420   2.137
 3435TIP3    H210191   7.364   1.452   2.020
 3436TIP3   OH210192   7.765   1.906   2.498
 3436TIP3    H110193   7.675   1.942   2.513
 3436TIP3    H210194   7.822   1.966   2.550
 3437TIP3   OH210195   7.501   2.299   1.593
 3437TIP3    H110196   7.429   2.233   1.583
 3437TIP3    H210197   7.484   2.332   1.685
 3438TIP3   OH210198   8.401   2.534   2.223
 3438TIP3    H110199   8.422   2.580   2.140
 3438TIP3    H210200   8.315   2.491   2.201
 3439TIP3   OH210201   7.950   1.641   1.396
 3439TIP3    H110202   7.873   1.593   1.435
 3439TIP3    H210203   7.969   1.710   1.463
 3440TIP3   OH210204   7.902   2.617   2.591
 3440TIP3    H110205   7.922   2.593   2.682
 3440TIP3    H210206   7.862   2.705   2.599
 3441TIP3   OH210207   8.031   1.850   1.556
 3441TIP3    H110208   8.126   1.864   1.578
 3441TIP3    H210209   8.009   1.932   1.508
 3442TIP3   OH210210   7.195   2.322   2.270
 3442TIP3    H110211   7.232   2.292   2.185
 3442TIP3    H210212   7.230   2.256   2.332
 3443TIP3   OH210213   7.647   2.448   1.415
 3443TIP3    H110214   7.599   2.534   1.422
 3443TIP3    H210215   7.592   2.392   1.474
 3444TIP3   OH210216   7.073   2.241   2.883
 3444TIP3    H110217   7.094   2.226   2.977
 3444TIP3    H210218   7.004   2.174   2.867
 3445TIP3   OH210219   7.798   2.354   2.904
 3445TIP3    H110220   7.740   2.296   2.853
 3445TIP3    H210221   7.886   2.321   2.875
 3446TIP3   OH210222   8.062   2.876   2.486
 3446TIP3    H110223   7.965   2.874   2.498
 3446TIP3    H210224   8.089   2.927   2.565
 3447TIP3   OH210225   8.461   1.941   1.410
 3447TIP3    H110226   8.413   1.883   1.347
 3447TIP3    H210227   8.457   2.025   1.359
 3448TIP3   OH210228   8.689   2.796   2.468
 3448TIP3    H110229   8.591   2.796   2.464
 3448TIP3    H210230   8.710   2.763   2.378
 3449TIP3   OH210231   8.171   2.767   1.303
 3449TIP3    H110232   8.146   2.699   1.367
 3449TIP3    H210233   8.182   2.717   1.220
 3450TIP3   OH210234   8.167   2.397   2.143
 3450TIP3    H110235   8.074   2.371   2.157
 3450TIP3    H210236   8.200   2.317   2.097
 3451TIP3   OH210237   7.293   2.622   1.893
 3451TIP3    H110238   7.295   2.705   1.841
 3451TIP3    H210239   7.198   2.608   1.904
 3452TIP3   OH210240   6.854   1.929   1.594
 3452TIP3    H110241   6.903   2.011   1.618
 3452TIP3    H210242   6.779   1.934   1.657
 3453TIP3   OH210243   7.435   2.391   1.839
 3453TIP3    H110244   7.399   2.480   1.857
 3453TIP3    H210245   7.398   2.340   1.914
 3454TIP3   OH210246   7.563   2.967   2.364
 3454TIP3    H110247   7.604   3.040   2.313
 3454TIP3    H210248   7.640   2.934   2.414
 3455TIP3   OH210249   7.214   2.862   1.747
 3455TIP3    H110250   7.128   2.870   1.793
 3455TIP3    H210251   7.245   2.955   1.751
 3456TIP3   OH210252   7.953   2.602   2.322
 3456TIP3    H110253   7.943   2.601   2.420
 3456TIP3    H210254   8.032   2.548   2.310
 3457TIP3   OH210255   7.926   2.491   1.203
 3457TIP3    H110256   7.978   2.467   1.283
 3457TIP3    H210257   7.837   2.467   1.233
 3458TIP3   OH210258   8.202   3.135   2.373
 3458TIP3    H110259   8.122   3.079   2.365
 3458TIP3    H210260   8.185   3.201   2.301
 3459TIP3   OH210261   8.265   2.971   1.024
 3459TIP3    H110262   8.299   3.046   0.972
 3459TIP3    H210263   8.184   3.015   1.060
 3460TIP3   OH210264   7.286   1.748   2.892
 3460TIP3    H110265   7.189   1.751   2.903
 3460TIP3    H210266   7.312   1.684   2.961
 3461TIP3   OH210267   8.084   2.425   1.419
 3461TIP3    H110268   8.074   2.361   1.492
 3461TIP3    H210269   8.182   2.427   1.410
 3462TIP3   OH210270   7.001   2.832   2.524
 3462TIP3    H110271   7.053   2.755   2.553
 3462TIP3    H210272   7.032   2.899   2.586
 3463TIP3   OH210273   7.293   2.474   1.203
 3463TIP3    H110274   7.308   2.382   1.176
 3463TIP3    H210275   7.275   2.463   1.299
 3464TIP3   OH210276   7.239   2.480   1.476
 3464TIP3    H110277   7.308   2.452   1.538
 3464TIP3    H210278   7.243   2.578   1.484
 3465TIP3   OH210279   6.974   2.173   1.679
 3465TIP3    H110280   6.908   2.217   1.737
 3465TIP3    H210281   6.989   2.244   1.614
 3466TIP3   OH210282   8.119   1.812   2.574
 3466TIP3    H110283   8.200   1.849   2.611
 3466TIP3    H210284   8.106   1.731   2.627
 3467TIP3   OH210285   7.974   1.580   1.733
 3467TIP3    H110286   7.988   1.597   1.639
 3467TIP3    H210287   8.029   1.649   1.775
 3468TIP3   OH210288   7.503   2.678   1.425
 3468TIP3    H110289   7.417   2.706   1.461
 3468TIP3    H210290   7.520   2.750   1.363
 3469TIP3   OH210291   7.690   1.740   1.837
 3469TIP3    H110292   7.758   1.809   1.820
 3469TIP3    H210293   7.695   1.732   1.935
 3470TIP3   OH210294   7.961   2.061   2.647
 3470TIP3    H110295   7.981   2.114   2.727
 3470TIP3    H210296   8.016   1.982   2.660
 3471TIP3   OH210297   7.837   1.470   1.944
 3471TIP3    H110298   7.830   1.546   2.004
 3471TIP3    H210299   7.891   1.509   1.871
 3472TIP3   OH210300   7.246   2.753   1.493
 3472TIP3    H110301   7.216   2.823   1.430
 3472TIP3    H210302   7.230   2.797   1.579
 3473TIP3   OH210303   7.351   1.465   1.734
 3473TIP3    H110304   7.342   1.555   1.772
 3473TIP3    H210305   7.447   1.452   1.747
 3474TIP3   OH210306   8.600   1.960   2.628
 3474TIP3    H110307   8.501   1.956   2.630
 3474TIP3    H210308   8.617   1.938   2.535
 3475TIP3   OH210309   8.243   2.161   2.011
 3475TIP3    H110310   8.171   2.097   2.027
 3475TIP3    H210311   8.318   2.120   2.060
 3476TIP3   OH210312   6.964   2.385   1.486
 3476TIP3    H110313   7.029   2.457   1.495
 3476TIP3    H210314   7.011   2.331   1.419
 3477TIP3   OH210315   6.912   1.659   1.615
 3477TIP3    H110316   6.906   1.757   1.611
 3477TIP3    H210317   6.823   1.633   1.586
 3478TIP3   OH210318   8.221   3.108   1.965
 3478TIP3    H110319   8.179   3.155   1.890
 3478TIP3    H210320   8.315   3.129   1.946
 3479TIP3   OH210321   7.298   1.379   2.492
 3479TIP3    H110322   7.265   1.346   2.405
 3479TIP3    H210323   7.285   1.300   2.549
 3480TIP3   OH210324   6.838   2.600   1.875
 3480TIP3    H110325   6.764   2.629   1.930
 3480TIP3    H210326   6.813   2.639   1.788
 3481TIP3   OH210327   6.992   3.137   2.945
 3481TIP3    H110328   7.078   3.137   2.992
 3481TIP3    H210329   6.971   3.042   2.943
 3482TIP3   OH210330   7.475   3.105   2.989
 3482TIP3    H110331   7.569   3.085   2.997
 3482TIP3    H210332   7.450   3.046   2.914
 3483TIP3   OH210333   7.453   2.682   1.119
 3483TIP3    H110334   7.401   2.608   1.157
 3483TIP3    H210335   7.529   2.633   1.081
 3484TIP3   OH210336   8.114   3.009   2.721
 3484TIP3    H110337   8.105   2.939   2.790
 3484TIP3    H210338   8.191   3.060   2.753
 3485TIP3   OH210339   7.895   2.722   1.030
 3485TIP3    H110340   7.942   2.659   1.087
 3485TIP3    H210341   7.949   2.723   0.949
 3486TIP3   OH210342   7.123   2.545   3.145
 3486TIP3    H110343   7.141   2.449   3.148
 3486TIP3    H210344   7.035   2.547   3.102
 3487TIP3   OH210345   7.100   2.197   1.337
 3487TIP3    H110346   7.153   2.162   1.411
 3487TIP3    H210347   7.169   2.202   1.267
 3488TIP3   OH210348   7.731   2.629   2.918
 3488TIP3    H110349   7.689   2.644   2.831
 3488TIP3    H210350   7.763   2.536   2.912
 3489TIP3   OH210351   7.609   2.391   1.147
 3489TIP3    H110352   7.610   2.405   1.244
 3489TIP3    H210353   7.610   2.292   1.143
 3490TIP3   OH210354   8.224   2.636   2.524
 3490TIP3    H110355   8.297   2.684   2.481
 3490TIP3    H210356   8.151   2.700   2.513
 3491TIP3   OH210357   7.241   2.279   3.126
 3491TIP3    H110358   7.315   2.220   3.106
 3491TIP3    H210359   7.266   2.311   3.216
 3492TIP3   OH210360   7.309   2.100   1.561
 3492TIP3    H110361   7.281   2.059   1.645
 3492TIP3    H210362   7.344   2.023   1.511
 3493TIP3   OH210363   7.577   2.164   2.790
 3493TIP3    H110364   7.500   2.224   2.793
 3493TIP3    H210365   7.625   2.197   2.710
 3494TIP3   OH210366   7.408   1.891   1.402
 3494TIP3    H110367   7.381   1.891   1.308
 3494TIP3    H210368   7.505   1.900   1.394
 3495TIP3   OH210369   8.093   2.565   2.922
 3495TIP3    H110370   8.175   2.544   2.876
 3495TIP3    H210371   8.092   2.498   2.993
 3496TIP3   OH210372   8.229   2.219   1.041
 3496TIP3    H110373   8.192   2.179   0.960
 3496TIP3    H210374   8.200   2.312   1.027
 3497TIP3   OH210375   7.701   1.951   2.916
 3497TIP3    H110376   7.700   1.871   2.860
 3497TIP3    H210377   7.657   2.017   2.858
 3498TIP3   OH210378   7.703   1.738   2.721
 3498TIP3    H110379   7.730   1.778   2.637
 3498TIP3    H210380   7.610   1.714   2.704
 3499TIP3   OH210381   7.732   2.275   2.595
 3499TIP3    H110382   7.814   2.280   2.545
 3499TIP3    H210383   7.675   2.342   2.551
 3500TIP3   OH210384   8.314   2.242   2.978
 3500TIP3    H110385   8.362   2.158   2.986
 3500TIP3    H210386   8.384   2.301   2.945
 3501TIP3   OH210387   8.354   2.493   2.712
 3501TIP3    H110388   8.296   2.547   2.653
 3501TIP3    H210389   8.441   2.512   2.671
 3502TIP3   OH210390   7.578   2.065   3.145
 3502TIP3    H110391   7.509   1.997   3.158
 3502TIP3    H210392   7.613   2.040   3.057
 3503TIP3   OH210393   7.835   1.503   2.788
 3503TIP3    H110394   7.787   1.585   2.765
 3503TIP3    H210395   7.765   1.435   2.776
 3504TIP3   OH210396   7.961   2.008   3.005
 3504TIP3    H110397   7.950   1.996   3.101
 3504TIP3    H210398   7.871   1.982   2.975
 3505TIP3   OH210399   8.202   1.956   2.860
 3505TIP3    H110400   8.125   1.957   2.921
 3505TIP3    H210401   8.274   1.925   2.918
 3506TIP3   OH210402   8.431   1.896   3.013
 3506TIP3    H110403   8.441   1.800   3.032
 3506TIP3    H210404   8.425   1.936   3.102
 3507TIP3   OH210405   7.418   1.845   3.197
 3507TIP3    H110406   7.424   1.755   3.161
 3507TIP3    H210407   7.453   1.831   3.287
 3508TIP3   OH210408   7.931   1.512   3.045
 3508TIP3    H110409   7.997   1.441   3.039
 3508TIP3    H210410   7.890   1.506   2.956
 3509TIP3   OH210411   7.995   1.726   3.205
 3509TIP3    H110412   7.973   1.656   3.140
 3509TIP3    H210413   7.918   1.786   3.198
 3510TIP3   OH210414   7.216   2.955   1.305
 3510TIP3    H110415   7.311   2.952   1.286
 3510TIP3    H210416   7.185   3.004   1.226
 3511TIP3   OH210417   6.696   2.338   1.521
 3511TIP3    H110418   6.791   2.360   1.509
 3511TIP3    H210419   6.691   2.249   1.480
 3512TIP3   OH210420   6.609   2.949   1.935
 3512TIP3    H110421   6.542   2.887   1.900
 3512TIP3    H210422   6.654   2.892   2.001
 3513TIP3   OH210423   6.746   2.803   2.122
 3513TIP3    H110424   6.735   2.728   2.183
 3513TIP3    H210425   6.797   2.863   2.178
 3514TIP3   OH210426   8.475   3.198   1.921
 3514TIP3    H110427   8.499   3.236   2.008
 3514TIP3    H210428   8.533   3.248   1.862
 3515TIP3   OH210429   8.501   3.222   2.204
 3515TIP3    H110430   8.461   3.133   2.200
 3515TIP3    H210431   8.579   3.203   2.260
 3516TIP3   OH210432   8.549   2.899   2.775
 3516TIP3    H110433   8.476   2.906   2.840
 3516TIP3    H210434   8.590   2.988   2.781
 3517TIP3   OH210435   8.362   2.411   1.393
 3517TIP3    H110436   8.430   2.478   1.372
 3517TIP3    H210437   8.403   2.370   1.473
 3518TIP3   OH210438   8.480   2.275   1.597
 3518TIP3    H110439   8.414   2.232   1.656
 3518TIP3    H210440   8.540   2.318   1.660
 3519TIP3   OH210441   8.544   2.665   2.028
 3519TIP3    H110442   8.591   2.613   1.961
 3519TIP3    H210443   8.531   2.749   1.980
 3520TIP3   OH210444   8.379   2.969   2.228
 3520TIP3    H110445   8.310   3.014   2.280
 3520TIP3    H210446   8.325   2.923   2.159
 3521TIP3   OH210447   8.398   2.174   1.256
 3521TIP3    H110448   8.334   2.186   1.183
 3521TIP3    H210449   8.375   2.251   1.312
 3522TIP3   OH210450   8.278   1.842   1.221
 3522TIP3    H110451   8.298   1.914   1.159
 3522TIP3    H210452   8.319   1.766   1.177
 3523TIP3   OH210453   8.305   2.132   1.748
 3523TIP3    H110454   8.317   2.036   1.750
 3523TIP3    H210455   8.290   2.152   1.843
 3524TIP3   OH210456   6.934   2.210   2.493
 3524TIP3    H110457   6.932   2.178   2.400
 3524TIP3    H210458   7.031   2.211   2.510
 3525TIP3   OH210459   8.596   2.558   2.603
 3525TIP3    H110460   8.671   2.495   2.594
 3525TIP3    H210461   8.624   2.630   2.544
 3526TIP3   OH210462   8.794   2.374   2.624
 3526TIP3    H110463   8.715   2.326   2.658
 3526TIP3    H210464   8.859   2.301   2.633
 3527TIP3   OH210465   8.302   1.849   1.640
 3527TIP3    H110466   8.344   1.763   1.654
 3527TIP3    H210467   8.358   1.888   1.570
 3528TIP3   OH210468   8.456   2.056   2.132
 3528TIP3    H110469   8.542   2.074   2.089
 3528TIP3    H210470   8.482   2.059   2.226
 3529TIP3   OH210471   8.536   2.172   2.380
 3529TIP3    H110472   8.454   2.203   2.422
 3529TIP3    H210473   8.564   2.250   2.329
 3530TIP3   OH210474   7.151   1.898   3.172
 3530TIP3    H110475   7.248   1.889   3.170
 3530TIP3    H210476   7.127   1.811   3.211
 3531TIP3   OH210477   8.440   1.602   1.693
 3531TIP3    H110478   8.427   1.601   1.790
 3531TIP3    H210479   8.382   1.526   1.672
 3532TIP3   OH210480   7.110   1.584   2.511
 3532TIP3    H110481   7.173   1.510   2.513
 3532TIP3    H210482   7.171   1.659   2.497
 3533TIP3   OH210483   6.917   1.863   2.574
 3533TIP3    H110484   6.963   1.848   2.489
 3533TIP3    H210485   6.952   1.950   2.598
 3534TIP3   OH210486   8.845   1.889   2.750
 3534TIP3    H110487   8.767   1.942   2.774
 3534TIP3    H210488   8.805   1.833   2.680
 3535TIP3   OH210489   6.898   1.360   2.071
 3535TIP3    H110490   6.806   1.356   2.102
 3535TIP3    H210491   6.893   1.422   1.996
 3536TIP3   OH210492   8.057   3.066   1.578
 3536TIP3    H110493   8.110   3.053   1.497
 3536TIP3    H210494   8.108   3.134   1.625
 3537TIP3   OH210495   7.119   1.447   2.890
 3537TIP3    H110496   7.067   1.439   2.971
 3537TIP3    H210497   7.053   1.483   2.828
 3538TIP3   OH210498   7.158   2.872   2.965
 3538TIP3    H110499   7.067   2.843   2.948
 3538TIP3    H210500   7.168   2.853   3.059
 3539TIP3   OH210501   7.336   2.903   2.513
 3539TIP3    H110502   7.288   2.979   2.474
 3539TIP3    H210503   7.422   2.916   2.468
 3540TIP3   OH210504   7.782   3.149   2.650
 3540TIP3    H110505   7.824   3.150   2.739
 3540TIP3    H210506   7.849   3.199   2.598
 3541TIP3   OH210507   7.961   3.300   2.508
 3541TIP3    H110508   8.033   3.249   2.467
 3541TIP3    H210509   8.012   3.358   2.569
 3542TIP3   OH210510   8.747   1.664   2.614
 3542TIP3    H110511   8.661   1.671   2.569
 3542TIP3    H210512   8.779   1.578   2.581
 3543TIP3   OH210513   7.014   3.162   2.535
 3543TIP3    H110514   6.925   3.196   2.511
 3543TIP3    H210515   7.022   3.195   2.625
 3544TIP3   OH210516   7.250   3.140   2.393
 3544TIP3    H110517   7.164   3.152   2.438
 3544TIP3    H210518   7.229   3.173   2.303
 3545TIP3   OH210519   7.676   3.169   2.190
 3545TIP3    H110520   7.606   3.191   2.125
 3545TIP3    H210521   7.689   3.256   2.234
 3546TIP3   OH210522   7.944   3.108   2.241
 3546TIP3    H110523   7.850   3.125   2.222
 3546TIP3    H210524   7.986   3.186   2.201
 3547TIP3   OH210525   8.151   3.300   2.158
 3547TIP3    H110526   8.137   3.386   2.111
 3547TIP3    H210527   8.177   3.241   2.084
 3548TIP3   OH210528   6.924   2.955   2.281
 3548TIP3    H110529   6.951   2.929   2.372
 3548TIP3    H210530   6.996   2.912   2.230
 3549TIP3   OH210531   7.118   2.827   2.137
 3549TIP3    H110532   7.133   2.742   2.185
 3549TIP3    H210533   7.208   2.863   2.133
 3550TIP3   OH210534   7.384   2.922   2.139
 3550TIP3    H110535   7.415   2.830   2.127
 3550TIP3    H210536   7.427   2.943   2.224
 3551TIP3   OH210537   7.960   1.577   2.227
 3551TIP3    H110538   7.915   1.510   2.282
 3551TIP3    H210539   8.030   1.526   2.183
 3552TIP3   OH210540   8.493   1.454   2.103
 3552TIP3    H110541   8.532   1.540   2.078
 3552TIP3    H210542   8.398   1.477   2.116
 3553TIP3   OH210543   7.211   1.289   2.243
 3553TIP3    H110544   7.119   1.254   2.247
 3553TIP3    H210545   7.259   1.203   2.241
 3554TIP3   OH210546   6.986   1.157   1.879
 3554TIP3    H110547   7.018   1.224   1.817
 3554TIP3    H210548   6.962   1.211   1.957
 3555TIP3   OH210549   7.652   1.322   2.118
 3555TIP3    H110550   7.716   1.376   2.070
 3555TIP3    H210551   7.664   1.353   2.209
 3556TIP3   OH210552   8.211   1.463   2.105
 3556TIP3    H110553   8.191   1.438   2.013
 3556TIP3    H210554   8.188   1.382   2.155
 3557TIP3   OH210555   8.234   1.427   1.774
 3557TIP3    H110556   8.171   1.439   1.701
 3557TIP3    H210557   8.225   1.330   1.787
 3558TIP3   OH210558   6.713   2.725   1.672
 3558TIP3    H110559   6.628   2.693   1.637
 3558TIP3    H210560   6.701   2.820   1.655
 3559TIP3   OH210561   7.112   1.325   1.655
 3559TIP3    H110562   7.159   1.262   1.598
 3559TIP3    H210563   7.185   1.374   1.697
 3560TIP3   OH210564   7.631   1.484   1.758
 3560TIP3    H110565   7.691   1.450   1.827
 3560TIP3    H210566   7.642   1.580   1.777
 3561TIP3   OH210567   7.484   2.917   1.254
 3561TIP3    H110568   7.572   2.939   1.217
 3561TIP3    H210569   7.462   2.842   1.195
 3562TIP3   OH210570   8.205   3.034   1.346
 3562TIP3    H110571   8.194   2.936   1.333
 3562TIP3    H210572   8.158   3.068   1.267
 3563TIP3   OH210573   7.416   1.569   3.138
 3563TIP3    H110574   7.384   1.497   3.194
 3563TIP3    H210575   7.511   1.569   3.162
 3564TIP3   OH210576   7.666   1.565   3.255
 3564TIP3    H110577   7.750   1.539   3.215
 3564TIP3    H210578   7.653   1.494   3.321
 3565TIP3   OH210579   6.788   2.752   1.311
 3565TIP3    H110580   6.788   2.779   1.404
 3565TIP3    H210581   6.877   2.712   1.302
 3566TIP3   OH210582   8.488   1.624   3.044
 3566TIP3    H110583   8.510   1.595   3.135
 3566TIP3    H210584   8.575   1.623   3.000
 3567TIP3   OH210585   8.429   3.178   2.535
 3567TIP3    H110586   8.350   3.147   2.488
 3567TIP3    H210587   8.410   3.274   2.538
 3568TIP3   OH210588   8.653   2.057   1.567
 3568TIP3    H110589   8.592   2.132   1.580
 3568TIP3    H210590   8.598   2.001   1.509
 3569TIP3   OH210591   8.707   2.349   1.731
 3569TIP3    H110592   8.744   2.268   1.768
 3569TIP3    H210593   8.751   2.351   1.644
 3570TIP3   OH210594   8.564   2.585   1.314
 3570TIP3    H110595   8.547   2.600   1.220
 3570TIP3    H210596   8.596   2.673   1.342
 3571TIP3   OH210597   8.751   2.693   2.219
 3571TIP3    H110598   8.679   2.664   2.161
 3571TIP3    H210599   8.784   2.608   2.257
 3572TIP3   OH210600   8.611   2.902   1.869
 3572TIP3    H110601   8.708   2.910   1.864
 3572TIP3    H210602   8.590   2.984   1.917
 3573TIP3   OH210603   8.750   3.120   1.405
 3573TIP3    H110604   8.802   3.118   1.488
 3573TIP3    H210605   8.695   3.041   1.416
 3574TIP3   OH210606   8.898   2.916   2.241
 3574TIP3    H110607   8.926   2.900   2.332
 3574TIP3    H210608   8.836   2.842   2.227
 3575TIP3   OH210609   8.854   2.489   2.372
 3575TIP3    H110610   8.872   2.460   2.463
 3575TIP3    H210611   8.785   2.426   2.345
 3576TIP3   OH210612   8.640   2.253   1.141
 3576TIP3    H110613   8.653   2.349   1.133
 3576TIP3    H210614   8.558   2.243   1.191
 3577TIP3   OH210615   8.797   3.090   2.016
 3577TIP3    H110616   8.835   3.023   2.075
 3577TIP3    H210617   8.822   3.172   2.061
 3578TIP3   OH210618   8.628   2.852   1.363
 3578TIP3    H110619   8.552   2.881   1.415
 3578TIP3    H210620   8.610   2.895   1.277
 3579TIP3   OH210621   8.784   3.388   2.434
 3579TIP3    H110622   8.874   3.377   2.469
 3579TIP3    H210623   8.756   3.295   2.427
 3580TIP3   OH210624   8.917   2.826   2.619
 3580TIP3    H110625   8.946   2.741   2.657
 3580TIP3    H210626   8.832   2.804   2.576
 3581TIP3   OH210627   8.487   2.600   0.990
 3581TIP3    H110628   8.582   2.587   1.008
 3581TIP3    H210629   8.466   2.510   0.957
 3582TIP3   OH210630   8.406   3.206   1.422
 3582TIP3    H110631   8.338   3.144   1.388
 3582TIP3    H210632   8.450   3.150   1.489
 3583TIP3   OH210633   8.540   3.056   1.611
 3583TIP3    H110634   8.526   2.985   1.675
 3583TIP3    H210635   8.592   3.119   1.665
 3584TIP3   OH210636   8.756   2.459   1.980
 3584TIP3    H110637   8.729   2.429   1.890
 3584TIP3    H210638   8.838   2.506   1.960
 3585TIP3   OH210639   8.930   2.140   2.635
 3585TIP3    H110640   9.022   2.174   2.647
 3585TIP3    H210641   8.928   2.066   2.698
 3586TIP3   OH210642   8.706   2.135   2.028
 3586TIP3    H110643   8.764   2.057   2.037
 3586TIP3    H210644   8.755   2.205   2.072
 3587TIP3   OH210645   8.952   3.130   2.470
 3587TIP3    H110646   8.865   3.102   2.437
 3587TIP3    H210647   8.952   3.095   2.560
 3588TIP3   OH210648   8.801   3.408   2.030
 3588TIP3    H110649   8.716   3.447   2.000
 3588TIP3    H210650   8.818   3.464   2.107
 3589TIP3   OH210651   9.045   3.380   1.883
 3589TIP3    H110652   8.959   3.399   1.924
 3589TIP3    H210653   9.038   3.428   1.798
 3590TIP3   OH210654   8.721   3.209   1.764
 3590TIP3    H110655   8.748   3.191   1.856
 3590TIP3    H210656   8.801   3.177   1.717
 3591TIP3   OH210657   8.927   3.099   1.612
 3591TIP3    H110658   8.950   3.005   1.619
 3591TIP3    H210659   9.015   3.141   1.625
 3592TIP3   OH210660   8.510   2.979   1.156
 3592TIP3    H110661   8.422   2.951   1.123
 3592TIP3    H210662   8.499   3.076   1.149
 3593TIP3   OH210663   8.609   3.020   0.812
 3593TIP3    H110664   8.569   3.052   0.895
 3593TIP3    H210665   8.666   2.949   0.844
 3594TIP3   OH210666   0.374   3.101   3.523
 3594TIP3    H110667   0.340   3.190   3.499
 3594TIP3    H210668   0.299   3.046   3.495
 3595TIP3   OH210669   0.353   3.081   3.885
 3595TIP3    H110670   0.382   3.052   3.973
 3595TIP3    H210671   0.312   3.000   3.850
 3596TIP3   OH210672  -0.350   2.980   4.246
 3596TIP3    H110673  -0.326   2.910   4.309
 3596TIP3    H210674  -0.280   3.044   4.263
 3597TIP3   OH210675   0.596   3.383   3.564
 3597TIP3    H110676   0.576   3.314   3.629
 3597TIP3    H210677   0.620   3.458   3.620
 3598TIP3   OH210678  -0.373   3.386   3.972
 3598TIP3    H110679  -0.387   3.289   3.980
 3598TIP3    H210680  -0.276   3.391   3.973
 3599TIP3   OH210681   0.242   3.846   3.579
 3599TIP3    H110682   0.291   3.773   3.536
 3599TIP3    H210683   0.233   3.815   3.669
 3600TIP3   OH210684   0.151   3.306   3.930
 3600TIP3    H110685   0.191   3.230   3.885
 3600TIP3    H210686   0.234   3.352   3.956
 3601TIP3   OH210687   1.163   2.630   3.930
 3601TIP3    H110688   1.192   2.713   3.972
 3601TIP3    H210689   1.183   2.647   3.836
 3602TIP3   OH210690   0.567   2.811   3.968
 3602TIP3    H110691   0.604   2.723   3.987
 3602TIP3    H210692   0.530   2.798   3.879
 3603TIP3   OH210693  -0.096   2.491   3.906
 3603TIP3    H110694  -0.132   2.533   3.827
 3603TIP3    H210695  -0.085   2.400   3.873
 3604TIP3   OH210696   0.594   2.572   3.574
 3604TIP3    H110697   0.669   2.553   3.635
 3604TIP3    H210698   0.642   2.606   3.497
 3605TIP3   OH210699  -0.471   2.663   4.037
 3605TIP3    H110700  -0.392   2.644   4.092
 3605TIP3    H210701  -0.435   2.653   3.948
 3606TIP3   OH210702  -0.018   2.869   3.820
 3606TIP3    H110703   0.076   2.853   3.844
 3606TIP3    H210704  -0.050   2.778   3.814
 3607TIP3   OH210705   1.239   2.842   4.098
 3607TIP3    H110706   1.153   2.885   4.078
 3607TIP3    H210707   1.231   2.835   4.195
 3608TIP3   OH210708  -0.110   2.452   4.359
 3608TIP3    H110709  -0.175   2.489   4.297
 3608TIP3    H210710  -0.155   2.468   4.445
 3609TIP3   OH210711   0.259   3.312   3.384
 3609TIP3    H110712   0.214   3.290   3.300
 3609TIP3    H210713   0.209   3.393   3.408
 3610TIP3   OH210714   0.003   3.225   4.161
 3610TIP3    H110715  -0.061   3.288   4.200
 3610TIP3    H210716   0.043   3.280   4.091
 3611TIP3   OH210717   0.814   2.560   3.727
 3611TIP3    H110718   0.800   2.507   3.807
 3611TIP3    H210719   0.864   2.637   3.760
 3612TIP3   OH210720  -0.224   2.578   4.135
 3612TIP3    H110721  -0.173   2.651   4.176
 3612TIP3    H210722  -0.158   2.546   4.070
 3613TIP3   OH210723  -0.167   3.416   4.253
 3613TIP3    H110724  -0.190   3.505   4.218
 3613TIP3    H210725  -0.244   3.404   4.313
 3614TIP3   OH210726   0.669   3.625   3.736
 3614TIP3    H110727   0.579   3.617   3.776
 3614TIP3    H210728   0.660   3.712   3.691
 3615TIP3   OH210729   0.956   2.535   4.100
 3615TIP3    H110730   0.866   2.556   4.069
 3615TIP3    H210731   1.012   2.560   4.024
 3616TIP3   OH210732   0.265   2.186   4.085
 3616TIP3    H110733   0.249   2.090   4.098
 3616TIP3    H210734   0.181   2.219   4.121
 3617TIP3   OH210735   0.371   3.670   3.410
 3617TIP3    H110736   0.423   3.590   3.386
 3617TIP3    H210737   0.427   3.739   3.368
 3618TIP3   OH210738   0.515   3.455   3.310
 3618TIP3    H110739   0.456   3.382   3.286
 3618TIP3    H210740   0.550   3.424   3.396
 3619TIP3   OH210741   0.919   3.529   4.082
 3619TIP3    H110742   0.894   3.459   4.018
 3619TIP3    H210743   0.896   3.610   4.031
 3620TIP3   OH210744   0.215   2.957   3.351
 3620TIP3    H110745   0.124   2.996   3.347
 3620TIP3    H210746   0.260   3.009   3.284
 3621TIP3   OH210747   1.095   3.189   3.927
 3621TIP3    H110748   1.007   3.232   3.928
 3621TIP3    H210749   1.118   3.202   3.832
 3622TIP3   OH210750   0.532   3.025   3.314
 3622TIP3    H110751   0.484   3.054   3.395
 3622TIP3    H210752   0.615   2.993   3.354
 3623TIP3   OH210753   0.767   3.060   4.214
 3623TIP3    H110754   0.756   3.141   4.266
 3623TIP3    H210755   0.679   3.057   4.169
 3624TIP3   OH210756  -0.225   3.021   3.725
 3624TIP3    H110757  -0.283   2.948   3.696
 3624TIP3    H210758  -0.146   2.971   3.756
 3625TIP3   OH210759  -0.102   3.428   3.868
 3625TIP3    H110760  -0.125   3.378   3.789
 3625TIP3    H210761  -0.013   3.394   3.889
 3626TIP3   OH210762  -0.095   2.984   4.072
 3626TIP3    H110763  -0.059   2.975   3.982
 3626TIP3    H210764  -0.059   3.071   4.101
 3627TIP3   OH210765   0.428   3.621   3.854
 3627TIP3    H110766   0.410   3.702   3.905
 3627TIP3    H210767   0.410   3.550   3.919
 3628TIP3   OH210768   0.036   3.539   4.401
 3628TIP3    H110769  -0.022   3.604   4.446
 3628TIP3    H210770  -0.031   3.489   4.351
 3629TIP3   OH210771   0.393   2.871   3.136
 3629TIP3    H110772   0.446   2.936   3.187
 3629TIP3    H210773   0.414   2.897   3.043
 3630TIP3   OH210774  -0.199   3.103   4.490
 3630TIP3    H110775  -0.197   3.190   4.535
 3630TIP3    H210776  -0.292   3.077   4.510
 3631TIP3   OH210777   0.111   3.559   3.402
 3631TIP3    H110778   0.190   3.610   3.427
 3631TIP3    H210779   0.051   3.628   3.371
 3632TIP3   OH210780  -0.163   3.711   4.489
 3632TIP3    H110781  -0.201   3.706   4.399
 3632TIP3    H210782  -0.236   3.675   4.544
 3633TIP3   OH210783   0.685   3.487   2.725
 3633TIP3    H110784   0.695   3.584   2.716
 3633TIP3    H210785   0.778   3.458   2.714
 3634TIP3   OH210786  -0.585   3.256   4.427
 3634TIP3    H110787  -0.648   3.219   4.365
 3634TIP3    H210788  -0.558   3.175   4.475
 3635TIP3   OH210789   1.127   3.882   4.124
 3635TIP3    H110790   1.094   3.795   4.098
 3635TIP3    H210791   1.048   3.916   4.173
 3636TIP3   OH210792   0.236   3.669   4.258
 3636TIP3    H110793   0.235   3.762   4.290
 3636TIP3    H210794   0.163   3.631   4.313
 3637TIP3   OH210795  -0.001   3.801   3.220
 3637TIP3    H110796  -0.043   3.783   3.134
 3637TIP3    H210797  -0.035   3.890   3.241
 3638TIP3   OH210798   0.200   3.702   2.846
 3638TIP3    H110799   0.257   3.630   2.812
 3638TIP3    H210800   0.233   3.711   2.938
 3639TIP3   OH210801   0.247   3.748   3.118
 3639TIP3    H110802   0.159   3.760   3.161
 3639TIP3    H210803   0.297   3.708   3.190
 3640TIP3   OH210804   1.025   3.026   4.387
 3640TIP3    H110805   0.937   3.032   4.347
 3640TIP3    H210806   1.040   2.929   4.384
 3641TIP3   OH210807  -0.374   3.427   4.422
 3641TIP3    H110808  -0.334   3.423   4.511
 3641TIP3    H210809  -0.449   3.363   4.431
 3642TIP3   OH210810   0.011   2.254   4.204
 3642TIP3    H110811  -0.070   2.219   4.164
 3642TIP3    H210812  -0.024   2.327   4.260
 3643TIP3   OH210813   0.547   2.365   4.402
 3643TIP3    H110814   0.614   2.334   4.467
 3643TIP3    H210815   0.462   2.342   4.446
 3644TIP3   OH210816   0.796   2.798   4.327
 3644TIP3    H110817   0.742   2.788   4.409
 3644TIP3    H210818   0.758   2.878   4.287
 3645TIP3   OH210819   0.455   2.925   2.879
 3645TIP3    H110820   0.401   2.911   2.800
 3645TIP3    H210821   0.526   2.983   2.847
 3646TIP3   OH210822  -0.050   2.767   4.228
 3646TIP3    H110823  -0.101   2.785   4.309
 3646TIP3    H210824  -0.069   2.848   4.175
 3647TIP3   OH210825   0.321   2.742   3.477
 3647TIP3    H110826   0.276   2.819   3.436
 3647TIP3    H210827   0.379   2.712   3.405
 3648TIP3   OH210828   0.495   3.014   4.554
 3648TIP3    H110829   0.470   2.941   4.616
 3648TIP3    H210830   0.589   3.026   4.578
 3649TIP3   OH210831   0.473   2.773   3.714
 3649TIP3    H110832   0.412   2.797   3.641
 3649TIP3    H210833   0.509   2.690   3.675
 3650TIP3   OH210834  -0.230   2.791   4.433
 3650TIP3    H110835  -0.227   2.858   4.504
 3650TIP3    H210836  -0.247   2.709   4.483
 3651TIP3   OH210837   0.494   3.011   4.131
 3651TIP3    H110838   0.524   2.938   4.073
 3651TIP3    H210839   0.461   2.960   4.208
 3652TIP3   OH210840   0.177   2.487   3.812
 3652TIP3    H110841   0.102   2.504   3.873
 3652TIP3    H210842   0.250   2.471   3.874
 3653TIP3   OH210843   0.648   2.546   4.002
 3653TIP3    H110844   0.615   2.557   4.094
 3653TIP3    H210845   0.585   2.481   3.967
 3654TIP3   OH210846   0.820   4.232   4.222
 3654TIP3    H110847   0.813   4.260   4.129
 3654TIP3    H210848   0.889   4.291   4.256
 3655TIP3   OH210849  -0.215   3.338   4.644
 3655TIP3    H110850  -0.138   3.375   4.691
 3655TIP3    H210851  -0.284   3.349   4.712
 3656TIP3   OH210852   0.237   2.801   3.902
 3656TIP3    H110853   0.306   2.755   3.851
 3656TIP3    H210854   0.246   2.761   3.990
 3657TIP3   OH210855   0.217   2.699   4.182
 3657TIP3    H110856   0.127   2.731   4.204
 3657TIP3    H210857   0.274   2.754   4.239
 3658TIP3   OH210858  -0.022   3.066   3.319
 3658TIP3    H110859  -0.101   3.056   3.263
 3658TIP3    H210860  -0.056   3.115   3.398
 3659TIP3   OH210861   0.856   3.319   3.915
 3659TIP3    H110862   0.877   3.371   3.834
 3659TIP3    H210863   0.769   3.280   3.893
 3660TIP3   OH210864   0.361   3.408   4.281
 3660TIP3    H110865   0.367   3.381   4.374
 3660TIP3    H210866   0.314   3.493   4.287
 3661TIP3   OH210867   0.492   2.656   3.267
 3661TIP3    H110868   0.588   2.666   3.284
 3661TIP3    H210869   0.469   2.736   3.216
 3662TIP3   OH210870  -0.356   3.105   3.960
 3662TIP3    H110871  -0.309   3.079   3.879
 3662TIP3    H210872  -0.320   3.045   4.027
 3663TIP3   OH210873   0.125   3.244   3.156
 3663TIP3    H110874   0.070   3.307   3.104
 3663TIP3    H210875   0.057   3.188   3.196
 3664TIP3   OH210876  -0.443   3.019   4.574
 3664TIP3    H110877  -0.436   3.018   4.672
 3664TIP3    H210878  -0.537   2.994   4.559
 3665TIP3   OH210879   0.250   3.142   4.593
 3665TIP3    H110880   0.188   3.082   4.547
 3665TIP3    H210881   0.337   3.107   4.563
 3666TIP3   OH210882   0.516   3.662   4.174
 3666TIP3    H110883   0.419   3.660   4.186
 3666TIP3    H210884   0.543   3.714   4.253
 3667TIP3   OH210885   0.927   2.738   3.091
 3667TIP3    H110886   0.867   2.698   3.025
 3667TIP3    H210887   0.929   2.828   3.053
 3668TIP3   OH210888   0.623   3.555   2.993
 3668TIP3    H110889   0.598   3.488   3.058
 3668TIP3    H210890   0.636   3.505   2.911
 3669TIP3   OH210891   0.621   3.183   3.835
 3669TIP3    H110892   0.527   3.159   3.847
 3669TIP3    H210893   0.654   3.104   3.787
 3670TIP3   OH210894  -0.261   3.405   3.573
 3670TIP3    H110895  -0.259   3.496   3.536
 3670TIP3    H210896  -0.345   3.407   3.621
 3671TIP3   OH210897  -0.110   3.185   3.538
 3671TIP3    H110898  -0.151   3.274   3.551
 3671TIP3    H210899  -0.153   3.135   3.611
 3672TIP3   OH210900   0.016   3.757   4.052
 3672TIP3    H110901   0.057   3.831   4.002
 3672TIP3    H210902   0.092   3.725   4.104
 3673TIP3   OH210903  -0.322   3.650   3.457
 3673TIP3    H110904  -0.403   3.664   3.509
 3673TIP3    H210905  -0.289   3.743   3.452
 3674TIP3   OH210906   0.405   3.389   4.012
 3674TIP3    H110907   0.396   3.391   4.110
 3674TIP3    H210908   0.484   3.335   4.001
 3675TIP3   OH210909   0.379   3.278   2.890
 3675TIP3    H110910   0.430   3.257   2.972
 3675TIP3    H210911   0.292   3.243   2.914
 3676TIP3   OH210912   0.657   3.921   4.061
 3676TIP3    H110913   0.576   3.867   4.056
 3676TIP3    H210914   0.639   3.988   3.991
 3677TIP3   OH210915   0.717   3.759   2.716
 3677TIP3    H110916   0.758   3.831   2.664
 3677TIP3    H210917   0.638   3.807   2.749
 3678TIP3   OH210918  -0.252   2.530   4.587
 3678TIP3    H110919  -0.344   2.542   4.615
 3678TIP3    H210920  -0.220   2.466   4.653
 3679TIP3   OH210921   0.538   3.208   3.104
 3679TIP3    H110922   0.529   3.152   3.183
 3679TIP3    H210923   0.636   3.215   3.098
 3680TIP3   OH210924  -0.507   3.638   4.211
 3680TIP3    H110925  -0.481   3.547   4.228
 3680TIP3    H210926  -0.518   3.672   4.300
 3681TIP3   OH210927  -0.316   3.280   3.229
 3681TIP3    H110928  -0.295   3.277   3.323
 3681TIP3    H210929  -0.329   3.374   3.215
 3682TIP3   OH210930   0.576   2.598   4.261
 3682TIP3    H110931   0.654   2.632   4.308
 3682TIP3    H210932   0.556   2.517   4.313
 3683TIP3   OH210933   0.546   2.382   3.388
 3683TIP3    H110934   0.450   2.374   3.375
 3683TIP3    H210935   0.550   2.445   3.463
 3684TIP3   OH210936   0.224   2.491   3.524
 3684TIP3    H110937   0.252   2.582   3.504
 3684TIP3    H210938   0.180   2.505   3.610
 3685TIP3   OH210939   0.415   2.849   4.336
 3685TIP3    H110940   0.431   2.902   4.416
 3685TIP3    H210941   0.468   2.769   4.354
 3686TIP3   OH210942   0.347   2.268   3.651
 3686TIP3    H110943   0.309   2.305   3.732
 3686TIP3    H210944   0.365   2.349   3.601
 3687TIP3   OH210945  -0.346   3.667   3.178
 3687TIP3    H110946  -0.283   3.620   3.123
 3687TIP3    H210947  -0.316   3.650   3.269
 3688TIP3   OH210948   1.059   2.750   4.306
 3688TIP3    H110949   0.962   2.755   4.325
 3688TIP3    H210950   1.055   2.691   4.230
 3689TIP3   OH210951   0.706   2.942   3.704
 3689TIP3    H110952   0.627   2.887   3.720
 3689TIP3    H210953   0.776   2.894   3.754
 3690TIP3   OH210954   0.675   3.896   3.656
 3690TIP3    H110955   0.631   3.943   3.581
 3690TIP3    H210956   0.768   3.915   3.633
 3691TIP3   OH210957  -0.077   3.901   4.677
 3691TIP3    H110958   0.017   3.881   4.689
 3691TIP3    H210959  -0.101   3.838   4.606
 3692TIP3   OH210960   0.574   3.793   4.407
 3692TIP3    H110961   0.559   3.727   4.478
 3692TIP3    H210962   0.642   3.850   4.444
 3693TIP3   OH210963   0.350   3.510   2.714
 3693TIP3    H110964   0.372   3.440   2.779
 3693TIP3    H210965   0.432   3.518   2.663
 3694TIP3   OH210966  -0.406   3.318   4.841
 3694TIP3    H110967  -0.374   3.225   4.838
 3694TIP3    H210968  -0.501   3.302   4.824
 3695TIP3   OH210969   0.188   3.418   4.605
 3695TIP3    H110970   0.139   3.433   4.522
 3695TIP3    H210971   0.214   3.324   4.599
 3696TIP3   OH210972   0.682   3.424   4.213
 3696TIP3    H110973   0.748   3.479   4.168
 3696TIP3    H210974   0.603   3.482   4.206
 3697TIP3   OH210975  -0.316   3.050   4.832
 3697TIP3    H110976  -0.237   3.004   4.801
 3697TIP3    H210977  -0.287   3.086   4.918
 3698TIP3   OH210978   0.036   2.956   4.482
 3698TIP3    H110979  -0.045   3.011   4.483
 3698TIP3    H210980   0.080   2.987   4.399
 3699TIP3   OH210981   0.547   3.354   4.614
 3699TIP3    H110982   0.624   3.323   4.564
 3699TIP3    H210983   0.540   3.287   4.684
 3700TIP3   OH210984   0.681   3.007   2.726
 3700TIP3    H110985   0.688   3.003   2.630
 3700TIP3    H210986   0.652   3.101   2.733
 3701TIP3   OH210987   0.154   2.740   4.605
 3701TIP3    H110988   0.151   2.659   4.550
 3701TIP3    H210989   0.109   2.806   4.548
 3702TIP3   OH210990   0.152   2.527   4.410
 3702TIP3    H110991   0.180   2.564   4.324
 3702TIP3    H210992   0.059   2.502   4.391
 3703TIP3   OH210993   0.186   3.062   4.282
 3703TIP3    H110994   0.267   3.072   4.230
 3703TIP3    H210995   0.127   3.129   4.241
 3704TIP3   OH210996   0.764   3.029   4.665
 3704TIP3    H110997   0.810   2.945   4.682
 3704TIP3    H210998   0.837   3.086   4.638
 3705TIP3   OH210999   0.806   3.285   4.406
 3705TIP3    H111000   0.746   3.336   4.346
 3705TIP3    H211001   0.892   3.304   4.363
 3706TIP3   OH211002   0.030   2.854   4.834
 3706TIP3    H111003  -0.038   2.785   4.848
 3706TIP3    H211004   0.065   2.828   4.747
 3707TIP3   OH211005   0.289   2.293   4.477
 3707TIP3    H111006   0.238   2.373   4.456
 3707TIP3    H211007   0.221   2.223   4.467
 3708TIP3   OH211008   0.414   2.796   4.694
 3708TIP3    H111009   0.402   2.783   4.790
 3708TIP3    H211010   0.324   2.770   4.664
 3709TIP3   OH211011   0.653   2.742   4.549
 3709TIP3    H111012   0.576   2.744   4.609
 3709TIP3    H211013   0.724   2.709   4.608
 3710TIP3   OH211014   0.890   2.685   4.700
 3710TIP3    H111015   0.898   2.589   4.719
 3710TIP3    H211016   0.880   2.724   4.789
 3711TIP3   OH211017  -0.130   2.636   4.887
 3711TIP3    H111018  -0.125   2.545   4.853
 3711TIP3    H211019  -0.093   2.622   4.977
 3712TIP3   OH211020   0.384   2.301   4.735
 3712TIP3    H111021   0.450   2.229   4.730
 3712TIP3    H211022   0.343   2.294   4.647
 3713TIP3   OH211023   0.449   2.516   4.893
 3713TIP3    H111024   0.426   2.444   4.830
 3713TIP3    H211025   0.370   2.574   4.888
 3714TIP3   OH211026  -0.319   3.734   2.898
 3714TIP3    H111027  -0.230   3.751   2.933
 3714TIP3    H211028  -0.374   3.798   2.946
 3715TIP3   OH211029   0.929   3.984   3.610
 3715TIP3    H111030   0.949   4.023   3.697
 3715TIP3    H211031   0.982   4.039   3.550
 3716TIP3   OH211032   0.952   4.011   3.890
 3716TIP3    H111033   0.910   3.923   3.888
 3716TIP3    H211034   1.027   3.993   3.948
 3717TIP3   OH211035   1.012   3.680   4.476
 3717TIP3    H111036   0.930   3.690   4.529
 3717TIP3    H211037   1.042   3.773   4.472
 3718TIP3   OH211038   0.819   3.200   3.086
 3718TIP3    H111039   0.887   3.265   3.059
 3718TIP3    H211040   0.861   3.161   3.166
 3719TIP3   OH211041   0.945   3.066   3.290
 3719TIP3    H111042   0.879   3.024   3.349
 3719TIP3    H211043   1.008   3.107   3.353
 3720TIP3   OH211044   1.003   3.460   3.728
 3720TIP3    H111045   1.052   3.397   3.673
 3720TIP3    H211046   0.990   3.535   3.666
 3721TIP3   OH211047   0.836   3.753   3.927
 3721TIP3    H111048   0.764   3.800   3.974
 3721TIP3    H211049   0.786   3.707   3.856
 3722TIP3   OH211050   0.881   2.976   2.938
 3722TIP3    H111051   0.810   2.977   2.871
 3722TIP3    H211052   0.855   3.053   2.994
 3723TIP3   OH211053   0.764   2.665   2.889
 3723TIP3    H111054   0.695   2.704   2.834
 3723TIP3    H211055   0.749   2.570   2.878
 3724TIP3   OH211056   0.760   2.921   3.436
 3724TIP3    H111057   0.771   2.825   3.432
 3724TIP3    H211058   0.746   2.937   3.532
 3725TIP3   OH211059  -0.607   3.026   4.144
 3725TIP3    H111060  -0.591   2.947   4.092
 3725TIP3    H211061  -0.522   3.028   4.194
 3726TIP3   OH211062   1.047   3.354   4.284
 3726TIP3    H111063   1.100   3.280   4.252
 3726TIP3    H211064   1.016   3.399   4.202
 3727TIP3   OH211065   1.247   3.161   4.313
 3727TIP3    H111066   1.166   3.116   4.346
 3727TIP3    H211067   1.311   3.088   4.330
 3728TIP3   OH211068   0.767   2.642   3.334
 3728TIP3    H111069   0.802   2.552   3.350
 3728TIP3    H211070   0.829   2.673   3.265
 3729TIP3   OH211071   0.919   2.813   3.827
 3729TIP3    H111072   1.005   2.840   3.788
 3729TIP3    H211073   0.930   2.849   3.917
 3730TIP3   OH211074   0.987   2.960   4.058
 3730TIP3    H111075   0.908   2.989   4.108
 3730TIP3    H211076   1.015   3.042   4.014
 3731TIP3   OH211077  -0.404   2.660   4.862
 3731TIP3    H111078  -0.309   2.679   4.849
 3731TIP3    H211079  -0.399   2.596   4.933
 3732TIP3   OH211080   1.439   2.550   4.614
 3732TIP3    H111081   1.495   2.481   4.573
 3732TIP3    H211082   1.413   2.604   4.537
 3733TIP3   OH211083   0.871   2.385   3.364
 3733TIP3    H111084   0.920   2.374   3.448
 3733TIP3    H211085   0.803   2.316   3.374
 3734TIP3   OH211086  -0.597   2.658   4.289
 3734TIP3    H111087  -0.574   2.658   4.195
 3734TIP3    H211088  -0.645   2.741   4.299
 3735TIP3   OH211089   1.312   2.692   4.417
 3735TIP3    H111090   1.224   2.727   4.443
 3735TIP3    H211091   1.285   2.616   4.362
 3736TIP3   OH211092   0.987   2.322   2.978
 3736TIP3    H111093   1.047   2.260   2.935
 3736TIP3    H211094   1.047   2.398   2.990
 3737TIP3   OH211095   0.511   3.852   3.270
 3737TIP3    H111096   0.563   3.840   3.188
 3737TIP3    H211097   0.560   3.923   3.315
 3738TIP3   OH211098  -0.434   2.241   4.590
 3738TIP3    H111099  -0.488   2.221   4.668
 3738TIP3    H211100  -0.499   2.281   4.532
 3739TIP3   OH211101  -0.359   3.622   4.659
 3739TIP3    H111102  -0.442   3.671   4.645
 3739TIP3    H211103  -0.359   3.615   4.756
 3740TIP3   OH211104  -0.202   3.685   4.206
 3740TIP3    H111105  -0.266   3.748   4.171
 3740TIP3    H211106  -0.122   3.712   4.155
 3741TIP3   OH211107   0.235   3.935   4.337
 3741TIP3    H111108   0.274   3.937   4.427
 3741TIP3    H211109   0.300   3.988   4.287
 3742TIP3   OH211110   0.413   4.088   4.197
 3742TIP3    H111111   0.486   4.037   4.159
 3742TIP3    H211112   0.462   4.146   4.259
 3743TIP3   OH211113   1.208   2.450   4.298
 3743TIP3    H111114   1.116   2.440   4.269
 3743TIP3    H211115   1.240   2.357   4.288
 3744TIP3   OH211116  -0.300   3.932   4.090
 3744TIP3    H111117  -0.390   3.923   4.125
 3744TIP3    H211118  -0.318   3.957   3.997
 3745TIP3   OH211119   0.130   3.957   3.879
 3745TIP3    H111120   0.061   3.978   3.814
 3745TIP3    H211121   0.142   4.044   3.923
 3746TIP3   OH211122   0.397   3.896   3.930
 3746TIP3    H111123   0.302   3.912   3.913
 3746TIP3    H211124   0.436   3.976   3.892
 3747TIP3   OH211125   0.608   4.090   3.849
 3747TIP3    H111126   0.591   4.174   3.802
 3747TIP3    H211127   0.629   4.030   3.774
 3748TIP3   OH211128  -0.548   3.788   3.971
 3748TIP3    H111129  -0.536   3.730   4.049
 3748TIP3    H211130  -0.551   3.721   3.899
 3749TIP3   OH211131  -0.418   3.591   3.791
 3749TIP3    H111132  -0.417   3.522   3.860
 3749TIP3    H211133  -0.339   3.643   3.813
 3750TIP3   OH211134  -0.158   3.715   3.829
 3750TIP3    H111135  -0.134   3.621   3.817
 3750TIP3    H211136  -0.116   3.732   3.915
 3751TIP3   OH211137   0.411   2.366   3.923
 3751TIP3    H111138   0.368   2.299   3.980
 3751TIP3    H211139   0.477   2.313   3.876
 3752TIP3   OH211140   0.940   2.254   3.827
 3752TIP3    H111141   0.973   2.303   3.748
 3752TIP3    H211142   0.843   2.262   3.817
 3753TIP3   OH211143   1.030   2.350   3.585
 3753TIP3    H111144   1.103   2.296   3.547
 3753TIP3    H211145   1.066   2.441   3.572
 3754TIP3   OH211146   0.662   2.256   3.799
 3754TIP3    H111147   0.647   2.216   3.712
 3754TIP3    H211148   0.646   2.178   3.857
 3755TIP3   OH211149  -0.053   3.714   2.957
 3755TIP3    H111150   0.035   3.728   2.915
 3755TIP3    H211151  -0.060   3.617   2.949
 3756TIP3   OH211152   0.656   3.822   3.036
 3756TIP3    H111153   0.647   3.725   3.022
 3756TIP3    H211154   0.610   3.856   2.956
 3757TIP3   OH211155  -0.133   2.361   4.829
 3757TIP3    H111156  -0.166   2.285   4.880
 3757TIP3    H211157  -0.039   2.358   4.854
 3758TIP3   OH211158   0.119   2.352   4.945
 3758TIP3    H111159   0.202   2.324   4.905
 3758TIP3    H211160   0.103   2.280   5.010
 3759TIP3   OH211161   0.942   2.414   4.733
 3759TIP3    H111162   0.961   2.382   4.824
 3759TIP3    H211163   1.030   2.407   4.691
 3760TIP3   OH211164   0.886   3.966   4.222
 3760TIP3    H111165   0.805   3.934   4.177
 3760TIP3    H211166   0.865   4.062   4.227
 3761TIP3   OH211167   2.120   3.322   3.013
 3761TIP3    H111168   2.137   3.416   3.026
 3761TIP3    H211169   2.071   3.327   2.929
 3762TIP3   OH211170   2.156   3.333   3.366
 3762TIP3    H111171   2.177   3.306   3.457
 3762TIP3    H211172   2.101   3.260   3.335
 3763TIP3   OH211173   1.450   3.240   3.747
 3763TIP3    H111174   1.486   3.166   3.799
 3763TIP3    H211175   1.530   3.279   3.710
 3764TIP3   OH211176   2.385   3.629   3.056
 3764TIP3    H111177   2.385   3.571   3.133
 3764TIP3    H211178   2.414   3.713   3.095
 3765TIP3   OH211179   1.422   3.644   3.471
 3765TIP3    H111180   1.411   3.546   3.470
 3765TIP3    H211181   1.517   3.651   3.449
 3766TIP3   OH211182   1.127   2.852   3.251
 3766TIP3    H111183   1.076   2.934   3.263
 3766TIP3    H211184   1.058   2.793   3.217
 3767TIP3   OH211185   1.186   3.135   3.417
 3767TIP3    H111186   1.234   3.058   3.453
 3767TIP3    H211187   1.242   3.160   3.342
 3768TIP3   OH211188   2.046   4.107   3.073
 3768TIP3    H111189   2.081   4.034   3.018
 3768TIP3    H211190   2.028   4.061   3.156
 3769TIP3   OH211191   1.945   3.561   3.425
 3769TIP3    H111192   1.976   3.494   3.364
 3769TIP3    H211193   2.031   3.604   3.446
 3770TIP3   OH211194   2.956   2.885   3.415
 3770TIP3    H111195   2.987   2.966   3.461
 3770TIP3    H211196   2.985   2.903   3.324
 3771TIP3   OH211197   2.362   3.068   3.460
 3771TIP3    H111198   2.405   2.982   3.479
 3771TIP3    H211199   2.326   3.050   3.371
 3772TIP3   OH211200   1.696   2.725   3.418
 3772TIP3    H111201   1.673   2.796   3.354
 3772TIP3    H211202   1.649   2.649   3.375
 3773TIP3   OH211203   2.382   2.828   3.036
 3773TIP3    H111204   2.449   2.807   3.106
 3773TIP3    H211205   2.444   2.854   2.964
 3774TIP3   OH211206   1.331   2.928   3.525
 3774TIP3    H111207   1.413   2.903   3.571
 3774TIP3    H211208   1.339   2.872   3.445
 3775TIP3   OH211209   1.769   3.124   3.322
 3775TIP3    H111210   1.863   3.097   3.333
 3775TIP3    H211211   1.729   3.042   3.286
 3776TIP3   OH211212   3.031   3.089   3.589
 3776TIP3    H111213   2.948   3.138   3.572
 3776TIP3    H211214   3.052   3.119   3.678
 3777TIP3   OH211215   1.695   2.710   3.852
 3777TIP3    H111216   1.633   2.742   3.785
 3777TIP3    H211217   1.641   2.721   3.933
 3778TIP3   OH211218   1.801   3.482   3.650
 3778TIP3    H111219   1.738   3.550   3.681
 3778TIP3    H211220   1.844   3.528   3.574
 3779TIP3   OH211221   2.588   2.821   3.211
 3779TIP3    H111222   2.599   2.760   3.285
 3779TIP3    H211223   2.652   2.891   3.233
 3780TIP3   OH211224   1.565   2.823   3.636
 3780TIP3    H111225   1.630   2.894   3.657
 3780TIP3    H211226   1.611   2.780   3.561
 3781TIP3   OH211227   1.633   3.678   3.745
 3781TIP3    H111228   1.603   3.758   3.698
 3781TIP3    H211229   1.554   3.662   3.802
 3782TIP3   OH211230   1.023   3.368   2.982
 3782TIP3    H111231   0.983   3.395   2.898
 3782TIP3    H211232   1.053   3.454   3.019
 3783TIP3   OH211233   2.462   3.881   3.219
 3783TIP3    H111234   2.372   3.874   3.258
 3783TIP3    H211235   2.456   3.968   3.174
 3784TIP3   OH211236   2.751   2.788   3.582
 3784TIP3    H111237   2.665   2.818   3.548
 3784TIP3    H211238   2.812   2.818   3.511
 3785TIP3   OH211239   2.051   2.428   3.567
 3785TIP3    H111240   2.039   2.333   3.587
 3785TIP3    H211241   1.971   2.465   3.612
 3786TIP3   OH211242   2.159   3.931   2.894
 3786TIP3    H111243   2.207   3.848   2.872
 3786TIP3    H211244   2.220   3.996   2.853
 3787TIP3   OH211245   2.294   3.713   2.804
 3787TIP3    H111246   2.276   3.638   2.746
 3787TIP3    H211247   2.334   3.671   2.883
 3788TIP3   OH211248   2.685   3.796   3.566
 3788TIP3    H111249   2.678   3.720   3.504
 3788TIP3    H211250   2.670   3.872   3.506
 3789TIP3   OH211251   1.942   2.962   2.551
 3789TIP3    H111252   2.002   3.032   2.583
 3789TIP3    H211253   2.005   2.908   2.499
 3790TIP3   OH211254   2.881   3.430   3.407
 3790TIP3    H111255   2.801   3.485   3.413
 3790TIP3    H211256   2.913   3.454   3.318
 3791TIP3   OH211257   2.333   3.210   2.856
 3791TIP3    H111258   2.287   3.294   2.865
 3791TIP3    H211259   2.426   3.234   2.872
 3792TIP3   OH211260   2.562   3.310   3.706
 3792TIP3    H111261   2.563   3.395   3.754
 3792TIP3    H211262   2.478   3.318   3.658
 3793TIP3   OH211263   1.549   3.266   3.215
 3793TIP3    H111264   1.512   3.211   3.143
 3793TIP3    H211265   1.632   3.218   3.235
 3794TIP3   OH211266   1.682   3.672   3.361
 3794TIP3    H111267   1.663   3.643   3.270
 3794TIP3    H211268   1.774   3.643   3.374
 3795TIP3   OH211269   1.692   3.241   3.569
 3795TIP3    H111270   1.722   3.219   3.477
 3795TIP3    H211271   1.736   3.328   3.584
 3796TIP3   OH211272   2.222   3.879   3.342
 3796TIP3    H111273   2.204   3.961   3.392
 3796TIP3    H211274   2.205   3.808   3.406
 3797TIP3   OH211275   1.833   3.790   3.901
 3797TIP3    H111276   1.772   3.859   3.936
 3797TIP3    H211277   1.772   3.744   3.840
 3798TIP3   OH211278   2.189   3.089   2.609
 3798TIP3    H111279   2.160   3.184   2.619
 3798TIP3    H211280   2.220   3.098   2.515
 3799TIP3   OH211281   1.589   3.348   3.994
 3799TIP3    H111282   1.589   3.445   3.996
 3799TIP3    H211283   1.495   3.331   3.976
 3800TIP3   OH211284   1.886   3.850   2.933
 3800TIP3    H111285   1.980   3.870   2.917
 3800TIP3    H211286   1.843   3.883   2.854
 3801TIP3   OH211287   1.630   3.965   3.971
 3801TIP3    H111288   1.600   3.969   3.877
 3801TIP3    H211289   1.548   3.941   4.017
 3802TIP3   OH211290   2.684   2.374   2.666
 3802TIP3    H111291   2.602   2.392   2.717
 3802TIP3    H211292   2.695   2.457   2.615
 3803TIP3   OH211293   1.424   3.110   3.017
 3803TIP3    H111294   1.364   3.160   2.958
 3803TIP3    H211295   1.378   3.026   3.025
 3804TIP3   OH211296   2.481   3.740   2.215
 3804TIP3    H111297   2.488   3.836   2.201
 3804TIP3    H211298   2.573   3.711   2.203
 3805TIP3   OH211299   1.211   3.506   3.918
 3805TIP3    H111300   1.136   3.492   3.857
 3805TIP3    H211301   1.229   3.416   3.949
 3806TIP3   OH211302   1.059   3.688   3.558
 3806TIP3    H111303   1.154   3.689   3.544
 3806TIP3    H211304   1.044   3.772   3.605
 3807TIP3   OH211305   2.925   4.140   3.611
 3807TIP3    H111306   2.923   4.043   3.624
 3807TIP3    H211307   2.841   4.165   3.656
 3808TIP3   OH211308   2.034   3.925   3.749
 3808TIP3    H111309   2.033   4.019   3.775
 3808TIP3    H211310   1.959   3.890   3.802
 3809TIP3   OH211311   1.791   4.057   2.695
 3809TIP3    H111312   1.744   4.035   2.612
 3809TIP3    H211313   1.758   4.146   2.716
 3810TIP3   OH211314   1.227   3.907   3.080
 3810TIP3    H111315   1.277   3.896   3.164
 3810TIP3    H211316   1.167   3.830   3.085
 3811TIP3   OH211317   1.993   3.958   2.337
 3811TIP3    H111318   2.051   3.887   2.301
 3811TIP3    H211319   2.026   3.965   2.429
 3812TIP3   OH211320   2.043   4.005   2.607
 3812TIP3    H111321   1.954   4.015   2.648
 3812TIP3    H211322   2.091   3.960   2.677
 3813TIP3   OH211323   2.815   3.273   3.885
 3813TIP3    H111324   2.736   3.283   3.829
 3813TIP3    H211325   2.832   3.177   3.877
 3814TIP3   OH211326   1.430   3.665   3.927
 3814TIP3    H111327   1.417   3.719   4.007
 3814TIP3    H211328   1.346   3.615   3.921
 3815TIP3   OH211329   1.809   2.507   3.688
 3815TIP3    H111330   1.720   2.473   3.665
 3815TIP3    H211331   1.783   2.587   3.738
 3816TIP3   OH211332   2.341   2.625   3.893
 3816TIP3    H111333   2.406   2.587   3.955
 3816TIP3    H211334   2.255   2.598   3.932
 3817TIP3   OH211335   2.574   3.044   3.808
 3817TIP3    H111336   2.538   3.054   3.898
 3817TIP3    H211337   2.564   3.134   3.771
 3818TIP3   OH211338   2.242   3.159   2.360
 3818TIP3    H111339   2.209   3.145   2.269
 3818TIP3    H211340   2.310   3.226   2.346
 3819TIP3   OH211341   1.747   3.019   3.715
 3819TIP3    H111342   1.690   3.035   3.793
 3819TIP3    H211343   1.729   3.099   3.660
 3820TIP3   OH211344   1.626   2.905   3.226
 3820TIP3    H111345   1.533   2.880   3.244
 3820TIP3    H211346   1.638   2.865   3.137
 3821TIP3   OH211347   2.292   3.237   4.088
 3821TIP3    H111348   2.341   3.153   4.098
 3821TIP3    H211349   2.374   3.292   4.085
 3822TIP3   OH211350   2.271   3.021   3.206
 3822TIP3    H111351   2.240   3.086   3.141
 3822TIP3    H211352   2.306   2.949   3.150
 3823TIP3   OH211353   1.566   3.046   3.922
 3823TIP3    H111354   1.580   3.105   3.998
 3823TIP3    H211355   1.548   2.961   3.967
 3824TIP3   OH211356   1.620   2.531   2.637
 3824TIP3    H111357   1.604   2.518   2.732
 3824TIP3    H211358   1.538   2.574   2.609
 3825TIP3   OH211359   1.153   2.577   3.502
 3825TIP3    H111360   1.232   2.602   3.554
 3825TIP3    H211361   1.189   2.536   3.422
 3826TIP3   OH211362   1.131   2.555   3.026
 3826TIP3    H111363   1.177   2.594   2.948
 3826TIP3    H211364   1.073   2.629   3.048
 3827TIP3   OH211365   2.278   3.265   3.622
 3827TIP3    H111366   2.316   3.197   3.562
 3827TIP3    H211367   2.249   3.209   3.696
 3828TIP3   OH211368   1.950   2.732   3.288
 3828TIP3    H111369   1.867   2.726   3.341
 3828TIP3    H211370   2.017   2.724   3.357
 3829TIP3   OH211371   1.389   2.782   3.298
 3829TIP3    H111372   1.294   2.790   3.271
 3829TIP3    H211373   1.411   2.690   3.274
 3830TIP3   OH211374   1.657   2.781   2.984
 3830TIP3    H111375   1.749   2.796   2.957
 3830TIP3    H211376   1.605   2.800   2.903
 3831TIP3   OH211377   2.441   2.805   3.496
 3831TIP3    H111378   2.401   2.813   3.585
 3831TIP3    H211379   2.383   2.740   3.454
 3832TIP3   OH211380   1.498   2.810   2.767
 3832TIP3    H111381   1.422   2.770   2.720
 3832TIP3    H211382   1.549   2.844   2.690
 3833TIP3   OH211383   2.614   4.491   3.708
 3833TIP3    H111384   2.612   4.516   3.614
 3833TIP3    H211385   2.692   4.541   3.739
 3834TIP3   OH211386   2.037   3.054   3.390
 3834TIP3    H111387   2.112   3.013   3.343
 3834TIP3    H211388   2.042   3.011   3.477
 3835TIP3   OH211389   1.562   2.541   3.265
 3835TIP3    H111390   1.526   2.462   3.311
 3835TIP3    H211391   1.608   2.500   3.191
 3836TIP3   OH211392   2.014   2.952   3.671
 3836TIP3    H111393   1.923   2.984   3.687
 3836TIP3    H211394   2.069   3.010   3.727
 3837TIP3   OH211395   1.684   3.379   2.760
 3837TIP3    H111396   1.655   3.286   2.762
 3837TIP3    H211397   1.736   3.388   2.841
 3838TIP3   OH211398   2.651   3.579   3.400
 3838TIP3    H111399   2.678   3.628   3.319
 3838TIP3    H211400   2.565   3.540   3.373
 3839TIP3   OH211401   2.140   3.659   3.768
 3839TIP3    H111402   2.172   3.654   3.858
 3839TIP3    H211403   2.112   3.752   3.759
 3840TIP3   OH211404   1.442   3.365   3.449
 3840TIP3    H111405   1.475   3.341   3.360
 3840TIP3    H211406   1.480   3.294   3.503
 3841TIP3   OH211407   1.301   3.289   4.081
 3841TIP3    H111408   1.307   3.230   4.159
 3841TIP3    H211409   1.241   3.236   4.024
 3842TIP3   OH211410   2.310   3.910   3.672
 3842TIP3    H111411   2.214   3.922   3.675
 3842TIP3    H211412   2.339   3.972   3.742
 3843TIP3   OH211413   2.721   2.992   2.570
 3843TIP3    H111414   2.659   2.946   2.509
 3843TIP3    H211415   2.717   3.081   2.528
 3844TIP3   OH211416   2.936   3.847   3.655
 3844TIP3    H111417   2.839   3.843   3.645
 3844TIP3    H211418   2.963   3.819   3.564
 3845TIP3   OH211419   2.421   3.807   2.481
 3845TIP3    H111420   2.393   3.733   2.537
 3845TIP3    H211421   2.433   3.765   2.394
 3846TIP3   OH211422   2.414   3.442   3.319
 3846TIP3    H111423   2.322   3.413   3.333
 3846TIP3    H211424   2.451   3.363   3.276
 3847TIP3   OH211425   1.542   3.668   3.080
 3847TIP3    H111426   1.556   3.744   3.021
 3847TIP3    H211427   1.448   3.654   3.070
 3848TIP3   OH211428   1.109   2.982   2.784
 3848TIP3    H111429   1.157   3.065   2.805
 3848TIP3    H211430   1.033   2.987   2.845
 3849TIP3   OH211431   1.705   3.436   3.049
 3849TIP3    H111432   1.665   3.524   3.039
 3849TIP3    H211433   1.641   3.391   3.107
 3850TIP3   OH211434   1.812   4.012   3.542
 3850TIP3    H111435   1.847   4.086   3.488
 3850TIP3    H211436   1.893   3.981   3.585
 3851TIP3   OH211437   1.462   3.907   2.924
 3851TIP3    H111438   1.376   3.916   2.969
 3851TIP3    H211439   1.494   4.000   2.927
 3852TIP3   OH211440   2.201   3.645   3.498
 3852TIP3    H111441   2.195   3.642   3.596
 3852TIP3    H211442   2.284   3.598   3.481
 3853TIP3   OH211443   2.172   3.534   2.376
 3853TIP3    H111444   2.227   3.525   2.457
 3853TIP3    H211445   2.086   3.504   2.410
 3854TIP3   OH211446   2.448   4.181   3.549
 3854TIP3    H111447   2.366   4.129   3.534
 3854TIP3    H211448   2.439   4.249   3.478
 3855TIP3   OH211449   2.514   4.015   2.202
 3855TIP3    H111450   2.552   4.087   2.148
 3855TIP3    H211451   2.434   4.061   2.235
 3856TIP3   OH211452   1.533   2.793   4.067
 3856TIP3    H111453   1.436   2.796   4.080
 3856TIP3    H211454   1.560   2.730   4.136
 3857TIP3   OH211455   2.345   3.507   2.589
 3857TIP3    H111456   2.292   3.438   2.633
 3857TIP3    H211457   2.436   3.472   2.590
 3858TIP3   OH211458   1.247   3.878   3.697
 3858TIP3    H111459   1.305   3.804   3.721
 3858TIP3    H211460   1.280   3.950   3.754
 3859TIP3   OH211461   1.544   3.519   2.382
 3859TIP3    H111462   1.552   3.426   2.355
 3859TIP3    H211463   1.525   3.510   2.478
 3860TIP3   OH211464   1.480   3.523   2.652
 3860TIP3    H111465   1.560   3.482   2.693
 3860TIP3    H211466   1.498   3.618   2.666
 3861TIP3   OH211467   1.225   3.222   2.859
 3861TIP3    H111468   1.159   3.270   2.914
 3861TIP3    H211469   1.244   3.289   2.792
 3862TIP3   OH211470   2.362   2.865   3.758
 3862TIP3    H111471   2.452   2.895   3.778
 3862TIP3    H211472   2.357   2.779   3.806
 3863TIP3   OH211473   2.244   2.629   2.902
 3863TIP3    H111474   2.256   2.661   2.812
 3863TIP3    H211475   2.299   2.693   2.953
 3864TIP3   OH211476   1.747   3.728   2.601
 3864TIP3    H111477   1.659   3.754   2.633
 3864TIP3    H211478   1.765   3.795   2.535
 3865TIP3   OH211479   1.942   2.784   3.019
 3865TIP3    H111480   2.018   2.843   3.022
 3865TIP3    H211481   1.930   2.764   3.114
 3866TIP3   OH211482   2.207   3.102   3.832
 3866TIP3    H111483   2.243   3.154   3.906
 3866TIP3    H211484   2.267   3.025   3.826
 3867TIP3   OH211485   2.086   2.517   3.119
 3867TIP3    H111486   2.088   2.587   3.187
 3867TIP3    H211487   2.142   2.557   3.049
 3868TIP3   OH211488   1.489   3.799   2.668
 3868TIP3    H111489   1.461   3.870   2.606
 3868TIP3    H211490   1.477   3.843   2.755
 3869TIP3   OH211491   1.598   2.508   2.910
 3869TIP3    H111492   1.594   2.599   2.944
 3869TIP3    H211493   1.695   2.492   2.918
 3870TIP3   OH211494   2.847   3.008   3.804
 3870TIP3    H111495   2.749   2.999   3.808
 3870TIP3    H211496   2.865   2.966   3.718
 3871TIP3   OH211497   2.501   3.198   3.198
 3871TIP3    H111498   2.432   3.136   3.224
 3871TIP3    H211499   2.580   3.159   3.241
 3872TIP3   OH211500   1.213   3.431   2.663
 3872TIP3    H111501   1.281   3.500   2.675
 3872TIP3    H211502   1.260   3.377   2.596
 3873TIP3   OH211503   1.163   2.714   2.811
 3873TIP3    H111504   1.155   2.811   2.800
 3873TIP3    H211505   1.104   2.680   2.743
 3874TIP3   OH211506   2.470   4.153   3.143
 3874TIP3    H111507   2.426   4.199   3.068
 3874TIP3    H211508   2.564   4.173   3.122
 3875TIP3   OH211509   1.546   2.424   3.670
 3875TIP3    H111510   1.514   2.389   3.584
 3875TIP3    H211511   1.536   2.345   3.729
 3876TIP3   OH211512   1.085   3.640   3.053
 3876TIP3    H111513   1.011   3.674   3.105
 3876TIP3    H211514   1.066   3.680   2.966
 3877TIP3   OH211515   1.242   4.181   4.118
 3877TIP3    H111516   1.323   4.185   4.173
 3877TIP3    H211517   1.213   4.090   4.129
 3878TIP3   OH211518   1.723   4.142   4.173
 3878TIP3    H111519   1.819   4.143   4.173
 3878TIP3    H211520   1.704   4.092   4.091
 3879TIP3   OH211521   1.704   3.726   2.295
 3879TIP3    H111522   1.649   3.656   2.336
 3879TIP3    H211523   1.779   3.674   2.264
 3880TIP3   OH211524   2.359   4.058   3.902
 3880TIP3    H111525   2.360   3.985   3.968
 3880TIP3    H211526   2.439   4.109   3.925
 3881TIP3   OH211527   2.140   3.766   2.205
 3881TIP3    H111528   2.185   3.700   2.262
 3881TIP3    H211529   2.197   3.766   2.125
 3882TIP3   OH211530   1.352   3.240   2.519
 3882TIP3    H111531   1.410   3.212   2.591
 3882TIP3    H211532   1.418   3.245   2.446
 3883TIP3   OH211533   1.986   3.664   4.093
 3883TIP3    H111534   1.932   3.701   4.018
 3883TIP3    H211535   2.015   3.582   4.050
 3884TIP3   OH211536   1.862   3.442   2.335
 3884TIP3    H111537   1.831   3.452   2.426
 3884TIP3    H211538   1.857   3.345   2.323
 3885TIP3   OH211539   2.470   3.684   3.701
 3885TIP3    H111540   2.547   3.724   3.656
 3885TIP3    H211541   2.404   3.755   3.685
 3886TIP3   OH211542   1.481   3.350   4.307
 3886TIP3    H111543   1.526   3.270   4.277
 3886TIP3    H211544   1.527   3.366   4.394
 3887TIP3   OH211545   1.548   3.131   2.736
 3887TIP3    H111546   1.528   3.090   2.821
 3887TIP3    H211547   1.587   3.058   2.685
 3888TIP3   OH211548   1.839   3.217   3.983
 3888TIP3    H111549   1.753   3.263   3.977
 3888TIP3    H211550   1.883   3.247   3.901
 3889TIP3   OH211551   1.660   2.929   2.582
 3889TIP3    H111552   1.631   2.936   2.489
 3889TIP3    H211553   1.757   2.941   2.572
 3890TIP3   OH211554   2.342   3.596   4.134
 3890TIP3    H111555   2.421   3.625   4.088
 3890TIP3    H211556   2.363   3.501   4.136
 3891TIP3   OH211557   2.483   3.269   2.239
 3891TIP3    H111558   2.458   3.222   2.157
 3891TIP3    H211559   2.451   3.359   2.216
 3892TIP3   OH211560   1.959   2.995   4.084
 3892TIP3    H111561   1.958   2.907   4.041
 3892TIP3    H211562   1.890   3.041   4.031
 3893TIP3   OH211563   1.951   2.788   3.902
 3893TIP3    H111564   1.979   2.821   3.815
 3893TIP3    H211565   1.858   2.760   3.884
 3894TIP3   OH211566   1.983   3.322   3.774
 3894TIP3    H111567   2.061   3.325   3.717
 3894TIP3    H211568   1.923   3.385   3.729
 3895TIP3   OH211569   2.559   3.296   4.136
 3895TIP3    H111570   2.589   3.232   4.203
 3895TIP3    H211571   2.641   3.341   4.114
 3896TIP3   OH211572   2.599   3.540   3.887
 3896TIP3    H111573   2.546   3.596   3.827
 3896TIP3    H211574   2.689   3.558   3.852
 3897TIP3   OH211575   2.084   2.549   3.962
 3897TIP3    H111576   2.031   2.628   3.942
 3897TIP3    H211577   2.017   2.478   3.952
 3898TIP3   OH211578   2.437   3.009   4.056
 3898TIP3    H111579   2.393   2.929   4.088
 3898TIP3    H211580   2.527   2.994   4.094
 3899TIP3   OH211581   2.666   2.934   4.181
 3899TIP3    H111582   2.688   2.843   4.212
 3899TIP3    H211583   2.665   2.986   4.264
 3900TIP3   OH211584   1.669   2.890   4.372
 3900TIP3    H111585   1.673   2.798   4.339
 3900TIP3    H211586   1.710   2.879   4.460
 3901TIP3   OH211587   2.182   2.560   4.218
 3901TIP3    H111588   2.245   2.485   4.217
 3901TIP3    H211589   2.139   2.548   4.131
 3902TIP3   OH211590   2.226   2.778   4.371
 3902TIP3    H111591   2.225   2.699   4.312
 3902TIP3    H211592   2.132   2.793   4.382
 3903TIP3   OH211593   1.464   4.003   2.482
 3903TIP3    H111594   1.560   3.998   2.463
 3903TIP3    H211595   1.434   4.050   2.402
 3904TIP3   OH211596   0.945   3.382   2.702
 3904TIP3    H111597   1.040   3.407   2.688
 3904TIP3    H211598   0.942   3.294   2.659
 3905TIP3   OH211599   0.859   3.994   3.111
 3905TIP3    H111600   0.791   3.933   3.076
 3905TIP3    H211601   0.903   3.937   3.177
 3906TIP3   OH211602   0.995   3.847   3.297
 3906TIP3    H111603   0.980   3.774   3.359
 3906TIP3    H211604   1.044   3.909   3.354
 3907TIP3   OH211605   2.722   4.245   3.098
 3907TIP3    H111606   2.749   4.283   3.184
 3907TIP3    H211607   2.781   4.290   3.036
 3908TIP3   OH211608   2.750   4.267   3.382
 3908TIP3    H111609   2.711   4.178   3.375
 3908TIP3    H211610   2.829   4.247   3.434
 3909TIP3   OH211611   2.797   3.944   3.950
 3909TIP3    H111612   2.727   3.952   4.017
 3909TIP3    H211613   2.840   4.031   3.956
 3910TIP3   OH211614   2.620   3.451   2.574
 3910TIP3    H111615   2.685   3.519   2.545
 3910TIP3    H211616   2.666   3.414   2.652
 3911TIP3   OH211617   2.746   3.326   2.777
 3911TIP3    H111618   2.687   3.279   2.840
 3911TIP3    H211619   2.815   3.363   2.837
 3912TIP3   OH211620   2.793   3.712   3.208
 3912TIP3    H111621   2.849   3.651   3.157
 3912TIP3    H211622   2.788   3.790   3.149
 3913TIP3   OH211623   2.628   4.013   3.406
 3913TIP3    H111624   2.557   4.059   3.455
 3913TIP3    H211625   2.578   3.967   3.335
 3914TIP3   OH211626   2.680   3.229   2.424
 3914TIP3    H111627   2.609   3.234   2.356
 3914TIP3    H211628   2.656   3.307   2.479
 3915TIP3   OH211629   2.551   2.902   2.379
 3915TIP3    H111630   2.511   2.946   2.303
 3915TIP3    H211631   2.519   2.810   2.369
 3916TIP3   OH211632   2.587   3.177   2.937
 3916TIP3    H111633   2.587   3.081   2.930
 3916TIP3    H211634   2.563   3.191   3.032
 3917TIP3   OH211635   1.183   3.247   3.671
 3917TIP3    H111636   1.181   3.221   3.577
 3917TIP3    H211637   1.280   3.256   3.686
 3918TIP3   OH211638   2.842   3.602   3.780
 3918TIP3    H111639   2.916   3.538   3.773
 3918TIP3    H211640   2.871   3.674   3.721
 3919TIP3   OH211641   3.029   3.412   3.801
 3919TIP3    H111642   2.956   3.359   3.840
 3919TIP3    H211643   3.104   3.348   3.813
 3920TIP3   OH211644   2.488   2.634   2.388
 3920TIP3    H111645   2.581   2.620   2.418
 3920TIP3    H211646   2.450   2.548   2.405
 3921TIP3   OH211647   2.549   2.894   2.830
 3921TIP3    H111648   2.595   2.807   2.838
 3921TIP3    H211649   2.592   2.929   2.750
 3922TIP3   OH211650   2.715   3.075   3.312
 3922TIP3    H111651   2.802   3.099   3.273
 3922TIP3    H211652   2.730   3.108   3.403
 3923TIP3   OH211653   2.781   3.214   3.547
 3923TIP3    H111654   2.704   3.251   3.594
 3923TIP3    H211655   2.816   3.293   3.500
 3924TIP3   OH211656   1.407   2.949   4.355
 3924TIP3    H111657   1.504   2.933   4.351
 3924TIP3    H211658   1.377   2.861   4.387
 3925TIP3   OH211659   3.229   2.801   4.102
 3925TIP3    H111660   3.290   2.736   4.060
 3925TIP3    H211661   3.207   2.859   4.026
 3926TIP3   OH211662   2.658   2.644   2.859
 3926TIP3    H111663   2.710   2.628   2.940
 3926TIP3    H211664   2.603   2.563   2.857
 3927TIP3   OH211665   1.362   2.632   3.675
 3927TIP3    H111666   1.423   2.556   3.686
 3927TIP3    H211667   1.425   2.705   3.670
 3928TIP3   OH211668   1.165   2.909   3.751
 3928TIP3    H111669   1.212   2.895   3.666
 3928TIP3    H211670   1.194   2.998   3.772
 3929TIP3   OH211671   3.106   2.947   3.907
 3929TIP3    H111672   3.019   2.983   3.932
 3929TIP3    H211673   3.078   2.873   3.849
 3930TIP3   OH211674   2.743   2.584   2.483
 3930TIP3    H111675   2.783   2.509   2.435
 3930TIP3    H211676   2.813   2.652   2.479
 3931TIP3   OH211677   1.150   2.421   3.260
 3931TIP3    H111678   1.056   2.410   3.279
 3931TIP3    H211679   1.149   2.473   3.177
 3932TIP3   OH211680   2.308   4.110   2.758
 3932TIP3    H111681   2.357   4.095   2.674
 3932TIP3    H211682   2.361   4.180   2.799
 3933TIP3   OH211683   1.368   2.496   4.067
 3933TIP3    H111684   1.316   2.482   4.148
 3933TIP3    H211685   1.299   2.529   4.007
 3934TIP3   OH211686   1.401   3.856   4.146
 3934TIP3    H111687   1.304   3.868   4.139
 3934TIP3    H211688   1.418   3.895   4.233
 3935TIP3   OH211689   1.586   3.951   3.692
 3935TIP3    H111690   1.535   4.024   3.651
 3935TIP3    H211691   1.670   3.964   3.643
 3936TIP3   OH211692   2.031   4.191   3.825
 3936TIP3    H111693   2.072   4.198   3.913
 3936TIP3    H211694   2.095   4.243   3.771
 3937TIP3   OH211695   2.209   4.342   3.686
 3937TIP3    H111696   2.281   4.297   3.640
 3937TIP3    H211697   2.261   4.402   3.746
 3938TIP3   OH211698   3.002   2.706   3.785
 3938TIP3    H111699   2.911   2.696   3.753
 3938TIP3    H211700   3.036   2.614   3.773
 3939TIP3   OH211701   1.262   4.203   3.717
 3939TIP3    H111702   1.174   4.235   3.688
 3939TIP3    H211703   1.269   4.248   3.802
 3940TIP3   OH211704   1.497   4.182   3.570
 3940TIP3    H111705   1.411   4.197   3.615
 3940TIP3    H211706   1.478   4.217   3.481
 3941TIP3   OH211707   1.922   4.211   3.371
 3941TIP3    H111708   1.857   4.232   3.301
 3941TIP3    H211709   1.937   4.300   3.410
 3942TIP3   OH211710   2.192   4.152   3.422
 3942TIP3    H111711   2.098   4.169   3.399
 3942TIP3    H211712   2.236   4.225   3.376
 3943TIP3   OH211713   2.400   4.344   3.335
 3943TIP3    H111714   2.385   4.430   3.289
 3943TIP3    H211715   2.426   4.286   3.260
 3944TIP3   OH211716   1.173   4.002   3.455
 3944TIP3    H111717   1.197   3.975   3.546
 3944TIP3    H211718   1.245   3.958   3.405
 3945TIP3   OH211719   1.366   3.871   3.314
 3945TIP3    H111720   1.384   3.786   3.361
 3945TIP3    H211721   1.456   3.909   3.307
 3946TIP3   OH211722   1.629   3.969   3.316
 3946TIP3    H111723   1.665   3.882   3.292
 3946TIP3    H211724   1.675   3.985   3.400
 3947TIP3   OH211725   2.204   2.618   3.396
 3947TIP3    H111726   2.165   2.550   3.455
 3947TIP3    H211727   2.280   2.570   3.358
 3948TIP3   OH211728   2.732   2.507   3.313
 3948TIP3    H111729   2.770   2.554   3.235
 3948TIP3    H211730   2.636   2.520   3.300
 3949TIP3   OH211731   2.826   2.605   3.075
 3949TIP3    H111732   2.898   2.550   3.036
 3949TIP3    H211733   2.863   2.695   3.058
 3950TIP3   OH211734   1.457   2.331   3.422
 3950TIP3    H111735   1.365   2.298   3.419
 3950TIP3    H211736   1.507   2.247   3.419
 3951TIP3   OH211737   1.253   2.195   3.081
 3951TIP3    H111738   1.295   2.243   3.007
 3951TIP3    H211739   1.226   2.266   3.140
 3952TIP3   OH211740   1.899   2.367   3.300
 3952TIP3    H111741   1.963   2.416   3.246
 3952TIP3    H211742   1.919   2.398   3.389
 3953TIP3   OH211743   2.447   2.507   3.282
 3953TIP3    H111744   2.456   2.462   3.197
 3953TIP3    H211745   2.435   2.430   3.342
 3954TIP3   OH211746   2.477   2.429   2.849
 3954TIP3    H111747   2.386   2.460   2.860
 3954TIP3    H211748   2.472   2.342   2.895
 3955TIP3   OH211749   0.960   3.770   2.851
 3955TIP3    H111750   0.875   3.739   2.815
 3955TIP3    H211751   0.951   3.865   2.834
 3956TIP3   OH211752   1.365   2.349   2.874
 3956TIP3    H111753   1.401   2.290   2.804
 3956TIP3    H211754   1.444   2.404   2.893
 3957TIP3   OH211755   1.872   2.529   2.931
 3957TIP3    H111756   1.929   2.484   2.995
 3957TIP3    H211757   1.896   2.622   2.948
 3958TIP3   OH211758   1.732   3.964   2.428
 3958TIP3    H111759   1.821   3.985   2.393
 3958TIP3    H211760   1.710   3.888   2.370
 3959TIP3   OH211761   2.452   4.076   2.523
 3959TIP3    H111762   2.443   3.979   2.510
 3959TIP3    H211763   2.407   4.110   2.443
 3960TIP3   OH211764   1.667   2.617   4.317
 3960TIP3    H111765   1.632   2.542   4.369
 3960TIP3    H211766   1.762   2.612   4.341
 3961TIP3   OH211767   1.922   2.610   4.431
 3961TIP3    H111768   2.000   2.566   4.393
 3961TIP3    H211769   1.899   2.546   4.502
 3962TIP3   OH211770   1.036   3.793   2.489
 3962TIP3    H111771   1.040   3.825   2.580
 3962TIP3    H211772   1.126   3.755   2.475
 3963TIP3   OH211773   2.741   2.666   4.220
 3963TIP3    H111774   2.761   2.638   4.312
 3963TIP3    H211775   2.830   2.668   4.180
 3964TIP3   OH211776   2.677   4.223   3.713
 3964TIP3    H111777   2.599   4.192   3.662
 3964TIP3    H211778   2.661   4.319   3.712
 3965TIP3   OH211779   3.944   3.593   2.479
 3965TIP3    H111780   3.917   3.686   2.459
 3965TIP3    H211781   3.867   3.545   2.445
 3966TIP3   OH211782   3.941   3.595   2.858
 3966TIP3    H111783   3.973   3.565   2.945
 3966TIP3    H211784   3.902   3.514   2.822
 3967TIP3   OH211785   3.242   3.491   3.226
 3967TIP3    H111786   3.276   3.425   3.289
 3967TIP3    H211787   3.322   3.545   3.213
 3968TIP3   OH211788   4.186   3.896   2.540
 3968TIP3    H111789   4.174   3.828   2.607
 3968TIP3    H211790   4.215   3.972   2.593
 3969TIP3   OH211791   3.214   3.898   2.950
 3969TIP3    H111792   3.205   3.801   2.953
 3969TIP3    H211793   3.311   3.907   2.943
 3970TIP3   OH211794   2.920   3.102   2.735
 3970TIP3    H111795   2.873   3.186   2.748
 3970TIP3    H211796   2.849   3.049   2.695
 3971TIP3   OH211797   2.981   3.391   2.904
 3971TIP3    H111798   3.031   3.314   2.942
 3971TIP3    H211799   3.043   3.423   2.837
 3972TIP3   OH211800   3.833   4.357   2.555
 3972TIP3    H111801   3.881   4.286   2.507
 3972TIP3    H211802   3.832   4.323   2.645
 3973TIP3   OH211803   3.742   3.819   2.907
 3973TIP3    H111804   3.781   3.743   2.860
 3973TIP3    H211805   3.825   3.865   2.931
 3974TIP3   OH211806   4.754   3.141   2.903
 3974TIP3    H111807   4.783   3.223   2.947
 3974TIP3    H211808   4.778   3.159   2.811
 3975TIP3   OH211809   4.153   3.322   2.940
 3975TIP3    H111810   4.197   3.237   2.960
 3975TIP3    H211811   4.124   3.307   2.849
 3976TIP3   OH211812   3.490   2.981   2.906
 3976TIP3    H111813   3.471   3.054   2.842
 3976TIP3    H211814   3.443   2.908   2.861
 3977TIP3   OH211815   4.185   3.072   2.527
 3977TIP3    H111816   4.258   3.057   2.592
 3977TIP3    H211817   4.236   3.108   2.452
 3978TIP3   OH211818   3.126   3.184   3.012
 3978TIP3    H111819   3.209   3.163   3.059
 3978TIP3    H211820   3.138   3.128   2.932
 3979TIP3   OH211821   3.567   3.382   2.805
 3979TIP3    H111822   3.661   3.356   2.817
 3979TIP3    H211823   3.528   3.298   2.772
 3980TIP3   OH211824   4.828   3.347   3.074
 3980TIP3    H111825   4.745   3.395   3.055
 3980TIP3    H211826   4.844   3.373   3.166
 3981TIP3   OH211827   3.489   2.965   3.338
 3981TIP3    H111828   3.429   3.001   3.271
 3981TIP3    H211829   3.438   2.983   3.420
 3982TIP3   OH211830   3.834   3.814   2.350
 3982TIP3    H111831   3.796   3.796   2.263
 3982TIP3    H211832   3.793   3.900   2.371
 3983TIP3   OH211833   3.595   3.739   3.135
 3983TIP3    H111834   3.532   3.805   3.172
 3983TIP3    H211835   3.638   3.791   3.064
 3984TIP3   OH211836   4.396   3.075   2.698
 3984TIP3    H111837   4.392   3.024   2.780
 3984TIP3    H211838   4.452   3.150   2.724
 3985TIP3   OH211839   3.359   3.080   3.124
 3985TIP3    H111840   3.421   3.153   3.146
 3985TIP3    H211841   3.408   3.038   3.049
 3986TIP3   OH211842   3.422   3.933   3.231
 3986TIP3    H111843   3.397   4.019   3.191
 3986TIP3    H211844   3.344   3.919   3.288
 3987TIP3   OH211845   2.819   3.624   2.468
 3987TIP3    H111846   2.777   3.650   2.384
 3987TIP3    H211847   2.848   3.710   2.504
 3988TIP3   OH211848   4.257   4.138   2.708
 3988TIP3    H111849   4.167   4.131   2.746
 3988TIP3    H211850   4.251   4.224   2.663
 3989TIP3   OH211851   4.548   3.041   3.070
 3989TIP3    H111852   4.461   3.071   3.040
 3989TIP3    H211853   4.607   3.072   2.998
 3990TIP3   OH211854   3.846   2.684   3.051
 3990TIP3    H111855   3.835   2.589   3.070
 3990TIP3    H211856   3.768   2.721   3.098
 3991TIP3   OH211857   3.959   4.186   2.382
 3991TIP3    H111858   4.010   4.104   2.360
 3991TIP3    H211859   4.019   4.253   2.340
 3992TIP3   OH211860   4.100   3.971   2.287
 3992TIP3    H111861   4.070   3.890   2.245
 3992TIP3    H211862   4.136   3.936   2.372
 3993TIP3   OH211863   4.484   4.052   3.052
 3993TIP3    H111864   4.474   3.976   2.992
 3993TIP3    H211865   4.466   4.128   2.992
 3994TIP3   OH211866   3.774   3.446   2.307
 3994TIP3    H111867   3.695   3.498   2.284
 3994TIP3    H211868   3.823   3.444   2.223
 3995TIP3   OH211869   3.733   3.232   2.025
 3995TIP3    H111870   3.801   3.280   2.075
 3995TIP3    H211871   3.790   3.168   1.977
 3996TIP3   OH211872   4.679   3.688   2.896
 3996TIP3    H111873   4.597   3.742   2.901
 3996TIP3    H211874   4.709   3.712   2.805
 3997TIP3   OH211875   4.121   3.528   2.280
 3997TIP3    H111876   4.068   3.554   2.359
 3997TIP3    H211877   4.205   3.502   2.324
 3998TIP3   OH211878   4.358   3.569   3.191
 3998TIP3    H111879   4.355   3.653   3.240
 3998TIP3    H211880   4.272   3.573   3.144
 3999TIP3   OH211881   3.354   3.527   2.697
 3999TIP3    H111882   3.314   3.469   2.629
 3999TIP3    H211883   3.432   3.474   2.725
 4000TIP3   OH211884   3.483   3.936   2.846
 4000TIP3    H111885   3.465   3.894   2.761
 4000TIP3    H211886   3.574   3.905   2.865
 4001TIP3   OH211887   3.488   3.499   3.050
 4001TIP3    H111888   3.524   3.478   2.962
 4001TIP3    H211889   3.534   3.584   3.071
 4002TIP3   OH211890   4.015   4.136   2.827
 4002TIP3    H111891   4.002   4.216   2.880
 4002TIP3    H211892   4.002   4.063   2.891
 4003TIP3   OH211893   3.628   4.054   3.376
 4003TIP3    H111894   3.569   4.118   3.421
 4003TIP3    H211895   3.563   4.001   3.326
 4004TIP3   OH211896   3.963   3.388   2.106
 4004TIP3    H111897   4.023   3.445   2.159
 4004TIP3    H211898   3.989   3.412   2.014
 4005TIP3   OH211899   3.383   3.612   3.476
 4005TIP3    H111900   3.387   3.699   3.521
 4005TIP3    H211901   3.288   3.594   3.482
 4006TIP3   OH211902   3.705   4.068   2.381
 4006TIP3    H111903   3.785   4.121   2.400
 4006TIP3    H211904   3.645   4.134   2.344
 4007TIP3   OH211905   3.423   4.224   3.461
 4007TIP3    H111906   3.389   4.222   3.369
 4007TIP3    H211907   3.344   4.202   3.514
 4008TIP3   OH211908   4.479   2.629   2.154
 4008TIP3    H111909   4.398   2.649   2.205
 4008TIP3    H211910   4.491   2.712   2.103
 4009TIP3   OH211911   3.222   3.370   2.501
 4009TIP3    H111912   3.156   3.415   2.444
 4009TIP3    H211913   3.180   3.284   2.514
 4010TIP3   OH211914   4.277   3.996   1.703
 4010TIP3    H111915   4.286   4.092   1.688
 4010TIP3    H211916   4.370   3.966   1.690
 4011TIP3   OH211917   3.001   3.754   3.409
 4011TIP3    H111918   2.939   3.730   3.337
 4011TIP3    H211919   3.039   3.667   3.435
 4012TIP3   OH211920   2.857   3.943   3.047
 4012TIP3    H111921   2.952   3.940   3.032
 4012TIP3    H211922   2.848   4.026   3.096
 4013TIP3   OH211923   4.724   4.398   3.100
 4013TIP3    H111924   4.721   4.301   3.112
 4013TIP3    H211925   4.639   4.423   3.143
 4014TIP3   OH211926   3.827   4.184   3.231
 4014TIP3    H111927   3.827   4.277   3.263
 4014TIP3    H211928   3.756   4.145   3.287
 4015TIP3   OH211929   3.584   4.312   2.184
 4015TIP3    H111930   3.542   4.294   2.099
 4015TIP3    H211931   3.555   4.402   2.205
 4016TIP3   OH211932   3.025   4.163   2.566
 4016TIP3    H111933   3.073   4.153   2.651
 4016TIP3    H211934   2.965   4.086   2.571
 4017TIP3   OH211935   3.788   4.213   1.824
 4017TIP3    H111936   3.848   4.143   1.787
 4017TIP3    H211937   3.824   4.222   1.915
 4018TIP3   OH211938   3.838   4.262   2.094
 4018TIP3    H111939   3.751   4.270   2.139
 4018TIP3    H211940   3.892   4.223   2.165
 4019TIP3   OH211941   4.611   3.529   3.372
 4019TIP3    H111942   4.531   3.542   3.318
 4019TIP3    H211943   4.626   3.433   3.361
 4020TIP3   OH211944   3.208   3.936   3.399
 4020TIP3    H111945   3.258   3.919   3.481
 4020TIP3    H211946   3.133   3.873   3.406
 4021TIP3   OH211947   3.606   2.760   3.180
 4021TIP3    H111948   3.516   2.729   3.155
 4021TIP3    H211949   3.582   2.843   3.226
 4022TIP3   OH211950   4.140   2.876   3.375
 4022TIP3    H111951   4.209   2.848   3.439
 4022TIP3    H211952   4.057   2.854   3.422
 4023TIP3   OH211953   4.380   3.304   3.293
 4023TIP3    H111954   4.332   3.301   3.379
 4023TIP3    H211955   4.356   3.391   3.258
 4024TIP3   OH211956   4.037   3.436   1.849
 4024TIP3    H111957   4.007   3.408   1.761
 4024TIP3    H211958   4.119   3.483   1.826
 4025TIP3   OH211959   3.749   2.812   2.150
 4025TIP3    H111960   3.720   2.809   2.243
 4025TIP3    H211961   3.714   2.726   2.119
 4026TIP3   OH211962   3.537   3.275   3.198
 4026TIP3    H111963   3.489   3.297   3.281
 4026TIP3    H211964   3.521   3.356   3.145
 4027TIP3   OH211965   3.422   3.161   2.714
 4027TIP3    H111966   3.329   3.135   2.730
 4027TIP3    H211967   3.436   3.121   2.625
 4028TIP3   OH211968   3.912   3.247   2.440
 4028TIP3    H111969   3.859   3.318   2.399
 4028TIP3    H211970   3.968   3.218   2.365
 4029TIP3   OH211971   4.087   3.527   3.529
 4029TIP3    H111972   4.065   3.454   3.590
 4029TIP3    H211973   4.182   3.539   3.549
 4030TIP3   OH211974   4.070   3.276   2.681
 4030TIP3    H111975   4.011   3.307   2.609
 4030TIP3    H211976   4.103   3.194   2.638
 4031TIP3   OH211977   3.356   3.305   3.410
 4031TIP3    H111978   3.389   3.367   3.476
 4031TIP3    H211979   3.347   3.223   3.461
 4032TIP3   OH211980   3.404   2.780   2.118
 4032TIP3    H111981   3.403   2.776   2.216
 4032TIP3    H211982   3.322   2.829   2.101
 4033TIP3   OH211983   2.950   2.828   2.990
 4033TIP3    H111984   3.026   2.859   3.043
 4033TIP3    H211985   2.991   2.795   2.909
 4034TIP3   OH211986   2.924   2.808   2.507
 4034TIP3    H111987   2.971   2.846   2.429
 4034TIP3    H211988   2.864   2.882   2.529
 4035TIP3   OH211989   4.079   3.523   3.104
 4035TIP3    H111990   4.112   3.451   3.046
 4035TIP3    H211991   4.051   3.471   3.182
 4036TIP3   OH211992   3.748   2.986   2.776
 4036TIP3    H111993   3.667   2.982   2.830
 4036TIP3    H211994   3.818   2.983   2.843
 4037TIP3   OH211995   3.183   3.039   2.784
 4037TIP3    H111996   3.089   3.044   2.757
 4037TIP3    H211997   3.209   2.948   2.760
 4038TIP3   OH211998   3.454   3.036   2.472
 4038TIP3    H111999   3.549   3.050   2.453
 4038TIP3    H212000   3.410   3.060   2.387
 4039TIP3   OH212001   4.242   3.060   2.978
 4039TIP3    H112002   4.205   3.071   3.069
 4039TIP3    H212003   4.178   2.998   2.939
 4040TIP3   OH212004   3.292   3.067   2.249
 4040TIP3    H112005   3.216   3.029   2.202
 4040TIP3    H212006   3.343   3.103   2.174
 4041TIP3   OH212007   4.401   4.739   3.189
 4041TIP3    H112008   4.417   4.774   3.100
 4041TIP3    H212009   4.455   4.801   3.245
 4042TIP3   OH212010   3.367   3.858   3.618
 4042TIP3    H112011   3.448   3.889   3.665
 4042TIP3    H212012   3.304   3.859   3.692
 4043TIP3   OH212013   3.833   3.311   2.871
 4043TIP3    H112014   3.906   3.273   2.820
 4043TIP3    H212015   3.845   3.269   2.959
 4044TIP3   OH212016   3.355   2.800   2.749
 4044TIP3    H112017   3.324   2.719   2.795
 4044TIP3    H212018   3.411   2.764   2.679
 4045TIP3   OH212019   3.809   3.206   3.165
 4045TIP3    H112020   3.720   3.244   3.177
 4045TIP3    H212021   3.867   3.267   3.214
 4046TIP3   OH212022   3.546   3.600   2.256
 4046TIP3    H112023   3.472   3.535   2.246
 4046TIP3    H212024   3.529   3.633   2.347
 4047TIP3   OH212025   4.447   3.835   2.887
 4047TIP3    H112026   4.472   3.884   2.806
 4047TIP3    H212027   4.361   3.795   2.862
 4048TIP3   OH212028   4.004   2.912   2.120
 4048TIP3    H112029   3.907   2.898   2.126
 4048TIP3    H212030   4.015   3.006   2.142
 4049TIP3   OH212031   3.942   3.915   3.256
 4049TIP3    H112032   3.968   3.897   3.347
 4049TIP3    H212033   3.908   4.006   3.260
 4050TIP3   OH212034   4.074   3.159   2.221
 4050TIP3    H112035   4.171   3.164   2.237
 4050TIP3    H212036   4.057   3.238   2.167
 4051TIP3   OH212037   3.235   3.617   2.934
 4051TIP3    H112038   3.275   3.593   2.848
 4051TIP3    H212039   3.282   3.558   2.994
 4052TIP3   OH212040   3.690   3.748   2.075
 4052TIP3    H112041   3.644   3.835   2.083
 4052TIP3    H212042   3.637   3.693   2.137
 4053TIP3   OH212043   3.116   3.544   3.548
 4053TIP3    H112044   3.142   3.531   3.641
 4053TIP3    H212045   3.051   3.473   3.534
 4054TIP3   OH212046   3.843   3.655   3.567
 4054TIP3    H112047   3.786   3.598   3.513
 4054TIP3    H212048   3.932   3.623   3.540
 4055TIP3   OH212049   4.106   4.171   3.154
 4055TIP3    H112050   4.009   4.176   3.162
 4055TIP3    H212051   4.134   4.228   3.229
 4056TIP3   OH212052   4.516   3.248   2.059
 4056TIP3    H112053   4.454   3.203   1.998
 4056TIP3    H212054   4.514   3.337   2.017
 4057TIP3   OH212055   4.735   4.105   3.141
 4057TIP3    H112056   4.637   4.100   3.132
 4057TIP3    H212057   4.760   4.076   3.050
 4058TIP3   OH212058   4.212   4.068   1.966
 4058TIP3    H112059   4.194   3.996   2.027
 4058TIP3    H212060   4.229   4.023   1.881
 4059TIP3   OH212061   4.212   3.697   2.807
 4059TIP3    H112062   4.118   3.671   2.819
 4059TIP3    H212063   4.247   3.618   2.762
 4060TIP3   OH212064   3.338   3.924   2.558
 4060TIP3    H112065   3.343   4.006   2.505
 4060TIP3    H212066   3.243   3.911   2.566
 4061TIP3   OH212067   2.900   3.230   2.259
 4061TIP3    H112068   2.947   3.314   2.280
 4061TIP3    H212069   2.824   3.236   2.321
 4062TIP3   OH212070   3.478   3.691   2.502
 4062TIP3    H112071   3.444   3.781   2.520
 4062TIP3    H212072   3.442   3.642   2.578
 4063TIP3   OH212073   3.608   4.268   3.028
 4063TIP3    H112074   3.648   4.342   2.976
 4063TIP3    H212075   3.685   4.236   3.076
 4064TIP3   OH212076   3.259   4.163   2.411
 4064TIP3    H112077   3.173   4.172   2.456
 4064TIP3    H212078   3.291   4.256   2.414
 4065TIP3   OH212079   3.997   3.904   2.986
 4065TIP3    H112080   3.989   3.900   3.084
 4065TIP3    H212081   4.078   3.852   2.972
 4066TIP3   OH212082   3.969   3.793   1.870
 4066TIP3    H112083   4.024   3.770   1.948
 4066TIP3    H212084   3.881   3.770   1.904
 4067TIP3   OH212085   4.246   4.436   3.035
 4067TIP3    H112086   4.165   4.383   3.024
 4067TIP3    H212087   4.234   4.504   2.965
 4068TIP3   OH212088   4.310   4.271   1.689
 4068TIP3    H112089   4.350   4.342   1.636
 4068TIP3    H212090   4.231   4.318   1.721
 4069TIP3   OH212091   3.333   3.048   3.556
 4069TIP3    H112092   3.236   3.050   3.570
 4069TIP3    H212093   3.361   2.987   3.626
 4070TIP3   OH212094   4.130   3.731   2.088
 4070TIP3    H112095   4.121   3.663   2.157
 4070TIP3    H212096   4.227   3.729   2.073
 4071TIP3   OH212097   3.045   4.133   3.188
 4071TIP3    H112098   3.099   4.058   3.218
 4071TIP3    H212099   3.078   4.203   3.246
 4072TIP3   OH212100   3.336   3.777   1.867
 4072TIP3    H112101   3.356   3.685   1.842
 4072TIP3    H212102   3.318   3.767   1.963
 4073TIP3   OH212103   3.284   3.781   2.140
 4073TIP3    H112104   3.355   3.755   2.200
 4073TIP3    H212105   3.287   3.879   2.147
 4074TIP3   OH212106   3.018   3.475   2.343
 4074TIP3    H112107   2.953   3.520   2.400
 4074TIP3    H212108   3.034   3.544   2.277
 4075TIP3   OH212109   4.164   3.113   3.237
 4075TIP3    H112110   4.246   3.150   3.273
 4075TIP3    H212111   4.152   3.032   3.290
 4076TIP3   OH212112   4.044   2.865   2.399
 4076TIP3    H112113   4.033   2.888   2.305
 4076TIP3    H212114   4.086   2.946   2.435
 4077TIP3   OH212115   3.547   3.978   2.088
 4077TIP3    H112116   3.461   4.008   2.124
 4077TIP3    H212117   3.567   4.051   2.028
 4078TIP3   OH212118   3.735   3.042   2.502
 4078TIP3    H112119   3.801   3.112   2.484
 4078TIP3    H212120   3.742   3.035   2.600
 4079TIP3   OH212121   4.005   3.361   3.312
 4079TIP3    H112122   4.026   3.414   3.391
 4079TIP3    H212123   4.062   3.282   3.323
 4080TIP3   OH212124   3.882   2.771   2.606
 4080TIP3    H112125   3.878   2.846   2.667
 4080TIP3    H212126   3.942   2.807   2.536
 4081TIP3   OH212127   3.289   4.053   2.156
 4081TIP3    H112128   3.261   4.124   2.093
 4081TIP3    H212129   3.275   4.098   2.242
 4082TIP3   OH212130   3.393   2.766   2.394
 4082TIP3    H112131   3.391   2.857   2.431
 4082TIP3    H212132   3.489   2.747   2.404
 4083TIP3   OH212133   4.647   3.262   3.291
 4083TIP3    H112134   4.549   3.260   3.297
 4083TIP3    H212135   4.659   3.222   3.204
 4084TIP3   OH212136   4.297   3.456   2.680
 4084TIP3    H112137   4.222   3.395   2.692
 4084TIP3    H212138   4.369   3.409   2.727
 4085TIP3   OH212139   3.009   3.687   2.151
 4085TIP3    H112140   3.072   3.760   2.159
 4085TIP3    H212141   3.055   3.633   2.084
 4086TIP3   OH212142   2.956   2.961   2.280
 4086TIP3    H112143   2.952   3.059   2.277
 4086TIP3    H212144   2.871   2.935   2.243
 4087TIP3   OH212145   4.266   4.409   2.629
 4087TIP3    H112146   4.224   4.456   2.554
 4087TIP3    H212147   4.360   4.429   2.609
 4088TIP3   OH212148   3.340   2.681   3.158
 4088TIP3    H112149   3.310   2.647   3.071
 4088TIP3    H212150   3.331   2.601   3.215
 4089TIP3   OH212151   2.881   3.898   2.539
 4089TIP3    H112152   2.807   3.930   2.592
 4089TIP3    H212153   2.860   3.938   2.452
 4090TIP3   OH212154   3.037   4.439   3.610
 4090TIP3    H112155   3.123   4.439   3.656
 4090TIP3    H212156   3.018   4.343   3.607
 4091TIP3   OH212157   3.519   4.405   3.654
 4091TIP3    H112158   3.614   4.388   3.660
 4091TIP3    H212159   3.495   4.348   3.579
 4092TIP3   OH212160   3.500   3.982   1.781
 4092TIP3    H112161   3.446   3.910   1.820
 4092TIP3    H212162   3.576   3.931   1.747
 4093TIP3   OH212163   4.156   4.313   3.387
 4093TIP3    H112164   4.150   4.241   3.455
 4093TIP3    H212165   4.235   4.362   3.415
 4094TIP3   OH212166   3.936   4.021   1.691
 4094TIP3    H112167   3.985   3.961   1.749
 4094TIP3    H212168   3.991   4.024   1.611
 4095TIP3   OH212169   3.167   3.845   3.809
 4095TIP3    H112170   3.186   3.750   3.812
 4095TIP3    H212171   3.079   3.847   3.765
 4096TIP3   OH212172   3.146   3.498   2.004
 4096TIP3    H112173   3.200   3.466   2.078
 4096TIP3    H212174   3.214   3.503   1.933
 4097TIP3   OH212175   3.776   3.930   3.582
 4097TIP3    H112176   3.735   3.946   3.495
 4097TIP3    H212177   3.807   3.838   3.574
 4098TIP3   OH212178   3.648   3.691   1.808
 4098TIP3    H112179   3.655   3.708   1.904
 4098TIP3    H212180   3.651   3.593   1.806
 4099TIP3   OH212181   4.268   3.938   3.188
 4099TIP3    H112182   4.343   3.983   3.143
 4099TIP3    H212183   4.198   4.005   3.175
 4100TIP3   OH212184   3.285   3.577   3.790
 4100TIP3    H112185   3.362   3.524   3.768
 4100TIP3    H212186   3.310   3.611   3.878
 4101TIP3   OH212187   3.351   3.401   2.223
 4101TIP3    H112188   3.328   3.360   2.308
 4101TIP3    H212189   3.388   3.325   2.173
 4102TIP3   OH212190   3.620   3.462   3.450
 4102TIP3    H112191   3.545   3.526   3.455
 4102TIP3    H212192   3.669   3.497   3.372
 4103TIP3   OH212193   3.453   3.192   2.064
 4103TIP3    H112194   3.427   3.187   1.970
 4103TIP3    H212195   3.550   3.200   2.057
 4104TIP3   OH212196   4.138   3.866   3.587
 4104TIP3    H112197   4.217   3.844   3.536
 4104TIP3    H212198   4.138   3.798   3.656
 4105TIP3   OH212199   4.275   3.525   1.728
 4105TIP3    H112200   4.255   3.478   1.644
 4105TIP3    H212201   4.244   3.616   1.702
 4106TIP3   OH212202   3.744   3.252   3.580
 4106TIP3    H112203   3.746   3.172   3.524
 4106TIP3    H212204   3.701   3.318   3.520
 4107TIP3   OH212205   3.748   3.039   3.386
 4107TIP3    H112206   3.776   3.080   3.302
 4107TIP3    H212207   3.654   3.016   3.367
 4108TIP3   OH212208   3.776   3.575   3.259
 4108TIP3    H112209   3.859   3.582   3.210
 4108TIP3    H212210   3.721   3.644   3.215
 4109TIP3   OH212211   4.359   3.543   3.642
 4109TIP3    H112212   4.406   3.458   3.649
 4109TIP3    H212213   4.428   3.600   3.604
 4110TIP3   OH212214   4.398   3.796   3.377
 4110TIP3    H112215   4.341   3.849   3.317
 4110TIP3    H212216   4.486   3.815   3.337
 4111TIP3   OH212217   3.621   3.367   3.807
 4111TIP3    H112218   3.553   3.298   3.821
 4111TIP3    H212219   3.658   3.341   3.721
 4112TIP3   OH212220   3.880   2.804   3.452
 4112TIP3    H112221   3.832   2.886   3.429
 4112TIP3    H212222   3.811   2.736   3.440
 4113TIP3   OH212223   4.006   3.309   3.668
 4113TIP3    H112224   3.996   3.297   3.765
 4113TIP3    H212225   3.915   3.283   3.640
 4114TIP3   OH212226   4.247   3.259   3.524
 4114TIP3    H112227   4.170   3.258   3.584
 4114TIP3    H212228   4.319   3.226   3.581
 4115TIP3   OH212229   4.474   3.197   3.676
 4115TIP3    H112230   4.487   3.102   3.694
 4115TIP3    H212231   4.471   3.236   3.766
 4116TIP3   OH212232   3.461   3.147   3.861
 4116TIP3    H112233   3.470   3.056   3.825
 4116TIP3    H212234   3.498   3.134   3.951
 4117TIP3   OH212235   3.975   2.813   3.709
 4117TIP3    H112236   4.043   2.743   3.704
 4117TIP3    H212237   3.935   2.806   3.620
 4118TIP3   OH212238   4.040   3.028   3.868
 4118TIP3    H112239   4.018   2.957   3.804
 4118TIP3    H212240   3.962   3.087   3.861
 4119TIP3   OH212241   3.260   4.255   1.968
 4119TIP3    H112242   3.356   4.253   1.950
 4119TIP3    H212243   3.230   4.304   1.889
 4120TIP3   OH212244   2.741   3.637   2.186
 4120TIP3    H112245   2.835   3.660   2.173
 4120TIP3    H212246   2.737   3.549   2.142
 4121TIP3   OH212247   2.654   4.250   2.598
 4121TIP3    H112248   2.586   4.188   2.563
 4121TIP3    H212249   2.698   4.194   2.664
 4122TIP3   OH212250   2.791   4.104   2.784
 4122TIP3    H112251   2.779   4.029   2.845
 4122TIP3    H212252   2.842   4.165   2.840
 4123TIP3   OH212253   4.518   4.501   2.584
 4123TIP3    H112254   4.542   4.537   2.671
 4123TIP3    H212255   4.577   4.550   2.525
 4124TIP3   OH212256   4.546   4.523   2.865
 4124TIP3    H112257   4.508   4.432   2.863
 4124TIP3    H212258   4.623   4.507   2.921
 4125TIP3   OH212259   4.596   4.200   3.442
 4125TIP3    H112260   4.521   4.208   3.505
 4125TIP3    H212261   4.635   4.290   3.447
 4126TIP3   OH212262   4.409   3.714   2.060
 4126TIP3    H112263   4.478   3.777   2.032
 4126TIP3    H212264   4.453   3.673   2.139
 4127TIP3   OH212265   4.537   3.581   2.263
 4127TIP3    H112266   4.473   3.538   2.323
 4127TIP3    H212267   4.603   3.618   2.325
 4128TIP3   OH212268   4.591   3.970   2.696
 4128TIP3    H112269   4.645   3.908   2.644
 4128TIP3    H212270   4.584   4.047   2.635
 4129TIP3   OH212271   4.424   4.270   2.893
 4129TIP3    H112272   4.354   4.316   2.943
 4129TIP3    H212273   4.373   4.223   2.823
 4130TIP3   OH212274   4.476   3.487   1.912
 4130TIP3    H112275   4.404   3.491   1.844
 4130TIP3    H212276   4.450   3.564   1.966
 4131TIP3   OH212277   4.344   3.162   1.868
 4131TIP3    H112278   4.309   3.200   1.787
 4131TIP3    H212279   4.319   3.068   1.857
 4132TIP3   OH212280   4.351   3.436   2.410
 4132TIP3    H112281   4.361   3.339   2.406
 4132TIP3    H212282   4.339   3.451   2.506
 4133TIP3   OH212283   2.979   3.509   3.158
 4133TIP3    H112284   2.978   3.480   3.064
 4133TIP3    H212285   3.076   3.512   3.174
 4134TIP3   OH212286   4.640   3.860   3.268
 4134TIP3    H112287   4.714   3.795   3.259
 4134TIP3    H212288   4.666   3.930   3.206
 4135TIP3   OH212289   4.827   3.668   3.288
 4135TIP3    H112290   4.752   3.617   3.325
 4135TIP3    H212291   4.899   3.603   3.300
 4136TIP3   OH212292   4.290   2.896   1.855
 4136TIP3    H112293   4.368   2.865   1.906
 4136TIP3    H212294   4.220   2.834   1.879
 4137TIP3   OH212295   4.347   3.152   2.306
 4137TIP3    H112296   4.389   3.064   2.321
 4137TIP3    H212297   4.406   3.185   2.236
 4138TIP3   OH212298   4.511   3.328   2.800
 4138TIP3    H112299   4.597   3.354   2.760
 4138TIP3    H212300   4.524   3.364   2.890
 4139TIP3   OH212301   4.578   3.471   3.034
 4139TIP3    H112302   4.500   3.505   3.081
 4139TIP3    H212303   4.611   3.551   2.988
 4140TIP3   OH212304   3.194   3.197   3.829
 4140TIP3    H112305   3.292   3.192   3.832
 4140TIP3    H212306   3.171   3.113   3.872
 4141TIP3   OH212307   5.030   3.060   3.589
 4141TIP3    H112308   5.088   2.994   3.547
 4141TIP3    H212309   5.003   3.116   3.514
 4142TIP3   OH212310   4.456   2.902   2.344
 4142TIP3    H112311   4.506   2.886   2.427
 4142TIP3    H212312   4.397   2.824   2.342
 4143TIP3   OH212313   3.156   2.889   3.166
 4143TIP3    H112314   3.218   2.814   3.174
 4143TIP3    H212315   3.219   2.963   3.158
 4144TIP3   OH212316   2.960   3.164   3.235
 4144TIP3    H112317   3.010   3.154   3.151
 4144TIP3    H212318   2.991   3.250   3.266
 4145TIP3   OH212319   4.902   3.202   3.395
 4145TIP3    H112320   4.813   3.240   3.414
 4145TIP3    H212321   4.877   3.129   3.336
 4146TIP3   OH212322   4.539   2.838   1.975
 4146TIP3    H112323   4.579   2.765   1.923
 4146TIP3    H212324   4.606   2.908   1.968
 4147TIP3   OH212325   2.943   2.669   2.737
 4147TIP3    H112326   2.849   2.666   2.760
 4147TIP3    H212327   2.943   2.726   2.657
 4148TIP3   OH212328   4.100   4.368   2.242
 4148TIP3    H112329   4.153   4.354   2.161
 4148TIP3    H212330   4.153   4.435   2.288
 4149TIP3   OH212331   3.163   2.748   3.553
 4149TIP3    H112332   3.112   2.741   3.635
 4149TIP3    H212333   3.095   2.783   3.492
 4150TIP3   OH212334   3.203   4.171   3.628
 4150TIP3    H112335   3.111   4.144   3.612
 4150TIP3    H212336   3.212   4.157   3.723
 4151TIP3   OH212337   3.381   4.204   3.176
 4151TIP3    H112338   3.333   4.280   3.137
 4151TIP3    H212339   3.467   4.218   3.131
 4152TIP3   OH212340   3.828   4.450   3.314
 4152TIP3    H112341   3.870   4.452   3.402
 4152TIP3    H212342   3.894   4.500   3.261
 4153TIP3   OH212343   4.007   4.600   3.172
 4153TIP3    H112344   4.079   4.552   3.129
 4153TIP3    H212345   4.057   4.659   3.232
 4154TIP3   OH212346   4.800   2.964   3.273
 4154TIP3    H112347   4.709   2.957   3.239
 4154TIP3    H212348   4.831   2.871   3.260
 4155TIP3   OH212349   3.058   4.460   3.200
 4155TIP3    H112350   2.969   4.495   3.175
 4155TIP3    H212351   3.068   4.501   3.287
 4156TIP3   OH212352   3.294   4.439   3.056
 4156TIP3    H112353   3.207   4.453   3.101
 4156TIP3    H212354   3.274   4.474   2.967
 4157TIP3   OH212355   3.720   4.470   2.855
 4157TIP3    H112356   3.652   4.492   2.788
 4157TIP3    H212357   3.734   4.557   2.898
 4158TIP3   OH212358   3.989   4.408   2.906
 4158TIP3    H112359   3.895   4.427   2.886
 4158TIP3    H212360   4.033   4.485   2.865
 4159TIP3   OH212361   4.193   4.600   2.821
 4159TIP3    H112362   4.181   4.686   2.776
 4159TIP3    H212363   4.221   4.542   2.748
 4160TIP3   OH212364   2.968   4.256   2.944
 4160TIP3    H112365   2.996   4.231   3.035
 4160TIP3    H212366   3.042   4.213   2.894
 4161TIP3   OH212367   3.162   4.127   2.800
 4161TIP3    H112368   3.179   4.043   2.848
 4161TIP3    H212369   3.253   4.165   2.796
 4162TIP3   OH212370   3.427   4.223   2.804
 4162TIP3    H112371   3.461   4.133   2.790
 4162TIP3    H212372   3.472   4.245   2.887
 4163TIP3   OH212373   4.002   2.878   2.888
 4163TIP3    H112374   3.961   2.809   2.942
 4163TIP3    H212375   4.077   2.831   2.845
 4164TIP3   OH212376   4.528   2.760   2.798
 4164TIP3    H112377   4.566   2.811   2.722
 4164TIP3    H212378   4.433   2.779   2.790
 4165TIP3   OH212379   4.623   2.860   2.561
 4165TIP3    H112380   4.696   2.808   2.521
 4165TIP3    H212381   4.657   2.951   2.546
 4166TIP3   OH212382   3.253   2.587   2.909
 4166TIP3    H112383   3.162   2.553   2.909
 4166TIP3    H212384   3.304   2.503   2.906
 4167TIP3   OH212385   3.037   2.457   2.555
 4167TIP3    H112386   3.071   2.513   2.483
 4167TIP3    H212387   3.012   2.524   2.622
 4168TIP3   OH212388   3.694   2.623   2.788
 4168TIP3    H112389   3.755   2.671   2.729
 4168TIP3    H212390   3.722   2.656   2.875
 4169TIP3   OH212391   4.244   2.766   2.773
 4169TIP3    H112392   4.243   2.731   2.684
 4169TIP3    H212393   4.231   2.685   2.827
 4170TIP3   OH212394   4.274   2.688   2.334
 4170TIP3    H112395   4.187   2.729   2.344
 4170TIP3    H212396   4.260   2.603   2.381
 4171TIP3   OH212397   2.757   4.027   2.336
 4171TIP3    H112398   2.672   3.995   2.301
 4171TIP3    H212399   2.747   4.122   2.318
 4172TIP3   OH212400   3.157   2.618   2.320
 4172TIP3    H112401   3.204   2.554   2.264
 4172TIP3    H212402   3.232   2.671   2.356
 4173TIP3   OH212403   3.670   2.791   2.417
 4173TIP3    H112404   3.730   2.744   2.477
 4173TIP3    H212405   3.691   2.884   2.443
 4174TIP3   OH212406   3.529   4.218   1.918
 4174TIP3    H112407   3.618   4.240   1.882
 4174TIP3    H212408   3.507   4.143   1.859
 4175TIP3   OH212409   4.247   4.334   2.010
 4175TIP3    H112410   4.237   4.237   1.996
 4175TIP3    H212411   4.204   4.369   1.929
 4176TIP3   OH212412   3.461   2.868   3.799
 4176TIP3    H112413   3.429   2.797   3.857
 4176TIP3    H212414   3.556   2.870   3.824
 4177TIP3   OH212415   3.710   2.866   3.917
 4177TIP3    H112416   3.795   2.841   3.878
 4177TIP3    H212417   3.698   2.796   3.984
 4178TIP3   OH212418   2.833   4.052   1.975
 4178TIP3    H112419   2.833   4.082   2.067
 4178TIP3    H212420   2.922   4.013   1.965
 4179TIP3   OH212421   4.535   2.927   3.706
 4179TIP3    H112422   4.555   2.895   3.797
 4179TIP3    H212423   4.623   2.922   3.663
 4180TIP3   OH212424   4.475   4.477   3.199
 4180TIP3    H112425   4.396   4.448   3.150
 4180TIP3    H212426   4.459   4.574   3.199
 4181TIP3   OH212427   5.740   3.851   1.966
 4181TIP3    H112428   5.712   3.943   1.945
 4181TIP3    H212429   5.664   3.802   1.931
 4182TIP3   OH212430   5.738   3.852   2.345
 4182TIP3    H112431   5.770   3.820   2.431
 4182TIP3    H212432   5.698   3.773   2.307
 4183TIP3   OH212433   5.039   3.748   2.712
 4183TIP3    H112434   5.072   3.681   2.775
 4183TIP3    H212435   5.119   3.802   2.699
 4184TIP3   OH212436   5.982   4.152   2.026
 4184TIP3    H112437   5.970   4.083   2.093
 4184TIP3    H212438   6.011   4.228   2.080
 4185TIP3   OH212439   5.011   4.156   2.438
 4185TIP3    H112440   5.002   4.058   2.440
 4185TIP3    H212441   5.108   4.164   2.428
 4186TIP3   OH212442   4.716   3.360   2.223
 4186TIP3    H112443   4.667   3.444   2.234
 4186TIP3    H212444   4.646   3.306   2.182
 4187TIP3   OH212445   4.776   3.647   2.391
 4187TIP3    H112446   4.826   3.571   2.429
 4187TIP3    H212447   4.836   3.676   2.320
 4188TIP3   OH212448   5.631   4.615   2.042
 4188TIP3    H112449   5.678   4.544   1.993
 4188TIP3    H212450   5.625   4.577   2.130
 4189TIP3   OH212451   5.538   4.076   2.394
 4189TIP3    H112452   5.575   4.000   2.346
 4189TIP3    H212453   5.622   4.121   2.417
 4190TIP3   OH212454   6.550   3.397   2.390
 4190TIP3    H112455   6.579   3.480   2.434
 4190TIP3    H212456   6.573   3.417   2.298
 4191TIP3   OH212457   5.950   3.579   2.427
 4191TIP3    H112458   5.993   3.494   2.446
 4191TIP3    H212459   5.920   3.564   2.335
 4192TIP3   OH212460   5.287   3.238   2.392
 4192TIP3    H112461   5.267   3.311   2.329
 4192TIP3    H212462   5.240   3.164   2.348
 4193TIP3   OH212463   5.981   3.329   2.015
 4193TIP3    H112464   6.054   3.314   2.079
 4193TIP3    H212465   6.032   3.364   1.939
 4194TIP3   OH212466   4.922   3.440   2.499
 4194TIP3    H112467   5.005   3.420   2.545
 4194TIP3    H212468   4.933   3.385   2.419
 4195TIP3   OH212469   5.363   3.638   2.292
 4195TIP3    H112470   5.457   3.613   2.304
 4195TIP3    H212471   5.324   3.555   2.259
 4196TIP3   OH212472   6.624   3.603   2.561
 4196TIP3    H112473   6.541   3.652   2.543
 4196TIP3    H212474   6.641   3.631   2.653
 4197TIP3   OH212475   5.285   3.222   2.826
 4197TIP3    H112476   5.225   3.258   2.758
 4197TIP3    H212477   5.233   3.240   2.906
 4198TIP3   OH212478   5.632   4.071   1.836
 4198TIP3    H112479   5.592   4.051   1.750
 4198TIP3    H212480   5.589   4.157   1.857
 4199TIP3   OH212481   5.392   3.996   2.622
 4199TIP3    H112482   5.328   4.062   2.658
 4199TIP3    H212483   5.434   4.047   2.549
 4200TIP3   OH212484   6.193   3.331   2.185
 4200TIP3    H112485   6.187   3.280   2.267
 4200TIP3    H212486   6.248   3.407   2.211
 4201TIP3   OH212487   5.155   3.336   2.610
 4201TIP3    H112488   5.218   3.409   2.632
 4201TIP3    H212489   5.204   3.295   2.535
 4202TIP3   OH212490   5.220   4.190   2.719
 4202TIP3    H112491   5.194   4.275   2.678
 4202TIP3    H212492   5.141   4.174   2.775
 4203TIP3   OH212493   4.614   3.880   1.955
 4203TIP3    H112494   4.575   3.906   1.870
 4203TIP3    H212495   4.644   3.966   1.991
 4204TIP3   OH212496   6.054   4.395   2.196
 4204TIP3    H112497   5.963   4.388   2.233
 4204TIP3    H212498   6.047   4.481   2.149
 4205TIP3   OH212499   6.344   3.298   2.557
 4205TIP3    H112500   6.257   3.328   2.527
 4205TIP3    H212501   6.403   3.329   2.485
 4206TIP3   OH212502   5.642   2.941   2.538
 4206TIP3    H112503   5.631   2.846   2.556
 4206TIP3    H212504   5.564   2.978   2.585
 4207TIP3   OH212505   5.756   4.443   1.870
 4207TIP3    H112506   5.806   4.361   1.847
 4207TIP3    H212507   5.816   4.509   1.827
 4208TIP3   OH212508   5.897   4.228   1.774
 4208TIP3    H112509   5.864   4.148   1.732
 4208TIP3    H212510   5.932   4.192   1.858
 4209TIP3   OH212511   6.279   4.310   2.538
 4209TIP3    H112512   6.270   4.232   2.479
 4209TIP3    H212513   6.263   4.384   2.477
 4210TIP3   OH212514   5.571   3.704   1.794
 4210TIP3    H112515   5.491   3.754   1.772
 4210TIP3    H212516   5.618   3.700   1.709
 4211TIP3   OH212517   5.530   3.487   1.514
 4211TIP3    H112518   5.599   3.537   1.561
 4211TIP3    H212519   5.586   3.423   1.465
 4212TIP3   OH212520   6.475   3.945   2.382
 4212TIP3    H112521   6.392   3.998   2.387
 4212TIP3    H212522   6.505   3.968   2.292
 4213TIP3   OH212523   5.918   3.785   1.768
 4213TIP3    H112524   5.864   3.811   1.846
 4213TIP3    H212525   6.001   3.759   1.811
 4214TIP3   OH212526   6.154   3.825   2.678
 4214TIP3    H112527   6.151   3.909   2.727
 4214TIP3    H212528   6.068   3.829   2.632
 4215TIP3   OH212529   5.150   3.784   2.184
 4215TIP3    H112530   5.108   3.726   2.116
 4215TIP3    H212531   5.228   3.730   2.212
 4216TIP3   OH212532   5.279   4.192   2.333
 4216TIP3    H112533   5.259   4.152   2.247
 4216TIP3    H212534   5.370   4.160   2.350
 4217TIP3   OH212535   5.286   3.755   2.538
 4217TIP3    H112536   5.320   3.734   2.448
 4217TIP3    H212537   5.330   3.840   2.557
 4218TIP3   OH212538   5.812   4.394   2.315
 4218TIP3    H112539   5.797   4.472   2.370
 4218TIP3    H212540   5.799   4.319   2.377
 4219TIP3   OH212541   5.422   4.315   2.863
 4219TIP3    H112542   5.361   4.377   2.908
 4219TIP3    H212543   5.359   4.260   2.812
 4220TIP3   OH212544   5.760   3.643   1.593
 4220TIP3    H112545   5.819   3.702   1.645
 4220TIP3    H212546   5.786   3.668   1.501
 4221TIP3   OH212547   5.179   3.868   2.963
 4221TIP3    H112548   5.182   3.955   3.008
 4221TIP3    H212549   5.084   3.849   2.968
 4222TIP3   OH212550   5.501   4.325   1.870
 4222TIP3    H112551   5.581   4.379   1.886
 4222TIP3    H212552   5.441   4.388   1.828
 4223TIP3   OH212553   5.220   4.494   2.954
 4223TIP3    H112554   5.188   4.486   2.862
 4223TIP3    H212555   5.142   4.463   3.005
 4224TIP3   OH212556   6.275   2.885   1.641
 4224TIP3    H112557   6.194   2.904   1.692
 4224TIP3    H212558   6.287   2.968   1.591
 4225TIP3   OH212559   5.016   3.627   1.991
 4225TIP3    H112560   4.952   3.672   1.932
 4225TIP3    H212561   4.976   3.540   1.999
 4226TIP3   OH212562   6.073   4.252   1.190
 4226TIP3    H112563   6.081   4.349   1.175
 4226TIP3    H212564   6.166   4.224   1.177
 4227TIP3   OH212565   4.798   4.011   2.895
 4227TIP3    H112566   4.734   3.988   2.825
 4227TIP3    H212567   4.835   3.923   2.920
 4228TIP3   OH212568   4.652   4.201   2.532
 4228TIP3    H112569   4.748   4.198   2.519
 4228TIP3    H212570   4.642   4.283   2.582
 4229TIP3   OH212571   6.517   4.653   2.584
 4229TIP3    H112572   6.516   4.556   2.597
 4229TIP3    H212573   6.433   4.678   2.630
 4230TIP3   OH212574   5.624   4.444   2.722
 4230TIP3    H112575   5.617   4.537   2.751
 4230TIP3    H212576   5.551   4.402   2.772
 4231TIP3   OH212577   5.382   4.569   1.671
 4231TIP3    H112578   5.338   4.549   1.586
 4231TIP3    H212579   5.351   4.659   1.691
 4232TIP3   OH212580   4.821   4.419   2.053
 4232TIP3    H112581   4.869   4.409   2.138
 4232TIP3    H212582   4.762   4.342   2.058
 4233TIP3   OH212583   5.585   4.470   1.311
 4233TIP3    H112584   5.644   4.400   1.274
 4233TIP3    H212585   5.620   4.479   1.402
 4234TIP3   OH212586   5.635   4.519   1.582
 4234TIP3    H112587   5.546   4.528   1.624
 4234TIP3    H212588   5.686   4.477   1.653
 4235TIP3   OH212589   6.406   3.786   2.859
 4235TIP3    H112590   6.327   3.798   2.804
 4235TIP3    H212591   6.423   3.690   2.848
 4236TIP3   OH212592   5.004   4.193   2.885
 4236TIP3    H112593   5.053   4.175   2.968
 4236TIP3    H212594   4.929   4.130   2.891
 4237TIP3   OH212595   5.402   3.016   2.667
 4237TIP3    H112596   5.313   2.986   2.642
 4237TIP3    H212597   5.378   3.100   2.712
 4238TIP3   OH212598   5.936   3.133   2.862
 4238TIP3    H112599   6.005   3.104   2.926
 4238TIP3    H212600   5.853   3.111   2.908
 4239TIP3   OH212601   6.176   3.560   2.779
 4239TIP3    H112602   6.128   3.557   2.865
 4239TIP3    H212603   6.152   3.648   2.745
 4240TIP3   OH212604   5.836   3.691   1.337
 4240TIP3    H112605   5.802   3.665   1.249
 4240TIP3    H212606   5.916   3.741   1.312
 4241TIP3   OH212607   5.549   3.066   1.638
 4241TIP3    H112608   5.516   3.064   1.730
 4241TIP3    H212609   5.510   2.982   1.606
 4242TIP3   OH212610   5.334   3.532   2.686
 4242TIP3    H112611   5.284   3.553   2.767
 4242TIP3    H212612   5.318   3.613   2.632
 4243TIP3   OH212613   5.218   3.418   2.200
 4243TIP3    H112614   5.125   3.392   2.217
 4243TIP3    H212615   5.232   3.378   2.112
 4244TIP3   OH212616   5.709   3.504   1.927
 4244TIP3    H112617   5.655   3.576   1.886
 4244TIP3    H212618   5.763   3.475   1.852
 4245TIP3   OH212619   5.883   3.785   3.017
 4245TIP3    H112620   5.861   3.710   3.077
 4245TIP3    H212621   5.978   3.796   3.036
 4246TIP3   OH212622   5.866   3.533   2.167
 4246TIP3    H112623   5.807   3.563   2.095
 4246TIP3    H212624   5.899   3.451   2.125
 4247TIP3   OH212625   5.153   3.562   2.896
 4247TIP3    H112626   5.182   3.624   2.964
 4247TIP3    H212627   5.142   3.479   2.947
 4248TIP3   OH212628   5.204   3.038   1.605
 4248TIP3    H112629   5.195   3.035   1.702
 4248TIP3    H212630   5.124   3.089   1.581
 4249TIP3   OH212631   4.746   3.084   2.477
 4249TIP3    H112632   4.823   3.115   2.529
 4249TIP3    H212633   4.786   3.051   2.395
 4250TIP3   OH212634   4.720   3.064   1.996
 4250TIP3    H112635   4.765   3.103   1.917
 4250TIP3    H212636   4.660   3.137   2.018
 4251TIP3   OH212637   5.876   3.780   2.591
 4251TIP3    H112638   5.909   3.708   2.532
 4251TIP3    H212639   5.848   3.727   2.669
 4252TIP3   OH212640   5.545   3.242   2.263
 4252TIP3    H112641   5.463   3.238   2.316
 4252TIP3    H212642   5.613   3.239   2.331
 4253TIP3   OH212643   4.980   3.296   2.271
 4253TIP3    H112644   4.885   3.302   2.244
 4253TIP3    H212645   5.004   3.205   2.246
 4254TIP3   OH212646   5.250   3.293   1.958
 4254TIP3    H112647   5.345   3.308   1.937
 4254TIP3    H212648   5.204   3.317   1.874
 4255TIP3   OH212649   6.037   3.317   2.465
 4255TIP3    H112650   6.001   3.328   2.555
 4255TIP3    H212651   5.973   3.255   2.426
 4256TIP3   OH212652   5.089   3.326   1.737
 4256TIP3    H112653   5.018   3.281   1.688
 4256TIP3    H212654   5.142   3.362   1.663
 4257TIP3   OH212655   6.204   5.006   2.682
 4257TIP3    H112656   6.203   5.028   2.587
 4257TIP3    H212657   6.284   5.053   2.712
 4258TIP3   OH212658   5.164   4.114   3.105
 4258TIP3    H112659   5.244   4.145   3.153
 4258TIP3    H212660   5.099   4.115   3.178
 4259TIP3   OH212661   5.630   3.568   2.359
 4259TIP3    H112662   5.701   3.529   2.307
 4259TIP3    H212663   5.641   3.525   2.446
 4260TIP3   OH212664   5.152   3.057   2.236
 4260TIP3    H112665   5.120   2.976   2.281
 4260TIP3    H212666   5.204   3.021   2.163
 4261TIP3   OH212667   5.605   3.462   2.651
 4261TIP3    H112668   5.516   3.500   2.664
 4261TIP3    H212669   5.663   3.523   2.701
 4262TIP3   OH212670   5.342   3.856   1.744
 4262TIP3    H112671   5.269   3.791   1.733
 4262TIP3    H212672   5.324   3.890   1.835
 4263TIP3   OH212673   6.243   4.092   2.374
 4263TIP3    H112674   6.268   4.141   2.292
 4263TIP3    H212675   6.158   4.051   2.349
 4264TIP3   OH212676   5.801   3.168   1.606
 4264TIP3    H112677   5.704   3.153   1.613
 4264TIP3    H212678   5.811   3.263   1.628
 4265TIP3   OH212679   5.740   4.173   2.741
 4265TIP3    H112680   5.764   4.150   2.832
 4265TIP3    H212681   5.704   4.263   2.749
 4266TIP3   OH212682   5.870   3.415   1.709
 4266TIP3    H112683   5.967   3.421   1.724
 4266TIP3    H212684   5.851   3.494   1.655
 4267TIP3   OH212685   5.033   3.877   2.421
 4267TIP3    H112686   5.071   3.851   2.334
 4267TIP3    H212687   5.075   3.813   2.481
 4268TIP3   OH212688   5.488   4.006   1.566
 4268TIP3    H112689   5.441   4.092   1.572
 4268TIP3    H212690   5.433   3.950   1.625
 4269TIP3   OH212691   4.913   3.799   3.033
 4269TIP3    H112692   4.935   3.784   3.127
 4269TIP3    H212693   4.845   3.731   3.017
 4270TIP3   OH212694   5.639   3.912   3.054
 4270TIP3    H112695   5.581   3.855   3.001
 4270TIP3    H212696   5.728   3.879   3.027
 4271TIP3   OH212697   5.903   4.433   2.641
 4271TIP3    H112698   5.806   4.432   2.649
 4271TIP3    H212699   5.928   4.489   2.718
 4272TIP3   OH212700   6.313   3.504   1.545
 4272TIP3    H112701   6.251   3.459   1.484
 4272TIP3    H212702   6.309   3.593   1.504
 4273TIP3   OH212703   6.529   4.362   2.627
 4273TIP3    H112704   6.432   4.357   2.618
 4273TIP3    H212705   6.556   4.333   2.537
 4274TIP3   OH212706   6.012   4.324   1.454
 4274TIP3    H112707   5.988   4.253   1.514
 4274TIP3    H212708   6.025   4.279   1.368
 4275TIP3   OH212709   6.008   3.954   2.294
 4275TIP3    H112710   5.914   3.927   2.306
 4275TIP3    H212711   6.043   3.875   2.249
 4276TIP3   OH212712   5.135   4.181   2.047
 4276TIP3    H112713   5.139   4.262   1.993
 4276TIP3    H212714   5.040   4.167   2.052
 4277TIP3   OH212715   4.698   3.486   1.747
 4277TIP3    H112716   4.745   3.570   1.767
 4277TIP3    H212717   4.621   3.493   1.808
 4278TIP3   OH212718   5.275   3.948   1.991
 4278TIP3    H112719   5.240   4.038   2.008
 4278TIP3    H212720   5.237   3.898   2.066
 4279TIP3   OH212721   5.403   4.525   2.514
 4279TIP3    H112722   5.440   4.600   2.463
 4279TIP3    H212723   5.483   4.491   2.559
 4280TIP3   OH212724   5.056   4.420   1.899
 4280TIP3    H112725   4.969   4.428   1.943
 4280TIP3    H212726   5.087   4.513   1.901
 4281TIP3   OH212727   5.795   4.162   2.472
 4281TIP3    H112728   5.786   4.157   2.570
 4281TIP3    H212729   5.873   4.107   2.457
 4282TIP3   OH212730   5.766   4.051   1.355
 4282TIP3    H112731   5.819   4.027   1.435
 4282TIP3    H212732   5.677   4.026   1.385
 4283TIP3   OH212733   6.040   4.697   2.525
 4283TIP3    H112734   5.962   4.639   2.513
 4283TIP3    H212735   6.028   4.761   2.452
 4284TIP3   OH212736   6.106   4.527   1.176
 4284TIP3    H112737   6.142   4.597   1.118
 4284TIP3    H212738   6.027   4.574   1.209
 4285TIP3   OH212739   5.127   3.305   3.043
 4285TIP3    H112740   5.031   3.308   3.055
 4285TIP3    H212741   5.155   3.243   3.112
 4286TIP3   OH212742   5.926   3.988   1.574
 4286TIP3    H112743   5.917   3.920   1.644
 4286TIP3    H212744   6.023   3.985   1.560
 4287TIP3   OH212745   4.843   4.390   2.674
 4287TIP3    H112746   4.896   4.315   2.706
 4287TIP3    H212747   4.869   4.460   2.734
 4288TIP3   OH212748   5.134   4.033   1.355
 4288TIP3    H112749   5.148   3.942   1.324
 4288TIP3    H212750   5.114   4.019   1.450
 4289TIP3   OH212751   5.078   4.037   1.629
 4289TIP3    H112752   5.152   4.011   1.686
 4289TIP3    H212753   5.083   4.135   1.634
 4290TIP3   OH212754   4.815   3.731   1.830
 4290TIP3    H112755   4.749   3.777   1.887
 4290TIP3    H212756   4.831   3.801   1.763
 4291TIP3   OH212757   5.960   3.371   2.724
 4291TIP3    H112758   6.043   3.406   2.760
 4291TIP3    H212759   5.948   3.289   2.777
 4292TIP3   OH212760   5.841   3.121   1.886
 4292TIP3    H112761   5.828   3.144   1.792
 4292TIP3    H212762   5.882   3.203   1.922
 4293TIP3   OH212763   5.344   4.235   1.577
 4293TIP3    H112764   5.257   4.265   1.611
 4293TIP3    H212765   5.361   4.304   1.511
 4294TIP3   OH212766   5.533   3.298   1.989
 4294TIP3    H112767   5.598   3.369   1.971
 4294TIP3    H212768   5.538   3.292   2.087
 4295TIP3   OH212769   5.801   3.618   2.798
 4295TIP3    H112770   5.823   3.670   2.878
 4295TIP3    H212771   5.858   3.539   2.809
 4296TIP3   OH212772   5.678   3.027   2.093
 4296TIP3    H112773   5.672   3.104   2.152
 4296TIP3    H212774   5.738   3.063   2.023
 4297TIP3   OH212775   5.086   4.311   1.643
 4297TIP3    H112776   5.057   4.380   1.579
 4297TIP3    H212777   5.071   4.355   1.729
 4298TIP3   OH212778   5.188   3.023   1.882
 4298TIP3    H112779   5.186   3.114   1.917
 4298TIP3    H212780   5.284   3.005   1.890
 4299TIP3   OH212781   6.443   3.519   2.778
 4299TIP3    H112782   6.345   3.516   2.784
 4299TIP3    H212783   6.455   3.479   2.691
 4300TIP3   OH212784   6.093   3.713   2.167
 4300TIP3    H112785   6.018   3.652   2.178
 4300TIP3    H212786   6.165   3.666   2.214
 4301TIP3   OH212787   4.805   3.943   1.637
 4301TIP3    H112788   4.870   4.014   1.645
 4301TIP3    H212789   4.850   3.888   1.569
 4302TIP3   OH212790   4.751   3.216   1.771
 4302TIP3    H112791   4.750   3.314   1.765
 4302TIP3    H212792   4.670   3.193   1.724
 4303TIP3   OH212793   6.061   4.667   2.117
 4303TIP3    H112794   6.019   4.714   2.041
 4303TIP3    H212795   6.156   4.686   2.096
 4304TIP3   OH212796   5.137   2.937   2.644
 4304TIP3    H112797   5.106   2.904   2.557
 4304TIP3    H212798   5.127   2.858   2.701
 4305TIP3   OH212799   4.678   4.155   2.026
 4305TIP3    H112800   4.604   4.187   2.079
 4305TIP3    H212801   4.657   4.195   1.939
 4306TIP3   OH212802   4.850   4.688   3.064
 4306TIP3    H112803   4.919   4.692   3.133
 4306TIP3    H212804   4.805   4.605   3.085
 4307TIP3   OH212805   5.374   4.687   3.106
 4307TIP3    H112806   5.435   4.614   3.130
 4307TIP3    H212807   5.310   4.634   3.054
 4308TIP3   OH212808   5.298   4.238   1.270
 4308TIP3    H112809   5.242   4.165   1.307
 4308TIP3    H212810   5.372   4.186   1.233
 4309TIP3   OH212811   5.945   4.575   2.881
 4309TIP3    H112812   5.944   4.498   2.942
 4309TIP3    H212813   6.030   4.618   2.902
 4310TIP3   OH212814   5.733   4.279   1.178
 4310TIP3    H112815   5.780   4.216   1.235
 4310TIP3    H212816   5.788   4.280   1.097
 4311TIP3   OH212817   4.964   4.104   3.297
 4311TIP3    H112818   4.981   4.008   3.298
 4311TIP3    H212819   4.876   4.106   3.252
 4312TIP3   OH212820   4.940   3.754   1.488
 4312TIP3    H112821   4.996   3.721   1.560
 4312TIP3    H212822   5.007   3.759   1.416
 4313TIP3   OH212823   5.570   4.187   3.069
 4313TIP3    H112824   5.530   4.201   2.981
 4313TIP3    H212825   5.603   4.094   3.063
 4314TIP3   OH212826   5.449   3.951   1.296
 4314TIP3    H112827   5.452   3.965   1.393
 4314TIP3    H212828   5.449   3.853   1.291
 4315TIP3   OH212829   6.065   4.196   2.676
 4315TIP3    H112830   6.139   4.239   2.630
 4315TIP3    H212831   5.994   4.261   2.661
 4316TIP3   OH212832   5.082   3.836   3.277
 4316TIP3    H112833   5.156   3.780   3.254
 4316TIP3    H212834   5.107   3.868   3.366
 4317TIP3   OH212835   5.150   3.656   1.711
 4317TIP3    H112836   5.124   3.613   1.794
 4317TIP3    H212837   5.186   3.582   1.659
 4318TIP3   OH212838   5.418   3.722   2.939
 4318TIP3    H112839   5.341   3.782   2.942
 4318TIP3    H212840   5.466   3.754   2.860
 4319TIP3   OH212841   5.250   3.450   1.552
 4319TIP3    H112842   5.223   3.452   1.458
 4319TIP3    H212843   5.347   3.457   1.544
 4320TIP3   OH212844   5.936   4.125   3.073
 4320TIP3    H112845   6.015   4.101   3.023
 4320TIP3    H212846   5.934   4.056   3.142
 4321TIP3   OH212847   6.074   3.782   1.213
 4321TIP3    H112848   6.051   3.735   1.131
 4321TIP3    H212849   6.042   3.873   1.189
 4322TIP3   OH212850   5.540   3.509   3.067
 4322TIP3    H112851   5.542   3.429   3.011
 4322TIP3    H212852   5.498   3.575   3.008
 4323TIP3   OH212853   5.544   3.296   2.873
 4323TIP3    H112854   5.572   3.336   2.788
 4323TIP3    H212855   5.450   3.272   2.854
 4324TIP3   OH212856   5.573   3.833   2.747
 4324TIP3    H112857   5.655   3.837   2.695
 4324TIP3    H212858   5.517   3.900   2.701
 4325TIP3   OH212859   6.155   3.800   3.128
 4325TIP3    H112860   6.201   3.715   3.136
 4325TIP3    H212861   6.225   3.857   3.092
 4326TIP3   OH212862   6.194   4.052   2.864
 4326TIP3    H112863   6.138   4.105   2.803
 4326TIP3    H212864   6.282   4.070   2.824
 4327TIP3   OH212865   5.418   3.624   3.295
 4327TIP3    H112866   5.350   3.555   3.308
 4327TIP3    H212867   5.454   3.598   3.208
 4328TIP3   OH212868   5.676   3.061   2.939
 4328TIP3    H112869   5.628   3.143   2.916
 4328TIP3    H212870   5.607   2.993   2.926
 4329TIP3   OH212871   5.801   3.566   3.155
 4329TIP3    H112872   5.792   3.553   3.251
 4329TIP3    H212873   5.712   3.540   3.126
 4330TIP3   OH212874   6.043   3.517   3.011
 4330TIP3    H112875   5.966   3.514   3.071
 4330TIP3    H212876   6.115   3.483   3.067
 4331TIP3   OH212877   6.269   3.454   3.163
 4331TIP3    H112878   6.283   3.358   3.181
 4331TIP3    H212879   6.267   3.493   3.253
 4332TIP3   OH212880   5.258   3.403   3.348
 4332TIP3    H112881   5.266   3.313   3.311
 4332TIP3    H212882   5.295   3.389   3.438
 4333TIP3   OH212883   5.770   3.070   3.196
 4333TIP3    H112884   5.839   3.000   3.191
 4333TIP3    H212885   5.731   3.063   3.107
 4334TIP3   OH212886   5.836   3.284   3.356
 4334TIP3    H112887   5.814   3.213   3.291
 4334TIP3    H212888   5.758   3.343   3.348
 4335TIP3   OH212889   5.057   4.512   1.456
 4335TIP3    H112890   5.152   4.510   1.436
 4335TIP3    H212891   5.026   4.561   1.377
 4336TIP3   OH212892   4.537   3.894   1.674
 4336TIP3    H112893   4.631   3.917   1.659
 4336TIP3    H212894   4.532   3.805   1.631
 4337TIP3   OH212895   4.450   4.507   2.085
 4337TIP3    H112896   4.383   4.444   2.050
 4337TIP3    H212897   4.495   4.450   2.152
 4338TIP3   OH212898   4.587   4.360   2.272
 4338TIP3    H112899   4.576   4.286   2.333
 4338TIP3    H212900   4.638   4.422   2.328
 4339TIP3   OH212901   6.313   4.759   2.072
 4339TIP3    H112902   6.342   4.796   2.158
 4339TIP3    H212903   6.374   4.803   2.010
 4340TIP3   OH212904   6.343   4.780   2.356
 4340TIP3    H112905   6.302   4.691   2.349
 4340TIP3    H212906   6.421   4.759   2.409
 4341TIP3   OH212907   6.389   4.457   2.927
 4341TIP3    H112908   6.317   4.466   2.992
 4341TIP3    H212909   6.432   4.545   2.931
 4342TIP3   OH212910   6.206   3.969   1.547
 4342TIP3    H112911   6.275   4.033   1.519
 4342TIP3    H212912   6.249   3.929   1.626
 4343TIP3   OH212913   6.334   3.837   1.750
 4343TIP3    H112914   6.269   3.794   1.810
 4343TIP3    H212915   6.399   3.875   1.812
 4344TIP3   OH212916   6.386   4.227   2.183
 4344TIP3    H112917   6.441   4.164   2.132
 4344TIP3    H212918   6.380   4.303   2.121
 4345TIP3   OH212919   6.220   4.528   2.379
 4345TIP3    H112920   6.148   4.570   2.429
 4345TIP3    H212921   6.171   4.480   2.309
 4346TIP3   OH212922   6.272   3.744   1.398
 4346TIP3    H112923   6.201   3.747   1.331
 4346TIP3    H212924   6.246   3.821   1.453
 4347TIP3   OH212925   6.143   3.417   1.353
 4347TIP3    H112926   6.101   3.457   1.276
 4347TIP3    H212927   6.117   3.323   1.342
 4348TIP3   OH212928   6.148   3.692   1.897
 4348TIP3    H112929   6.157   3.595   1.893
 4348TIP3    H212930   6.135   3.707   1.993
 4349TIP3   OH212931   4.775   3.765   2.644
 4349TIP3    H112932   4.773   3.736   2.551
 4349TIP3    H212933   4.872   3.768   2.660
 4350TIP3   OH212934   6.436   4.117   2.754
 4350TIP3    H112935   6.509   4.051   2.746
 4350TIP3    H212936   6.465   4.187   2.693
 4351TIP3   OH212937   6.622   3.924   2.774
 4351TIP3    H112938   6.548   3.872   2.812
 4351TIP3    H212939   6.695   3.860   2.787
 4352TIP3   OH212940   6.087   3.151   1.339
 4352TIP3    H112941   6.162   3.120   1.394
 4352TIP3    H212942   6.014   3.092   1.364
 4353TIP3   OH212943   6.144   3.409   1.793
 4353TIP3    H112944   6.185   3.320   1.808
 4353TIP3    H212945   6.202   3.442   1.723
 4354TIP3   OH212946   6.307   3.584   2.287
 4354TIP3    H112947   6.393   3.611   2.247
 4354TIP3    H212948   6.320   3.620   2.377
 4355TIP3   OH212949   6.374   3.727   2.521
 4355TIP3    H112950   6.296   3.762   2.568
 4355TIP3    H212951   6.407   3.807   2.474
 4356TIP3   OH212952   4.991   3.454   3.320
 4356TIP3    H112953   5.089   3.447   3.320
 4356TIP3    H212954   4.967   3.369   3.361
 4357TIP3   OH212955   6.826   3.316   3.076
 4357TIP3    H112956   6.884   3.250   3.033
 4357TIP3    H212957   6.799   3.373   3.001
 4358TIP3   OH212958   6.253   3.158   1.830
 4358TIP3    H112959   6.302   3.142   1.914
 4358TIP3    H212960   6.193   3.081   1.828
 4359TIP3   OH212961   4.953   3.145   2.652
 4359TIP3    H112962   5.016   3.071   2.660
 4359TIP3    H212963   5.015   3.220   2.644
 4360TIP3   OH212964   4.757   3.420   2.723
 4360TIP3    H112965   4.805   3.410   2.639
 4360TIP3    H212966   4.786   3.507   2.752
 4361TIP3   OH212967   6.698   3.459   2.882
 4361TIP3    H112968   6.610   3.497   2.902
 4361TIP3    H212969   6.672   3.386   2.823
 4362TIP3   OH212970   6.335   3.094   1.462
 4362TIP3    H112971   6.375   3.022   1.410
 4362TIP3    H212972   6.402   3.165   1.454
 4363TIP3   OH212973   4.739   2.925   2.226
 4363TIP3    H112974   4.645   2.921   2.249
 4363TIP3    H212975   4.739   2.981   2.145
 4364TIP3   OH212976   5.899   4.624   1.730
 4364TIP3    H112977   5.949   4.609   1.647
 4364TIP3    H212978   5.953   4.693   1.773
 4365TIP3   OH212979   4.960   3.005   3.040
 4365TIP3    H112980   4.908   2.997   3.122
 4365TIP3    H212981   4.892   3.041   2.979
 4366TIP3   OH212982   5.005   4.420   3.121
 4366TIP3    H112983   4.913   4.404   3.093
 4366TIP3    H212984   4.998   4.404   3.216
 4367TIP3   OH212985   5.180   4.463   2.668
 4367TIP3    H112986   5.129   4.536   2.628
 4367TIP3    H212987   5.264   4.477   2.619
 4368TIP3   OH212988   5.625   4.716   2.813
 4368TIP3    H112989   5.687   4.692   2.883
 4368TIP3    H212990   5.685   4.759   2.748
 4369TIP3   OH212991   5.802   4.854   2.662
 4369TIP3    H112992   5.869   4.806   2.611
 4369TIP3    H212993   5.859   4.914   2.716
 4370TIP3   OH212994   6.596   3.220   2.759
 4370TIP3    H112995   6.505   3.214   2.726
 4370TIP3    H212996   6.627   3.128   2.747
 4371TIP3   OH212997   4.855   4.717   2.689
 4371TIP3    H112998   4.766   4.752   2.663
 4371TIP3    H212999   4.859   4.749   2.779
 4372TIP3   OH213000   5.090   4.696   2.545
 4372TIP3    H113001   5.003   4.710   2.589
 4372TIP3    H213002   5.072   4.731   2.456
 4373TIP3   OH213003   5.516   4.727   2.342
 4373TIP3    H113004   5.448   4.747   2.275
 4373TIP3    H213005   5.527   4.815   2.383
 4374TIP3   OH213006   5.784   4.669   2.396
 4374TIP3    H113007   5.690   4.684   2.373
 4374TIP3    H213008   5.828   4.741   2.348
 4375TIP3   OH213009   5.992   4.858   2.308
 4375TIP3    H113010   5.978   4.943   2.262
 4375TIP3    H213011   6.019   4.799   2.235
 4376TIP3   OH213012   4.765   4.513   2.430
 4376TIP3    H113013   4.791   4.488   2.521
 4376TIP3    H213014   4.838   4.470   2.380
 4377TIP3   OH213015   4.958   4.384   2.287
 4377TIP3    H113016   4.975   4.300   2.335
 4377TIP3    H213017   5.049   4.422   2.282
 4378TIP3   OH213018   5.224   4.480   2.289
 4378TIP3    H113019   5.256   4.389   2.275
 4378TIP3    H213020   5.267   4.501   2.374
 4379TIP3   OH213021   5.800   3.135   2.377
 4379TIP3    H113022   5.758   3.066   2.429
 4379TIP3    H213023   5.872   3.088   2.332
 4380TIP3   OH213024   6.325   3.017   2.285
 4380TIP3    H113025   6.362   3.068   2.209
 4380TIP3    H213026   6.229   3.034   2.276
 4381TIP3   OH213027   6.420   3.116   2.048
 4381TIP3    H113028   6.493   3.065   2.007
 4381TIP3    H213029   6.453   3.208   2.032
 4382TIP3   OH213030   5.050   2.844   2.396
 4382TIP3    H113031   4.958   2.811   2.395
 4382TIP3    H213032   5.100   2.760   2.392
 4383TIP3   OH213033   4.836   2.713   2.042
 4383TIP3    H113034   4.867   2.770   1.969
 4383TIP3    H213035   4.807   2.779   2.108
 4384TIP3   OH213036   5.492   2.878   2.275
 4384TIP3    H113037   5.551   2.927   2.216
 4384TIP3    H213038   5.517   2.913   2.361
 4385TIP3   OH213039   6.041   3.023   2.260
 4385TIP3    H113040   6.039   2.987   2.170
 4385TIP3    H213041   6.028   2.942   2.314
 4386TIP3   OH213042   6.071   2.945   1.821
 4386TIP3    H113043   5.983   2.987   1.831
 4386TIP3    H213044   6.056   2.860   1.868
 4387TIP3   OH213045   4.553   4.284   1.824
 4387TIP3    H113046   4.468   4.251   1.788
 4387TIP3    H213047   4.543   4.379   1.806
 4388TIP3   OH213048   4.953   2.873   1.807
 4388TIP3    H113049   5.001   2.811   1.750
 4388TIP3    H213050   5.026   2.927   1.843
 4389TIP3   OH213051   5.465   3.048   1.905
 4389TIP3    H113052   5.526   3.001   1.964
 4389TIP3    H213053   5.487   3.141   1.929
 4390TIP3   OH213054   5.326   4.475   1.405
 4390TIP3    H113055   5.414   4.497   1.368
 4390TIP3    H213056   5.303   4.399   1.346
 4391TIP3   OH213057   6.044   4.591   1.497
 4391TIP3    H113058   6.035   4.494   1.483
 4391TIP3    H213059   5.999   4.625   1.417
 4392TIP3   OH213060   5.257   3.126   3.287
 4392TIP3    H113061   5.225   3.054   3.344
 4392TIP3    H213062   5.352   3.127   3.311
 4393TIP3   OH213063   5.506   3.123   3.405
 4393TIP3    H113064   5.591   3.098   3.364
 4393TIP3    H213065   5.495   3.052   3.471
 4394TIP3   OH213066   4.629   4.309   1.462
 4394TIP3    H113067   4.632   4.338   1.554
 4394TIP3    H213068   4.718   4.268   1.449
 4395TIP3   OH213069   6.331   3.184   3.193
 4395TIP3    H113070   6.351   3.152   3.283
 4395TIP3    H213071   6.419   3.179   3.150
 4396TIP3   OH213072   6.269   4.737   2.687
 4396TIP3    H113073   6.192   4.706   2.636
 4396TIP3    H213074   6.252   4.833   2.686
 4397TIP3   OH213075   7.537   4.107   1.451
 4397TIP3    H113076   7.510   4.199   1.432
 4397TIP3    H213077   7.459   4.059   1.419
 4398TIP3   OH213078   7.535   4.107   1.831
 4398TIP3    H113079   7.566   4.079   1.919
 4398TIP3    H213080   7.493   4.027   1.798
 4399TIP3   OH213081   6.835   4.004   2.198
 4399TIP3    H113082   6.868   3.937   2.261
 4399TIP3    H213083   6.914   4.060   2.189
 4400TIP3   OH213084   7.778   4.409   1.513
 4400TIP3    H113085   7.766   4.340   1.580
 4400TIP3    H213086   7.807   4.485   1.567
 4401TIP3   OH213087   6.806   4.412   1.924
 4401TIP3    H113088   6.797   4.315   1.926
 4401TIP3    H213089   6.903   4.421   1.917
 4402TIP3   OH213090   6.513   3.618   1.709
 4402TIP3    H113091   6.464   3.701   1.722
 4402TIP3    H213092   6.443   3.562   1.670
 4403TIP3   OH213093   6.573   3.904   1.878
 4403TIP3    H113094   6.622   3.828   1.916
 4403TIP3    H213095   6.632   3.933   1.808
 4404TIP3   OH213096   7.426   4.871   1.528
 4404TIP3    H113097   7.474   4.800   1.481
 4404TIP3    H213098   7.423   4.837   1.618
 4405TIP3   OH213099   7.335   4.333   1.880
 4405TIP3    H113100   7.373   4.257   1.833
 4405TIP3    H213101   7.418   4.378   1.904
 4406TIP3   OH213102   8.345   3.654   1.876
 4406TIP3    H113103   8.374   3.736   1.922
 4406TIP3    H213104   8.372   3.674   1.785
 4407TIP3   OH213105   7.746   3.836   1.914
 4407TIP3    H113106   7.789   3.751   1.934
 4407TIP3    H213107   7.716   3.821   1.822
 4408TIP3   OH213108   7.083   3.495   1.879
 4408TIP3    H113109   7.063   3.567   1.816
 4408TIP3    H213110   7.036   3.421   1.835
 4409TIP3   OH213111   7.778   3.585   1.502
 4409TIP3    H113112   7.851   3.570   1.566
 4409TIP3    H213113   7.829   3.621   1.427
 4410TIP3   OH213114   6.718   3.697   1.986
 4410TIP3    H113115   6.801   3.676   2.032
 4410TIP3    H213116   6.730   3.641   1.906
 4411TIP3   OH213117   7.159   3.895   1.777
 4411TIP3    H113118   7.253   3.869   1.791
 4411TIP3    H213119   7.120   3.811   1.745
 4412TIP3   OH213120   8.417   3.857   2.051
 4412TIP3    H113121   8.336   3.908   2.032
 4412TIP3    H213122   8.441   3.892   2.137
 4413TIP3   OH213123   7.081   3.478   2.312
 4413TIP3    H113124   7.021   3.515   2.245
 4413TIP3    H213125   7.030   3.496   2.393
 4414TIP3   OH213126   7.430   4.329   1.321
 4414TIP3    H113127   7.386   4.307   1.238
 4414TIP3    H213128   7.387   4.414   1.344
 4415TIP3   OH213129   7.187   4.253   2.109
 4415TIP3    H113130   7.124   4.318   2.146
 4415TIP3    H213131   7.230   4.305   2.038
 4416TIP3   OH213132   7.990   3.587   1.672
 4416TIP3    H113133   7.980   3.541   1.756
 4416TIP3    H213134   8.044   3.664   1.698
 4417TIP3   OH213135   6.952   3.593   2.097
 4417TIP3    H113136   7.014   3.666   2.119
 4417TIP3    H213137   7.001   3.552   2.022
 4418TIP3   OH213138   7.014   4.446   2.205
 4418TIP3    H113139   6.989   4.532   2.165
 4418TIP3    H213140   6.936   4.432   2.262
 4419TIP3   OH213141   6.411   4.137   1.442
 4419TIP3    H113142   6.369   4.162   1.358
 4419TIP3    H213143   6.440   4.223   1.477
 4420TIP3   OH213144   7.850   4.651   1.681
 4420TIP3    H113145   7.760   4.644   1.720
 4420TIP3    H213146   7.843   4.738   1.636
 4421TIP3   OH213147   8.140   3.551   2.042
 4421TIP3    H113148   8.054   3.585   2.015
 4421TIP3    H213149   8.200   3.585   1.972
 4422TIP3   OH213150   7.439   3.198   2.025
 4422TIP3    H113151   7.427   3.103   2.043
 4422TIP3    H213152   7.361   3.235   2.072
 4423TIP3   OH213153   7.553   4.699   1.356
 4423TIP3    H113154   7.604   4.618   1.334
 4423TIP3    H213155   7.612   4.766   1.314
 4424TIP3   OH213156   7.695   4.484   1.261
 4424TIP3    H113157   7.655   4.405   1.223
 4424TIP3    H213158   7.730   4.450   1.346
 4425TIP3   OH213159   8.076   4.567   2.025
 4425TIP3    H113160   8.066   4.489   1.966
 4425TIP3    H213161   8.059   4.641   1.963
 4426TIP3   OH213162   7.367   3.959   1.281
 4426TIP3    H113163   7.286   4.010   1.259
 4426TIP3    H213164   7.414   3.958   1.196
 4427TIP3   OH213165   7.326   3.745   0.998
 4427TIP3    H113166   7.394   3.793   1.048
 4427TIP3    H213167   7.382   3.680   0.951
 4428TIP3   OH213168   8.270   4.200   1.868
 4428TIP3    H113169   8.189   4.254   1.874
 4428TIP3    H213170   8.301   4.224   1.778
 4429TIP3   OH213171   7.714   4.042   1.254
 4429TIP3    H113172   7.660   4.067   1.332
 4429TIP3    H213173   7.798   4.015   1.298
 4430TIP3   OH213174   7.950   4.082   2.165
 4430TIP3    H113175   7.948   4.165   2.215
 4430TIP3    H213176   7.864   4.087   2.119
 4431TIP3   OH213177   6.947   4.040   1.670
 4431TIP3    H113178   6.906   3.982   1.603
 4431TIP3    H213179   7.024   3.987   1.698
 4432TIP3   OH213180   7.076   4.451   1.819
 4432TIP3    H113181   7.057   4.407   1.735
 4432TIP3    H213182   7.167   4.419   1.838
 4433TIP3   OH213183   7.083   4.011   2.024
 4433TIP3    H113184   7.117   3.991   1.934
 4433TIP3    H213185   7.127   4.097   2.045
 4434TIP3   OH213186   7.608   4.649   1.801
 4434TIP3    H113187   7.595   4.729   1.855
 4434TIP3    H213188   7.595   4.576   1.865
 4435TIP3   OH213189   7.221   4.568   2.348
 4435TIP3    H113190   7.162   4.631   2.395
 4435TIP3    H213191   7.154   4.515   2.300
 4436TIP3   OH213192   7.557   3.899   1.080
 4436TIP3    H113193   7.615   3.958   1.133
 4436TIP3    H213194   7.582   3.924   0.988
 4437TIP3   OH213195   6.975   4.125   2.449
 4437TIP3    H113196   6.980   4.212   2.494
 4437TIP3    H213197   6.880   4.106   2.456
 4438TIP3   OH213198   7.298   4.580   1.354
 4438TIP3    H113199   7.377   4.634   1.374
 4438TIP3    H213200   7.237   4.645   1.317
 4439TIP3   OH213201   7.016   4.737   2.434
 4439TIP3    H113202   6.981   4.734   2.343
 4439TIP3    H213203   6.936   4.716   2.488
 4440TIP3   OH213204   8.071   3.141   1.128
 4440TIP3    H113205   7.990   3.161   1.179
 4440TIP3    H213206   8.083   3.225   1.079
 4441TIP3   OH213207   6.814   3.883   1.475
 4441TIP3    H113208   6.748   3.928   1.418
 4441TIP3    H213209   6.771   3.797   1.488
 4442TIP3   OH213210   7.865   4.506   0.676
 4442TIP3    H113211   7.873   4.603   0.662
 4442TIP3    H213212   7.958   4.478   0.663
 4443TIP3   OH213213   6.594   4.267   2.382
 4443TIP3    H113214   6.530   4.244   2.312
 4443TIP3    H213215   6.631   4.180   2.407
 4444TIP3   OH213216   6.449   4.458   2.018
 4444TIP3    H113217   6.544   4.453   2.005
 4444TIP3    H213218   6.441   4.539   2.070
 4445TIP3   OH213219   8.313   4.910   2.069
 4445TIP3    H113220   8.313   4.813   2.083
 4445TIP3    H213221   8.230   4.935   2.115
 4446TIP3   OH213222   7.420   4.697   2.205
 4446TIP3    H113223   7.419   4.790   2.237
 4446TIP3    H213224   7.349   4.658   2.260
 4447TIP3   OH213225   7.178   4.826   1.158
 4447TIP3    H113226   7.134   4.808   1.073
 4447TIP3    H213227   7.147   4.916   1.179
 4448TIP3   OH213228   6.617   4.676   1.540
 4448TIP3    H113229   6.665   4.666   1.625
 4448TIP3    H213230   6.558   4.599   1.543
 4449TIP3   OH213231   7.384   4.727   0.802
 4449TIP3    H113232   7.442   4.657   0.766
 4449TIP3    H213233   7.418   4.736   0.893
 4450TIP3   OH213234   7.431   4.775   1.070
 4450TIP3    H113235   7.343   4.784   1.113
 4450TIP3    H213236   7.483   4.735   1.142
 4451TIP3   OH213237   8.203   4.042   2.345
 4451TIP3    H113238   8.124   4.055   2.292
 4451TIP3    H213239   8.218   3.946   2.336
 4452TIP3   OH213240   6.800   4.449   2.372
 4452TIP3    H113241   6.850   4.432   2.454
 4452TIP3    H213242   6.726   4.386   2.380
 4453TIP3   OH213243   7.199   3.273   2.153
 4453TIP3    H113244   7.109   3.242   2.129
 4453TIP3    H213245   7.175   3.356   2.199
 4454TIP3   OH213246   7.732   3.388   2.349
 4454TIP3    H113247   7.800   3.362   2.414
 4454TIP3    H213248   7.648   3.368   2.395
 4455TIP3   OH213249   7.972   3.817   2.266
 4455TIP3    H113250   7.925   3.814   2.352
 4455TIP3    H213251   7.948   3.905   2.232
 4456TIP3   OH213252   7.630   3.947   0.823
 4456TIP3    H113253   7.601   3.921   0.734
 4456TIP3    H213254   7.707   4.003   0.802
 4457TIP3   OH213255   7.345   3.323   1.125
 4457TIP3    H113256   7.313   3.321   1.217
 4457TIP3    H213257   7.306   3.239   1.093
 4458TIP3   OH213258   7.130   3.788   2.173
 4458TIP3    H113259   7.081   3.810   2.254
 4458TIP3    H213260   7.114   3.869   2.119
 4459TIP3   OH213261   7.014   3.674   1.687
 4459TIP3    H113262   6.921   3.648   1.704
 4459TIP3    H213263   7.028   3.634   1.598
 4460TIP3   OH213264   7.505   3.761   1.414
 4460TIP3    H113265   7.451   3.832   1.373
 4460TIP3    H213266   7.559   3.732   1.339
 4461TIP3   OH213267   7.679   4.040   2.501
 4461TIP3    H113268   7.657   3.967   2.563
 4461TIP3    H213269   7.773   4.054   2.523
 4462TIP3   OH213270   7.663   3.789   1.655
 4462TIP3    H113271   7.604   3.820   1.583
 4462TIP3    H213272   7.695   3.707   1.612
 4463TIP3   OH213273   6.949   3.818   2.383
 4463TIP3    H113274   6.979   3.881   2.450
 4463TIP3    H213275   6.938   3.736   2.434
 4464TIP3   OH213276   7.000   3.295   1.092
 4464TIP3    H113277   6.992   3.292   1.189
 4464TIP3    H213278   6.921   3.346   1.068
 4465TIP3   OH213279   6.542   3.341   1.963
 4465TIP3    H113280   6.619   3.372   2.016
 4465TIP3    H213281   6.582   3.307   1.882
 4466TIP3   OH213282   6.517   3.321   1.482
 4466TIP3    H113283   6.562   3.361   1.404
 4466TIP3    H213284   6.456   3.394   1.504
 4467TIP3   OH213285   7.671   4.037   2.077
 4467TIP3    H113286   7.705   3.964   2.019
 4467TIP3    H213287   7.644   3.984   2.155
 4468TIP3   OH213288   7.340   3.497   1.749
 4468TIP3    H113289   7.258   3.495   1.802
 4468TIP3    H213290   7.409   3.497   1.818
 4469TIP3   OH213291   6.776   3.552   1.757
 4469TIP3    H113292   6.681   3.559   1.731
 4469TIP3    H213293   6.800   3.461   1.734
 4470TIP3   OH213294   7.047   3.549   1.445
 4470TIP3    H113295   7.141   3.565   1.424
 4470TIP3    H213296   7.000   3.573   1.362
 4471TIP3   OH213297   7.833   3.573   1.949
 4471TIP3    H113298   7.799   3.584   2.041
 4471TIP3    H213299   7.767   3.511   1.913
 4472TIP3   OH213300   6.886   3.582   1.224
 4472TIP3    H113301   6.813   3.538   1.177
 4472TIP3    H213302   6.937   3.618   1.149
 4473TIP3   OH213303   8.003   5.261   2.169
 4473TIP3    H113304   8.000   5.285   2.075
 4473TIP3    H213305   8.080   5.312   2.200
 4474TIP3   OH213306   6.960   4.371   2.592
 4474TIP3    H113307   7.040   4.402   2.638
 4474TIP3    H213308   6.896   4.372   2.666
 4475TIP3   OH213309   7.425   3.824   1.845
 4475TIP3    H113310   7.498   3.785   1.795
 4475TIP3    H213311   7.436   3.784   1.933
 4476TIP3   OH213312   6.948   3.313   1.724
 4476TIP3    H113313   6.916   3.233   1.769
 4476TIP3    H213314   7.000   3.276   1.651
 4477TIP3   OH213315   7.402   3.720   2.138
 4477TIP3    H113316   7.312   3.757   2.151
 4477TIP3    H213317   7.460   3.780   2.188
 4478TIP3   OH213318   7.139   4.113   1.230
 4478TIP3    H113319   7.066   4.048   1.220
 4478TIP3    H213320   7.121   4.147   1.321
 4479TIP3   OH213321   8.040   4.349   1.861
 4479TIP3    H113322   8.064   4.397   1.779
 4479TIP3    H213323   7.954   4.309   1.836
 4480TIP3   OH213324   7.597   3.426   1.090
 4480TIP3    H113325   7.500   3.410   1.100
 4480TIP3    H213326   7.607   3.520   1.115
 4481TIP3   OH213327   7.536   4.429   2.229
 4481TIP3    H113328   7.561   4.409   2.320
 4481TIP3    H213329   7.500   4.519   2.235
 4482TIP3   OH213330   7.666   3.671   1.195
 4482TIP3    H113331   7.763   3.677   1.212
 4482TIP3    H213332   7.648   3.751   1.142
 4483TIP3   OH213333   6.829   4.133   1.908
 4483TIP3    H113334   6.868   4.107   1.822
 4483TIP3    H213335   6.871   4.070   1.968
 4484TIP3   OH213336   7.283   4.262   1.049
 4484TIP3    H113337   7.236   4.349   1.057
 4484TIP3    H213338   7.229   4.207   1.110
 4485TIP3   OH213339   6.709   4.056   2.521
 4485TIP3    H113340   6.733   4.042   2.614
 4485TIP3    H213341   6.642   3.988   2.506
 4486TIP3   OH213342   7.436   4.168   2.541
 4486TIP3    H113343   7.378   4.110   2.488
 4486TIP3    H213344   7.524   4.136   2.513
 4487TIP3   OH213345   7.699   4.688   2.124
 4487TIP3    H113346   7.602   4.689   2.135
 4487TIP3    H213347   7.726   4.741   2.202
 4488TIP3   OH213348   8.110   3.760   1.032
 4488TIP3    H113349   8.046   3.715   0.971
 4488TIP3    H213350   8.106   3.849   0.991
 4489TIP3   OH213351   8.326   4.620   2.113
 4489TIP3    H113352   8.228   4.614   2.105
 4489TIP3    H213353   8.352   4.590   2.023
 4490TIP3   OH213354   7.808   4.581   0.941
 4490TIP3    H113355   7.785   4.508   1.000
 4490TIP3    H213356   7.822   4.537   0.855
 4491TIP3   OH213357   7.804   4.211   1.780
 4491TIP3    H113358   7.711   4.185   1.793
 4491TIP3    H213359   7.839   4.131   1.735
 4492TIP3   OH213360   6.930   4.437   1.531
 4492TIP3    H113361   6.933   4.519   1.479
 4492TIP3    H213362   6.835   4.424   1.540
 4493TIP3   OH213363   6.494   3.743   1.235
 4493TIP3    H113364   6.541   3.827   1.255
 4493TIP3    H213365   6.417   3.749   1.295
 4494TIP3   OH213366   7.071   4.204   1.477
 4494TIP3    H113367   7.036   4.294   1.494
 4494TIP3    H213368   7.034   4.155   1.552
 4495TIP3   OH213369   7.200   4.781   2.001
 4495TIP3    H113370   7.240   4.855   1.950
 4495TIP3    H213371   7.277   4.749   2.050
 4496TIP3   OH213372   6.852   4.677   1.385
 4496TIP3    H113373   6.765   4.685   1.430
 4496TIP3    H213374   6.883   4.770   1.388
 4497TIP3   OH213375   7.590   4.417   1.959
 4497TIP3    H113376   7.581   4.414   2.057
 4497TIP3    H213377   7.670   4.365   1.946
 4498TIP3   OH213378   7.561   4.304   0.844
 4498TIP3    H113379   7.615   4.282   0.923
 4498TIP3    H213380   7.472   4.283   0.877
 4499TIP3   OH213381   7.838   4.951   2.011
 4499TIP3    H113382   7.759   4.894   2.002
 4499TIP3    H213383   7.823   5.015   1.938
 4500TIP3   OH213384   7.900   4.780   0.680
 4500TIP3    H113385   7.924   4.809   0.590
 4500TIP3    H213386   7.825   4.839   0.704
 4501TIP3   OH213387   6.924   3.561   2.529
 4501TIP3    H113388   6.827   3.565   2.542
 4501TIP3    H213389   6.951   3.500   2.599
 4502TIP3   OH213390   7.722   4.241   1.058
 4502TIP3    H113391   7.714   4.176   1.131
 4502TIP3    H213392   7.820   4.241   1.047
 4503TIP3   OH213393   6.638   4.646   2.162
 4503TIP3    H113394   6.691   4.570   2.191
 4503TIP3    H213395   6.670   4.715   2.221
 4504TIP3   OH213396   6.930   4.288   0.841
 4504TIP3    H113397   6.944   4.196   0.813
 4504TIP3    H213398   6.911   4.277   0.936
 4505TIP3   OH213399   6.876   4.294   1.113
 4505TIP3    H113400   6.946   4.267   1.175
 4505TIP3    H213401   6.879   4.392   1.120
 4506TIP3   OH213402   6.611   3.988   1.317
 4506TIP3    H113403   6.545   4.033   1.374
 4506TIP3    H213404   6.626   4.058   1.250
 4507TIP3   OH213405   7.759   3.625   2.208
 4507TIP3    H113406   7.838   3.664   2.247
 4507TIP3    H213407   7.745   3.544   2.263
 4508TIP3   OH213408   7.640   3.377   1.372
 4508TIP3    H113409   7.625   3.402   1.279
 4508TIP3    H213410   7.679   3.459   1.409
 4509TIP3   OH213411   7.140   4.492   1.061
 4509TIP3    H113412   7.054   4.520   1.098
 4509TIP3    H213413   7.159   4.567   1.003
 4510TIP3   OH213414   7.330   3.555   1.476
 4510TIP3    H113415   7.395   3.626   1.458
 4510TIP3    H213416   7.334   3.548   1.574
 4511TIP3   OH213417   7.598   3.874   2.285
 4511TIP3    H113418   7.618   3.929   2.364
 4511TIP3    H213419   7.654   3.797   2.299
 4512TIP3   OH213420   7.475   3.284   1.580
 4512TIP3    H113421   7.468   3.360   1.640
 4512TIP3    H213422   7.535   3.321   1.511
 4513TIP3   OH213423   6.882   4.567   1.130
 4513TIP3    H113424   6.854   4.636   1.067
 4513TIP3    H213425   6.867   4.611   1.216
 4514TIP3   OH213426   6.985   3.280   1.368
 4514TIP3    H113427   6.982   3.370   1.404
 4514TIP3    H213428   7.081   3.262   1.377
 4515TIP3   OH213429   8.239   3.774   2.268
 4515TIP3    H113430   8.141   3.771   2.271
 4515TIP3    H213431   8.254   3.742   2.178
 4516TIP3   OH213432   7.890   3.969   1.653
 4516TIP3    H113433   7.814   3.909   1.666
 4516TIP3    H213434   7.962   3.923   1.701
 4517TIP3   OH213435   6.601   4.199   1.124
 4517TIP3    H113436   6.665   4.272   1.132
 4517TIP3    H213437   6.648   4.145   1.056
 4518TIP3   OH213438   6.548   3.473   1.255
 4518TIP3    H113439   6.546   3.571   1.251
 4518TIP3    H213440   6.463   3.450   1.215
 4519TIP3   OH213441   7.858   4.923   1.603
 4519TIP3    H113442   7.815   4.970   1.527
 4519TIP3    H213443   7.952   4.942   1.582
 4520TIP3   OH213444   6.934   3.193   2.131
 4520TIP3    H113445   6.902   3.160   2.044
 4520TIP3    H213446   6.924   3.114   2.188
 4521TIP3   OH213447   6.475   4.413   1.512
 4521TIP3    H113448   6.400   4.444   1.566
 4521TIP3    H213449   6.451   4.452   1.425
 4522TIP3   OH213450   6.629   4.952   2.584
 4522TIP3    H113451   6.716   4.952   2.630
 4522TIP3    H213452   6.611   4.857   2.580
 4523TIP3   OH213453   7.111   4.919   2.627
 4523TIP3    H113454   7.206   4.902   2.635
 4523TIP3    H213455   7.088   4.861   2.552
 4524TIP3   OH213456   7.091   4.493   0.755
 4524TIP3    H113457   7.036   4.423   0.796
 4524TIP3    H213458   7.169   4.441   0.728
 4525TIP3   OH213459   7.751   4.824   2.359
 4525TIP3    H113460   7.742   4.754   2.427
 4525TIP3    H213461   7.828   4.874   2.390
 4526TIP3   OH213462   7.527   4.534   0.671
 4526TIP3    H113463   7.577   4.473   0.728
 4526TIP3    H213464   7.582   4.536   0.590
 4527TIP3   OH213465   6.760   4.359   2.783
 4527TIP3    H113466   6.778   4.263   2.785
 4527TIP3    H213467   6.672   4.361   2.738
 4528TIP3   OH213468   6.738   4.011   0.974
 4528TIP3    H113469   6.792   3.977   1.048
 4528TIP3    H213470   6.806   4.016   0.904
 4529TIP3   OH213471   7.368   4.443   2.556
 4529TIP3    H113472   7.327   4.459   2.468
 4529TIP3    H213473   7.400   4.351   2.548
 4530TIP3   OH213474   7.244   4.209   0.779
 4530TIP3    H113475   7.248   4.223   0.876
 4530TIP3    H213476   7.244   4.111   0.776
 4531TIP3   OH213477   7.861   4.451   2.161
 4531TIP3    H113478   7.935   4.497   2.117
 4531TIP3    H213479   7.790   4.517   2.149
 4532TIP3   OH213480   6.878   4.091   2.764
 4532TIP3    H113481   6.954   4.037   2.742
 4532TIP3    H213482   6.903   4.125   2.852
 4533TIP3   OH213483   6.946   3.913   1.198
 4533TIP3    H113484   6.919   3.872   1.281
 4533TIP3    H213485   6.981   3.837   1.147
 4534TIP3   OH213486   7.213   3.977   2.424
 4534TIP3    H113487   7.137   4.039   2.429
 4534TIP3    H213488   7.262   4.011   2.346
 4535TIP3   OH213489   7.046   3.706   1.039
 4535TIP3    H113490   7.019   3.708   0.945
 4535TIP3    H213491   7.143   3.714   1.030
 4536TIP3   OH213492   7.730   4.379   2.559
 4536TIP3    H113493   7.812   4.359   2.513
 4536TIP3    H213494   7.730   4.313   2.630
 4537TIP3   OH213495   7.874   4.038   0.694
 4537TIP3    H113496   7.841   3.988   0.617
 4537TIP3    H213497   7.839   4.128   0.673
 4538TIP3   OH213498   7.336   3.765   2.554
 4538TIP3    H113499   7.338   3.686   2.497
 4538TIP3    H213500   7.294   3.831   2.494
 4539TIP3   OH213501   7.340   3.552   2.359
 4539TIP3    H113502   7.368   3.593   2.275
 4539TIP3    H213503   7.247   3.529   2.340
 4540TIP3   OH213504   7.368   4.088   2.232
 4540TIP3    H113505   7.451   4.096   2.183
 4540TIP3    H213506   7.313   4.156   2.188
 4541TIP3   OH213507   7.951   4.056   2.614
 4541TIP3    H113508   7.999   3.973   2.624
 4541TIP3    H213509   8.019   4.115   2.580
 4542TIP3   OH213510   7.991   4.308   2.349
 4542TIP3    H113511   7.933   4.361   2.289
 4542TIP3    H213512   8.079   4.328   2.308
 4543TIP3   OH213513   7.214   3.880   2.781
 4543TIP3    H113514   7.145   3.811   2.795
 4543TIP3    H213515   7.250   3.854   2.695
 4544TIP3   OH213516   7.472   3.317   2.425
 4544TIP3    H113517   7.424   3.399   2.403
 4544TIP3    H213518   7.402   3.250   2.413
 4545TIP3   OH213519   7.599   3.822   2.642
 4545TIP3    H113520   7.589   3.811   2.738
 4545TIP3    H213521   7.508   3.796   2.613
 4546TIP3   OH213522   7.838   3.770   2.496
 4546TIP3    H113523   7.762   3.771   2.558
 4546TIP3    H213524   7.911   3.739   2.554
 4547TIP3   OH213525   8.066   3.710   2.649
 4547TIP3    H113526   8.079   3.615   2.668
 4547TIP3    H213527   8.062   3.750   2.738
 4548TIP3   OH213528   7.054   3.659   2.835
 4548TIP3    H113529   7.062   3.569   2.799
 4548TIP3    H213530   7.090   3.646   2.925
 4549TIP3   OH213531   7.567   3.326   2.683
 4549TIP3    H113532   7.635   3.256   2.677
 4549TIP3    H213533   7.527   3.320   2.593
 4550TIP3   OH213534   7.632   3.540   2.843
 4550TIP3    H113535   7.610   3.470   2.778
 4550TIP3    H213536   7.555   3.600   2.835
 4551TIP3   OH213537   6.853   4.768   0.943
 4551TIP3    H113538   6.949   4.767   0.923
 4551TIP3    H213539   6.822   4.818   0.865
 4552TIP3   OH213540   6.333   4.151   1.160
 4552TIP3    H113541   6.428   4.173   1.146
 4552TIP3    H213542   6.328   4.062   1.117
 4553TIP3   OH213543   6.246   4.764   1.572
 4553TIP3    H113544   6.179   4.702   1.537
 4553TIP3    H213545   6.291   4.707   1.638
 4554TIP3   OH213546   6.383   4.617   1.758
 4554TIP3    H113547   6.372   4.542   1.819
 4554TIP3    H213548   6.434   4.678   1.815
 4555TIP3   OH213549   8.110   5.016   1.558
 4555TIP3    H113550   8.136   5.049   1.646
 4555TIP3    H213551   8.171   5.063   1.499
 4556TIP3   OH213552   8.141   5.036   1.840
 4556TIP3    H113553   8.097   4.948   1.836
 4556TIP3    H213554   8.215   5.014   1.899
 4557TIP3   OH213555   8.186   4.713   2.413
 4557TIP3    H113556   8.113   4.720   2.478
 4557TIP3    H213557   8.227   4.801   2.418
 4558TIP3   OH213558   8.003   4.225   1.033
 4558TIP3    H113559   8.071   4.290   1.007
 4558TIP3    H213560   8.045   4.186   1.113
 4559TIP3   OH213561   8.130   4.093   1.237
 4559TIP3    H113562   8.065   4.051   1.297
 4559TIP3    H213563   8.195   4.131   1.299
 4560TIP3   OH213564   8.182   4.483   1.669
 4560TIP3    H113565   8.238   4.421   1.619
 4560TIP3    H213566   8.175   4.558   1.606
 4561TIP3   OH213567   8.016   4.785   1.865
 4561TIP3    H113568   7.945   4.827   1.917
 4561TIP3    H213569   7.966   4.737   1.796
 4562TIP3   OH213570   8.070   4.001   0.884
 4562TIP3    H113571   7.998   4.005   0.817
 4562TIP3    H213572   8.044   4.077   0.940
 4563TIP3   OH213573   7.939   3.674   0.839
 4563TIP3    H113574   7.898   3.713   0.761
 4563TIP3    H213575   7.913   3.580   0.830
 4564TIP3   OH213576   7.944   3.949   1.384
 4564TIP3    H113577   7.953   3.852   1.381
 4564TIP3    H213578   7.931   3.965   1.480
 4565TIP3   OH213579   6.571   4.023   2.131
 4565TIP3    H113580   6.570   3.993   2.037
 4565TIP3    H213581   6.668   4.025   2.147
 4566TIP3   OH213582   8.233   4.374   2.240
 4566TIP3    H113583   8.306   4.308   2.232
 4566TIP3    H213584   8.261   4.443   2.179
 4567TIP3   OH213585   8.419   4.182   2.263
 4567TIP3    H113586   8.344   4.130   2.300
 4567TIP3    H213587   8.491   4.117   2.273
 4568TIP3   OH213588   7.882   3.409   0.828
 4568TIP3    H113589   7.958   3.377   0.881
 4568TIP3    H213590   7.809   3.349   0.852
 4569TIP3   OH213591   7.939   3.664   1.280
 4569TIP3    H113592   7.981   3.576   1.295
 4569TIP3    H213593   7.998   3.699   1.210
 4570TIP3   OH213594   8.102   3.841   1.773
 4570TIP3    H113595   8.188   3.867   1.733
 4570TIP3    H213596   8.116   3.877   1.863
 4571TIP3   OH213597   8.170   3.983   2.007
 4571TIP3    H113598   8.092   4.019   2.055
 4571TIP3    H213599   8.203   4.063   1.961
 4572TIP3   OH213600   6.787   3.710   2.805
 4572TIP3    H113601   6.885   3.704   2.806
 4572TIP3    H213602   6.764   3.625   2.847
 4573TIP3   OH213603   8.625   3.575   2.564
 4573TIP3    H113604   8.680   3.507   2.520
 4573TIP3    H213605   8.595   3.630   2.489
 4574TIP3   OH213606   8.050   3.415   1.316
 4574TIP3    H113607   8.098   3.399   1.401
 4574TIP3    H213608   7.989   3.338   1.315
 4575TIP3   OH213609   6.750   3.402   2.137
 4575TIP3    H113610   6.812   3.327   2.147
 4575TIP3    H213611   6.811   3.477   2.131
 4576TIP3   OH213612   6.553   3.676   2.210
 4576TIP3    H113613   6.602   3.668   2.126
 4576TIP3    H213614   6.583   3.763   2.240
 4577TIP3   OH213615   8.494   3.714   2.373
 4577TIP3    H113616   8.405   3.753   2.389
 4577TIP3    H213617   8.469   3.644   2.310
 4578TIP3   OH213618   8.131   3.351   0.950
 4578TIP3    H113619   8.170   3.279   0.896
 4578TIP3    H213620   8.197   3.422   0.942
 4579TIP3   OH213621   6.535   3.181   1.711
 4579TIP3    H113622   6.441   3.177   1.736
 4579TIP3    H213623   6.534   3.238   1.632
 4580TIP3   OH213624   7.693   4.881   1.217
 4580TIP3    H113625   7.746   4.866   1.136
 4580TIP3    H213626   7.747   4.949   1.262
 4581TIP3   OH213627   6.756   3.260   2.526
 4581TIP3    H113628   6.705   3.254   2.608
 4581TIP3    H213629   6.688   3.297   2.465
 4582TIP3   OH213630   6.795   4.685   2.601
 4582TIP3    H113631   6.704   4.657   2.585
 4582TIP3    H213632   6.805   4.669   2.696
 4583TIP3   OH213633   6.973   4.717   2.149
 4583TIP3    H113634   6.925   4.793   2.111
 4583TIP3    H213635   7.059   4.731   2.105
 4584TIP3   OH213636   7.419   4.963   2.287
 4584TIP3    H113637   7.461   4.964   2.376
 4584TIP3    H213638   7.486   5.014   2.235
 4585TIP3   OH213639   7.599   5.113   2.145
 4585TIP3    H113640   7.671   5.063   2.105
 4585TIP3    H213641   7.649   5.172   2.206
 4586TIP3   OH213642   8.392   3.477   2.246
 4586TIP3    H113643   8.301   3.473   2.213
 4586TIP3    H213644   8.423   3.385   2.233
 4587TIP3   OH213645   6.650   4.975   2.173
 4587TIP3    H113646   6.562   5.009   2.149
 4587TIP3    H213647   6.661   5.013   2.261
 4588TIP3   OH213648   6.886   4.953   2.030
 4588TIP3    H113649   6.800   4.967   2.075
 4588TIP3    H213650   6.867   4.987   1.940
 4589TIP3   OH213651   7.312   4.983   1.828
 4589TIP3    H113652   7.244   5.005   1.762
 4589TIP3    H213653   7.326   5.070   1.871
 4590TIP3   OH213654   7.581   4.923   1.878
 4590TIP3    H113655   7.486   4.939   1.860
 4590TIP3    H213656   7.623   5.000   1.838
 4591TIP3   OH213657   7.790   5.115   1.796
 4591TIP3    H113658   7.775   5.200   1.748
 4591TIP3    H213659   7.814   5.055   1.722
 4592TIP3   OH213660   6.561   4.769   1.918
 4592TIP3    H113661   6.588   4.744   2.009
 4592TIP3    H213662   6.634   4.726   1.867
 4593TIP3   OH213663   6.755   4.641   1.774
 4593TIP3    H113664   6.771   4.557   1.822
 4593TIP3    H213665   6.845   4.678   1.770
 4594TIP3   OH213666   7.020   4.736   1.777
 4594TIP3    H113667   7.053   4.645   1.764
 4594TIP3    H213668   7.064   4.758   1.861
 4595TIP3   OH213669   7.596   3.392   1.863
 4595TIP3    H113670   7.554   3.323   1.917
 4595TIP3    H213671   7.669   3.343   1.820
 4596TIP3   OH213672   8.122   3.269   1.769
 4596TIP3    H113673   8.158   3.324   1.696
 4596TIP3    H213674   8.027   3.291   1.765
 4597TIP3   OH213675   8.216   3.373   1.534
 4597TIP3    H113676   8.290   3.322   1.494
 4597TIP3    H213677   8.249   3.465   1.519
 4598TIP3   OH213678   6.846   3.101   1.882
 4598TIP3    H113679   6.754   3.067   1.882
 4598TIP3    H213680   6.896   3.016   1.879
 4599TIP3   OH213681   6.632   2.970   1.528
 4599TIP3    H113682   6.662   3.028   1.456
 4599TIP3    H213683   6.603   3.034   1.595
 4600TIP3   OH213684   7.288   3.134   1.761
 4600TIP3    H113685   7.348   3.185   1.703
 4600TIP3    H213686   7.310   3.170   1.848
 4601TIP3   OH213687   7.838   3.280   1.747
 4601TIP3    H113688   7.833   3.244   1.657
 4601TIP3    H213689   7.824   3.198   1.801
 4602TIP3   OH213690   7.867   3.201   1.308
 4602TIP3    H113691   7.780   3.245   1.319
 4602TIP3    H213692   7.851   3.117   1.355
 4603TIP3   OH213693   6.350   4.540   1.310
 4603TIP3    H113694   6.264   4.508   1.275
 4603TIP3    H213695   6.339   4.635   1.290
 4604TIP3   OH213696   6.749   3.131   1.293
 4604TIP3    H113697   6.798   3.068   1.237
 4604TIP3    H213698   6.821   3.185   1.330
 4605TIP3   OH213699   7.262   3.304   1.391
 4605TIP3    H113700   7.322   3.258   1.452
 4605TIP3    H213701   7.283   3.397   1.416
 4606TIP3   OH213702   7.122   4.731   0.892
 4606TIP3    H113703   7.210   4.754   0.855
 4606TIP3    H213704   7.100   4.656   0.832
 4607TIP3   OH213705   7.841   4.847   0.987
 4607TIP3    H113706   7.835   4.749   0.973
 4607TIP3    H213707   7.795   4.878   0.907
 4608TIP3   OH213708   7.053   3.382   2.773
 4608TIP3    H113709   7.021   3.311   2.831
 4608TIP3    H213710   7.148   3.383   2.798
 4609TIP3   OH213711   7.302   3.379   2.891
 4609TIP3    H113712   7.387   3.355   2.851
 4609TIP3    H213713   7.291   3.308   2.958
 4610TIP3   OH213714   6.425   4.566   0.949
 4610TIP3    H113715   6.424   4.596   1.041
 4610TIP3    H213716   6.515   4.526   0.940
 4611TIP3   OH213717   8.127   3.439   2.679
 4611TIP3    H113718   8.147   3.409   2.771
 4611TIP3    H213719   8.215   3.435   2.637
 4612TIP3   OH213720   8.068   4.993   2.171
 4612TIP3    H113721   7.988   4.960   2.124
 4612TIP3    H213722   8.048   5.088   2.174
 4613TIP3   OH213723   8.630   4.259   1.686
 4613TIP3    H113724   8.659   4.191   1.750
 4613TIP3    H213725   8.711   4.311   1.678
 4614TIP3   OH213726   8.594   4.669   1.414
 4614TIP3    H113727   8.589   4.571   1.416
 4614TIP3    H213728   8.691   4.681   1.405
 4615TIP3   OH213729   8.308   3.874   1.193
 4615TIP3    H113730   8.261   3.957   1.210
 4615TIP3    H213731   8.237   3.819   1.157
 4616TIP3   OH213732   8.368   4.160   1.364
 4616TIP3    H113733   8.417   4.085   1.404
 4616TIP3    H213734   8.431   4.190   1.297
 4617TIP3   OH213735   9.121   5.072   1.025
 4617TIP3    H113736   9.200   5.086   0.969
 4617TIP3    H213737   9.161   5.069   1.113
 4618TIP3   OH213738   9.082   4.608   1.364
 4618TIP3    H113739   9.090   4.539   1.296
 4618TIP3    H213740   9.176   4.613   1.390
 4619TIP3   OH213741   8.861   3.749   1.373
 4619TIP3    H113742   8.868   3.820   1.307
 4619TIP3    H213743   8.824   3.676   1.320
 4620TIP3   OH213744   8.513   3.955   1.470
 4620TIP3    H113745   8.593   3.934   1.521
 4620TIP3    H213746   8.528   3.899   1.391
 4621TIP3   OH213747   8.918   4.169   1.247
 4621TIP3    H113748   9.011   4.145   1.269
 4621TIP3    H213749   8.883   4.080   1.225
 4622TIP3   OH213750   8.875   3.737   1.802
 4622TIP3    H113751   8.816   3.773   1.733
 4622TIP3    H213752   8.824   3.760   1.883
 4623TIP3   OH213753   8.965   4.514   1.591
 4623TIP3    H113754   8.905   4.579   1.634
 4623TIP3    H213755   9.007   4.570   1.522
 4624TIP3   OH213756   8.732   3.841   1.589
 4624TIP3    H113757   8.790   3.918   1.611
 4624TIP3    H213758   8.786   3.802   1.515
 4625TIP3   OH213759   8.806   4.709   1.694
 4625TIP3    H113760   8.780   4.796   1.658
 4625TIP3    H213761   8.729   4.691   1.752
 4626TIP3   OH213762   8.208   4.393   0.932
 4626TIP3    H113763   8.163   4.416   0.849
 4626TIP3    H213764   8.236   4.481   0.965
 4627TIP3   OH213765   8.721   4.315   1.139
 4627TIP3    H113766   8.684   4.252   1.074
 4627TIP3    H213767   8.795   4.262   1.176
 4628TIP3   OH213768   8.846   4.725   1.294
 4628TIP3    H113769   8.829   4.675   1.213
 4628TIP3    H213770   8.933   4.689   1.324
 4629TIP3   OH213771   8.876   4.273   1.509
 4629TIP3    H113772   8.905   4.256   1.418
 4629TIP3    H213773   8.914   4.361   1.530
 4630TIP3   OH213774   9.015   4.829   1.835
 4630TIP3    H113775   8.954   4.889   1.883
 4630TIP3    H213776   8.950   4.773   1.787
 4631TIP3   OH213777   8.763   4.397   1.929
 4631TIP3    H113778   8.764   4.479   1.982
 4631TIP3    H213779   8.671   4.367   1.941
 4632TIP3   OH213780   9.080   4.861   0.852
 4632TIP3    H113781   9.107   4.918   0.926
 4632TIP3    H213782   9.000   4.908   0.824
 4633TIP3   OH213783   8.810   4.996   1.922
 4633TIP3    H113784   8.775   4.991   1.831
 4633TIP3    H213785   8.731   4.973   1.977
 4634TIP3   OH213786   8.612   4.133   0.953
 4634TIP3    H113787   8.542   4.180   0.903
 4634TIP3    H213788   8.566   4.054   0.982
 4635TIP3   OH213789   8.390   4.525   1.868
 4635TIP3    H113790   8.326   4.499   1.799
 4635TIP3    H213791   8.427   4.438   1.896
 4636TIP3   OH213792   8.245   4.715   1.502
 4636TIP3    H113793   8.341   4.709   1.493
 4636TIP3    H213794   8.235   4.795   1.556
 4637TIP3   OH213795   9.199   4.963   1.685
 4637TIP3    H113796   9.204   5.051   1.727
 4637TIP3    H213797   9.133   4.918   1.743
 4638TIP3   OH213798   8.415   4.933   1.025
 4638TIP3    H113799   8.461   4.922   1.112
 4638TIP3    H213800   8.356   4.856   1.027
 4639TIP3   OH213801   8.593   4.709   1.862
 4639TIP3    H113802   8.644   4.690   1.943
 4639TIP3    H213803   8.521   4.643   1.867
 4640TIP3   OH213804   8.985   3.521   1.653
 4640TIP3    H113805   8.892   3.505   1.628
 4640TIP3    H213806   8.979   3.611   1.689
 4641TIP3   OH213807   8.893   4.040   1.648
 4641TIP3    H113808   8.908   4.068   1.739
 4641TIP3    H213809   8.904   4.123   1.598
 4642TIP3   OH213810   8.808   3.928   1.170
 4642TIP3    H113811   8.719   3.899   1.198
 4642TIP3    H213812   8.811   3.893   1.078
 4643TIP3   OH213813   8.728   4.082   1.887
 4643TIP3    H113814   8.796   4.129   1.937
 4643TIP3    H213815   8.731   3.993   1.926
 4644TIP3   OH213816   8.773   3.562   0.578
 4644TIP3    H113817   8.752   3.547   0.671
 4644TIP3    H213818   8.695   3.610   0.547
 4645TIP3   OH213819   8.338   3.597   1.447
 4645TIP3    H113820   8.410   3.629   1.505
 4645TIP3    H213821   8.385   3.565   1.369
 4646TIP3   OH213822   8.314   3.579   0.968
 4646TIP3    H113823   8.357   3.621   0.890
 4646TIP3    H213824   8.252   3.650   0.993
 4647TIP3   OH213825   8.571   3.811   1.240
 4647TIP3    H113826   8.475   3.816   1.217
 4647TIP3    H213827   8.594   3.718   1.224
 4648TIP3   OH213828   8.826   3.830   0.911
 4648TIP3    H113829   8.896   3.864   0.856
 4648TIP3    H213830   8.750   3.838   0.848
 4649TIP3   OH213831   8.661   3.842   0.701
 4649TIP3    H113832   8.592   3.797   0.649
 4649TIP3    H213833   8.725   3.865   0.631
 4650TIP3   OH213834   8.755   4.632   2.080
 4650TIP3    H113835   8.835   4.660   2.129
 4650TIP3    H213836   8.690   4.629   2.153
 4651TIP3   OH213837   8.736   3.570   1.201
 4651TIP3    H113838   8.704   3.495   1.255
 4651TIP3    H213839   8.800   3.528   1.143
 4652TIP3   OH213840   8.893   4.393   0.711
 4652TIP3    H113841   8.844   4.309   0.714
 4652TIP3    H213842   8.913   4.411   0.805
 4653TIP3   OH213843   9.290   4.691   1.725
 4653TIP3    H113844   9.320   4.661   1.813
 4653TIP3    H213845   9.265   4.784   1.742
 4654TIP3   OH213846   8.624   4.392   1.396
 4654TIP3    H113847   8.658   4.365   1.308
 4654TIP3    H213848   8.667   4.329   1.455
 4655TIP3   OH213849   8.502   4.318   2.010
 4655TIP3    H113850   8.530   4.300   2.101
 4655TIP3    H213851   8.443   4.243   1.992
 4656TIP3   OH213852   9.202   4.377   2.048
 4656TIP3    H113853   9.116   4.348   2.012
 4656TIP3    H213854   9.255   4.300   2.023
 4657TIP3   OH213855   8.727   4.691   1.015
 4657TIP3    H113856   8.725   4.775   0.965
 4657TIP3    H213857   8.632   4.673   1.023
 4658TIP3   OH213858   8.289   4.001   0.719
 4658TIP3    H113859   8.336   4.083   0.742
 4658TIP3    H213860   8.213   4.006   0.782
 4659TIP3   OH213861   8.896   4.474   0.985
 4659TIP3    H113862   8.843   4.557   0.984
 4659TIP3    H213863   8.839   4.417   1.040
 4660TIP3   OH213864   8.996   5.036   1.488
 4660TIP3    H113865   9.035   5.109   1.437
 4660TIP3    H213866   9.072   5.005   1.540
 4661TIP3   OH213867   8.652   4.932   0.875
 4661TIP3    H113868   8.565   4.940   0.920
 4661TIP3    H213869   8.682   5.025   0.877
 4662TIP3   OH213870   8.719   3.817   2.021
 4662TIP3    H113871   8.623   3.822   2.032
 4662TIP3    H213872   8.745   3.751   2.088
 4663TIP3   OH213873   8.436   4.903   1.647
 4663TIP3    H113874   8.485   4.825   1.678
 4663TIP3    H213875   8.463   4.969   1.712
 4664TIP3   OH213876   8.637   4.546   0.666
 4664TIP3    H113877   8.727   4.511   0.673
 4664TIP3    H213878   8.653   4.640   0.646
 4665TIP3   OH213879   8.405   4.242   0.813
 4665TIP3    H113880   8.338   4.289   0.868
 4665TIP3    H213881   8.422   4.309   0.745
 4666TIP3   OH213882   8.615   4.817   0.623
 4666TIP3    H113883   8.671   4.880   0.573
 4666TIP3    H213884   8.625   4.854   0.714
 4667TIP3   OH213885   8.785   3.544   0.860
 4667TIP3    H113886   8.752   3.623   0.907
 4667TIP3    H213887   8.867   3.581   0.822
 4668TIP3   OH213888   8.379   4.476   0.618
 4668TIP3    H113889   8.455   4.528   0.652
 4668TIP3    H213890   8.430   4.404   0.574
 4669TIP3   OH213891   8.349   3.733   0.744
 4669TIP3    H113892   8.340   3.830   0.741
 4669TIP3    H213893   8.268   3.703   0.701
 4670TIP3   OH213894   8.717   3.450   1.618
 4670TIP3    H113895   8.693   3.416   1.530
 4670TIP3    H213896   8.715   3.370   1.674
 4671TIP3   OH213897   8.273   4.669   1.001
 4671TIP3    H113898   8.199   4.700   1.055
 4671TIP3    H213899   8.248   4.708   0.914
 4672TIP3   OH213900   8.425   5.208   2.068
 4672TIP3    H113901   8.511   5.207   2.115
 4672TIP3    H213902   8.403   5.114   2.067
 4673TIP3   OH213903   8.910   5.181   2.107
 4673TIP3    H113904   9.001   5.153   2.124
 4673TIP3    H213905   8.884   5.118   2.036
 4674TIP3   OH213906   8.556   4.615   2.270
 4674TIP3    H113907   8.573   4.519   2.273
 4674TIP3    H213908   8.468   4.617   2.226
 4675TIP3   OH213909   8.506   4.256   0.534
 4675TIP3    H113910   8.571   4.240   0.604
 4675TIP3    H213911   8.564   4.236   0.458
 4676TIP3   OH213912   9.150   4.694   2.043
 4676TIP3    H113913   9.118   4.716   1.954
 4676TIP3    H213914   9.177   4.601   2.035
 4677TIP3   OH213915   8.676   4.349   2.249
 4677TIP3    H113916   8.752   4.293   2.227
 4677TIP3    H213917   8.701   4.381   2.338
 4678TIP3   OH213918   8.740   4.162   0.690
 4678TIP3    H113919   8.713   4.124   0.775
 4678TIP3    H213920   8.769   4.084   0.640
 4679TIP3   OH213921   8.978   4.235   1.930
 4679TIP3    H113922   8.904   4.300   1.926
 4679TIP3    H213923   9.034   4.267   1.855
 4680TIP3   OH213924   8.847   3.947   0.529
 4680TIP3    H113925   8.814   3.951   0.438
 4680TIP3    H213926   8.938   3.981   0.519
 4681TIP3   OH213927   9.095   4.012   2.056
 4681TIP3    H113928   9.151   3.938   2.024
 4681TIP3    H213929   9.080   4.063   1.975
 4682TIP3   OH213930   9.144   3.796   1.835
 4682TIP3    H113931   9.160   3.877   1.782
 4682TIP3    H213932   9.050   3.779   1.820
 4683TIP3   OH213933   9.128   4.358   1.747
 4683TIP3    H113934   9.154   4.281   1.693
 4683TIP3    H213935   9.080   4.416   1.685
 4684TIP3   OH213936   8.990   4.148   2.264
 4684TIP3    H113937   8.927   4.076   2.283
 4684TIP3    H213938   9.025   4.118   2.178
 4685TIP3   OH213939   8.846   3.921   2.324
 4685TIP3    H113940   8.867   3.841   2.273
 4685TIP3    H213941   8.881   3.898   2.413
 4686TIP3   OH213942   8.122   4.399   0.662
 4686TIP3    H113943   8.212   4.436   0.647
 4686TIP3    H213944   8.124   4.318   0.608
 4687TIP3   OH213945   8.043   5.022   1.059
 4687TIP3    H113946   7.976   4.959   1.023
 4687TIP3    H213947   8.088   4.965   1.125
 4688TIP3   OH213948   8.180   4.875   1.245
 4688TIP3    H113949   8.167   4.799   1.305
 4688TIP3    H213950   8.230   4.935   1.303
 4689TIP3   OH213951   8.367   4.282   1.617
 4689TIP3    H113952   8.367   4.250   1.524
 4689TIP3    H213953   8.464   4.282   1.635
 4690TIP3   OH213954   8.579   3.965   2.290
 4690TIP3    H113955   8.677   3.960   2.290
 4690TIP3    H213956   8.558   3.880   2.334
 4691TIP3   OH213957   8.536   3.656   1.627
 4691TIP3    H113958   8.600   3.582   1.636
 4691TIP3    H213959   8.599   3.731   1.620
 4692TIP3   OH213960   8.348   3.933   1.695
 4692TIP3    H113961   8.398   3.926   1.612
 4692TIP3    H213962   8.382   4.016   1.731
 4693TIP3   OH213963   8.331   3.430   1.194
 4693TIP3    H113964   8.239   3.433   1.224
 4693TIP3    H213965   8.330   3.492   1.117
 4694TIP3   OH213966   8.546   3.512   2.009
 4694TIP3    H113967   8.500   3.512   2.094
 4694TIP3    H213968   8.480   3.555   1.951
 4695TIP3   OH213969   8.592   4.944   2.090
 4695TIP3    H113970   8.501   4.915   2.071
 4695TIP3    H213971   8.601   4.923   2.183
 4696TIP3   OH213972   8.768   4.976   1.637
 4696TIP3    H113973   8.720   5.052   1.598
 4696TIP3    H213974   8.854   4.988   1.591
 4697TIP3   OH213975   9.228   5.230   1.769
 4697TIP3    H113976   9.250   5.220   1.865
 4697TIP3    H213977   9.311   5.265   1.736
 4698TIP3   OH213978   8.448   5.234   1.658
 4698TIP3    H113979   8.359   5.267   1.634
 4698TIP3    H213980   8.454   5.264   1.749
 4699TIP3   OH213981   8.685   5.213   1.517
 4699TIP3    H113982   8.598   5.225   1.563
 4699TIP3    H213983   8.663   5.244   1.427
 4700TIP3   OH213984   9.095   5.241   1.312
 4700TIP3    H113985   9.024   5.257   1.246
 4700TIP3    H213986   9.104   5.329   1.352
 4701TIP3   OH213987   9.358   5.204   1.355
 4701TIP3    H113988   9.262   5.193   1.346
 4701TIP3    H213989   9.373   5.284   1.304
 4702TIP3   OH213990   8.359   5.027   1.405
 4702TIP3    H113991   8.385   5.000   1.496
 4702TIP3    H213992   8.430   4.982   1.354
 4703TIP3   OH213993   8.550   4.897   1.260
 4703TIP3    H113994   8.566   4.813   1.309
 4703TIP3    H213995   8.641   4.934   1.257
 4704TIP3   OH213996   8.815   4.998   1.262
 4704TIP3    H113997   8.838   4.904   1.252
 4704TIP3    H213998   8.858   5.017   1.347
 4705TIP3   OH213999   8.637   3.363   1.360
 4705TIP3    H114000   8.544   3.334   1.364
 4705TIP3    H214001   8.682   3.276   1.367
 4706TIP3   OH214002   8.431   3.226   1.011
 4706TIP3    H114003   8.455   3.289   0.941
 4706TIP3    H214004   8.398   3.286   1.081
 4707TIP3   OH214005   8.147   4.795   0.802
 4707TIP3    H114006   8.061   4.763   0.769
 4707TIP3    H214007   8.139   4.889   0.776
 4708TIP3   OH214008   8.540   3.387   0.789
 4708TIP3    H114009   8.581   3.327   0.724
 4708TIP3    H214010   8.617   3.437   0.823
 4709TIP3   OH214011   8.818   3.625   2.237
 4709TIP3    H114012   8.787   3.563   2.305
 4709TIP3    H214013   8.911   3.636   2.267
 4710TIP3   OH214014   9.052   3.643   2.372
 4710TIP3    H114015   9.148   3.648   2.355
 4710TIP3    H214016   9.052   3.571   2.439
 4711TIP3   OH214017   8.234   4.818   0.503
 4711TIP3    H114018   8.240   4.876   0.580
 4711TIP3    H214019   8.327   4.807   0.478
 4712TIP3   OH214020  -0.001   4.878   3.510
 4712TIP3    H114021   0.026   4.874   3.604
 4712TIP3    H214022  -0.056   4.799   3.503
 4713TIP3   OH214023   0.230   5.195   3.206
 4713TIP3    H114024   0.223   5.132   3.279
 4713TIP3    H214025   0.255   5.276   3.253
 4714TIP3   OH214026  -0.122   5.660   3.213
 4714TIP3    H114027  -0.073   5.584   3.177
 4714TIP3    H214028  -0.133   5.636   3.306
 4715TIP3   OH214029  -0.223   5.064   3.546
 4715TIP3    H114030  -0.140   5.026   3.514
 4715TIP3    H214031  -0.190   5.144   3.591
 4716TIP3   OH214032   0.802   4.442   3.568
 4716TIP3    H114033   0.828   4.525   3.612
 4716TIP3    H214034   0.819   4.465   3.475
 4717TIP3   OH214035   0.205   4.624   3.608
 4717TIP3    H114036   0.244   4.537   3.627
 4717TIP3    H214037   0.170   4.609   3.518
 4718TIP3   OH214038  -0.434   4.284   3.573
 4718TIP3    H114039  -0.468   4.361   3.523
 4718TIP3    H214040  -0.470   4.211   3.517
 4719TIP3   OH214041   0.230   4.376   3.190
 4719TIP3    H114042   0.303   4.358   3.255
 4719TIP3    H214043   0.283   4.408   3.115
 4720TIP3   OH214044  -0.386   4.693   3.479
 4720TIP3    H114045  -0.295   4.658   3.483
 4720TIP3    H214046  -0.433   4.619   3.436
 4721TIP3   OH214047   0.873   4.650   3.737
 4721TIP3    H114048   0.789   4.698   3.719
 4721TIP3    H214049   0.886   4.674   3.830
 4722TIP3   OH214050  -0.129   5.079   2.994
 4722TIP3    H114051  -0.163   5.102   2.906
 4722TIP3    H214052  -0.139   5.166   3.038
 4723TIP3   OH214053   0.442   4.374   3.361
 4723TIP3    H114054   0.426   4.327   3.444
 4723TIP3    H214055   0.494   4.451   3.390
 4724TIP3   OH214056   0.306   5.437   3.365
 4724TIP3    H114057   0.219   5.429   3.411
 4724TIP3    H214058   0.296   5.526   3.326
 4725TIP3   OH214059   0.593   4.341   3.734
 4725TIP3    H114060   0.505   4.371   3.707
 4725TIP3    H214061   0.650   4.373   3.660
 4726TIP3   OH214062  -0.107   3.983   3.717
 4726TIP3    H114063  -0.118   3.888   3.734
 4726TIP3    H214064  -0.183   4.019   3.768
 4727TIP3   OH214065   0.009   5.483   3.047
 4727TIP3    H114066   0.063   5.405   3.022
 4727TIP3    H214067   0.065   5.554   3.008
 4728TIP3   OH214068   0.147   5.269   2.952
 4728TIP3    H114069   0.103   5.191   2.917
 4728TIP3    H214070   0.185   5.235   3.036
 4729TIP3   OH214071   0.532   5.355   3.714
 4729TIP3    H114072   0.515   5.277   3.656
 4729TIP3    H214073   0.507   5.429   3.655
 4730TIP3   OH214074  -0.224   4.533   2.692
 4730TIP3    H114075  -0.164   4.537   2.767
 4730TIP3    H214076  -0.171   4.477   2.631
 4731TIP3   OH214077   0.725   4.991   3.558
 4731TIP3    H114078   0.641   5.042   3.566
 4731TIP3    H214079   0.752   5.016   3.467
 4732TIP3   OH214080   0.402   4.871   3.854
 4732TIP3    H114081   0.400   4.953   3.906
 4732TIP3    H214082   0.316   4.877   3.809
 4733TIP3   OH214083  -0.458   4.784   3.725
 4733TIP3    H114084  -0.423   4.756   3.638
 4733TIP3    H214085  -0.415   4.870   3.738
 4734TIP3   OH214086   0.070   5.435   3.491
 4734TIP3    H114087   0.040   5.518   3.533
 4734TIP3    H214088   0.044   5.366   3.556
 4735TIP3   OH214089  -0.250   5.367   3.044
 4735TIP3    H114090  -0.170   5.414   3.073
 4735TIP3    H214091  -0.300   5.440   3.003
 4736TIP3   OH214092   0.522   3.929   2.817
 4736TIP3    H114093   0.442   3.949   2.869
 4736TIP3    H214094   0.535   4.013   2.769
 4737TIP3   OH214095   0.321   5.297   2.365
 4737TIP3    H114096   0.329   5.394   2.352
 4737TIP3    H214097   0.414   5.269   2.353
 4738TIP3   OH214098   0.767   5.695   3.759
 4738TIP3    H114099   0.764   5.600   3.779
 4738TIP3    H214100   0.684   5.724   3.804
 4739TIP3   OH214101  -0.110   5.466   3.908
 4739TIP3    H114102  -0.106   5.561   3.934
 4739TIP3    H214103  -0.201   5.461   3.876
 4740TIP3   OH214104  -0.341   5.596   2.867
 4740TIP3    H114105  -0.380   5.579   2.780
 4740TIP3    H214106  -0.383   5.680   2.893
 4741TIP3   OH214107  -0.165   5.515   2.489
 4741TIP3    H114108  -0.108   5.446   2.449
 4741TIP3    H214109  -0.124   5.525   2.578
 4742TIP3   OH214110  -0.098   5.556   2.754
 4742TIP3    H114111  -0.183   5.563   2.804
 4742TIP3    H214112  -0.039   5.524   2.824
 4743TIP3   OH214113   0.661   4.832   4.032
 4743TIP3    H114114   0.574   4.846   3.990
 4743TIP3    H214115   0.670   4.735   4.026
 4744TIP3   OH214116  -0.350   4.060   3.842
 4744TIP3    H114117  -0.431   4.018   3.810
 4744TIP3    H214118  -0.365   4.153   3.821
 4745TIP3   OH214119   0.184   4.176   4.038
 4745TIP3    H114120   0.252   4.152   4.105
 4745TIP3    H214121   0.100   4.156   4.084
 4746TIP3   OH214122   0.429   4.608   3.960
 4746TIP3    H114123   0.379   4.602   4.044
 4746TIP3    H214124   0.400   4.695   3.925
 4747TIP3   OH214125   0.086   4.725   2.515
 4747TIP3    H114126   0.053   4.702   2.426
 4747TIP3    H214127   0.161   4.783   2.494
 4748TIP3   OH214128  -0.192   4.109   2.810
 4748TIP3    H114129  -0.221   4.127   2.902
 4748TIP3    H214130  -0.262   4.048   2.783
 4749TIP3   OH214131  -0.423   4.562   3.875
 4749TIP3    H114132  -0.474   4.593   3.950
 4749TIP3    H214133  -0.436   4.637   3.813
 4750TIP3   OH214134  -0.528   4.456   3.375
 4750TIP3    H114135  -0.615   4.454   3.335
 4750TIP3    H214136  -0.470   4.444   3.296
 4751TIP3   OH214137   0.135   4.826   4.188
 4751TIP3    H114138   0.111   4.755   4.252
 4751TIP3    H214139   0.228   4.842   4.213
 4752TIP3   OH214140   0.121   4.573   3.351
 4752TIP3    H114141   0.054   4.602   3.288
 4752TIP3    H214142   0.154   4.492   3.306
 4753TIP3   OH214143  -0.482   4.088   2.804
 4753TIP3    H114144  -0.500   4.058   2.895
 4753TIP3    H214145  -0.569   4.116   2.773
 4754TIP3   OH214146   0.121   4.826   3.765
 4754TIP3    H114147   0.157   4.754   3.709
 4754TIP3    H214148   0.097   4.775   3.845
 4755TIP3   OH214149  -0.187   4.246   3.454
 4755TIP3    H114150  -0.276   4.272   3.487
 4755TIP3    H214151  -0.130   4.284   3.522
 4756TIP3   OH214152   0.286   4.358   3.639
 4756TIP3    H114153   0.254   4.371   3.731
 4756TIP3    H214154   0.218   4.295   3.607
 4757TIP3   OH214155  -0.695   4.378   2.905
 4757TIP3    H114156  -0.700   4.314   2.832
 4757TIP3    H214157  -0.606   4.415   2.885
 4758TIP3   OH214158   0.457   6.047   3.858
 4758TIP3    H114159   0.452   6.074   3.764
 4758TIP3    H214160   0.531   6.101   3.890
 4759TIP3   OH214161  -0.119   4.614   3.538
 4759TIP3    H114162  -0.056   4.559   3.489
 4759TIP3    H214163  -0.113   4.576   3.628
 4760TIP3   OH214164  -0.560   4.101   3.415
 4760TIP3    H114165  -0.629   4.031   3.428
 4760TIP3    H214166  -0.518   4.070   3.334
 4761TIP3   OH214167  -0.146   4.509   3.828
 4761TIP3    H114168  -0.235   4.545   3.843
 4761TIP3    H214169  -0.088   4.570   3.878
 4762TIP3   OH214170  -0.372   4.871   2.932
 4762TIP3    H114171  -0.453   4.822   2.907
 4762TIP3    H214172  -0.407   4.927   3.007
 4763TIP3   OH214173   0.492   5.135   3.552
 4763TIP3    H114174   0.515   5.185   3.471
 4763TIP3    H214175   0.405   5.096   3.528
 4764TIP3   OH214176   0.054   4.219   2.785
 4764TIP3    H114177  -0.042   4.198   2.790
 4764TIP3    H214178   0.056   4.316   2.800
 4765TIP3   OH214179  -0.011   5.210   3.923
 4765TIP3    H114180   0.013   5.202   4.016
 4765TIP3    H214181  -0.048   5.301   3.920
 4766TIP3   OH214182   0.123   4.480   2.855
 4766TIP3    H114183   0.208   4.470   2.901
 4766TIP3    H214184   0.147   4.532   2.778
 4767TIP3   OH214185  -0.253   5.043   2.746
 4767TIP3    H114186  -0.301   5.130   2.746
 4767TIP3    H214187  -0.314   4.988   2.798
 4768TIP3   OH214188  -0.101   4.962   4.237
 4768TIP3    H114189  -0.158   4.894   4.198
 4768TIP3    H214190  -0.013   4.933   4.206
 4769TIP3   OH214191   0.157   5.471   3.816
 4769TIP3    H114192   0.061   5.471   3.828
 4769TIP3    H214193   0.183   5.527   3.892
 4770TIP3   OH214194   0.563   4.549   2.721
 4770TIP3    H114195   0.499   4.504   2.661
 4770TIP3    H214196   0.559   4.638   2.680
 4771TIP3   OH214197   0.781   5.406   3.802
 4771TIP3    H114198   0.683   5.401   3.793
 4771TIP3    H214199   0.807   5.379   3.711
 4772TIP3   OH214200   0.265   5.370   2.631
 4772TIP3    H114201   0.234   5.301   2.692
 4772TIP3    H214202   0.272   5.322   2.546
 4773TIP3   OH214203   0.259   4.999   3.465
 4773TIP3    H114204   0.167   4.972   3.483
 4773TIP3    H214205   0.294   4.917   3.424
 4774TIP3   OH214206  -0.427   4.993   3.159
 4774TIP3    H114207  -0.443   5.087   3.177
 4774TIP3    H214208  -0.483   4.953   3.228
 4775TIP3   OH214209   0.043   5.196   3.651
 4775TIP3    H114210   0.027   5.201   3.748
 4775TIP3    H214211   0.132   5.158   3.649
 4776TIP3   OH214212   0.016   5.097   2.529
 4776TIP3    H114213   0.065   5.070   2.610
 4776TIP3    H214214  -0.074   5.068   2.551
 4777TIP3   OH214215   0.293   5.735   3.697
 4777TIP3    H114216   0.211   5.682   3.694
 4777TIP3    H214217   0.275   5.800   3.626
 4778TIP3   OH214218   0.356   5.573   2.352
 4778TIP3    H114219   0.393   5.647   2.301
 4778TIP3    H214220   0.276   5.617   2.386
 4779TIP3   OH214221   0.178   5.032   2.746
 4779TIP3    H114222   0.178   4.969   2.819
 4779TIP3    H214223   0.274   5.035   2.726
 4780TIP3   OH214224  -0.556   5.046   2.557
 4780TIP3    H114225  -0.553   4.957   2.514
 4780TIP3    H214226  -0.591   5.023   2.644
 4781TIP3   OH214227   0.213   4.412   3.897
 4781TIP3    H114228   0.288   4.452   3.944
 4781TIP3    H214229   0.196   4.331   3.951
 4782TIP3   OH214230   0.099   4.163   3.062
 4782TIP3    H114231   0.077   4.188   2.970
 4782TIP3    H214232   0.132   4.248   3.099
 4783TIP3   OH214233  -0.400   5.266   2.758
 4783TIP3    H114234  -0.488   5.297   2.784
 4783TIP3    H214235  -0.382   5.324   2.682
 4784TIP3   OH214236   0.048   4.665   3.975
 4784TIP3    H114237   0.068   4.720   4.054
 4784TIP3    H214238   0.104   4.587   3.991
 4785TIP3   OH214239  -0.073   4.076   3.273
 4785TIP3    H114240  -0.101   4.152   3.330
 4785TIP3    H214241  -0.011   4.119   3.211
 4786TIP3   OH214242  -0.516   4.029   3.066
 4786TIP3    H114243  -0.576   4.102   3.088
 4786TIP3    H214244  -0.426   4.067   3.079
 4787TIP3   OH214245   0.693   4.559   3.952
 4787TIP3    H114246   0.596   4.561   3.965
 4787TIP3    H214247   0.697   4.522   3.863
 4788TIP3   OH214248   0.342   4.756   3.342
 4788TIP3    H114249   0.269   4.694   3.360
 4788TIP3    H214250   0.417   4.712   3.388
 4789TIP3   OH214251   0.313   5.706   3.289
 4789TIP3    H114252   0.269   5.755   3.216
 4789TIP3    H214253   0.407   5.727   3.269
 4790TIP3   OH214254  -0.415   5.269   2.464
 4790TIP3    H114255  -0.468   5.193   2.494
 4790TIP3    H214256  -0.366   5.231   2.390
 4791TIP3   OH214257   0.214   5.607   4.046
 4791TIP3    H114258   0.204   5.538   4.115
 4791TIP3    H214259   0.285   5.664   4.083
 4792TIP3   OH214260  -0.017   5.324   2.357
 4792TIP3    H114261   0.027   5.259   2.415
 4792TIP3    H214262   0.041   5.325   2.278
 4793TIP3   OH214263  -0.161   5.238   4.235
 4793TIP3    H114264  -0.227   5.223   4.167
 4793TIP3    H214265  -0.131   5.146   4.252
 4794TIP3   OH214266  -0.276   4.990   2.468
 4794TIP3    H114267  -0.296   5.008   2.562
 4794TIP3    H214268  -0.287   4.893   2.465
 4795TIP3   OH214269   0.313   5.237   3.847
 4795TIP3    H114270   0.386   5.289   3.808
 4795TIP3    H214271   0.241   5.303   3.842
 4796TIP3   OH214272  -0.590   4.706   2.893
 4796TIP3    H114273  -0.607   4.656   2.973
 4796TIP3    H214274  -0.562   4.633   2.833
 4797TIP3   OH214275  -0.259   4.772   4.109
 4797TIP3    H114276  -0.348   4.811   4.111
 4797TIP3    H214277  -0.230   4.799   4.019
 4798TIP3   OH214278  -0.501   4.497   2.744
 4798TIP3    H114279  -0.529   4.495   2.650
 4798TIP3    H214280  -0.403   4.499   2.733
 4799TIP3   OH214281   0.180   5.159   4.250
 4799TIP3    H114282   0.264   5.144   4.206
 4799TIP3    H214283   0.184   5.096   4.324
 4800TIP3   OH214284   0.325   4.828   2.388
 4800TIP3    H114285   0.300   4.780   2.307
 4800TIP3    H214286   0.291   4.917   2.365
 4801TIP3   OH214287  -0.196   4.539   4.253
 4801TIP3    H114288  -0.211   4.464   4.193
 4801TIP3    H214289  -0.228   4.615   4.201
 4802TIP3   OH214290  -0.215   4.333   4.040
 4802TIP3    H114291  -0.179   4.380   3.962
 4802TIP3    H214292  -0.310   4.340   4.026
 4803TIP3   OH214293  -0.181   4.893   3.874
 4803TIP3    H114294  -0.088   4.883   3.848
 4803TIP3    H214295  -0.193   4.988   3.863
 4804TIP3   OH214296   0.398   4.843   4.299
 4804TIP3    H114297   0.445   4.770   4.343
 4804TIP3    H214298   0.471   4.902   4.274
 4805TIP3   OH214299   0.444   5.095   4.036
 4805TIP3    H114300   0.384   5.148   3.978
 4805TIP3    H214301   0.531   5.117   3.995
 4806TIP3   OH214302  -0.075   4.104   4.114
 4806TIP3    H114303  -0.125   4.185   4.090
 4806TIP3    H214304  -0.146   4.037   4.108
 4807TIP3   OH214305   0.056   4.611   4.334
 4807TIP3    H114306   0.046   4.602   4.430
 4807TIP3    H214307  -0.034   4.582   4.307
 4808TIP3   OH214308   0.288   4.550   4.183
 4808TIP3    H114309   0.214   4.559   4.246
 4808TIP3    H214310   0.362   4.526   4.242
 4809TIP3   OH214311   0.527   4.495   4.331
 4809TIP3    H114312   0.531   4.401   4.360
 4809TIP3    H214313   0.513   4.543   4.416
 4810TIP3   OH214314   0.021   4.115   4.371
 4810TIP3    H114315   0.087   4.043   4.366
 4810TIP3    H214316  -0.020   4.107   4.283
 4811TIP3   OH214317   0.085   4.328   4.532
 4811TIP3    H114318   0.061   4.258   4.467
 4811TIP3    H214319   0.010   4.391   4.524
 4812TIP3   OH214320   0.575   5.788   3.249
 4812TIP3    H114321   0.582   5.827   3.338
 4812TIP3    H214322   0.604   5.862   3.193
 4813TIP3   OH214323   0.600   5.817   3.525
 4813TIP3    H114324   0.550   5.733   3.528
 4813TIP3    H214325   0.661   5.804   3.599
 4814TIP3   OH214326   0.641   5.500   4.102
 4814TIP3    H114327   0.566   5.507   4.166
 4814TIP3    H214328   0.680   5.589   4.108
 4815TIP3   OH214329   0.455   5.015   2.723
 4815TIP3    H114330   0.524   5.079   2.695
 4815TIP3    H214331   0.499   4.975   2.802
 4816TIP3   OH214332   0.584   4.884   2.926
 4816TIP3    H114333   0.519   4.836   2.983
 4816TIP3    H214334   0.646   4.921   2.992
 4817TIP3   OH214335   0.638   5.273   3.364
 4817TIP3    H114336   0.690   5.209   3.311
 4817TIP3    H214337   0.625   5.347   3.302
 4818TIP3   OH214338   0.468   5.573   3.554
 4818TIP3    H114339   0.398   5.617   3.607
 4818TIP3    H214340   0.414   5.526   3.487
 4819TIP3   OH214341   0.521   4.788   2.575
 4819TIP3    H114342   0.450   4.792   2.507
 4819TIP3    H214343   0.495   4.865   2.630
 4820TIP3   OH214344   0.390   4.461   2.532
 4820TIP3    H114345   0.349   4.504   2.455
 4820TIP3    H214346   0.364   4.367   2.517
 4821TIP3   OH214347   0.413   4.734   3.074
 4821TIP3    H114348   0.404   4.637   3.071
 4821TIP3    H214349   0.386   4.753   3.167
 4822TIP3   OH214350   0.686   5.162   3.929
 4822TIP3    H114351   0.760   5.097   3.920
 4822TIP3    H214352   0.713   5.234   3.870
 4823TIP3   OH214353   0.875   4.970   3.944
 4823TIP3    H114354   0.799   4.922   3.984
 4823TIP3    H214355   0.946   4.904   3.960
 4824TIP3   OH214356   0.337   4.193   2.511
 4824TIP3    H114357   0.412   4.167   2.569
 4824TIP3    H214358   0.263   4.137   2.543
 4825TIP3   OH214359   0.386   4.448   2.968
 4825TIP3    H114360   0.430   4.361   2.982
 4825TIP3    H214361   0.446   4.486   2.902
 4826TIP3   OH214362   0.556   4.628   3.463
 4826TIP3    H114363   0.642   4.655   3.424
 4826TIP3    H214364   0.566   4.666   3.553
 4827TIP3   OH214365   0.622   4.771   3.696
 4827TIP3    H114366   0.545   4.804   3.747
 4827TIP3    H214367   0.654   4.853   3.653
 4828TIP3   OH214368   1.083   4.366   4.252
 4828TIP3    H114369   1.134   4.299   4.202
 4828TIP3    H214370   1.047   4.421   4.179
 4829TIP3   OH214371   0.503   4.202   3.006
 4829TIP3    H114372   0.549   4.187   3.091
 4829TIP3    H214373   0.441   4.126   3.005
 4830TIP3   OH214374   0.947   4.502   4.063
 4830TIP3    H114375   0.863   4.544   4.091
 4830TIP3    H214376   0.912   4.436   4.001
 4831TIP3   OH214377   0.583   4.140   2.639
 4831TIP3    H114378   0.625   4.067   2.588
 4831TIP3    H214379   0.650   4.211   2.632
 4832TIP3   OH214380   0.149   5.665   2.907
 4832TIP3    H114381   0.202   5.658   2.825
 4832TIP3    H214382   0.194   5.738   2.953
 4833TIP3   OH214383  -0.103   5.726   3.987
 4833TIP3    H114384  -0.092   5.771   4.072
 4833TIP3    H214385  -0.049   5.784   3.927
 4834TIP3   OH214386   0.072   5.886   3.853
 4834TIP3    H114387   0.145   5.849   3.801
 4834TIP3    H214388   0.117   5.954   3.906
 4835TIP3   OH214389   0.844   4.267   3.934
 4835TIP3    H114390   0.752   4.267   3.903
 4835TIP3    H214391   0.870   4.173   3.920
 4836TIP3   OH214392   0.029   5.714   3.560
 4836TIP3    H114393  -0.061   5.736   3.591
 4836TIP3    H214394   0.053   5.802   3.529
 4837TIP3   OH214395   0.260   5.905   3.487
 4837TIP3    H114396   0.234   5.989   3.444
 4837TIP3    H214397   0.262   5.843   3.413
 4838TIP3   OH214398   0.071   4.183   3.575
 4838TIP3    H114399   0.009   4.117   3.612
 4838TIP3    H214400   0.119   4.131   3.509
 4839TIP3   OH214401   0.577   4.058   3.460
 4839TIP3    H114402   0.611   4.113   3.385
 4839TIP3    H214403   0.481   4.075   3.454
 4840TIP3   OH214404   0.669   4.161   3.223
 4840TIP3    H114405   0.742   4.111   3.182
 4840TIP3    H214406   0.701   4.253   3.209
 4841TIP3   OH214407  -0.252   3.917   3.455
 4841TIP3    H114408  -0.204   3.975   3.394
 4841TIP3    H214409  -0.232   3.959   3.540
 4842TIP3   OH214410   0.301   4.065   3.431
 4842TIP3    H114411   0.281   4.029   3.344
 4842TIP3    H214412   0.280   3.988   3.489
 4843TIP3   OH214413   0.319   3.990   2.997
 4843TIP3    H114414   0.234   4.036   3.012
 4843TIP3    H214415   0.302   3.905   3.044
 4844TIP3   OH214416  -0.264   4.125   3.081
 4844TIP3    H114417  -0.204   4.096   3.151
 4844TIP3    H214418  -0.273   4.221   3.101
 4845TIP3   OH214419  -0.417   5.519   2.608
 4845TIP3    H114420  -0.330   5.528   2.564
 4845TIP3    H214421  -0.466   5.477   2.534
 4846TIP3   OH214422   0.295   5.638   2.673
 4846TIP3    H114423   0.286   5.540   2.659
 4846TIP3    H214424   0.248   5.672   2.594
 4847TIP3   OH214425  -0.250   4.142   4.566
 4847TIP3    H114426  -0.163   4.133   4.524
 4847TIP3    H214427  -0.237   4.089   4.646
 4848TIP3   OH214428   0.578   4.222   4.370
 4848TIP3    H114429   0.597   4.196   4.463
 4848TIP3    H214430   0.667   4.221   4.330
 4849TIP3   OH214431   0.524   5.780   3.855
 4849TIP3    H114432   0.441   5.747   3.814
 4849TIP3    H214433   0.501   5.875   3.863
 4850TIP3   OH214434   1.785   5.152   2.629
 4850TIP3    H114435   1.758   5.243   2.609
 4850TIP3    H214436   1.709   5.103   2.593
 4851TIP3   OH214437   1.779   5.153   3.009
 4851TIP3    H114438   1.813   5.124   3.096
 4851TIP3    H214439   1.742   5.072   2.973
 4852TIP3   OH214440   1.085   5.046   3.371
 4852TIP3    H114441   1.111   4.979   3.436
 4852TIP3    H214442   1.165   5.100   3.367
 4853TIP3   OH214443   2.027   5.454   2.690
 4853TIP3    H114444   2.015   5.387   2.757
 4853TIP3    H214445   2.055   5.531   2.742
 4854TIP3   OH214446   1.104   5.461   3.149
 4854TIP3    H114447   1.070   5.369   3.139
 4854TIP3    H214448   1.182   5.454   3.089
 4855TIP3   OH214449   0.762   4.664   2.885
 4855TIP3    H114450   0.711   4.746   2.899
 4855TIP3    H214451   0.693   4.607   2.849
 4856TIP3   OH214452   0.826   4.950   3.055
 4856TIP3    H114453   0.872   4.872   3.093
 4856TIP3    H214454   0.878   4.968   2.976
 4857TIP3   OH214455   1.670   5.909   2.705
 4857TIP3    H114456   1.721   5.840   2.659
 4857TIP3    H214457   1.679   5.884   2.797
 4858TIP3   OH214458   1.583   5.378   3.059
 4858TIP3    H114459   1.623   5.301   3.013
 4858TIP3    H214460   1.667   5.424   3.082
 4859TIP3   OH214461   2.595   4.698   3.054
 4859TIP3    H114462   2.623   4.781   3.099
 4859TIP3    H214463   2.617   4.718   2.962
 4860TIP3   OH214464   1.995   4.880   3.091
 4860TIP3    H114465   2.038   4.795   3.110
 4860TIP3    H214466   1.965   4.865   2.999
 4861TIP3   OH214467   1.332   4.539   3.056
 4861TIP3    H114468   1.312   4.612   2.993
 4861TIP3    H214469   1.285   4.466   3.011
 4862TIP3   OH214470   2.026   4.631   2.678
 4862TIP3    H114471   2.100   4.615   2.742
 4862TIP3    H214472   2.077   4.666   2.603
 4863TIP3   OH214473   0.967   4.742   3.162
 4863TIP3    H114474   1.050   4.721   3.209
 4863TIP3    H214475   0.978   4.686   3.083
 4864TIP3   OH214476   1.407   4.940   2.955
 4864TIP3    H114477   1.501   4.914   2.967
 4864TIP3    H214478   1.368   4.856   2.922
 4865TIP3   OH214479   2.667   4.904   3.227
 4865TIP3    H114480   2.585   4.954   3.207
 4865TIP3    H214481   2.689   4.937   3.315
 4866TIP3   OH214482   1.329   4.522   3.490
 4866TIP3    H114483   1.270   4.559   3.422
 4866TIP3    H214484   1.277   4.541   3.570
 4867TIP3   OH214485   1.677   5.373   2.499
 4867TIP3    H114486   1.636   5.353   2.414
 4867TIP3    H214487   1.635   5.458   2.521
 4868TIP3   OH214488   1.439   5.296   3.285
 4868TIP3    H114489   1.374   5.358   3.319
 4868TIP3    H214490   1.485   5.348   3.215
 4869TIP3   OH214491   2.239   4.632   2.848
 4869TIP3    H114492   2.231   4.582   2.930
 4869TIP3    H214493   2.293   4.708   2.875
 4870TIP3   OH214494   1.200   4.637   3.274
 4870TIP3    H114495   1.263   4.710   3.296
 4870TIP3    H214496   1.249   4.596   3.199
 4871TIP3   OH214497   0.660   5.182   2.618
 4871TIP3    H114498   0.617   5.206   2.534
 4871TIP3    H214499   0.688   5.268   2.653
 4872TIP3   OH214500   2.097   5.694   2.856
 4872TIP3    H114501   2.007   5.689   2.895
 4872TIP3    H214502   2.093   5.782   2.813
 4873TIP3   OH214503   2.389   4.596   3.221
 4873TIP3    H114504   2.302   4.628   3.192
 4873TIP3    H214505   2.448   4.629   3.149
 4874TIP3   OH214506   1.688   4.243   3.203
 4874TIP3    H114507   1.674   4.148   3.217
 4874TIP3    H214508   1.610   4.280   3.249
 4875TIP3   OH214509   1.801   5.741   2.532
 4875TIP3    H114510   1.852   5.661   2.509
 4875TIP3    H214511   1.858   5.809   2.490
 4876TIP3   OH214512   1.944   5.528   2.436
 4876TIP3    H114513   1.906   5.447   2.398
 4876TIP3    H214514   1.979   5.494   2.522
 4877TIP3   OH214515   2.324   5.610   3.203
 4877TIP3    H114516   2.315   5.534   3.141
 4877TIP3    H214517   2.306   5.686   3.144
 4878TIP3   OH214518   1.616   5.005   2.458
 4878TIP3    H114519   1.535   5.055   2.434
 4878TIP3    H214520   1.663   5.000   2.373
 4879TIP3   OH214521   1.575   4.788   2.178
 4879TIP3    H114522   1.645   4.838   2.224
 4879TIP3    H214523   1.629   4.724   2.128
 4880TIP3   OH214524   2.519   5.245   3.045
 4880TIP3    H114525   2.438   5.299   3.051
 4880TIP3    H214526   2.550   5.270   2.955
 4881TIP3   OH214527   1.963   5.087   2.431
 4881TIP3    H114528   1.908   5.112   2.509
 4881TIP3    H214529   2.046   5.060   2.475
 4882TIP3   OH214530   2.199   5.126   3.342
 4882TIP3    H114531   2.197   5.210   3.392
 4882TIP3    H214532   2.113   5.133   3.295
 4883TIP3   OH214533   1.194   5.086   2.848
 4883TIP3    H114534   1.152   5.028   2.781
 4883TIP3    H214535   1.271   5.032   2.876
 4884TIP3   OH214536   1.325   5.477   2.998
 4884TIP3    H114537   1.314   5.452   2.905
 4884TIP3    H214538   1.419   5.453   3.014
 4885TIP3   OH214539   1.336   5.054   3.201
 4885TIP3    H114540   1.366   5.031   3.110
 4885TIP3    H214541   1.383   5.138   3.219
 4886TIP3   OH214542   1.855   5.694   2.977
 4886TIP3    H114543   1.842   5.776   3.028
 4886TIP3    H214544   1.842   5.623   3.044
 4887TIP3   OH214545   1.450   5.609   3.518
 4887TIP3    H114546   1.409   5.686   3.562
 4887TIP3    H214547   1.385   5.542   3.542
 4888TIP3   OH214548   1.804   4.945   2.257
 4888TIP3    H114549   1.864   5.003   2.309
 4888TIP3    H214550   1.830   4.969   2.165
 4889TIP3   OH214551   1.222   5.176   3.619
 4889TIP3    H114552   1.226   5.258   3.671
 4889TIP3    H214553   1.128   5.152   3.632
 4890TIP3   OH214554   1.544   5.627   2.535
 4890TIP3    H114555   1.625   5.679   2.552
 4890TIP3    H214556   1.486   5.693   2.494
 4891TIP3   OH214557   1.258   5.781   3.615
 4891TIP3    H114558   1.205   5.819   3.545
 4891TIP3    H214559   1.189   5.759   3.682
 4892TIP3   OH214560   2.320   4.186   2.305
 4892TIP3    H114561   2.239   4.205   2.356
 4892TIP3    H214562   2.332   4.269   2.255
 4893TIP3   OH214563   1.060   4.929   2.655
 4893TIP3    H114564   0.996   4.973   2.596
 4893TIP3    H214565   1.021   4.841   2.664
 4894TIP3   OH214566   2.117   5.554   1.850
 4894TIP3    H114567   2.126   5.651   1.840
 4894TIP3    H214568   2.210   5.525   1.838
 4895TIP3   OH214569   0.854   5.318   3.551
 4895TIP3    H114570   0.780   5.293   3.492
 4895TIP3    H214571   0.885   5.230   3.583
 4896TIP3   OH214572   0.691   5.505   3.201
 4896TIP3    H114573   0.784   5.523   3.185
 4896TIP3    H214574   0.656   5.590   3.234
 4897TIP3   OH214575   2.563   5.954   3.249
 4897TIP3    H114576   2.560   5.858   3.262
 4897TIP3    H214577   2.479   5.981   3.292
 4898TIP3   OH214578   1.668   5.741   3.381
 4898TIP3    H114579   1.669   5.834   3.412
 4898TIP3    H214580   1.594   5.704   3.432
 4899TIP3   OH214581   1.426   5.869   2.335
 4899TIP3    H114582   1.381   5.854   2.249
 4899TIP3    H214583   1.397   5.960   2.357
 4900TIP3   OH214584   0.866   5.721   2.715
 4900TIP3    H114585   0.909   5.713   2.802
 4900TIP3    H214586   0.802   5.648   2.719
 4901TIP3   OH214587   1.629   5.771   1.974
 4901TIP3    H114588   1.689   5.701   1.939
 4901TIP3    H214589   1.663   5.781   2.065
 4902TIP3   OH214590   1.678   5.819   2.243
 4902TIP3    H114591   1.592   5.828   2.289
 4902TIP3    H214592   1.734   5.786   2.315
 4903TIP3   OH214593   2.452   5.086   3.523
 4903TIP3    H114594   2.373   5.101   3.470
 4903TIP3    H214595   2.466   4.990   3.511
 4904TIP3   OH214596   1.069   5.493   3.519
 4904TIP3    H114597   1.117   5.486   3.605
 4904TIP3    H214598   0.997   5.429   3.535
 4905TIP3   OH214599   1.448   4.317   3.332
 4905TIP3    H114600   1.359   4.287   3.306
 4905TIP3    H214601   1.424   4.401   3.376
 4906TIP3   OH214602   1.981   4.433   3.525
 4906TIP3    H114603   2.048   4.408   3.591
 4906TIP3    H214604   1.896   4.414   3.571
 4907TIP3   OH214605   2.220   4.861   3.443
 4907TIP3    H114606   2.173   4.859   3.529
 4907TIP3    H214607   2.197   4.949   3.408
 4908TIP3   OH214608   1.881   4.995   2.002
 4908TIP3    H114609   1.847   4.967   1.914
 4908TIP3    H214610   1.962   5.042   1.976
 4909TIP3   OH214611   1.593   4.367   2.302
 4909TIP3    H114612   1.560   4.365   2.394
 4909TIP3    H214613   1.555   4.284   2.269
 4910TIP3   OH214614   1.379   4.832   3.351
 4910TIP3    H114615   1.328   4.854   3.432
 4910TIP3    H214616   1.363   4.913   3.297
 4911TIP3   OH214617   1.263   4.720   2.864
 4911TIP3    H114618   1.170   4.693   2.881
 4911TIP3    H214619   1.277   4.679   2.775
 4912TIP3   OH214620   1.753   4.806   2.591
 4912TIP3    H114621   1.700   4.877   2.549
 4912TIP3    H214622   1.808   4.776   2.516
 4913TIP3   OH214623   1.928   5.084   3.677
 4913TIP3    H114624   1.906   5.011   3.740
 4913TIP3    H214625   2.021   5.100   3.700
 4914TIP3   OH214626   1.911   4.834   2.831
 4914TIP3    H114627   1.852   4.865   2.759
 4914TIP3    H214628   1.944   4.752   2.789
 4915TIP3   OH214629   1.197   4.863   3.559
 4915TIP3    H114630   1.221   4.925   3.630
 4915TIP3    H214631   1.184   4.780   3.609
 4916TIP3   OH214632   1.248   4.340   2.269
 4916TIP3    H114633   1.240   4.337   2.366
 4916TIP3    H214634   1.169   4.391   2.244
 4917TIP3   OH214635   0.791   4.386   3.138
 4917TIP3    H114636   0.867   4.417   3.192
 4917TIP3    H214637   0.833   4.351   3.058
 4918TIP3   OH214638   0.765   4.366   2.659
 4918TIP3    H114639   0.810   4.405   2.581
 4918TIP3    H214640   0.704   4.438   2.681
 4919TIP3   OH214641   1.918   5.081   3.253
 4919TIP3    H114642   1.953   5.009   3.195
 4919TIP3    H214643   1.892   5.028   3.332
 4920TIP3   OH214644   1.590   4.543   2.926
 4920TIP3    H114645   1.507   4.540   2.979
 4920TIP3    H214646   1.658   4.542   2.995
 4921TIP3   OH214647   1.025   4.597   2.934
 4921TIP3    H114648   0.930   4.604   2.907
 4921TIP3    H214649   1.048   4.506   2.910
 4922TIP3   OH214650   1.295   4.595   2.622
 4922TIP3    H114651   1.389   4.609   2.600
 4922TIP3    H214652   1.249   4.618   2.538
 4923TIP3   OH214653   2.083   4.617   3.128
 4923TIP3    H114654   2.046   4.629   3.218
 4923TIP3    H214655   2.017   4.556   3.089
 4924TIP3   OH214656   1.134   4.628   2.401
 4924TIP3    H114657   1.063   4.582   2.352
 4924TIP3    H214658   1.186   4.663   2.326
 4925TIP3   OH214659   2.250   6.305   3.349
 4925TIP3    H114660   2.247   6.324   3.253
 4925TIP3    H214661   2.327   6.358   3.377
 4926TIP3   OH214662   1.213   5.421   3.762
 4926TIP3    H114663   1.289   5.448   3.817
 4926TIP3    H214664   1.143   5.419   3.831
 4927TIP3   OH214665   1.674   4.869   3.022
 4927TIP3    H114666   1.746   4.830   2.970
 4927TIP3    H214667   1.686   4.828   3.109
 4928TIP3   OH214668   1.198   4.358   2.900
 4928TIP3    H114669   1.165   4.277   2.945
 4928TIP3    H214670   1.249   4.321   2.827
 4929TIP3   OH214671   1.650   4.763   3.317
 4929TIP3    H114672   1.561   4.802   3.328
 4929TIP3    H214673   1.708   4.826   3.365
 4930TIP3   OH214674   1.386   5.159   2.407
 4930TIP3    H114675   1.314   5.092   2.396
 4930TIP3    H214676   1.369   5.191   2.498
 4931TIP3   OH214677   2.289   5.393   3.037
 4931TIP3    H114678   2.313   5.442   2.956
 4931TIP3    H214679   2.202   5.353   3.012
 4932TIP3   OH214680   1.846   4.469   2.272
 4932TIP3    H114681   1.749   4.453   2.277
 4932TIP3    H214682   1.855   4.564   2.291
 4933TIP3   OH214683   1.775   5.469   3.410
 4933TIP3    H114684   1.817   5.457   3.496
 4933TIP3    H214685   1.754   5.564   3.410
 4934TIP3   OH214686   1.915   4.717   2.373
 4934TIP3    H114687   2.011   4.723   2.387
 4934TIP3    H214688   1.896   4.795   2.318
 4935TIP3   OH214689   1.085   5.192   3.087
 4935TIP3    H114690   1.117   5.158   3.001
 4935TIP3    H214691   1.111   5.120   3.146
 4936TIP3   OH214692   1.532   5.307   2.228
 4936TIP3    H114693   1.485   5.393   2.235
 4936TIP3    H214694   1.479   5.251   2.287
 4937TIP3   OH214695   0.959   5.101   3.694
 4937TIP3    H114696   0.978   5.087   3.789
 4937TIP3    H214697   0.889   5.036   3.679
 4938TIP3   OH214698   1.685   5.212   3.719
 4938TIP3    H114699   1.627   5.153   3.668
 4938TIP3    H214700   1.773   5.181   3.689
 4939TIP3   OH214701   1.946   5.723   3.307
 4939TIP3    H114702   1.850   5.735   3.312
 4939TIP3    H214703   1.976   5.781   3.379
 4940TIP3   OH214704   2.358   4.805   2.208
 4940TIP3    H114705   2.295   4.760   2.147
 4940TIP3    H214706   2.354   4.894   2.167
 4941TIP3   OH214707   2.574   5.661   3.292
 4941TIP3    H114708   2.476   5.658   3.282
 4941TIP3    H214709   2.601   5.634   3.201
 4942TIP3   OH214710   2.056   5.626   2.116
 4942TIP3    H114711   2.032   5.558   2.180
 4942TIP3    H214712   2.068   5.576   2.033
 4943TIP3   OH214713   2.052   5.255   2.958
 4943TIP3    H114714   1.959   5.230   2.969
 4943TIP3    H214715   2.087   5.176   2.912
 4944TIP3   OH214716   1.177   5.487   2.721
 4944TIP3    H114717   1.185   5.565   2.663
 4944TIP3    H214718   1.085   5.463   2.705
 4945TIP3   OH214719   0.743   4.787   2.411
 4945TIP3    H114720   0.789   4.871   2.432
 4945TIP3    H214721   0.666   4.794   2.471
 4946TIP3   OH214722   1.317   5.251   2.654
 4946TIP3    H114723   1.285   5.341   2.675
 4946TIP3    H214724   1.281   5.199   2.728
 4947TIP3   OH214725   1.446   5.817   3.166
 4947TIP3    H114726   1.486   5.897   3.126
 4947TIP3    H214727   1.516   5.788   3.225
 4948TIP3   OH214728   1.102   5.720   2.564
 4948TIP3    H114729   1.014   5.730   2.605
 4948TIP3    H214730   1.134   5.813   2.565
 4949TIP3   OH214731   1.836   5.460   3.138
 4949TIP3    H114732   1.829   5.457   3.236
 4949TIP3    H214733   1.919   5.413   3.123
 4950TIP3   OH214734   1.811   5.353   2.018
 4950TIP3    H114735   1.864   5.328   2.097
 4950TIP3    H214736   1.723   5.326   2.048
 4951TIP3   OH214737   2.086   5.997   3.181
 4951TIP3    H114738   2.004   5.946   3.169
 4951TIP3    H214739   2.074   6.066   3.112
 4952TIP3   OH214740   2.152   5.830   1.839
 4952TIP3    H114741   2.192   5.906   1.792
 4952TIP3    H214742   2.071   5.874   1.873
 4953TIP3   OH214743   1.171   4.605   3.705
 4953TIP3    H114744   1.075   4.613   3.720
 4953TIP3    H214745   1.197   4.546   3.777
 4954TIP3   OH214746   1.971   5.287   2.235
 4954TIP3    H114747   1.961   5.220   2.306
 4954TIP3    H214748   2.068   5.286   2.224
 4955TIP3   OH214749   0.945   5.681   3.340
 4955TIP3    H114750   0.919   5.615   3.407
 4955TIP3    H214751   0.918   5.764   3.382
 4956TIP3   OH214752   1.177   5.334   2.018
 4956TIP3    H114753   1.192   5.243   1.988
 4956TIP3    H214754   1.159   5.321   2.113
 4957TIP3   OH214755   1.124   5.339   2.291
 4957TIP3    H114756   1.197   5.311   2.348
 4957TIP3    H214757   1.129   5.437   2.298
 4958TIP3   OH214758   0.860   5.033   2.494
 4958TIP3    H114759   0.793   5.078   2.550
 4958TIP3    H214760   0.874   5.102   2.426
 4959TIP3   OH214761   2.006   4.671   3.386
 4959TIP3    H114762   2.087   4.709   3.424
 4959TIP3    H214763   1.993   4.590   3.440
 4960TIP3   OH214764   1.886   4.422   2.550
 4960TIP3    H114765   1.872   4.445   2.456
 4960TIP3    H214766   1.926   4.505   2.585
 4961TIP3   OH214767   1.388   5.536   2.239
 4961TIP3    H114768   1.302   5.566   2.275
 4961TIP3    H214769   1.408   5.610   2.180
 4962TIP3   OH214770   1.578   4.600   2.653
 4962TIP3    H114771   1.643   4.670   2.634
 4962TIP3    H214772   1.583   4.593   2.750
 4963TIP3   OH214773   1.846   4.919   3.462
 4963TIP3    H114774   1.867   4.973   3.541
 4963TIP3    H214775   1.903   4.841   3.475
 4964TIP3   OH214776   1.723   4.329   2.757
 4964TIP3    H114777   1.715   4.407   2.815
 4964TIP3    H214778   1.783   4.365   2.687
 4965TIP3   OH214779   1.131   5.612   2.307
 4965TIP3    H114780   1.102   5.681   2.243
 4965TIP3    H214781   1.116   5.657   2.393
 4966TIP3   OH214782   1.232   4.324   2.546
 4966TIP3    H114783   1.231   4.415   2.581
 4966TIP3    H214784   1.329   4.306   2.553
 4967TIP3   OH214785   2.487   4.818   3.443
 4967TIP3    H114786   2.389   4.816   3.448
 4967TIP3    H214787   2.501   4.786   3.353
 4968TIP3   OH214788   2.138   5.014   2.830
 4968TIP3    H114789   2.063   4.953   2.841
 4968TIP3    H214790   2.210   4.967   2.878
 4969TIP3   OH214791   0.850   5.244   2.300
 4969TIP3    H114792   0.916   5.315   2.308
 4969TIP3    H214793   0.896   5.189   2.233
 4970TIP3   OH214794   0.796   4.518   2.434
 4970TIP3    H114795   0.795   4.615   2.428
 4970TIP3    H214796   0.713   4.495   2.391
 4971TIP3   OH214797   2.108   5.962   2.776
 4971TIP3    H114798   2.065   6.009   2.702
 4971TIP3    H214799   2.202   5.985   2.758
 4972TIP3   OH214800   1.184   4.238   3.307
 4972TIP3    H114801   1.152   4.207   3.220
 4972TIP3    H214802   1.172   4.159   3.363
 4973TIP3   OH214803   0.724   5.457   2.690
 4973TIP3    H114804   0.650   5.487   2.744
 4973TIP3    H214805   0.699   5.496   2.603
 4974TIP3   OH214806   0.880   5.996   3.755
 4974TIP3    H114807   0.963   5.999   3.808
 4974TIP3    H214808   0.856   5.902   3.762
 4975TIP3   OH214809   1.362   5.964   3.807
 4975TIP3    H114810   1.457   5.953   3.817
 4975TIP3    H214811   1.344   5.906   3.730
 4976TIP3   OH214812   1.341   5.538   1.931
 4976TIP3    H114813   1.285   5.468   1.971
 4976TIP3    H214814   1.417   5.486   1.900
 4977TIP3   OH214815   2.000   5.867   3.535
 4977TIP3    H114816   1.992   5.798   3.605
 4977TIP3    H214817   2.076   5.920   3.565
 4978TIP3   OH214818   1.778   5.579   1.842
 4978TIP3    H114819   1.821   5.516   1.902
 4978TIP3    H214820   1.838   5.580   1.765
 4979TIP3   OH214821   1.012   5.405   3.954
 4979TIP3    H114822   1.027   5.309   3.964
 4979TIP3    H214823   0.922   5.407   3.916
 4980TIP3   OH214824   0.986   5.056   2.151
 4980TIP3    H114825   1.040   5.021   2.223
 4980TIP3    H214826   1.053   5.060   2.080
 4981TIP3   OH214827   1.617   5.485   3.728
 4981TIP3    H114828   1.590   5.494   3.636
 4981TIP3    H214829   1.654   5.394   3.730
 4982TIP3   OH214830   1.493   5.254   1.958
 4982TIP3    H114831   1.497   5.267   2.055
 4982TIP3    H214832   1.494   5.155   1.954
 4983TIP3   OH214833   2.108   5.497   3.337
 4983TIP3    H114834   2.185   5.539   3.293
 4983TIP3    H214835   2.041   5.567   3.325
 4984TIP3   OH214836   1.131   5.138   3.939
 4984TIP3    H114837   1.201   5.073   3.927
 4984TIP3    H214838   1.152   5.172   4.028
 4985TIP3   OH214839   1.196   4.958   2.375
 4985TIP3    H114840   1.169   4.914   2.457
 4985TIP3    H214841   1.231   4.883   2.322
 4986TIP3   OH214842   1.464   5.023   3.603
 4986TIP3    H114843   1.387   5.084   3.605
 4986TIP3    H214844   1.512   5.054   3.523
 4987TIP3   OH214845   1.294   4.752   2.215
 4987TIP3    H114846   1.268   4.752   2.121
 4987TIP3    H214847   1.392   4.758   2.207
 4988TIP3   OH214848   1.977   5.422   3.735
 4988TIP3    H114849   2.061   5.406   3.691
 4988TIP3    H214850   1.979   5.357   3.807
 4989TIP3   OH214851   2.118   5.085   1.876
 4989TIP3    H114852   2.095   5.036   1.795
 4989TIP3    H214853   2.085   5.174   1.851
 4990TIP3   OH214854   1.587   4.809   3.729
 4990TIP3    H114855   1.586   4.730   3.672
 4990TIP3    H214856   1.544   4.876   3.671
 4991TIP3   OH214857   1.589   4.594   3.535
 4991TIP3    H114858   1.616   4.638   3.452
 4991TIP3    H214859   1.495   4.573   3.517
 4992TIP3   OH214860   1.619   5.130   3.407
 4992TIP3    H114861   1.704   5.136   3.361
 4992TIP3    H214862   1.567   5.200   3.364
 4993TIP3   OH214863   2.199   5.101   3.791
 4993TIP3    H114864   2.250   5.018   3.799
 4993TIP3    H214865   2.267   5.162   3.757
 4994TIP3   OH214866   2.239   5.352   3.524
 4994TIP3    H114867   2.181   5.406   3.465
 4994TIP3    H214868   2.327   5.373   3.484
 4995TIP3   OH214869   1.465   4.923   3.958
 4995TIP3    H114870   1.394   4.857   3.972
 4995TIP3    H214871   1.499   4.897   3.870
 4996TIP3   OH214872   1.721   4.362   3.605
 4996TIP3    H114873   1.674   4.445   3.580
 4996TIP3    H214874   1.651   4.295   3.589
 4997TIP3   OH214875   1.848   4.865   3.819
 4997TIP3    H114876   1.836   4.857   3.915
 4997TIP3    H214877   1.757   4.841   3.789
 4998TIP3   OH214878   2.086   4.813   3.673
 4998TIP3    H114879   2.010   4.817   3.734
 4998TIP3    H214880   2.159   4.784   3.731
 4999TIP3   OH214881   2.314   4.754   3.826
 4999TIP3    H114882   2.327   4.659   3.846
 4999TIP3    H214883   2.310   4.795   3.915
 5000TIP3   OH214884   1.304   4.704   4.010
 5000TIP3    H114885   1.311   4.613   3.975
 5000TIP3    H214886   1.337   4.692   4.101
 5001TIP3   OH214887   1.813   4.366   3.862
 5001TIP3    H114888   1.884   4.299   3.851
 5001TIP3    H214889   1.774   4.365   3.772
 5002TIP3   OH214890   1.878   4.583   4.021
 5002TIP3    H114891   1.856   4.515   3.955
 5002TIP3    H214892   1.803   4.646   4.014
 5003TIP3   OH214893   1.101   5.813   2.119
 5003TIP3    H114894   1.197   5.810   2.100
 5003TIP3    H214895   1.071   5.863   2.041
 5004TIP3   OH214896   0.582   5.195   2.337
 5004TIP3    H114897   0.677   5.217   2.323
 5004TIP3    H214898   0.576   5.107   2.294
 5005TIP3   OH214899   0.499   5.808   2.746
 5005TIP3    H114900   0.428   5.749   2.712
 5005TIP3    H214901   0.541   5.750   2.812
 5006TIP3   OH214902   0.635   5.660   2.932
 5006TIP3    H114903   0.609   5.590   2.995
 5006TIP3    H214904   0.679   5.724   2.992
 5007TIP3   OH214905   2.362   6.052   2.734
 5007TIP3    H114906   2.379   6.091   2.822
 5007TIP3    H214907   2.404   6.117   2.677
 5008TIP3   OH214908   2.389   6.078   3.014
 5008TIP3    H114909   2.349   5.988   3.012
 5008TIP3    H214910   2.463   6.063   3.074
 5009TIP3   OH214911   2.436   5.756   3.591
 5009TIP3    H114912   2.362   5.765   3.654
 5009TIP3    H214913   2.476   5.845   3.594
 5010TIP3   OH214914   2.252   5.271   2.210
 5010TIP3    H114915   2.321   5.335   2.184
 5010TIP3    H214916   2.293   5.230   2.290
 5011TIP3   OH214917   2.378   5.138   2.413
 5011TIP3    H114918   2.313   5.095   2.473
 5011TIP3    H214919   2.443   5.176   2.476
 5012TIP3   OH214920   2.431   5.528   2.846
 5012TIP3    H114921   2.486   5.467   2.794
 5012TIP3    H214922   2.424   5.605   2.786
 5013TIP3   OH214923   2.264   5.826   3.044
 5013TIP3    H114924   2.195   5.876   3.092
 5013TIP3    H214925   2.213   5.782   2.973
 5014TIP3   OH214926   2.317   5.046   2.061
 5014TIP3    H114927   2.245   5.048   1.995
 5014TIP3    H214928   2.291   5.122   2.117
 5015TIP3   OH214929   2.188   4.719   2.016
 5015TIP3    H114930   2.146   4.757   1.938
 5015TIP3    H214931   2.163   4.624   2.007
 5016TIP3   OH214932   2.193   4.993   2.560
 5016TIP3    H114933   2.201   4.896   2.556
 5016TIP3    H214934   2.180   5.009   2.657
 5017TIP3   OH214935   0.820   5.068   3.305
 5017TIP3    H114936   0.818   5.036   3.213
 5017TIP3    H214937   0.917   5.067   3.323
 5018TIP3   OH214938   2.481   5.418   3.417
 5018TIP3    H114939   2.555   5.354   3.408
 5018TIP3    H214940   2.509   5.490   3.358
 5019TIP3   OH214941   2.667   5.225   3.436
 5019TIP3    H114942   2.593   5.174   3.476
 5019TIP3    H214943   2.740   5.161   3.449
 5020TIP3   OH214944   2.132   4.453   2.003
 5020TIP3    H114945   2.206   4.421   2.058
 5020TIP3    H214946   2.057   4.395   2.027
 5021TIP3   OH214947   2.189   4.710   2.457
 5021TIP3    H114948   2.230   4.621   2.472
 5021TIP3    H214949   2.247   4.743   2.386
 5022TIP3   OH214950   2.352   4.885   2.951
 5022TIP3    H114951   2.437   4.912   2.910
 5022TIP3    H214952   2.365   4.922   3.040
 5023TIP3   OH214953   2.419   5.028   3.185
 5023TIP3    H114954   2.341   5.063   3.232
 5023TIP3    H214955   2.451   5.108   3.138
 5024TIP3   OH214956   1.036   4.753   3.979
 5024TIP3    H114957   1.134   4.748   3.984
 5024TIP3    H214958   1.011   4.671   4.024
 5025TIP3   OH214959   2.870   4.617   3.740
 5025TIP3    H114960   2.929   4.552   3.696
 5025TIP3    H214961   2.843   4.674   3.665
 5026TIP3   OH214962   2.298   4.460   2.494
 5026TIP3    H114963   2.346   4.443   2.578
 5026TIP3    H214964   2.238   4.383   2.492
 5027TIP3   OH214965   0.999   4.446   3.311
 5027TIP3    H114966   1.062   4.372   3.322
 5027TIP3    H214967   1.060   4.521   3.307
 5028TIP3   OH214968   0.803   4.719   3.388
 5028TIP3    H114969   0.851   4.714   3.303
 5028TIP3    H214970   0.829   4.807   3.419
 5029TIP3   OH214971   2.743   4.759   3.548
 5029TIP3    H114972   2.655   4.799   3.568
 5029TIP3    H214973   2.715   4.689   3.487
 5030TIP3   OH214974   2.380   4.395   2.127
 5030TIP3    H114975   2.420   4.323   2.073
 5030TIP3    H214976   2.447   4.466   2.118
 5031TIP3   OH214977   0.784   4.223   2.887
 5031TIP3    H114978   0.690   4.222   2.914
 5031TIP3    H214979   0.782   4.281   2.809
 5032TIP3   OH214980   1.937   5.923   2.388
 5032TIP3    H114981   1.998   5.915   2.312
 5032TIP3    H214982   1.980   5.991   2.443
 5033TIP3   OH214983   1.004   4.300   3.700
 5033TIP3    H114984   0.954   4.299   3.784
 5033TIP3    H214985   0.938   4.342   3.641
 5034TIP3   OH214986   1.044   5.722   3.778
 5034TIP3    H114987   0.949   5.702   3.767
 5034TIP3    H214988   1.054   5.713   3.874
 5035TIP3   OH214989   1.667   6.007   3.463
 5035TIP3    H114990   1.709   6.009   3.552
 5035TIP3    H214991   1.733   6.058   3.411
 5036TIP3   OH214992   1.846   6.157   3.323
 5036TIP3    H114993   1.919   6.113   3.277
 5036TIP3    H214994   1.897   6.217   3.383
 5037TIP3   OH214995   2.640   4.523   3.423
 5037TIP3    H114996   2.550   4.520   3.387
 5037TIP3    H214997   2.670   4.430   3.409
 5038TIP3   OH214998   0.895   6.005   3.354
 5038TIP3    H114999   0.809   6.045   3.328
 5038TIP3    H215000   0.912   6.056   3.434
 5039TIP3   OH215001   1.134   5.994   3.204
 5039TIP3    H115002   1.051   6.009   3.252
 5039TIP3    H215003   1.115   6.035   3.117
 5040TIP3   OH215004   1.560   6.027   3.005
 5040TIP3    H115005   1.494   6.053   2.938
 5040TIP3    H215006   1.576   6.113   3.049
 5041TIP3   OH215007   1.830   5.966   3.054
 5041TIP3    H115008   1.737   5.988   3.036
 5041TIP3    H215009   1.876   6.042   3.014
 5042TIP3   OH215010   2.022   6.154   2.967
 5042TIP3    H115011   2.033   6.245   2.930
 5042TIP3    H215012   2.057   6.102   2.893
 5043TIP3   OH215013   0.811   5.818   3.088
 5043TIP3    H115014   0.844   5.818   3.179
 5043TIP3    H215015   0.885   5.775   3.040
 5044TIP3   OH215016   1.006   5.686   2.956
 5044TIP3    H115017   1.033   5.594   2.962
 5044TIP3    H215018   1.093   5.731   2.943
 5045TIP3   OH215019   1.264   5.779   2.959
 5045TIP3    H115020   1.316   5.703   2.931
 5045TIP3    H215021   1.315   5.806   3.039
 5046TIP3   OH215022   1.847   4.437   3.042
 5046TIP3    H115023   1.803   4.367   3.093
 5046TIP3    H215024   1.917   4.389   2.995
 5047TIP3   OH215025   2.371   4.318   2.949
 5047TIP3    H115026   2.407   4.369   2.874
 5047TIP3    H215027   2.275   4.335   2.941
 5048TIP3   OH215028   2.465   4.417   2.712
 5048TIP3    H115029   2.537   4.366   2.670
 5048TIP3    H215030   2.497   4.509   2.697
 5049TIP3   OH215031   1.095   4.146   3.059
 5049TIP3    H115032   1.003   4.113   3.059
 5049TIP3    H215033   1.144   4.062   3.055
 5050TIP3   OH215034   0.878   4.014   2.705
 5050TIP3    H115035   0.911   4.072   2.633
 5050TIP3    H215036   0.850   4.079   2.772
 5051TIP3   OH215037   1.536   4.180   2.938
 5051TIP3    H115038   1.596   4.227   2.878
 5051TIP3    H215039   1.561   4.216   3.024
 5052TIP3   OH215040   2.088   4.326   2.921
 5052TIP3    H115041   2.082   4.289   2.832
 5052TIP3    H215042   2.075   4.245   2.977
 5053TIP3   OH215043   2.116   4.246   2.485
 5053TIP3    H115044   2.028   4.288   2.493
 5053TIP3    H215045   2.100   4.161   2.531
 5054TIP3   OH215046   0.599   5.584   2.487
 5054TIP3    H115047   0.514   5.551   2.452
 5054TIP3    H215048   0.587   5.679   2.472
 5055TIP3   OH215049   0.998   4.174   2.470
 5055TIP3    H115050   1.047   4.112   2.413
 5055TIP3    H215051   1.070   4.229   2.506
 5056TIP3   OH215052   1.510   4.349   2.568
 5056TIP3    H115053   1.570   4.302   2.627
 5056TIP3    H215054   1.532   4.442   2.593
 5057TIP3   OH215055   1.370   5.776   2.067
 5057TIP3    H115056   1.459   5.797   2.032
 5057TIP3    H215057   1.348   5.699   2.008
 5058TIP3   OH215058   2.092   5.893   2.159
 5058TIP3    H115059   2.080   5.796   2.147
 5058TIP3    H215060   2.044   5.927   2.080
 5059TIP3   OH215061   1.303   4.425   3.946
 5059TIP3    H115062   1.268   4.357   4.006
 5059TIP3    H215063   1.397   4.428   3.974
 5060TIP3   OH215064   1.550   4.422   4.069
 5060TIP3    H115065   1.636   4.402   4.027
 5060TIP3    H215066   1.541   4.349   4.133
 5061TIP3   OH215067   0.674   5.614   2.125
 5061TIP3    H115068   0.670   5.640   2.218
 5061TIP3    H215069   0.763   5.573   2.117
 5062TIP3   OH215070   2.376   4.483   3.856
 5062TIP3    H115071   2.397   4.454   3.947
 5062TIP3    H215072   2.464   4.482   3.813
 5063TIP3   OH215073   2.316   6.037   3.347
 5063TIP3    H115074   2.237   6.007   3.298
 5063TIP3    H215075   2.298   6.134   3.350
 5064TIP3   OH215076   3.583   5.402   2.114
 5064TIP3    H115077   3.552   5.494   2.114
 5064TIP3    H215078   3.503   5.356   2.083
 5065TIP3   OH215079   3.565   5.405   2.496
 5065TIP3    H115080   3.607   5.386   2.582
 5065TIP3    H215081   3.533   5.318   2.469
 5066TIP3   OH215082   2.881   5.306   2.860
 5066TIP3    H115083   2.912   5.239   2.924
 5066TIP3    H215084   2.959   5.363   2.855
 5067TIP3   OH215085   3.819   5.712   2.179
 5067TIP3    H115086   3.820   5.642   2.247
 5067TIP3    H215087   3.871   5.780   2.225
 5068TIP3   OH215088   2.850   5.712   2.581
 5068TIP3    H115089   2.840   5.615   2.586
 5068TIP3    H215090   2.945   5.721   2.597
 5069TIP3   OH215091   2.558   4.919   2.372
 5069TIP3    H115092   2.509   5.002   2.386
 5069TIP3    H215093   2.487   4.863   2.334
 5070TIP3   OH215094   2.617   5.204   2.541
 5070TIP3    H115095   2.666   5.128   2.580
 5070TIP3    H215096   2.678   5.233   2.472
 5071TIP3   OH215097   3.458   6.159   2.186
 5071TIP3    H115098   3.507   6.087   2.141
 5071TIP3    H215099   3.473   6.137   2.279
 5072TIP3   OH215100   3.381   5.634   2.542
 5072TIP3    H115101   3.424   5.555   2.504
 5072TIP3    H215102   3.462   5.685   2.564
 5073TIP3   OH215103   4.391   4.956   2.542
 5073TIP3    H115104   4.419   5.038   2.587
 5073TIP3    H215105   4.413   4.978   2.449
 5074TIP3   OH215106   3.789   5.136   2.578
 5074TIP3    H115107   3.834   5.052   2.598
 5074TIP3    H215108   3.761   5.120   2.486
 5075TIP3   OH215109   3.127   4.796   2.543
 5075TIP3    H115110   3.108   4.869   2.480
 5075TIP3    H215111   3.080   4.723   2.498
 5076TIP3   OH215112   3.823   4.886   2.165
 5076TIP3    H115113   3.895   4.871   2.230
 5076TIP3    H215114   3.874   4.922   2.090
 5077TIP3   OH215115   2.763   4.998   2.649
 5077TIP3    H115116   2.846   4.978   2.696
 5077TIP3    H215117   2.775   4.942   2.569
 5078TIP3   OH215118   3.204   5.196   2.439
 5078TIP3    H115119   3.298   5.171   2.453
 5078TIP3    H215120   3.165   5.111   2.409
 5079TIP3   OH215121   4.465   5.159   2.713
 5079TIP3    H115122   4.383   5.212   2.696
 5079TIP3    H215123   4.475   5.171   2.809
 5080TIP3   OH215124   3.125   4.779   2.976
 5080TIP3    H115125   3.066   4.816   2.908
 5080TIP3    H215126   3.074   4.798   3.057
 5081TIP3   OH215127   3.449   5.627   1.989
 5081TIP3    H115128   3.451   5.596   1.898
 5081TIP3    H215129   3.506   5.705   1.987
 5082TIP3   OH215130   3.231   5.554   2.771
 5082TIP3    H115131   3.169   5.620   2.809
 5082TIP3    H215132   3.280   5.606   2.705
 5083TIP3   OH215133   4.034   4.889   2.336
 5083TIP3    H115134   4.026   4.842   2.420
 5083TIP3    H215135   4.089   4.966   2.360
 5084TIP3   OH215136   2.996   4.894   2.761
 5084TIP3    H115137   3.057   4.968   2.783
 5084TIP3    H215138   3.045   4.853   2.686
 5085TIP3   OH215139   3.057   5.748   2.864
 5085TIP3    H115140   3.035   5.838   2.831
 5085TIP3    H215141   2.980   5.733   2.923
 5086TIP3   OH215142   2.458   5.438   2.105
 5086TIP3    H115143   2.412   5.466   2.024
 5086TIP3    H215144   2.485   5.524   2.142
 5087TIP3   OH215145   4.185   4.852   2.706
 5087TIP3    H115146   4.099   4.887   2.678
 5087TIP3    H215147   4.246   4.886   2.636
 5088TIP3   OH215148   3.483   4.499   2.688
 5088TIP3    H115149   3.471   4.404   2.706
 5088TIP3    H215150   3.406   4.536   2.735
 5089TIP3   OH215151   3.579   5.997   1.994
 5089TIP3    H115152   3.635   5.917   1.988
 5089TIP3    H215153   3.645   6.066   1.970
 5090TIP3   OH215154   3.713   5.767   1.930
 5090TIP3    H115155   3.740   5.692   1.874
 5090TIP3    H215156   3.763   5.747   2.013
 5091TIP3   OH215157   4.113   5.871   2.697
 5091TIP3    H115158   4.119   5.815   2.616
 5091TIP3    H215159   4.083   5.949   2.649
 5092TIP3   OH215160   3.410   5.260   1.943
 5092TIP3    H115161   3.330   5.310   1.917
 5092TIP3    H215162   3.460   5.255   1.859
 5093TIP3   OH215163   3.371   5.047   1.662
 5093TIP3    H115164   3.440   5.094   1.711
 5093TIP3    H215165   3.426   4.981   1.615
 5094TIP3   OH215166   4.298   5.512   2.533
 5094TIP3    H115167   4.224   5.573   2.518
 5094TIP3    H215168   4.343   5.522   2.445
 5095TIP3   OH215169   3.759   5.343   1.916
 5095TIP3    H115170   3.706   5.365   1.996
 5095TIP3    H215171   3.843   5.316   1.958
 5096TIP3   OH215172   3.994   5.383   2.829
 5096TIP3    H115173   3.992   5.466   2.880
 5096TIP3    H215174   3.911   5.392   2.778
 5097TIP3   OH215175   2.996   5.344   2.331
 5097TIP3    H115176   2.953   5.284   2.266
 5097TIP3    H215177   3.071   5.289   2.362
 5098TIP3   OH215178   3.133   5.757   2.470
 5098TIP3    H115179   3.113   5.681   2.416
 5098TIP3    H215180   3.223   5.734   2.501
 5099TIP3   OH215181   3.128   5.313   2.686
 5099TIP3    H115182   3.165   5.293   2.598
 5099TIP3    H215183   3.172   5.398   2.709
 5100TIP3   OH215184   3.595   5.954   2.462
 5100TIP3    H115185   3.639   6.031   2.501
 5100TIP3    H215186   3.629   5.879   2.514
 5101TIP3   OH215187   3.264   5.868   3.014
 5101TIP3    H115188   3.205   5.932   3.059
 5101TIP3    H215189   3.198   5.816   2.964
 5102TIP3   OH215190   3.598   5.204   1.743
 5102TIP3    H115191   3.660   5.259   1.797
 5102TIP3    H215192   3.626   5.228   1.652
 5103TIP3   OH215193   3.019   5.426   3.112
 5103TIP3    H115194   3.025   5.513   3.157
 5103TIP3    H215195   2.924   5.408   3.121
 5104TIP3   OH215196   3.060   6.038   3.098
 5104TIP3    H115197   3.025   6.037   3.007
 5104TIP3    H215198   2.980   6.016   3.152
 5105TIP3   OH215199   4.116   4.443   1.791
 5105TIP3    H115200   4.035   4.463   1.842
 5105TIP3    H215201   4.129   4.526   1.741
 5106TIP3   OH215202   2.859   5.185   2.138
 5106TIP3    H115203   2.791   5.228   2.082
 5106TIP3    H215204   2.819   5.098   2.153
 5107TIP3   OH215205   3.914   5.811   1.338
 5107TIP3    H115206   3.926   5.908   1.325
 5107TIP3    H215207   4.007   5.780   1.325
 5108TIP3   OH215208   2.639   5.568   3.046
 5108TIP3    H115209   2.574   5.545   2.976
 5108TIP3    H215210   2.676   5.481   3.071
 5109TIP3   OH215211   2.492   5.760   2.682
 5109TIP3    H115212   2.588   5.762   2.676
 5109TIP3    H215213   2.474   5.843   2.729
 5110TIP3   OH215214   4.357   6.210   2.733
 5110TIP3    H115215   4.357   6.114   2.747
 5110TIP3    H215216   4.274   6.236   2.779
 5111TIP3   OH215217   3.462   5.999   2.868
 5111TIP3    H115218   3.462   6.092   2.900
 5111TIP3    H215219   3.393   5.959   2.925
 5112TIP3   OH215220   3.204   6.120   1.832
 5112TIP3    H115221   3.182   6.114   1.739
 5112TIP3    H215222   3.187   6.214   1.852
 5113TIP3   OH215223   2.657   5.976   2.202
 5113TIP3    H115224   2.713   5.969   2.282
 5113TIP3    H215225   2.596   5.903   2.217
 5114TIP3   OH215226   3.427   6.023   1.461
 5114TIP3    H115227   3.488   5.956   1.424
 5114TIP3    H215228   3.465   6.037   1.550
 5115TIP3   OH215229   3.473   6.076   1.732
 5115TIP3    H115230   3.397   6.094   1.788
 5115TIP3    H215231   3.540   6.050   1.799
 5116TIP3   OH215232   4.248   5.344   3.011
 5116TIP3    H115233   4.171   5.357   2.954
 5116TIP3    H215234   4.265   5.248   2.997
 5117TIP3   OH215235   2.845   5.750   3.034
 5117TIP3    H115236   2.894   5.735   3.117
 5117TIP3    H215237   2.771   5.687   3.043
 5118TIP3   OH215238   3.244   4.574   2.818
 5118TIP3    H115239   3.153   4.544   2.793
 5118TIP3    H215240   3.221   4.658   2.862
 5119TIP3   OH215241   3.778   4.689   3.012
 5119TIP3    H115242   3.846   4.664   3.077
 5119TIP3    H215243   3.694   4.669   3.059
 5120TIP3   OH215244   4.006   5.116   2.924
 5120TIP3    H115245   3.965   5.115   3.013
 5120TIP3    H215246   3.990   5.207   2.894
 5121TIP3   OH215247   3.674   5.255   1.487
 5121TIP3    H115248   3.644   5.224   1.400
 5121TIP3    H215249   3.759   5.296   1.463
 5122TIP3   OH215250   3.388   4.626   1.788
 5122TIP3    H115251   3.358   4.623   1.881
 5122TIP3    H215252   3.351   4.541   1.757
 5123TIP3   OH215253   3.173   5.090   2.835
 5123TIP3    H115254   3.125   5.112   2.918
 5123TIP3    H215255   3.158   5.171   2.782
 5124TIP3   OH215256   3.058   4.976   2.350
 5124TIP3    H115257   2.966   4.948   2.368
 5124TIP3    H215258   3.072   4.935   2.262
 5125TIP3   OH215259   3.548   5.061   2.076
 5125TIP3    H115260   3.496   5.133   2.036
 5125TIP3    H215261   3.605   5.032   2.002
 5126TIP3   OH215262   3.724   5.341   3.165
 5126TIP3    H115263   3.703   5.268   3.227
 5126TIP3    H215264   3.818   5.355   3.185
 5127TIP3   OH215265   3.705   5.089   2.320
 5127TIP3    H115266   3.649   5.122   2.247
 5127TIP3    H215267   3.739   5.008   2.276
 5128TIP3   OH215268   2.993   5.120   3.046
 5128TIP3    H115269   3.023   5.184   3.112
 5128TIP3    H215270   2.983   5.038   3.099
 5129TIP3   OH215271   3.044   4.596   1.755
 5129TIP3    H115272   3.037   4.593   1.853
 5129TIP3    H215273   2.964   4.646   1.732
 5130TIP3   OH215274   2.587   4.642   2.627
 5130TIP3    H115275   2.663   4.673   2.680
 5130TIP3    H215276   2.627   4.609   2.545
 5131TIP3   OH215277   2.562   4.623   2.145
 5131TIP3    H115278   2.607   4.662   2.067
 5131TIP3    H215279   2.501   4.695   2.168
 5132TIP3   OH215280   3.708   5.336   2.739
 5132TIP3    H115281   3.746   5.266   2.682
 5132TIP3    H215282   3.686   5.284   2.819
 5133TIP3   OH215283   3.384   4.798   2.412
 5133TIP3    H115284   3.304   4.796   2.467
 5133TIP3    H215285   3.454   4.799   2.479
 5134TIP3   OH215286   2.821   4.853   2.421
 5134TIP3    H115287   2.726   4.860   2.394
 5134TIP3    H215288   2.844   4.762   2.397
 5135TIP3   OH215289   3.091   4.850   2.109
 5135TIP3    H115290   3.186   4.865   2.090
 5135TIP3    H215291   3.046   4.875   2.025
 5136TIP3   OH215292   3.878   4.873   2.613
 5136TIP3    H115293   3.844   4.886   2.704
 5136TIP3    H215294   3.812   4.813   2.576
 5137TIP3   OH215295   2.929   4.886   1.887
 5137TIP3    H115296   2.857   4.840   1.840
 5137TIP3    H215297   2.982   4.920   1.812
 5138TIP3   OH215298   4.048   6.563   2.833
 5138TIP3    H115299   4.044   6.584   2.738
 5138TIP3    H215300   4.127   6.613   2.862
 5139TIP3   OH215301   3.005   5.671   3.255
 5139TIP3    H115302   3.085   5.703   3.301
 5139TIP3    H215303   2.941   5.674   3.328
 5140TIP3   OH215304   3.470   5.123   2.506
 5140TIP3    H115305   3.545   5.087   2.456
 5140TIP3    H215306   3.484   5.086   2.595
 5141TIP3   OH215307   2.993   4.615   2.387
 5141TIP3    H115308   2.961   4.534   2.432
 5141TIP3    H215309   3.047   4.578   2.315
 5142TIP3   OH215310   3.446   5.019   2.804
 5142TIP3    H115311   3.358   5.060   2.815
 5142TIP3    H215312   3.505   5.081   2.852
 5143TIP3   OH215313   3.180   5.418   1.890
 5143TIP3    H115314   3.111   5.349   1.883
 5143TIP3    H215315   3.167   5.449   1.983
 5144TIP3   OH215316   3.641   4.727   1.755
 5144TIP3    H115317   3.545   4.712   1.764
 5144TIP3    H215318   3.653   4.821   1.779
 5145TIP3   OH215319   3.573   5.725   2.895
 5145TIP3    H115320   3.609   5.715   2.984
 5145TIP3    H215321   3.548   5.819   2.892
 5146TIP3   OH215322   3.711   4.973   1.858
 5146TIP3    H115323   3.808   4.977   1.876
 5146TIP3    H215324   3.697   5.052   1.803
 5147TIP3   OH215325   2.875   5.434   2.570
 5147TIP3    H115326   2.916   5.404   2.486
 5147TIP3    H215327   2.916   5.373   2.634
 5148TIP3   OH215328   3.319   5.571   1.711
 5148TIP3    H115329   3.281   5.655   1.741
 5148TIP3    H215330   3.274   5.508   1.771
 5149TIP3   OH215331   2.755   5.357   3.184
 5149TIP3    H115332   2.778   5.344   3.278
 5149TIP3    H215333   2.686   5.289   3.170
 5150TIP3   OH215334   3.481   5.468   3.206
 5150TIP3    H115335   3.424   5.412   3.150
 5150TIP3    H215336   3.570   5.438   3.177
 5151TIP3   OH215337   3.744   5.980   2.797
 5151TIP3    H115338   3.647   5.991   2.793
 5151TIP3    H215339   3.767   6.040   2.870
 5152TIP3   OH215340   4.153   5.062   1.696
 5152TIP3    H115341   4.089   5.017   1.635
 5152TIP3    H215342   4.151   5.151   1.654
 5153TIP3   OH215343   4.370   5.920   2.776
 5153TIP3    H115344   4.272   5.914   2.768
 5153TIP3    H215345   4.396   5.891   2.686
 5154TIP3   OH215346   3.837   5.882   1.598
 5154TIP3    H115347   3.838   5.811   1.664
 5154TIP3    H215348   3.866   5.837   1.517
 5155TIP3   OH215349   3.834   5.503   2.449
 5155TIP3    H115350   3.742   5.473   2.451
 5155TIP3    H215351   3.879   5.431   2.401
 5156TIP3   OH215352   2.960   5.746   2.172
 5156TIP3    H115353   2.956   5.835   2.206
 5156TIP3    H215354   2.875   5.710   2.201
 5157TIP3   OH215355   2.538   5.044   1.898
 5157TIP3    H115356   2.585   5.127   1.920
 5157TIP3    H215357   2.461   5.049   1.958
 5158TIP3   OH215358   3.112   5.510   2.136
 5158TIP3    H115359   3.070   5.596   2.155
 5158TIP3    H215360   3.083   5.456   2.212
 5159TIP3   OH215361   3.246   6.083   2.664
 5159TIP3    H115362   3.289   6.155   2.612
 5159TIP3    H215363   3.323   6.046   2.711
 5160TIP3   OH215364   3.638   5.713   2.619
 5160TIP3    H115365   3.633   5.709   2.717
 5160TIP3    H215366   3.723   5.671   2.600
 5161TIP3   OH215367   3.607   5.612   1.508
 5161TIP3    H115368   3.663   5.589   1.586
 5161TIP3    H215369   3.522   5.577   1.537
 5162TIP3   OH215370   3.877   6.269   2.692
 5162TIP3    H115371   3.824   6.192   2.667
 5162TIP3    H215372   3.868   6.325   2.612
 5163TIP3   OH215373   3.947   6.086   1.327
 5163TIP3    H115374   3.991   6.158   1.278
 5163TIP3    H215375   3.868   6.135   1.357
 5164TIP3   OH215376   2.969   4.862   3.193
 5164TIP3    H115377   2.872   4.867   3.207
 5164TIP3    H215378   2.996   4.802   3.264
 5165TIP3   OH215379   3.768   5.550   1.732
 5165TIP3    H115380   3.760   5.476   1.795
 5165TIP3    H215381   3.864   5.544   1.712
 5166TIP3   OH215382   2.688   5.945   2.822
 5166TIP3    H115383   2.739   5.873   2.863
 5166TIP3    H215384   2.707   6.019   2.880
 5167TIP3   OH215385   2.974   5.590   1.503
 5167TIP3    H115386   2.988   5.498   1.474
 5167TIP3    H215387   2.954   5.576   1.598
 5168TIP3   OH215388   2.926   5.601   1.774
 5168TIP3    H115389   2.983   5.560   1.842
 5168TIP3    H215390   2.925   5.695   1.799
 5169TIP3   OH215391   2.655   5.290   1.980
 5169TIP3    H115392   2.590   5.333   2.039
 5169TIP3    H215393   2.668   5.360   1.914
 5170TIP3   OH215394   3.801   4.925   2.870
 5170TIP3    H115395   3.881   4.968   2.906
 5170TIP3    H215396   3.792   4.846   2.927
 5171TIP3   OH215397   3.683   4.679   2.036
 5171TIP3    H115398   3.671   4.703   1.942
 5171TIP3    H215399   3.724   4.760   2.073
 5172TIP3   OH215400   3.191   5.836   1.779
 5172TIP3    H115401   3.094   5.831   1.766
 5172TIP3    H215402   3.219   5.857   1.688
 5173TIP3   OH215403   3.372   4.857   2.139
 5173TIP3    H115404   3.438   4.927   2.121
 5173TIP3    H215405   3.379   4.848   2.237
 5174TIP3   OH215406   3.642   5.174   2.951
 5174TIP3    H115407   3.663   5.230   3.028
 5174TIP3    H215408   3.701   5.098   2.963
 5175TIP3   OH215409   3.519   4.584   2.242
 5175TIP3    H115410   3.516   4.659   2.305
 5175TIP3    H215411   3.579   4.621   2.174
 5176TIP3   OH215412   2.925   5.881   1.801
 5176TIP3    H115413   2.904   5.937   1.722
 5176TIP3    H215414   2.865   5.921   1.865
 5177TIP3   OH215415   3.030   4.581   2.032
 5177TIP3    H115416   3.027   4.671   2.068
 5177TIP3    H215417   3.126   4.563   2.040
 5178TIP3   OH215418   4.274   5.082   2.924
 5178TIP3    H115419   4.176   5.076   2.926
 5178TIP3    H215420   4.294   5.035   2.842
 5179TIP3   OH215421   3.935   5.266   2.313
 5179TIP3    H115422   3.860   5.207   2.331
 5179TIP3    H215423   4.008   5.224   2.363
 5180TIP3   OH215424   2.646   5.499   1.787
 5180TIP3    H115425   2.708   5.574   1.792
 5180TIP3    H215426   2.693   5.444   1.720
 5181TIP3   OH215427   2.593   4.774   1.918
 5181TIP3    H115428   2.589   4.872   1.914
 5181TIP3    H215429   2.508   4.749   1.879
 5182TIP3   OH215430   3.895   6.249   2.275
 5182TIP3    H115431   3.861   6.286   2.191
 5182TIP3    H215432   3.990   6.241   2.253
 5183TIP3   OH215433   2.978   4.494   2.794
 5183TIP3    H115434   2.947   4.462   2.707
 5183TIP3    H215435   2.968   4.415   2.851
 5184TIP3   OH215436   2.516   5.706   2.175
 5184TIP3    H115437   2.450   5.742   2.236
 5184TIP3    H215438   2.492   5.752   2.091
 5185TIP3   OH215439   2.674   6.253   3.246
 5185TIP3    H115440   2.760   6.253   3.293
 5185TIP3    H215441   2.653   6.158   3.244
 5186TIP3   OH215442   3.157   6.219   3.291
 5186TIP3    H115443   3.252   6.202   3.297
 5186TIP3    H215444   3.133   6.162   3.216
 5187TIP3   OH215445   3.141   5.793   1.430
 5187TIP3    H115446   3.081   5.719   1.456
 5187TIP3    H215447   3.214   5.743   1.390
 5188TIP3   OH215448   3.790   6.129   3.026
 5188TIP3    H115449   3.786   6.056   3.093
 5188TIP3    H215450   3.871   6.177   3.053
 5189TIP3   OH215451   3.579   5.832   1.326
 5189TIP3    H115452   3.615   5.772   1.394
 5189TIP3    H215453   3.656   5.849   1.270
 5190TIP3   OH215454   2.805   5.660   3.446
 5190TIP3    H115455   2.822   5.564   3.448
 5190TIP3    H215456   2.717   5.663   3.403
 5191TIP3   OH215457   2.783   5.314   1.638
 5191TIP3    H115458   2.835   5.275   1.710
 5191TIP3    H215459   2.851   5.316   1.567
 5192TIP3   OH215460   3.413   5.744   3.220
 5192TIP3    H115461   3.374   5.762   3.132
 5192TIP3    H215462   3.446   5.652   3.211
 5193TIP3   OH215463   3.288   5.510   1.443
 5193TIP3    H115464   3.291   5.522   1.540
 5193TIP3    H215465   3.290   5.411   1.438
 5194TIP3   OH215466   3.903   5.751   2.827
 5194TIP3    H115467   3.978   5.793   2.780
 5194TIP3    H215468   3.835   5.821   2.814
 5195TIP3   OH215469   2.922   5.391   3.428
 5195TIP3    H115470   3.001   5.339   3.406
 5195TIP3    H215471   2.947   5.426   3.516
 5196TIP3   OH215472   2.992   5.215   1.862
 5196TIP3    H115473   2.965   5.174   1.945
 5196TIP3    H215474   3.027   5.139   1.811
 5197TIP3   OH215475   3.257   5.277   3.086
 5197TIP3    H115476   3.183   5.340   3.092
 5197TIP3    H215477   3.307   5.311   3.009
 5198TIP3   OH215478   3.091   5.009   1.702
 5198TIP3    H115479   3.065   5.008   1.608
 5198TIP3    H215480   3.188   5.015   1.694
 5199TIP3   OH215481   3.774   5.680   3.223
 5199TIP3    H115482   3.855   5.661   3.174
 5199TIP3    H215483   3.777   5.612   3.293
 5200TIP3   OH215484   3.909   5.342   1.364
 5200TIP3    H115485   3.892   5.292   1.281
 5200TIP3    H215486   3.880   5.431   1.336
 5201TIP3   OH215487   3.380   5.066   3.217
 5201TIP3    H115488   3.383   4.987   3.160
 5201TIP3    H215489   3.339   5.133   3.158
 5202TIP3   OH215490   3.385   4.852   3.023
 5202TIP3    H115491   3.413   4.895   2.940
 5202TIP3    H215492   3.291   4.830   3.003
 5203TIP3   OH215493   3.413   5.387   2.894
 5203TIP3    H115494   3.498   5.397   2.849
 5203TIP3    H215495   3.360   5.458   2.852
 5204TIP3   OH215496   3.997   5.357   3.280
 5204TIP3    H115497   4.046   5.273   3.284
 5204TIP3    H215498   4.065   5.416   3.243
 5205TIP3   OH215499   4.035   5.609   3.014
 5205TIP3    H115500   3.977   5.663   2.954
 5205TIP3    H215501   4.123   5.629   2.973
 5206TIP3   OH215502   3.259   5.181   3.446
 5206TIP3    H115503   3.190   5.113   3.458
 5206TIP3    H215504   3.295   5.156   3.358
 5207TIP3   OH215505   3.517   4.618   3.090
 5207TIP3    H115506   3.470   4.701   3.066
 5207TIP3    H215507   3.447   4.551   3.077
 5208TIP3   OH215508   3.643   5.123   3.306
 5208TIP3    H115509   3.634   5.113   3.402
 5208TIP3    H215510   3.553   5.098   3.278
 5209TIP3   OH215511   3.881   5.072   3.160
 5209TIP3    H115512   3.806   5.073   3.222
 5209TIP3    H215513   3.955   5.042   3.217
 5210TIP3   OH215514   4.103   5.012   3.313
 5210TIP3    H115515   4.124   4.918   3.330
 5210TIP3    H215516   4.108   5.051   3.403
 5211TIP3   OH215517   3.098   4.961   3.498
 5211TIP3    H115518   3.108   4.871   3.461
 5211TIP3    H215519   3.134   4.948   3.588
 5212TIP3   OH215520   3.610   4.626   3.348
 5212TIP3    H115521   3.680   4.557   3.341
 5212TIP3    H215522   3.572   4.621   3.258
 5213TIP3   OH215523   3.675   4.840   3.508
 5213TIP3    H115524   3.653   4.771   3.442
 5213TIP3    H215525   3.599   4.902   3.499
 5214TIP3   OH215526   2.899   6.062   1.600
 5214TIP3    H115527   2.994   6.073   1.582
 5214TIP3    H215528   2.863   6.115   1.527
 5215TIP3   OH215529   2.377   5.453   1.819
 5215TIP3    H115530   2.472   5.474   1.810
 5215TIP3    H215531   2.372   5.364   1.780
 5216TIP3   OH215532   2.296   6.064   2.233
 5216TIP3    H115533   2.225   6.004   2.201
 5216TIP3    H215534   2.338   6.008   2.302
 5217TIP3   OH215535   2.431   5.915   2.420
 5217TIP3    H115536   2.414   5.845   2.486
 5217TIP3    H215537   2.480   5.979   2.476
 5218TIP3   OH215538   4.152   6.332   2.216
 5218TIP3    H115539   4.185   6.360   2.303
 5218TIP3    H215540   4.227   6.353   2.158
 5219TIP3   OH215541   4.184   6.342   2.506
 5219TIP3    H115542   4.139   6.259   2.484
 5219TIP3    H215543   4.258   6.310   2.559
 5220TIP3   OH215544   4.232   6.014   3.077
 5220TIP3    H115545   4.158   6.022   3.141
 5220TIP3    H215546   4.272   6.103   3.082
 5221TIP3   OH215547   4.045   5.530   1.697
 5221TIP3    H115548   4.116   5.591   1.669
 5221TIP3    H215549   4.087   5.488   1.776
 5222TIP3   OH215550   4.171   5.395   1.898
 5222TIP3    H115551   4.110   5.354   1.962
 5222TIP3    H215552   4.241   5.433   1.956
 5223TIP3   OH215553   4.112   5.302   1.548
 5223TIP3    H115554   4.040   5.307   1.482
 5223TIP3    H215555   4.089   5.378   1.605
 5224TIP3   OH215556   3.979   4.977   1.505
 5224TIP3    H115557   3.947   5.013   1.422
 5224TIP3    H215558   3.956   4.882   1.495
 5225TIP3   OH215559   3.986   5.249   2.045
 5225TIP3    H115560   4.000   5.153   2.044
 5225TIP3    H215561   3.975   5.267   2.141
 5226TIP3   OH215562   2.616   5.323   2.794
 5226TIP3    H115563   2.615   5.294   2.701
 5226TIP3    H215564   2.714   5.326   2.811
 5227TIP3   OH215565   4.276   5.675   2.904
 5227TIP3    H115566   4.349   5.610   2.895
 5227TIP3    H215567   4.303   5.746   2.843
 5228TIP3   OH215568   4.462   5.484   2.923
 5228TIP3    H115569   4.389   5.432   2.963
 5228TIP3    H215570   4.537   5.422   2.937
 5229TIP3   OH215571   3.928   4.711   1.491
 5229TIP3    H115572   4.005   4.680   1.542
 5229TIP3    H215573   3.857   4.649   1.516
 5230TIP3   OH215574   3.983   4.965   1.941
 5230TIP3    H115575   4.025   4.877   1.957
 5230TIP3    H215576   4.043   5.000   1.874
 5231TIP3   OH215577   4.149   5.141   2.437
 5231TIP3    H115578   4.235   5.169   2.397
 5231TIP3    H215579   4.161   5.179   2.526
 5232TIP3   OH215580   4.215   5.287   2.669
 5232TIP3    H115581   4.137   5.320   2.718
 5232TIP3    H215582   4.244   5.368   2.623
 5233TIP3   OH215583   2.830   5.009   3.465
 5233TIP3    H115584   2.928   5.005   3.468
 5233TIP3    H215585   2.808   4.926   3.511
 5234TIP3   OH215586   4.094   4.716   1.981
 5234TIP3    H115587   4.143   4.700   2.064
 5234TIP3    H215588   4.035   4.638   1.980
 5235TIP3   OH215589   2.794   4.703   2.801
 5235TIP3    H115590   2.858   4.629   2.810
 5235TIP3    H215591   2.856   4.778   2.795
 5236TIP3   OH215592   2.598   4.977   2.874
 5236TIP3    H115593   2.647   4.969   2.790
 5236TIP3    H215594   2.626   5.064   2.904
 5237TIP3   OH215595   4.546   5.033   3.010
 5237TIP3    H115596   4.468   5.051   3.065
 5237TIP3    H215597   4.531   4.941   2.985
 5238TIP3   OH215598   4.175   4.653   1.611
 5238TIP3    H115599   4.217   4.580   1.561
 5238TIP3    H215600   4.243   4.723   1.606
 5239TIP3   OH215601   2.580   4.482   2.375
 5239TIP3    H115602   2.486   4.479   2.399
 5239TIP3    H215603   2.579   4.539   2.295
 5240TIP3   OH215604   3.731   6.184   1.875
 5240TIP3    H115605   3.792   6.172   1.799
 5240TIP3    H215606   3.781   6.245   1.932
 5241TIP3   OH215607   2.799   4.558   3.189
 5241TIP3    H115608   2.749   4.557   3.272
 5241TIP3    H215609   2.734   4.598   3.128
 5242TIP3   OH215610   2.841   5.982   3.265
 5242TIP3    H115611   2.748   5.959   3.249
 5242TIP3    H215612   2.849   5.972   3.360
 5243TIP3   OH215613   3.019   6.017   2.812
 5243TIP3    H115614   2.970   6.093   2.774
 5243TIP3    H215615   3.106   6.034   2.768
 5244TIP3   OH215616   3.464   6.266   2.951
 5244TIP3    H115617   3.507   6.267   3.039
 5244TIP3    H215618   3.531   6.314   2.897
 5245TIP3   OH215619   3.642   6.415   2.807
 5245TIP3    H115620   3.713   6.362   2.764
 5245TIP3    H215621   3.696   6.471   2.867
 5246TIP3   OH215622   4.439   4.779   2.909
 5246TIP3    H115623   4.347   4.777   2.877
 5246TIP3    H215624   4.467   4.686   2.895
 5247TIP3   OH215625   2.694   6.275   2.837
 5247TIP3    H115626   2.606   6.310   2.812
 5247TIP3    H215627   2.704   6.316   2.924
 5248TIP3   OH215628   2.929   6.252   2.692
 5248TIP3    H115629   2.844   6.266   2.739
 5248TIP3    H215630   2.909   6.291   2.604
 5249TIP3   OH215631   3.357   6.287   2.490
 5249TIP3    H115632   3.287   6.312   2.427
 5249TIP3    H215633   3.373   6.372   2.536
 5250TIP3   OH215634   3.629   6.226   2.542
 5250TIP3    H115635   3.535   6.240   2.521
 5250TIP3    H215636   3.671   6.304   2.503
 5251TIP3   OH215637   3.835   6.426   2.468
 5251TIP3    H115638   3.820   6.506   2.414
 5251TIP3    H215639   3.859   6.360   2.397
 5252TIP3   OH215640   2.610   6.069   2.576
 5252TIP3    H115641   2.631   6.045   2.669
 5252TIP3    H215642   2.684   6.025   2.529
 5253TIP3   OH215643   2.805   5.937   2.430
 5253TIP3    H115644   2.817   5.856   2.485
 5253TIP3    H215645   2.894   5.978   2.437
 5254TIP3   OH215646   3.068   6.029   2.440
 5254TIP3    H115647   3.102   5.937   2.442
 5254TIP3    H215648   3.110   6.064   2.520
 5255TIP3   OH215649   3.639   4.692   2.523
 5255TIP3    H115650   3.599   4.623   2.578
 5255TIP3    H215651   3.715   4.646   2.483
 5256TIP3   OH215652   4.166   4.571   2.433
 5256TIP3    H115653   4.203   4.624   2.360
 5256TIP3    H215654   4.071   4.594   2.428
 5257TIP3   OH215655   4.260   4.674   2.198
 5257TIP3    H115656   4.334   4.622   2.157
 5257TIP3    H215657   4.294   4.765   2.183
 5258TIP3   OH215658   2.891   4.402   2.546
 5258TIP3    H115659   2.799   4.369   2.545
 5258TIP3    H215660   2.941   4.318   2.542
 5259TIP3   OH215661   2.679   4.271   2.193
 5259TIP3    H115662   2.707   4.329   2.120
 5259TIP3    H215663   2.648   4.335   2.259
 5260TIP3   OH215664   3.333   4.436   2.425
 5260TIP3    H115665   3.392   4.485   2.366
 5260TIP3    H215666   3.357   4.472   2.511
 5261TIP3   OH215667   3.880   4.581   2.411
 5261TIP3    H115668   3.881   4.545   2.321
 5261TIP3    H215669   3.867   4.499   2.464
 5262TIP3   OH215670   3.911   4.502   1.971
 5262TIP3    H115671   3.824   4.545   1.982
 5262TIP3    H215672   3.897   4.418   2.018
 5263TIP3   OH215673   2.399   5.839   1.969
 5263TIP3    H115674   2.312   5.809   1.937
 5263TIP3    H215675   2.385   5.935   1.965
 5264TIP3   OH215676   2.794   4.432   1.957
 5264TIP3    H115677   2.843   4.369   1.900
 5264TIP3    H215678   2.867   4.486   1.993
 5265TIP3   OH215679   3.307   4.605   2.055
 5265TIP3    H115680   3.368   4.560   2.116
 5265TIP3    H215681   3.327   4.698   2.080
 5266TIP3   OH215682   3.171   6.036   1.561
 5266TIP3    H115683   3.259   6.057   1.521
 5266TIP3    H215684   3.147   5.960   1.502
 5267TIP3   OH215685   3.882   6.148   1.646
 5267TIP3    H115686   3.871   6.051   1.631
 5267TIP3    H215687   3.842   6.184   1.565
 5268TIP3   OH215688   3.098   4.681   3.435
 5268TIP3    H115689   3.066   4.611   3.495
 5268TIP3    H215690   3.193   4.684   3.460
 5269TIP3   OH215691   3.346   4.680   3.554
 5269TIP3    H115692   3.432   4.658   3.513
 5269TIP3    H215693   3.337   4.608   3.620
 5270TIP3   OH215694   2.470   5.871   1.611
 5270TIP3    H115695   2.462   5.895   1.705
 5270TIP3    H215696   2.559   5.828   1.608
 5271TIP3   OH215697   4.171   4.742   3.343
 5271TIP3    H115698   4.196   4.715   3.433
 5271TIP3    H215699   4.257   4.739   3.297
 5272TIP3   OH215700   4.112   6.294   2.836
 5272TIP3    H115701   4.030   6.265   2.790
 5272TIP3    H215702   4.094   6.390   2.839
 5273TIP3   OH215703   5.378   5.665   1.603
 5273TIP3    H115704   5.350   5.757   1.582
 5273TIP3    H215705   5.301   5.616   1.568
 5274TIP3   OH215706   5.377   5.666   1.981
 5274TIP3    H115707   5.407   5.636   2.068
 5274TIP3    H215708   5.334   5.586   1.945
 5275TIP3   OH215709   4.684   5.564   2.345
 5275TIP3    H115710   4.713   5.497   2.410
 5275TIP3    H215711   4.761   5.623   2.342
 5276TIP3   OH215712   5.620   5.966   1.664
 5276TIP3    H115713   5.607   5.899   1.731
 5276TIP3    H215714   5.648   6.043   1.716
 5277TIP3   OH215715   4.650   5.971   2.074
 5277TIP3    H115716   4.639   5.874   2.077
 5277TIP3    H215717   4.747   5.978   2.066
 5278TIP3   OH215718   4.354   5.173   1.858
 5278TIP3    H115719   4.310   5.258   1.875
 5278TIP3    H215720   4.281   5.122   1.820
 5279TIP3   OH215721   4.410   5.457   2.018
 5279TIP3    H115722   4.460   5.388   2.067
 5279TIP3    H215723   4.479   5.494   1.961
 5280TIP3   OH215724   5.267   6.429   1.679
 5280TIP3    H115725   5.315   6.358   1.631
 5280TIP3    H215726   5.263   6.394   1.768
 5281TIP3   OH215727   5.176   5.890   2.031
 5281TIP3    H115728   5.214   5.815   1.982
 5281TIP3    H215729   5.259   5.936   2.055
 5282TIP3   OH215730   6.188   5.211   2.028
 5282TIP3    H115731   6.216   5.294   2.072
 5282TIP3    H215732   6.209   5.232   1.935
 5283TIP3   OH215733   5.587   5.393   2.064
 5283TIP3    H115734   5.631   5.307   2.083
 5283TIP3    H215735   5.557   5.379   1.973
 5284TIP3   OH215736   4.925   5.052   2.029
 5284TIP3    H115737   4.905   5.125   1.967
 5284TIP3    H215738   4.876   4.979   1.985
 5285TIP3   OH215739   5.619   5.144   1.652
 5285TIP3    H115740   5.692   5.128   1.716
 5285TIP3    H215741   5.668   5.179   1.576
 5286TIP3   OH215742   4.559   5.255   2.136
 5286TIP3    H115743   4.642   5.235   2.183
 5286TIP3    H215744   4.572   5.201   2.055
 5287TIP3   OH215745   5.001   5.453   1.926
 5287TIP3    H115746   5.094   5.427   1.941
 5287TIP3    H215747   4.961   5.369   1.895
 5288TIP3   OH215748   6.260   5.417   2.200
 5288TIP3    H115749   6.178   5.467   2.181
 5288TIP3    H215750   6.282   5.451   2.289
 5289TIP3   OH215751   4.922   5.035   2.464
 5289TIP3    H115752   4.863   5.073   2.396
 5289TIP3    H215753   4.870   5.054   2.544
 5290TIP3   OH215754   5.269   5.885   1.473
 5290TIP3    H115755   5.229   5.866   1.387
 5290TIP3    H215756   5.227   5.971   1.494
 5291TIP3   OH215757   5.029   5.811   2.260
 5291TIP3    H115758   4.965   5.876   2.297
 5291TIP3    H215759   5.071   5.862   2.188
 5292TIP3   OH215760   5.831   5.145   1.822
 5292TIP3    H115761   5.823   5.096   1.905
 5292TIP3    H215762   5.885   5.222   1.849
 5293TIP3   OH215763   4.793   5.150   2.248
 5293TIP3    H115764   4.854   5.224   2.270
 5293TIP3    H215765   4.842   5.110   2.173
 5294TIP3   OH215766   4.856   6.004   2.355
 5294TIP3    H115767   4.830   6.089   2.315
 5294TIP3    H215768   4.777   5.990   2.412
 5295TIP3   OH215769   4.251   5.695   1.593
 5295TIP3    H115770   4.214   5.724   1.507
 5295TIP3    H215771   4.284   5.779   1.630
 5296TIP3   OH215772   5.691   6.209   1.832
 5296TIP3    H115773   5.601   6.202   1.870
 5296TIP3    H215774   5.684   6.295   1.786
 5297TIP3   OH215775   5.981   5.110   2.194
 5297TIP3    H115776   5.894   5.141   2.165
 5297TIP3    H215777   6.040   5.142   2.123
 5298TIP3   OH215778   5.281   4.756   2.177
 5298TIP3    H115779   5.266   4.660   2.193
 5298TIP3    H215780   5.203   4.793   2.223
 5299TIP3   OH215781   5.393   6.257   1.507
 5299TIP3    H115782   5.443   6.176   1.484
 5299TIP3    H215783   5.452   6.324   1.465
 5300TIP3   OH215784   5.533   6.042   1.412
 5300TIP3    H115785   5.501   5.962   1.369
 5300TIP3    H215786   5.570   6.007   1.496
 5301TIP3   OH215787   5.916   6.124   2.176
 5301TIP3    H115788   5.907   6.047   2.115
 5301TIP3    H215789   5.900   6.199   2.115
 5302TIP3   OH215790   5.208   5.517   1.431
 5302TIP3    H115791   5.128   5.568   1.408
 5302TIP3    H215792   5.255   5.515   1.346
 5303TIP3   OH215793   5.168   5.301   1.150
 5303TIP3    H115794   5.237   5.351   1.197
 5303TIP3    H215795   5.225   5.237   1.101
 5304TIP3   OH215796   6.111   5.758   2.019
 5304TIP3    H115797   6.030   5.812   2.025
 5304TIP3    H215798   6.142   5.783   1.929
 5305TIP3   OH215799   5.555   5.599   1.405
 5305TIP3    H115800   5.501   5.625   1.483
 5305TIP3    H215801   5.638   5.573   1.448
 5306TIP3   OH215802   5.791   5.639   2.315
 5306TIP3    H115803   5.789   5.724   2.363
 5306TIP3    H215804   5.705   5.644   2.269
 5307TIP3   OH215805   4.788   5.598   1.821
 5307TIP3    H115806   4.747   5.540   1.753
 5307TIP3    H215807   4.866   5.545   1.848
 5308TIP3   OH215808   4.919   6.009   1.969
 5308TIP3    H115809   4.898   5.965   1.885
 5308TIP3    H215810   5.009   5.976   1.987
 5309TIP3   OH215811   4.930   5.568   2.174
 5309TIP3    H115812   4.960   5.550   2.083
 5309TIP3    H215813   4.970   5.655   2.194
 5310TIP3   OH215814   5.449   6.207   1.951
 5310TIP3    H115815   5.435   6.287   2.005
 5310TIP3    H215816   5.435   6.134   2.015
 5311TIP3   OH215817   5.061   6.125   2.500
 5311TIP3    H115818   5.002   6.189   2.545
 5311TIP3    H215819   4.995   6.072   2.450
 5312TIP3   OH215820   5.397   5.458   1.228
 5312TIP3    H115821   5.456   5.516   1.281
 5312TIP3    H215822   5.425   5.482   1.136
 5313TIP3   OH215823   4.816   5.681   2.600
 5313TIP3    H115824   4.820   5.768   2.644
 5313TIP3    H215825   4.720   5.663   2.606
 5314TIP3   OH215826   5.139   6.139   1.505
 5314TIP3    H115827   5.218   6.192   1.524
 5314TIP3    H215828   5.078   6.204   1.467
 5315TIP3   OH215829   4.857   6.295   2.585
 5315TIP3    H115830   4.823   6.292   2.494
 5315TIP3    H215831   4.777   6.273   2.638
 5316TIP3   OH215832   5.913   4.699   1.279
 5316TIP3    H115833   5.831   4.720   1.329
 5316TIP3    H215834   5.926   4.782   1.228
 5317TIP3   OH215835   4.655   5.440   1.625
 5317TIP3    H115836   4.589   5.485   1.568
 5317TIP3    H215837   4.612   5.355   1.639
 5318TIP3   OH215838   5.711   6.066   0.833
 5318TIP3    H115839   5.721   6.163   0.817
 5318TIP3    H215840   5.804   6.036   0.821
 5319TIP3   OH215841   4.438   5.826   2.531
 5319TIP3    H115842   4.366   5.812   2.465
 5319TIP3    H215843   4.469   5.735   2.550
 5320TIP3   OH215844   4.300   6.042   2.126
 5320TIP3    H115845   4.382   6.001   2.154
 5320TIP3    H215846   4.251   6.047   2.209
 5321TIP3   OH215847   6.154   6.467   2.222
 5321TIP3    H115848   6.152   6.371   2.235
 5321TIP3    H215849   6.071   6.493   2.266
 5322TIP3   OH215850   5.261   6.255   2.356
 5322TIP3    H115851   5.260   6.348   2.388
 5322TIP3    H215852   5.189   6.216   2.410
 5323TIP3   OH215853   5.017   6.383   1.308
 5323TIP3    H115854   4.975   6.365   1.222
 5323TIP3    H215855   4.988   6.474   1.329
 5324TIP3   OH215856   4.458   6.234   1.691
 5324TIP3    H115857   4.508   6.225   1.775
 5324TIP3    H215858   4.397   6.158   1.700
 5325TIP3   OH215859   5.222   6.282   0.949
 5325TIP3    H115860   5.282   6.215   0.911
 5325TIP3    H215861   5.258   6.292   1.039
 5326TIP3   OH215862   5.271   6.334   1.219
 5326TIP3    H115863   5.184   6.341   1.263
 5326TIP3    H215864   5.324   6.293   1.289
 5327TIP3   OH215865   6.044   5.599   2.497
 5327TIP3    H115866   5.965   5.614   2.442
 5327TIP3    H215867   6.058   5.503   2.484
 5328TIP3   OH215868   4.642   6.008   2.524
 5328TIP3    H115869   4.692   5.989   2.606
 5328TIP3    H215870   4.568   5.945   2.529
 5329TIP3   OH215871   5.040   4.830   2.305
 5329TIP3    H115872   4.951   4.800   2.280
 5329TIP3    H215873   5.016   4.914   2.350
 5330TIP3   OH215874   5.573   4.947   2.501
 5330TIP3    H115875   5.639   4.915   2.565
 5330TIP3    H215876   5.487   4.924   2.544
 5331TIP3   OH215877   5.813   5.375   2.415
 5331TIP3    H115878   5.764   5.372   2.500
 5331TIP3    H215879   5.790   5.463   2.380
 5332TIP3   OH215880   5.475   5.511   0.972
 5332TIP3    H115881   5.446   5.475   0.886
 5332TIP3    H215882   5.535   5.581   0.944
 5333TIP3   OH215883   5.184   4.881   1.275
 5333TIP3    H115884   5.153   4.879   1.367
 5333TIP3    H215885   5.147   4.796   1.243
 5334TIP3   OH215886   4.972   5.345   2.324
 5334TIP3    H115887   4.920   5.366   2.404
 5334TIP3    H215888   4.956   5.426   2.270
 5335TIP3   OH215889   4.856   5.232   1.837
 5335TIP3    H115890   4.763   5.207   1.854
 5335TIP3    H215891   4.869   5.192   1.749
 5336TIP3   OH215892   5.345   5.318   1.564
 5336TIP3    H115893   5.292   5.390   1.523
 5336TIP3    H215894   5.401   5.289   1.489
 5337TIP3   OH215895   5.520   5.595   2.652
 5337TIP3    H115896   5.499   5.524   2.716
 5337TIP3    H215897   5.613   5.612   2.673
 5338TIP3   OH215898   5.503   5.348   1.805
 5338TIP3    H115899   5.445   5.379   1.733
 5338TIP3    H215900   5.536   5.266   1.762
 5339TIP3   OH215901   4.793   5.376   2.533
 5339TIP3    H115902   4.812   5.440   2.602
 5339TIP3    H215903   4.778   5.294   2.584
 5340TIP3   OH215904   4.840   4.852   1.242
 5340TIP3    H115905   4.833   4.850   1.340
 5340TIP3    H215906   4.761   4.904   1.218
 5341TIP3   OH215907   4.383   4.898   2.113
 5341TIP3    H115908   4.458   4.930   2.167
 5341TIP3    H215909   4.426   4.867   2.032
 5342TIP3   OH215910   4.357   4.878   1.632
 5342TIP3    H115911   4.402   4.918   1.555
 5342TIP3    H215912   4.297   4.952   1.655
 5343TIP3   OH215913   5.514   5.594   2.228
 5343TIP3    H115914   5.546   5.522   2.169
 5343TIP3    H215915   5.484   5.542   2.305
 5344TIP3   OH215916   5.182   5.054   1.900
 5344TIP3    H115917   5.099   5.053   1.952
 5344TIP3    H215918   5.249   5.056   1.969
 5345TIP3   OH215919   4.617   5.110   1.907
 5345TIP3    H115920   4.523   5.117   1.881
 5345TIP3    H215921   4.641   5.019   1.883
 5346TIP3   OH215922   4.887   5.107   1.595
 5346TIP3    H115923   4.982   5.122   1.574
 5346TIP3    H215924   4.842   5.131   1.511
 5347TIP3   OH215925   5.675   5.130   2.102
 5347TIP3    H115926   5.638   5.142   2.192
 5347TIP3    H215927   5.610   5.069   2.063
 5348TIP3   OH215928   4.726   5.140   1.373
 5348TIP3    H115929   4.655   5.095   1.323
 5348TIP3    H215930   4.779   5.177   1.300
 5349TIP3   OH215931   5.844   6.819   2.319
 5349TIP3    H115932   5.842   6.843   2.225
 5349TIP3    H215933   5.923   6.868   2.350
 5350TIP3   OH215934   4.802   5.928   2.742
 5350TIP3    H115935   4.881   5.960   2.789
 5350TIP3    H215936   4.737   5.928   2.815
 5351TIP3   OH215937   5.266   5.382   1.996
 5351TIP3    H115938   5.339   5.343   1.944
 5351TIP3    H215939   5.279   5.340   2.083
 5352TIP3   OH215940   4.789   4.871   1.874
 5352TIP3    H115941   4.758   4.790   1.919
 5352TIP3    H215942   4.841   4.835   1.800
 5353TIP3   OH215943   5.242   5.276   2.290
 5353TIP3    H115944   5.153   5.314   2.301
 5353TIP3    H215945   5.299   5.339   2.338
 5354TIP3   OH215946   4.979   5.671   1.380
 5354TIP3    H115947   4.906   5.606   1.370
 5354TIP3    H215948   4.962   5.704   1.472
 5355TIP3   OH215949   5.881   5.906   2.011
 5355TIP3    H115950   5.905   5.955   1.930
 5355TIP3    H215951   5.794   5.866   1.986
 5356TIP3   OH215952   5.438   4.981   1.247
 5356TIP3    H115953   5.341   4.967   1.250
 5356TIP3    H215954   5.449   5.077   1.264
 5357TIP3   OH215955   5.378   5.987   2.379
 5357TIP3    H115956   5.400   5.969   2.471
 5357TIP3    H215957   5.341   6.077   2.383
 5358TIP3   OH215958   5.507   5.230   1.346
 5358TIP3    H115959   5.604   5.236   1.360
 5358TIP3    H215960   5.489   5.308   1.290
 5359TIP3   OH215961   4.670   5.690   2.058
 5359TIP3    H115962   4.711   5.663   1.974
 5359TIP3    H215963   4.709   5.628   2.121
 5360TIP3   OH215964   5.125   5.820   1.201
 5360TIP3    H115965   5.078   5.906   1.208
 5360TIP3    H215966   5.071   5.764   1.261
 5361TIP3   OH215967   4.552   5.609   2.669
 5361TIP3    H115968   4.572   5.599   2.764
 5361TIP3    H215969   4.480   5.544   2.658
 5362TIP3   OH215970   5.276   5.725   2.692
 5362TIP3    H115971   5.216   5.669   2.640
 5362TIP3    H215972   5.363   5.693   2.662
 5363TIP3   OH215973   5.540   6.245   2.276
 5363TIP3    H115974   5.443   6.246   2.286
 5363TIP3    H215975   5.567   6.299   2.353
 5364TIP3   OH215976   5.948   5.317   1.180
 5364TIP3    H115977   5.886   5.272   1.118
 5364TIP3    H215978   5.943   5.406   1.139
 5365TIP3   OH215979   6.167   6.175   2.265
 5365TIP3    H115980   6.069   6.171   2.256
 5365TIP3    H215981   6.193   6.147   2.175
 5366TIP3   OH215982   5.646   6.140   1.092
 5366TIP3    H115983   5.625   6.066   1.150
 5366TIP3    H215984   5.662   6.097   1.006
 5367TIP3   OH215985   5.645   5.768   1.932
 5367TIP3    H115986   5.551   5.742   1.943
 5367TIP3    H215987   5.680   5.689   1.885
 5368TIP3   OH215988   4.772   5.994   1.681
 5368TIP3    H115989   4.774   6.076   1.628
 5368TIP3    H215990   4.677   5.983   1.694
 5369TIP3   OH215991   4.334   5.301   1.383
 5369TIP3    H115992   4.383   5.383   1.404
 5369TIP3    H215993   4.259   5.307   1.446
 5370TIP3   OH215994   4.912   5.761   1.627
 5370TIP3    H115995   4.877   5.851   1.644
 5370TIP3    H215996   4.875   5.713   1.703
 5371TIP3   OH215997   5.041   6.340   2.152
 5371TIP3    H115998   5.081   6.413   2.100
 5371TIP3    H215999   5.119   6.307   2.200
 5372TIP3   OH216000   4.692   6.235   1.535
 5372TIP3    H116001   4.606   6.242   1.581
 5372TIP3    H216002   4.723   6.328   1.538
 5373TIP3   OH216003   5.431   5.974   2.110
 5373TIP3    H116004   5.422   5.972   2.208
 5373TIP3    H216005   5.511   5.923   2.096
 5374TIP3   OH216006   5.399   5.862   1.002
 5374TIP3    H116007   5.454   5.842   1.081
 5374TIP3    H216008   5.311   5.840   1.035
 5375TIP3   OH216009   5.678   6.509   2.161
 5375TIP3    H116010   5.599   6.453   2.151
 5375TIP3    H216011   5.665   6.574   2.088
 5376TIP3   OH216012   5.744   6.340   0.818
 5376TIP3    H116013   5.770   6.402   0.748
 5376TIP3    H216014   5.666   6.388   0.851
 5377TIP3   OH216015   4.763   5.117   2.680
 5377TIP3    H116016   4.667   5.125   2.695
 5377TIP3    H216017   4.790   5.058   2.752
 5378TIP3   OH216018   5.563   5.802   1.214
 5378TIP3    H116019   5.556   5.733   1.283
 5378TIP3    H216020   5.660   5.800   1.198
 5379TIP3   OH216021   4.483   6.213   2.315
 5379TIP3    H116022   4.527   6.129   2.337
 5379TIP3    H216023   4.520   6.272   2.381
 5380TIP3   OH216024   4.768   5.848   0.992
 5380TIP3    H116025   4.787   5.757   0.963
 5380TIP3    H216026   4.751   5.835   1.087
 5381TIP3   OH216027   4.715   5.852   1.266
 5381TIP3    H116028   4.788   5.825   1.324
 5381TIP3    H216029   4.720   5.950   1.272
 5382TIP3   OH216030   4.451   5.545   1.467
 5382TIP3    H116031   4.387   5.591   1.525
 5382TIP3    H216032   4.469   5.615   1.402
 5383TIP3   OH216033   5.598   5.184   2.360
 5383TIP3    H116034   5.680   5.221   2.397
 5383TIP3    H216035   5.584   5.103   2.414
 5384TIP3   OH216036   5.478   4.935   1.524
 5384TIP3    H116037   5.465   4.957   1.430
 5384TIP3    H216038   5.518   5.018   1.559
 5385TIP3   OH216039   4.980   6.049   1.213
 5385TIP3    H116040   4.894   6.079   1.248
 5385TIP3    H216041   5.000   6.120   1.151
 5386TIP3   OH216042   5.170   5.112   1.626
 5386TIP3    H116043   5.235   5.183   1.607
 5386TIP3    H216044   5.176   5.107   1.724
 5387TIP3   OH216045   5.438   5.432   2.435
 5387TIP3    H116046   5.459   5.487   2.513
 5387TIP3    H216047   5.495   5.354   2.447
 5388TIP3   OH216048   5.316   4.842   1.730
 5388TIP3    H116049   5.306   4.919   1.788
 5388TIP3    H216050   5.375   4.878   1.661
 5389TIP3   OH216051   4.722   6.125   1.280
 5389TIP3    H116052   4.694   6.196   1.217
 5389TIP3    H216053   4.708   6.169   1.366
 5390TIP3   OH216054   4.825   4.838   1.520
 5390TIP3    H116055   4.823   4.929   1.554
 5390TIP3    H216056   4.921   4.819   1.527
 5391TIP3   OH216057   6.080   5.331   2.417
 5391TIP3    H116058   5.982   5.329   2.420
 5391TIP3    H216059   6.095   5.299   2.327
 5392TIP3   OH216060   5.731   5.527   1.803
 5392TIP3    H116061   5.655   5.467   1.815
 5392TIP3    H216062   5.802   5.479   1.851
 5393TIP3   OH216063   4.441   5.758   1.273
 5393TIP3    H116064   4.507   5.828   1.284
 5393TIP3    H216065   4.488   5.703   1.206
 5394TIP3   OH216066   4.388   5.031   1.408
 5394TIP3    H116067   4.388   5.129   1.402
 5394TIP3    H216068   4.307   5.007   1.362
 5395TIP3   OH216069   5.699   6.481   1.753
 5395TIP3    H116070   5.656   6.528   1.678
 5395TIP3    H216071   5.793   6.501   1.733
 5396TIP3   OH216072   4.776   4.751   2.281
 5396TIP3    H116073   4.744   4.719   2.194
 5396TIP3    H216074   4.764   4.672   2.338
 5397TIP3   OH216075   4.314   5.963   1.661
 5397TIP3    H116076   4.251   6.000   1.724
 5397TIP3    H216077   4.288   6.009   1.578
 5398TIP3   OH216078   4.470   6.510   2.733
 5398TIP3    H116079   4.556   6.508   2.779
 5398TIP3    H216080   4.449   6.415   2.729
 5399TIP3   OH216081   4.953   6.476   2.778
 5399TIP3    H116082   5.048   6.458   2.783
 5399TIP3    H216083   4.928   6.419   2.703
 5400TIP3   OH216084   4.933   6.052   0.905
 5400TIP3    H116085   4.879   5.980   0.944
 5400TIP3    H216086   5.010   6.001   0.873
 5401TIP3   OH216087   5.591   6.383   2.510
 5401TIP3    H116088   5.583   6.312   2.578
 5401TIP3    H216089   5.669   6.433   2.540
 5402TIP3   OH216090   5.370   6.092   0.815
 5402TIP3    H116091   5.414   6.024   0.869
 5402TIP3    H216092   5.428   6.094   0.736
 5403TIP3   OH216093   4.601   5.917   2.933
 5403TIP3    H116094   4.619   5.821   2.935
 5403TIP3    H216095   4.513   5.919   2.889
 5404TIP3   OH216096   4.577   5.568   1.125
 5404TIP3    H116097   4.633   5.535   1.198
 5404TIP3    H216098   4.644   5.573   1.054
 5405TIP3   OH216099   5.209   6.001   2.706
 5405TIP3    H116100   5.167   6.018   2.619
 5405TIP3    H216101   5.240   5.908   2.697
 5406TIP3   OH216102   5.081   5.765   0.932
 5406TIP3    H116103   5.088   5.780   1.028
 5406TIP3    H216104   5.085   5.667   0.928
 5407TIP3   OH216105   5.702   6.009   2.312
 5407TIP3    H116106   5.776   6.054   2.267
 5407TIP3    H216107   5.631   6.075   2.300
 5408TIP3   OH216108   4.717   5.653   2.914
 5408TIP3    H116109   4.788   5.590   2.894
 5408TIP3    H216110   4.744   5.683   3.004
 5409TIP3   OH216111   4.785   5.471   1.347
 5409TIP3    H116112   4.762   5.429   1.431
 5409TIP3    H216113   4.822   5.396   1.296
 5410TIP3   OH216114   5.057   5.537   2.579
 5410TIP3    H116115   4.978   5.595   2.581
 5410TIP3    H216116   5.103   5.569   2.497
 5411TIP3   OH216117   4.887   5.264   1.189
 5411TIP3    H116118   4.861   5.266   1.095
 5411TIP3    H216119   4.985   5.271   1.181
 5412TIP3   OH216120   5.570   5.937   2.710
 5412TIP3    H116121   5.652   5.919   2.662
 5412TIP3    H216122   5.572   5.870   2.780
 5413TIP3   OH216123   5.183   5.324   2.701
 5413TIP3    H116124   5.179   5.244   2.645
 5413TIP3    H216125   5.138   5.391   2.645
 5414TIP3   OH216126   5.180   5.110   2.512
 5414TIP3    H116127   5.208   5.151   2.427
 5414TIP3    H216128   5.087   5.087   2.492
 5415TIP3   OH216129   5.210   5.647   2.383
 5415TIP3    H116130   5.292   5.655   2.331
 5415TIP3    H216131   5.153   5.715   2.340
 5416TIP3   OH216132   5.793   5.614   2.765
 5416TIP3    H116133   5.845   5.532   2.768
 5416TIP3    H216134   5.858   5.677   2.730
 5417TIP3   OH216135   5.832   5.865   2.500
 5417TIP3    H116136   5.774   5.919   2.440
 5417TIP3    H216137   5.919   5.885   2.459
 5418TIP3   OH216138   5.064   5.434   2.935
 5418TIP3    H116139   4.992   5.368   2.947
 5418TIP3    H216140   5.093   5.413   2.844
 5419TIP3   OH216141   5.317   4.876   2.574
 5419TIP3    H116142   5.267   4.959   2.556
 5419TIP3    H216143   5.247   4.809   2.569
 5420TIP3   OH216144   5.442   5.374   2.796
 5420TIP3    H116145   5.416   5.367   2.889
 5420TIP3    H216146   5.355   5.353   2.755
 5421TIP3   OH216147   5.677   5.328   2.644
 5421TIP3    H116148   5.602   5.333   2.706
 5421TIP3    H216149   5.751   5.300   2.703
 5422TIP3   OH216150   5.896   5.265   2.801
 5422TIP3    H116151   5.920   5.173   2.820
 5422TIP3    H216152   5.904   5.309   2.888
 5423TIP3   OH216153   4.900   5.217   2.982
 5423TIP3    H116154   4.897   5.126   2.949
 5423TIP3    H216155   4.923   5.202   3.076
 5424TIP3   OH216156   4.693   6.327   1.092
 5424TIP3    H116157   4.789   6.323   1.074
 5424TIP3    H216158   4.665   6.376   1.013
 5425TIP3   OH216159   4.173   5.709   1.308
 5425TIP3    H116160   4.267   5.733   1.296
 5425TIP3    H216161   4.170   5.620   1.267
 5426TIP3   OH216162   4.086   6.320   1.722
 5426TIP3    H116163   4.020   6.257   1.690
 5426TIP3    H216164   4.132   6.265   1.790
 5427TIP3   OH216165   4.226   6.176   1.904
 5427TIP3    H116166   4.229   6.103   1.970
 5427TIP3    H216167   4.273   6.242   1.959
 5428TIP3   OH216168   5.951   6.574   1.709
 5428TIP3    H116169   5.978   6.609   1.795
 5428TIP3    H216170   6.012   6.618   1.648
 5429TIP3   OH216171   5.980   6.595   1.992
 5429TIP3    H116172   5.939   6.506   1.987
 5429TIP3    H216173   6.058   6.575   2.046
 5430TIP3   OH216174   6.028   6.270   2.564
 5430TIP3    H116175   5.954   6.279   2.628
 5430TIP3    H216176   6.069   6.359   2.568
 5431TIP3   OH216177   5.841   5.781   1.183
 5431TIP3    H116178   5.909   5.846   1.154
 5431TIP3    H216179   5.886   5.742   1.260
 5432TIP3   OH216180   5.972   5.649   1.387
 5432TIP3    H116181   5.904   5.609   1.446
 5432TIP3    H216182   6.034   5.690   1.450
 5433TIP3   OH216183   6.023   6.042   1.820
 5433TIP3    H116184   6.078   5.980   1.768
 5433TIP3    H216185   6.016   6.118   1.760
 5434TIP3   OH216186   5.857   6.342   2.016
 5434TIP3    H116187   5.786   6.386   2.067
 5434TIP3    H216188   5.807   6.295   1.947
 5435TIP3   OH216189   5.913   5.555   1.034
 5435TIP3    H116190   5.870   5.562   0.945
 5435TIP3    H216191   5.876   5.634   1.078
 5436TIP3   OH216192   5.779   5.233   0.985
 5436TIP3    H116193   5.740   5.267   0.904
 5436TIP3    H216194   5.752   5.138   0.979
 5437TIP3   OH216195   5.785   5.506   1.534
 5437TIP3    H116196   5.793   5.410   1.529
 5437TIP3    H216197   5.772   5.521   1.630
 5438TIP3   OH216198   4.418   5.548   2.295
 5438TIP3    H116199   4.402   5.559   2.200
 5438TIP3    H216200   4.515   5.568   2.300
 5439TIP3   OH216201   6.073   5.931   2.391
 5439TIP3    H116202   6.147   5.867   2.382
 5439TIP3    H216203   6.101   6.003   2.331
 5440TIP3   OH216204   6.258   5.738   2.410
 5440TIP3    H116205   6.185   5.687   2.450
 5440TIP3    H216206   6.332   5.675   2.423
 5441TIP3   OH216207   5.724   4.967   0.983
 5441TIP3    H116208   5.799   4.932   1.035
 5441TIP3    H216209   5.651   4.906   1.003
 5442TIP3   OH216210   5.782   5.223   1.431
 5442TIP3    H116211   5.823   5.135   1.446
 5442TIP3    H216212   5.838   5.256   1.358
 5443TIP3   OH216213   5.944   5.398   1.925
 5443TIP3    H116214   6.030   5.425   1.884
 5443TIP3    H216215   5.957   5.435   2.014
 5444TIP3   OH216216   6.011   5.541   2.159
 5444TIP3    H116217   5.933   5.576   2.205
 5444TIP3    H216218   6.044   5.621   2.112
 5445TIP3   OH216219   4.637   5.283   2.959
 5445TIP3    H116220   4.733   5.267   2.958
 5445TIP3    H216221   4.606   5.194   2.989
 5446TIP3   OH216222   6.460   5.128   2.714
 5446TIP3    H116223   6.520   5.064   2.670
 5446TIP3    H216224   6.435   5.186   2.639
 5447TIP3   OH216225   5.891   4.973   1.468
 5447TIP3    H116226   5.938   4.956   1.552
 5447TIP3    H216227   5.830   4.896   1.465
 5448TIP3   OH216228   4.590   4.959   2.286
 5448TIP3    H116229   4.654   4.886   2.297
 5448TIP3    H216230   4.651   5.035   2.281
 5449TIP3   OH216231   4.395   5.236   2.360
 5449TIP3    H116232   4.443   5.226   2.276
 5449TIP3    H216233   4.414   5.329   2.380
 5450TIP3   OH216234   6.335   5.273   2.521
 5450TIP3    H116235   6.247   5.312   2.538
 5450TIP3    H216236   6.309   5.201   2.460
 5451TIP3   OH216237   5.975   4.906   1.102
 5451TIP3    H116238   6.012   4.835   1.046
 5451TIP3    H216239   6.039   4.979   1.090
 5452TIP3   OH216240   4.376   4.735   1.860
 5452TIP3    H116241   4.283   4.736   1.887
 5452TIP3    H216242   4.376   4.794   1.782
 5453TIP3   OH216243   5.534   6.440   1.367
 5453TIP3    H116244   5.585   6.424   1.284
 5453TIP3    H216245   5.589   6.506   1.411
 5454TIP3   OH216246   4.595   4.813   2.674
 5454TIP3    H116247   4.549   4.815   2.759
 5454TIP3    H216248   4.529   4.855   2.616
 5455TIP3   OH216249   4.636   6.244   2.753
 5455TIP3    H116250   4.545   6.215   2.734
 5455TIP3    H216251   4.643   6.226   2.847
 5456TIP3   OH216252   4.815   6.275   2.301
 5456TIP3    H116253   4.764   6.349   2.262
 5456TIP3    H216254   4.900   6.291   2.255
 5457TIP3   OH216255   5.261   6.521   2.437
 5457TIP3    H116256   5.302   6.522   2.526
 5457TIP3    H216257   5.327   6.571   2.385
 5458TIP3   OH216258   5.439   6.672   2.295
 5458TIP3    H116259   5.511   6.622   2.254
 5458TIP3    H216260   5.490   6.730   2.356
 5459TIP3   OH216261   6.233   5.035   2.398
 5459TIP3    H116262   6.143   5.031   2.361
 5459TIP3    H216263   6.263   4.942   2.383
 5460TIP3   OH216264   4.494   6.539   2.322
 5460TIP3    H116265   4.404   6.570   2.297
 5460TIP3    H216266   4.498   6.567   2.414
 5461TIP3   OH216267   4.729   6.512   2.180
 5461TIP3    H116268   4.643   6.525   2.226
 5461TIP3    H216269   4.707   6.544   2.090
 5462TIP3   OH216270   5.154   6.541   1.978
 5462TIP3    H116271   5.085   6.562   1.912
 5462TIP3    H216272   5.167   6.629   2.021
 5463TIP3   OH216273   5.422   6.480   2.030
 5463TIP3    H116274   5.328   6.497   2.010
 5463TIP3    H216275   5.465   6.557   1.988
 5464TIP3   OH216276   5.629   6.673   1.945
 5464TIP3    H116277   5.615   6.758   1.898
 5464TIP3    H216278   5.655   6.613   1.872
 5465TIP3   OH216279   4.403   6.332   2.069
 5465TIP3    H116280   4.424   6.298   2.159
 5465TIP3    H216281   4.472   6.284   2.018
 5466TIP3   OH216282   4.595   6.198   1.923
 5466TIP3    H116283   4.608   6.115   1.974
 5466TIP3    H216284   4.686   6.235   1.922
 5467TIP3   OH216285   4.862   6.294   1.927
 5467TIP3    H116286   4.893   6.203   1.915
 5467TIP3    H216287   4.905   6.316   2.012
 5468TIP3   OH216288   5.440   4.951   2.016
 5468TIP3    H116289   5.395   4.881   2.067
 5468TIP3    H216290   5.510   4.902   1.969
 5469TIP3   OH216291   5.963   4.831   1.922
 5469TIP3    H116292   5.999   4.883   1.847
 5469TIP3    H216293   5.867   4.849   1.914
 5470TIP3   OH216294   6.057   4.931   1.686
 5470TIP3    H116295   6.130   4.880   1.644
 5470TIP3    H216296   6.090   5.023   1.670
 5471TIP3   OH216297   4.687   4.659   2.033
 5471TIP3    H116298   4.595   4.625   2.032
 5471TIP3    H216299   4.737   4.574   2.029
 5472TIP3   OH216300   4.472   4.527   1.679
 5472TIP3    H116301   4.504   4.585   1.607
 5472TIP3    H216302   4.444   4.593   1.746
 5473TIP3   OH216303   5.130   4.691   1.912
 5473TIP3    H116304   5.188   4.741   1.853
 5473TIP3    H216305   5.151   4.730   1.998
 5474TIP3   OH216306   5.680   4.837   1.896
 5474TIP3    H116307   5.675   4.803   1.806
 5474TIP3    H216308   5.665   4.756   1.950
 5475TIP3   OH216309   5.708   4.760   1.458
 5475TIP3    H116310   5.620   4.802   1.467
 5475TIP3    H216311   5.692   4.675   1.505
 5476TIP3   OH216312   4.191   6.097   1.461
 5476TIP3    H116313   4.106   6.067   1.423
 5476TIP3    H216314   4.181   6.193   1.449
 5477TIP3   OH216315   4.590   4.688   1.444
 5477TIP3    H116316   4.639   4.625   1.387
 5477TIP3    H216317   4.663   4.742   1.480
 5478TIP3   OH216318   5.102   4.862   1.542
 5478TIP3    H116319   5.164   4.816   1.602
 5478TIP3    H216320   5.124   4.955   1.566
 5479TIP3   OH216321   4.962   6.289   1.042
 5479TIP3    H116322   5.051   6.310   1.006
 5479TIP3    H216323   4.941   6.213   0.982
 5480TIP3   OH216324   5.679   6.406   1.135
 5480TIP3    H116325   5.672   6.309   1.121
 5480TIP3    H216326   5.638   6.439   1.053
 5481TIP3   OH216327   4.895   4.944   2.921
 5481TIP3    H116328   4.854   4.875   2.976
 5481TIP3    H216329   4.986   4.944   2.955
 5482TIP3   OH216330   5.145   4.937   3.048
 5482TIP3    H116331   5.199   4.886   2.987
 5482TIP3    H216332   5.119   4.869   3.115
 5483TIP3   OH216333   4.266   6.124   1.100
 5483TIP3    H116334   4.271   6.150   1.192
 5483TIP3    H216335   4.355   6.083   1.085
 5484TIP3   OH216336   5.969   4.998   2.834
 5484TIP3    H116337   5.993   4.963   2.922
 5484TIP3    H216338   6.055   4.996   2.787
 5485TIP3   OH216339   5.908   6.550   2.323
 5485TIP3    H116340   5.829   6.519   2.274
 5485TIP3    H216341   5.890   6.647   2.324
 5486TIP3   OH216342   7.174   5.920   1.092
 5486TIP3    H116343   7.147   6.012   1.072
 5486TIP3    H216344   7.099   5.872   1.053
 5487TIP3   OH216345   7.171   5.921   1.468
 5487TIP3    H116346   7.204   5.897   1.557
 5487TIP3    H216347   7.131   5.838   1.438
 5488TIP3   OH216348   6.474   5.819   1.834
 5488TIP3    H116349   6.505   5.752   1.898
 5488TIP3    H216350   6.550   5.879   1.833
 5489TIP3   OH216351   7.418   6.222   1.149
 5489TIP3    H116352   7.402   6.156   1.218
 5489TIP3    H216353   7.439   6.301   1.202
 5490TIP3   OH216354   6.442   6.226   1.560
 5490TIP3    H116355   6.433   6.128   1.564
 5490TIP3    H216356   6.539   6.235   1.554
 5491TIP3   OH216357   6.152   5.435   1.341
 5491TIP3    H116358   6.100   5.516   1.359
 5491TIP3    H216359   6.081   5.377   1.307
 5492TIP3   OH216360   6.208   5.717   1.518
 5492TIP3    H116361   6.257   5.641   1.556
 5492TIP3    H216362   6.272   5.754   1.456
 5493TIP3   OH216363   7.069   6.705   1.157
 5493TIP3    H116364   7.124   6.633   1.121
 5493TIP3    H216365   7.052   6.673   1.247
 5494TIP3   OH216366   6.973   6.145   1.516
 5494TIP3    H116367   7.015   6.070   1.471
 5494TIP3    H216368   7.054   6.193   1.542
 5495TIP3   OH216369   7.985   5.469   1.515
 5495TIP3    H116370   8.012   5.551   1.560
 5495TIP3    H216371   8.003   5.491   1.422
 5496TIP3   OH216372   7.384   5.649   1.551
 5496TIP3    H116373   7.427   5.564   1.570
 5496TIP3    H216374   7.353   5.634   1.459
 5497TIP3   OH216375   6.719   5.313   1.513
 5497TIP3    H116376   6.698   5.385   1.451
 5497TIP3    H216377   6.673   5.238   1.469
 5498TIP3   OH216378   7.415   5.400   1.141
 5498TIP3    H116379   7.489   5.385   1.203
 5498TIP3    H216380   7.464   5.436   1.064
 5499TIP3   OH216381   6.355   5.511   1.622
 5499TIP3    H116382   6.438   5.491   1.670
 5499TIP3    H216383   6.367   5.454   1.543
 5500TIP3   OH216384   6.801   5.710   1.414
 5500TIP3    H116385   6.895   5.684   1.429
 5500TIP3    H216386   6.762   5.625   1.384
 5501TIP3   OH216387   8.057   5.676   1.685
 5501TIP3    H116388   7.973   5.724   1.666
 5501TIP3    H216389   8.070   5.701   1.777
 5502TIP3   OH216390   6.718   5.292   1.949
 5502TIP3    H116391   6.658   5.330   1.882
 5502TIP3    H216392   6.667   5.311   2.031
 5503TIP3   OH216393   7.063   6.137   0.965
 5503TIP3    H116394   7.036   6.126   0.873
 5503TIP3    H216395   7.023   6.223   0.988
 5504TIP3   OH216396   6.823   6.067   1.746
 5504TIP3    H116397   6.760   6.133   1.783
 5504TIP3    H216398   6.868   6.119   1.677
 5505TIP3   OH216399   7.629   5.400   1.309
 5505TIP3    H116400   7.615   5.355   1.394
 5505TIP3    H216401   7.680   5.479   1.337
 5506TIP3   OH216402   6.588   5.407   1.734
 5506TIP3    H116403   6.649   5.481   1.757
 5506TIP3    H216404   6.638   5.367   1.660
 5507TIP3   OH216405   6.650   6.260   1.841
 5507TIP3    H116406   6.627   6.347   1.802
 5507TIP3    H216407   6.572   6.247   1.899
 5508TIP3   OH216408   6.046   5.946   1.086
 5508TIP3    H116409   6.018   5.966   0.995
 5508TIP3    H216410   6.081   6.032   1.115
 5509TIP3   OH216411   7.488   6.464   1.317
 5509TIP3    H116412   7.399   6.455   1.359
 5509TIP3    H216413   7.478   6.551   1.274
 5510TIP3   OH216414   7.778   5.367   1.681
 5510TIP3    H116415   7.690   5.399   1.653
 5510TIP3    H216416   7.836   5.400   1.608
 5511TIP3   OH216417   7.076   5.012   1.662
 5511TIP3    H116418   7.064   4.917   1.680
 5511TIP3    H216419   6.998   5.050   1.709
 5512TIP3   OH216420   7.220   6.521   1.024
 5512TIP3    H116421   7.260   6.437   0.992
 5512TIP3    H216422   7.183   6.555   0.940
 5513TIP3   OH216423   7.333   6.304   0.898
 5513TIP3    H116424   7.315   6.226   0.843
 5513TIP3    H216425   7.365   6.263   0.981
 5514TIP3   OH216426   7.717   6.381   1.661
 5514TIP3    H116427   7.701   6.303   1.603
 5514TIP3    H216428   7.695   6.456   1.601
 5515TIP3   OH216429   7.008   5.775   0.917
 5515TIP3    H116430   6.928   5.826   0.894
 5515TIP3    H216431   7.048   5.762   0.830
 5516TIP3   OH216432   6.966   5.561   0.665
 5516TIP3    H116433   7.058   5.586   0.687
 5516TIP3    H216434   6.981   5.496   0.594
 5517TIP3   OH216435   7.910   6.017   1.506
 5517TIP3    H116436   7.827   6.068   1.513
 5517TIP3    H216437   7.937   6.041   1.415
 5518TIP3   OH216438   7.352   5.853   0.897
 5518TIP3    H116439   7.298   5.880   0.975
 5518TIP3    H216440   7.437   5.830   0.939
 5519TIP3   OH216441   7.587   5.896   1.801
 5519TIP3    H116442   7.587   5.978   1.855
 5519TIP3    H216443   7.501   5.906   1.756
 5520TIP3   OH216444   6.593   5.850   1.314
 5520TIP3    H116445   6.561   5.773   1.267
 5520TIP3    H216446   6.677   5.814   1.352
 5521TIP3   OH216447   6.712   6.261   1.458
 5521TIP3    H116448   6.697   6.224   1.370
 5521TIP3    H216449   6.804   6.233   1.477
 5522TIP3   OH216450   6.721   5.828   1.659
 5522TIP3    H116451   6.761   5.808   1.573
 5522TIP3    H216452   6.763   5.913   1.684
 5523TIP3   OH216453   7.249   6.460   1.440
 5523TIP3    H116454   7.234   6.543   1.489
 5523TIP3    H216455   7.232   6.391   1.507
 5524TIP3   OH216456   6.858   6.382   1.985
 5524TIP3    H116457   6.800   6.446   2.032
 5524TIP3    H216458   6.791   6.330   1.937
 5525TIP3   OH216459   7.205   5.720   0.713
 5525TIP3    H116460   7.257   5.771   0.780
 5525TIP3    H216461   7.231   5.766   0.632
 5526TIP3   OH216462   6.611   5.939   2.085
 5526TIP3    H116463   6.617   6.026   2.129
 5526TIP3    H216464   6.516   5.921   2.095
 5527TIP3   OH216465   6.934   6.385   1.005
 5527TIP3    H116466   7.012   6.441   1.020
 5527TIP3    H216467   6.876   6.445   0.957
 5528TIP3   OH216468   6.652   6.551   2.071
 5528TIP3    H116469   6.618   6.549   1.980
 5528TIP3    H216470   6.573   6.530   2.124
 5529TIP3   OH216471   7.700   4.946   0.771
 5529TIP3    H116472   7.621   4.966   0.826
 5529TIP3    H216473   7.711   5.031   0.723
 5530TIP3   OH216474   6.231   6.081   2.020
 5530TIP3    H116475   6.167   6.059   1.949
 5530TIP3    H216476   6.268   5.994   2.044
 5531TIP3   OH216477   6.086   6.272   1.656
 5531TIP3    H116478   6.182   6.269   1.643
 5531TIP3    H216479   6.076   6.354   1.707
 5532TIP3   OH216480   7.952   6.726   1.706
 5532TIP3    H116481   7.949   6.630   1.721
 5532TIP3    H216482   7.868   6.752   1.752
 5533TIP3   OH216483   7.056   6.515   1.840
 5533TIP3    H116484   7.057   6.607   1.875
 5533TIP3    H216485   6.987   6.474   1.897
 5534TIP3   OH216486   6.809   6.695   0.788
 5534TIP3    H116487   6.774   6.608   0.759
 5534TIP3    H216488   6.746   6.747   0.739
 5535TIP3   OH216489   6.248   6.492   1.179
 5535TIP3    H116490   6.300   6.480   1.261
 5535TIP3    H216491   6.190   6.414   1.182
 5536TIP3   OH216492   7.064   6.569   0.804
 5536TIP3    H116493   6.974   6.597   0.782
 5536TIP3    H216494   7.110   6.581   0.719
 5537TIP3   OH216495   7.845   5.858   1.981
 5537TIP3    H116496   7.761   5.877   1.937
 5537TIP3    H216497   7.854   5.761   1.969
 5538TIP3   OH216498   6.437   6.263   2.009
 5538TIP3    H116499   6.487   6.248   2.092
 5538TIP3    H216500   6.363   6.200   2.017
 5539TIP3   OH216501   6.836   5.088   1.791
 5539TIP3    H116502   6.746   5.057   1.767
 5539TIP3    H216503   6.812   5.171   1.837
 5540TIP3   OH216504   7.369   5.202   1.986
 5540TIP3    H116505   7.437   5.177   2.051
 5540TIP3    H216506   7.285   5.183   2.032
 5541TIP3   OH216507   7.611   5.634   1.905
 5541TIP3    H116508   7.562   5.629   1.990
 5541TIP3    H216509   7.585   5.721   1.870
 5542TIP3   OH216510   6.982   5.134   0.763
 5542TIP3    H116511   6.948   5.134   0.854
 5542TIP3    H216512   6.940   5.053   0.729
 5543TIP3   OH216513   6.765   5.604   1.808
 5543TIP3    H116514   6.719   5.626   1.891
 5543TIP3    H216515   6.750   5.685   1.755
 5544TIP3   OH216516   6.644   5.494   1.319
 5544TIP3    H116517   6.555   5.458   1.340
 5544TIP3    H216518   6.662   5.449   1.233
 5545TIP3   OH216519   7.140   5.573   1.052
 5545TIP3    H116520   7.089   5.646   1.010
 5545TIP3    H216521   7.196   5.544   0.977
 5546TIP3   OH216522   7.312   5.846   2.129
 5546TIP3    H116523   7.299   5.778   2.198
 5546TIP3    H216524   7.396   5.887   2.155
 5547TIP3   OH216525   7.299   5.604   1.292
 5547TIP3    H116526   7.240   5.636   1.220
 5547TIP3    H216527   7.331   5.522   1.249
 5548TIP3   OH216528   6.585   5.633   2.020
 5548TIP3    H116529   6.617   5.697   2.085
 5548TIP3    H216530   6.576   5.552   2.073
 5549TIP3   OH216531   6.639   5.108   0.732
 5549TIP3    H116532   6.625   5.105   0.829
 5549TIP3    H216533   6.560   5.158   0.703
 5550TIP3   OH216534   6.178   5.157   1.600
 5550TIP3    H116535   6.256   5.185   1.652
 5550TIP3    H216536   6.217   5.120   1.519
 5551TIP3   OH216537   6.155   5.136   1.122
 5551TIP3    H116538   6.197   5.176   1.043
 5551TIP3    H216539   6.090   5.206   1.143
 5552TIP3   OH216540   7.305   5.850   1.712
 5552TIP3    H116541   7.341   5.778   1.656
 5552TIP3    H216542   7.280   5.800   1.792
 5553TIP3   OH216543   6.977   5.312   1.387
 5553TIP3    H116544   6.896   5.310   1.442
 5553TIP3    H216545   7.047   5.312   1.454
 5554TIP3   OH216546   6.413   5.365   1.392
 5554TIP3    H116547   6.318   5.372   1.367
 5554TIP3    H216548   6.435   5.272   1.372
 5555TIP3   OH216549   6.684   5.368   1.077
 5555TIP3    H116550   6.781   5.378   1.064
 5555TIP3    H216551   6.648   5.396   0.991
 5556TIP3   OH216552   7.472   5.386   1.585
 5556TIP3    H116553   7.439   5.398   1.677
 5556TIP3    H216554   7.405   5.326   1.550
 5557TIP3   OH216555   6.486   5.434   0.863
 5557TIP3    H116556   6.448   5.362   0.807
 5557TIP3    H216557   6.562   5.459   0.804
 5558TIP3   OH216558   7.647   7.077   1.804
 5558TIP3    H116559   7.637   7.105   1.712
 5558TIP3    H216560   7.716   7.135   1.838
 5559TIP3   OH216561   6.597   6.184   2.229
 5559TIP3    H116562   6.678   6.215   2.275
 5559TIP3    H216563   6.533   6.188   2.303
 5560TIP3   OH216564   7.062   5.638   1.481
 5560TIP3    H116565   7.136   5.601   1.431
 5560TIP3    H216566   7.075   5.599   1.570
 5561TIP3   OH216567   6.587   5.127   1.360
 5561TIP3    H116568   6.553   5.048   1.406
 5561TIP3    H216569   6.638   5.088   1.288
 5562TIP3   OH216570   7.038   5.534   1.777
 5562TIP3    H116571   6.950   5.574   1.789
 5562TIP3    H216572   7.098   5.595   1.825
 5563TIP3   OH216573   6.775   5.923   0.872
 5563TIP3    H116574   6.700   5.864   0.863
 5563TIP3    H216575   6.760   5.959   0.963
 5564TIP3   OH216576   7.678   6.161   1.498
 5564TIP3    H116577   7.700   6.212   1.417
 5564TIP3    H216578   7.591   6.123   1.476
 5565TIP3   OH216579   7.234   5.235   0.740
 5565TIP3    H116580   7.136   5.221   0.740
 5565TIP3    H216581   7.242   5.332   0.744
 5566TIP3   OH216582   7.172   6.241   1.869
 5566TIP3    H116583   7.213   6.225   1.955
 5566TIP3    H216584   7.142   6.333   1.876
 5567TIP3   OH216585   7.302   5.489   0.837
 5567TIP3    H116586   7.399   5.494   0.852
 5567TIP3    H216587   7.287   5.563   0.775
 5568TIP3   OH216588   6.462   5.942   1.547
 5568TIP3    H116589   6.509   5.920   1.464
 5568TIP3    H216590   6.508   5.887   1.612
 5569TIP3   OH216591   6.919   6.091   0.717
 5569TIP3    H116592   6.876   6.178   0.725
 5569TIP3    H216593   6.862   6.033   0.772
 5570TIP3   OH216594   6.347   5.870   2.158
 5570TIP3    H116595   6.371   5.857   2.252
 5570TIP3    H216596   6.279   5.802   2.145
 5571TIP3   OH216597   7.074   5.980   2.181
 5571TIP3    H116598   7.021   5.924   2.122
 5571TIP3    H216599   7.165   5.958   2.151
 5572TIP3   OH216600   7.338   6.512   1.760
 5572TIP3    H116601   7.244   6.516   1.783
 5572TIP3    H216602   7.380   6.534   1.846
 5573TIP3   OH216603   7.708   5.593   0.712
 5573TIP3    H116604   7.737   5.522   0.651
 5573TIP3    H216605   7.710   5.670   0.653
 5574TIP3   OH216606   7.966   6.435   1.751
 5574TIP3    H116607   7.868   6.430   1.744
 5574TIP3    H216608   7.990   6.405   1.660
 5575TIP3   OH216609   7.442   6.025   1.416
 5575TIP3    H116610   7.349   6.002   1.430
 5575TIP3    H216611   7.475   5.945   1.371
 5576TIP3   OH216612   6.568   6.246   1.168
 5576TIP3    H116613   6.572   6.333   1.122
 5576TIP3    H216614   6.473   6.240   1.183
 5577TIP3   OH216615   6.153   5.606   0.904
 5577TIP3    H116616   6.109   5.636   0.820
 5577TIP3    H216617   6.065   5.580   0.950
 5578TIP3   OH216618   6.701   6.015   1.112
 5578TIP3    H116619   6.670   6.107   1.128
 5578TIP3    H216620   6.671   5.971   1.194
 5579TIP3   OH216621   6.838   6.595   1.639
 5579TIP3    H116622   6.878   6.668   1.589
 5579TIP3    H216623   6.915   6.563   1.689
 5580TIP3   OH216624   6.501   6.486   1.054
 5580TIP3    H116625   6.406   6.497   1.074
 5580TIP3    H216626   6.524   6.575   1.022
 5581TIP3   OH216627   7.225   6.228   1.600
 5581TIP3    H116628   7.215   6.228   1.698
 5581TIP3    H216629   7.311   6.186   1.590
 5582TIP3   OH216630   7.138   6.199   0.547
 5582TIP3    H116631   7.190   6.153   0.617
 5582TIP3    H216632   7.074   6.132   0.521
 5583TIP3   OH216633   7.481   6.758   1.645
 5583TIP3    H116634   7.403   6.699   1.652
 5583TIP3    H216635   7.453   6.822   1.577
 5584TIP3   OH216636   6.561   5.375   2.167
 5584TIP3    H116637   6.465   5.379   2.180
 5584TIP3    H216638   6.589   5.315   2.238
 5585TIP3   OH216639   7.339   6.071   0.722
 5585TIP3    H116640   7.342   5.996   0.784
 5585TIP3    H216641   7.434   6.072   0.694
 5586TIP3   OH216642   6.275   6.460   1.799
 5586TIP3    H116643   6.329   6.386   1.830
 5586TIP3    H216644   6.306   6.531   1.856
 5587TIP3   OH216645   6.501   6.039   0.494
 5587TIP3    H116646   6.584   6.001   0.464
 5587TIP3    H216647   6.524   6.072   0.583
 5588TIP3   OH216648   6.535   6.124   0.756
 5588TIP3    H116649   6.589   6.105   0.833
 5588TIP3    H216650   6.539   6.221   0.751
 5589TIP3   OH216651   7.399   5.436   1.843
 5589TIP3    H116652   7.474   5.478   1.888
 5589TIP3    H216653   7.382   5.358   1.899
 5590TIP3   OH216654   7.275   5.191   1.012
 5590TIP3    H116655   7.260   5.214   0.918
 5590TIP3    H216656   7.315   5.274   1.046
 5591TIP3   OH216657   6.963   5.370   1.114
 5591TIP3    H116658   7.030   5.439   1.094
 5591TIP3    H216659   6.973   5.363   1.212
 5592TIP3   OH216660   7.233   5.686   1.920
 5592TIP3    H116661   7.253   5.745   1.996
 5592TIP3    H216662   7.292   5.611   1.938
 5593TIP3   OH216663   7.112   5.098   1.217
 5593TIP3    H116664   7.107   5.174   1.278
 5593TIP3    H216665   7.172   5.134   1.148
 5594TIP3   OH216666   6.621   5.095   1.008
 5594TIP3    H116667   6.620   5.185   1.045
 5594TIP3    H216668   6.717   5.075   1.014
 5595TIP3   OH216669   7.877   5.587   1.900
 5595TIP3    H116670   7.779   5.587   1.910
 5595TIP3    H216671   7.885   5.549   1.812
 5596TIP3   OH216672   7.527   5.782   1.289
 5596TIP3    H116673   7.451   5.724   1.303
 5596TIP3    H216674   7.598   5.735   1.338
 5597TIP3   OH216675   6.226   6.028   0.763
 5597TIP3    H116676   6.286   6.103   0.766
 5597TIP3    H216677   6.280   5.962   0.715
 5598TIP3   OH216678   6.177   5.294   0.901
 5598TIP3    H116679   6.181   5.384   0.866
 5598TIP3    H216680   6.104   5.257   0.849
 5599TIP3   OH216681   7.497   6.736   1.243
 5599TIP3    H116682   7.452   6.786   1.171
 5599TIP3    H216683   7.590   6.760   1.222
 5600TIP3   OH216684   6.571   5.007   1.768
 5600TIP3    H116685   6.540   4.975   1.681
 5600TIP3    H216686   6.560   4.928   1.825
 5601TIP3   OH216687   6.113   6.226   1.151
 5601TIP3    H116688   6.037   6.255   1.203
 5601TIP3    H216689   6.091   6.264   1.063
 5602TIP3   OH216690   6.266   6.767   2.221
 5602TIP3    H116691   6.353   6.768   2.267
 5602TIP3    H216692   6.248   6.671   2.218
 5603TIP3   OH216693   6.747   6.732   2.266
 5603TIP3    H116694   6.842   6.719   2.273
 5603TIP3    H216695   6.726   6.675   2.189
 5604TIP3   OH216696   6.397   6.173   2.421
 5604TIP3    H116697   6.414   6.077   2.422
 5604TIP3    H216698   6.309   6.176   2.376
 5605TIP3   OH216699   6.362   5.821   0.647
 5605TIP3    H116700   6.425   5.747   0.649
 5605TIP3    H216701   6.404   5.871   0.575
 5606TIP3   OH216702   7.002   6.257   2.194
 5606TIP3    H116703   6.968   6.274   2.105
 5606TIP3    H216704   7.041   6.167   2.186
 5607TIP3   OH216705   6.971   6.004   0.458
 5607TIP3    H116706   6.918   6.029   0.534
 5607TIP3    H216707   6.904   5.953   0.403
 5608TIP3   OH216708   7.498   6.259   1.793
 5608TIP3    H116709   7.572   6.312   1.757
 5608TIP3    H216710   7.430   6.328   1.802
 5609TIP3   OH216711   6.515   5.903   2.402
 5609TIP3    H116712   6.594   5.854   2.378
 5609TIP3    H216713   6.540   5.939   2.489
 5610TIP3   OH216714   6.847   5.787   2.058
 5610TIP3    H116715   6.775   5.853   2.065
 5610TIP3    H216716   6.899   5.822   1.982
 5611TIP3   OH216717   6.689   5.515   0.704
 5611TIP3    H116718   6.662   5.507   0.610
 5611TIP3    H216719   6.785   5.533   0.693
 5612TIP3   OH216720   7.357   6.155   2.172
 5612TIP3    H116721   7.413   6.233   2.159
 5612TIP3    H216722   7.371   6.133   2.265
 5613TIP3   OH216723   6.973   5.580   2.191
 5613TIP3    H116724   6.976   5.501   2.134
 5613TIP3    H216725   6.932   5.646   2.132
 5614TIP3   OH216726   6.977   5.365   1.996
 5614TIP3    H116727   7.005   5.409   1.913
 5614TIP3    H216728   6.884   5.344   1.977
 5615TIP3   OH216729   7.004   5.900   1.867
 5615TIP3    H116730   7.089   5.912   1.824
 5615TIP3    H216731   6.950   5.971   1.826
 5616TIP3   OH216732   7.588   5.872   2.258
 5616TIP3    H116733   7.642   5.792   2.257
 5616TIP3    H216734   7.647   5.938   2.218
 5617TIP3   OH216735   7.634   6.113   1.979
 5617TIP3    H116736   7.569   6.169   1.930
 5617TIP3    H216737   7.718   6.143   1.939
 5618TIP3   OH216738   6.851   5.694   2.419
 5618TIP3    H116739   6.782   5.625   2.431
 5618TIP3    H216740   6.888   5.670   2.332
 5619TIP3   OH216741   7.109   5.131   2.063
 5619TIP3    H116742   7.062   5.214   2.040
 5619TIP3    H216743   7.039   5.064   2.051
 5620TIP3   OH216744   7.238   5.632   2.281
 5620TIP3    H116745   7.227   5.625   2.377
 5620TIP3    H216746   7.147   5.610   2.251
 5621TIP3   OH216747   7.475   5.577   2.131
 5621TIP3    H116748   7.399   5.586   2.192
 5621TIP3    H216749   7.547   5.552   2.192
 5622TIP3   OH216750   7.708   5.526   2.287
 5622TIP3    H116751   7.717   5.430   2.306
 5622TIP3    H216752   7.700   5.565   2.376
 5623TIP3   OH216753   6.690   5.474   2.472
 5623TIP3    H116754   6.700   5.384   2.435
 5623TIP3    H216755   6.727   5.462   2.562
 5624TIP3   OH216756   7.203   5.140   2.320
 5624TIP3    H116757   7.272   5.070   2.314
 5624TIP3    H216758   7.164   5.134   2.231
 5625TIP3   OH216759   7.268   5.354   2.481
 5625TIP3    H116760   7.246   5.284   2.415
 5625TIP3    H216761   7.192   5.415   2.472
 5626TIP3   OH216762   5.964   5.963   0.803
 5626TIP3    H116763   6.059   5.984   0.785
 5626TIP3    H216764   5.953   5.874   0.765
 5627TIP3   OH216765   5.882   6.580   1.211
 5627TIP3    H116766   5.816   6.516   1.174
 5627TIP3    H216767   5.928   6.522   1.275
 5628TIP3   OH216768   6.020   6.431   1.396
 5628TIP3    H116769   6.009   6.357   1.457
 5628TIP3    H216770   6.072   6.492   1.451
 5629TIP3   OH216771   7.743   6.843   1.194
 5629TIP3    H116772   7.769   6.862   1.286
 5629TIP3    H216773   7.819   6.874   1.143
 5630TIP3   OH216774   7.783   6.848   1.472
 5630TIP3    H116775   7.732   6.764   1.473
 5630TIP3    H216776   7.849   6.827   1.540
 5631TIP3   OH216777   7.822   6.522   2.055
 5631TIP3    H116778   7.725   6.534   2.056
 5631TIP3    H216779   7.853   6.615   2.064
 5632TIP3   OH216780   7.614   6.052   0.681
 5632TIP3    H116781   7.684   6.108   0.643
 5632TIP3    H216782   7.667   5.996   0.742
 5633TIP3   OH216783   7.769   5.909   0.869
 5633TIP3    H116784   7.702   5.867   0.926
 5633TIP3    H216785   7.831   5.948   0.934
 5634TIP3   OH216786   7.824   6.300   1.309
 5634TIP3    H116787   7.875   6.236   1.256
 5634TIP3    H216788   7.806   6.372   1.245
 5635TIP3   OH216789   7.655   6.600   1.500
 5635TIP3    H116790   7.587   6.643   1.557
 5635TIP3    H216791   7.599   6.552   1.435
 5636TIP3   OH216792   7.586   5.765   1.021
 5636TIP3    H116793   7.589   5.668   1.016
 5636TIP3    H216794   7.570   5.780   1.117
 5637TIP3   OH216795   6.209   5.836   1.770
 5637TIP3    H116796   6.206   5.808   1.676
 5637TIP3    H216797   6.306   5.839   1.785
 5638TIP3   OH216798   7.872   6.189   1.876
 5638TIP3    H116799   7.946   6.125   1.867
 5638TIP3    H216800   7.899   6.261   1.817
 5639TIP3   OH216801   8.059   5.996   1.893
 5639TIP3    H116802   7.983   5.949   1.934
 5639TIP3    H216803   8.130   5.929   1.909
 5640TIP3   OH216804   7.515   5.237   0.493
 5640TIP3    H116805   7.589   5.196   0.542
 5640TIP3    H216806   7.439   5.180   0.518
 5641TIP3   OH216807   7.573   5.482   0.924
 5641TIP3    H116808   7.620   5.396   0.931
 5641TIP3    H216809   7.623   5.524   0.851
 5642TIP3   OH216810   7.740   5.653   1.411
 5642TIP3    H116811   7.826   5.681   1.372
 5642TIP3    H216812   7.752   5.692   1.501
 5643TIP3   OH216813   7.807   5.798   1.644
 5643TIP3    H116814   7.729   5.831   1.694
 5643TIP3    H216815   7.838   5.880   1.600
 5644TIP3   OH216816   6.422   5.523   2.439
 5644TIP3    H116817   6.520   5.519   2.442
 5644TIP3    H216818   6.400   5.439   2.484
 5645TIP3   OH216819   8.262   5.390   2.200
 5645TIP3    H116820   8.318   5.323   2.156
 5645TIP3    H216821   8.232   5.444   2.125
 5646TIP3   OH216822   7.692   5.230   0.950
 5646TIP3    H116823   7.735   5.214   1.037
 5646TIP3    H216824   7.627   5.156   0.949
 5647TIP3   OH216825   6.387   5.215   1.773
 5647TIP3    H116826   6.450   5.141   1.784
 5647TIP3    H216827   6.448   5.291   1.768
 5648TIP3   OH216828   6.191   5.490   1.848
 5648TIP3    H116829   6.239   5.483   1.763
 5648TIP3    H216830   6.218   5.578   1.877
 5649TIP3   OH216831   8.132   5.529   2.007
 5649TIP3    H116832   8.045   5.569   2.029
 5649TIP3    H216833   8.102   5.459   1.947
 5650TIP3   OH216834   7.750   5.160   0.612
 5650TIP3    H116835   7.823   5.122   0.559
 5650TIP3    H216836   7.771   5.254   0.608
 5651TIP3   OH216837   6.172   4.998   1.353
 5651TIP3    H116838   6.078   4.992   1.373
 5651TIP3    H216839   6.172   5.053   1.271
 5652TIP3   OH216840   7.329   6.736   0.836
 5652TIP3    H116841   7.352   6.649   0.800
 5652TIP3    H216842   7.390   6.742   0.910
 5653TIP3   OH216843   6.392   5.072   2.163
 5653TIP3    H116844   6.342   5.069   2.246
 5653TIP3    H216845   6.326   5.112   2.102
 5654TIP3   OH216846   6.433   6.497   2.237
 5654TIP3    H116847   6.340   6.471   2.223
 5654TIP3    H216848   6.443   6.486   2.333
 5655TIP3   OH216849   6.610   6.531   1.785
 5655TIP3    H116850   6.563   6.608   1.747
 5655TIP3    H216851   6.697   6.544   1.742
 5656TIP3   OH216852   7.059   6.779   1.927
 5656TIP3    H116853   7.107   6.778   2.013
 5656TIP3    H216854   7.122   6.830   1.871
 5657TIP3   OH216855   7.229   6.925   1.769
 5657TIP3    H116856   7.307   6.871   1.747
 5657TIP3    H216857   7.272   6.985   1.835
 5658TIP3   OH216858   8.030   5.292   1.883
 5658TIP3    H116859   7.938   5.288   1.850
 5658TIP3    H216860   8.059   5.199   1.870
 5659TIP3   OH216861   6.287   6.788   1.810
 5659TIP3    H116862   6.198   6.823   1.787
 5659TIP3    H216863   6.300   6.829   1.897
 5660TIP3   OH216864   6.523   6.767   1.667
 5660TIP3    H116865   6.436   6.780   1.712
 5660TIP3    H216866   6.503   6.801   1.578
 5661TIP3   OH216867   6.947   6.797   1.462
 5661TIP3    H116868   6.879   6.821   1.397
 5661TIP3    H216869   6.960   6.882   1.510
 5662TIP3   OH216870   7.216   6.735   1.507
 5662TIP3    H116871   7.121   6.751   1.493
 5662TIP3    H216872   7.254   6.822   1.487
 5663TIP3   OH216873   7.432   6.933   1.434
 5663TIP3    H116874   7.415   7.015   1.384
 5663TIP3    H216875   7.451   6.868   1.364
 5664TIP3   OH216876   6.198   6.584   1.555
 5664TIP3    H116877   6.226   6.559   1.646
 5664TIP3    H216878   6.271   6.541   1.504
 5665TIP3   OH216879   6.391   6.455   1.411
 5665TIP3    H116880   6.408   6.371   1.459
 5665TIP3    H216881   6.481   6.493   1.406
 5666TIP3   OH216882   6.657   6.553   1.416
 5666TIP3    H116883   6.690   6.464   1.399
 5666TIP3    H216884   6.702   6.573   1.500
 5667TIP3   OH216885   7.233   5.206   1.499
 5667TIP3    H116886   7.191   5.137   1.553
 5667TIP3    H216887   7.306   5.158   1.456
 5668TIP3   OH216888   7.758   5.086   1.407
 5668TIP3    H116889   7.794   5.139   1.333
 5668TIP3    H216890   7.663   5.106   1.402
 5669TIP3   OH216891   7.853   5.189   1.171
 5669TIP3    H116892   7.926   5.137   1.132
 5669TIP3    H216893   7.886   5.280   1.157
 5670TIP3   OH216894   6.484   4.916   1.519
 5670TIP3    H116895   6.391   4.883   1.518
 5670TIP3    H216896   6.533   4.831   1.515
 5671TIP3   OH216897   6.274   4.784   1.167
 5671TIP3    H116898   6.301   4.841   1.093
 5671TIP3    H216899   6.241   4.848   1.231
 5672TIP3   OH216900   6.926   4.949   1.399
 5672TIP3    H116901   6.985   4.999   1.340
 5672TIP3    H216902   6.949   4.984   1.485
 5673TIP3   OH216903   7.475   5.094   1.384
 5673TIP3    H116904   7.471   5.059   1.294
 5673TIP3    H216905   7.461   5.012   1.438
 5674TIP3   OH216906   7.501   5.018   0.948
 5674TIP3    H116907   7.415   5.061   0.958
 5674TIP3    H216908   7.485   4.933   0.996
 5675TIP3   OH216909   5.987   6.357   0.950
 5675TIP3    H116910   5.903   6.324   0.914
 5675TIP3    H216911   5.979   6.450   0.925
 5676TIP3   OH216912   6.386   4.943   0.931
 5676TIP3    H116913   6.434   4.881   0.874
 5676TIP3    H216914   6.458   4.997   0.968
 5677TIP3   OH216915   6.898   5.118   1.030
 5677TIP3    H116916   6.959   5.072   1.089
 5677TIP3    H216917   6.920   5.211   1.053
 5678TIP3   OH216918   6.690   5.194   2.408
 5678TIP3    H116919   6.659   5.124   2.468
 5678TIP3    H216920   6.785   5.197   2.434
 5679TIP3   OH216921   6.939   5.193   2.528
 5679TIP3    H116922   7.024   5.171   2.488
 5679TIP3    H216923   6.929   5.122   2.594
 5680TIP3   OH216924   6.058   6.376   0.582
 5680TIP3    H116925   6.059   6.411   0.673
 5680TIP3    H216926   6.147   6.335   0.574
 5681TIP3   OH216927   7.763   5.253   2.317
 5681TIP3    H116928   7.784   5.223   2.408
 5681TIP3    H216929   7.852   5.249   2.274
 5682TIP3   OH216930   7.709   6.808   1.804
 5682TIP3    H116931   7.626   6.770   1.769
 5682TIP3    H216932   7.682   6.902   1.813
 5683TIP3   OH216933   8.937   6.168   0.965
 5683TIP3    H116934   8.994   6.169   1.044
 5683TIP3    H216935   8.913   6.073   0.961
 5684TIP3   OH216936   8.269   6.074   1.319
 5684TIP3    H116937   8.300   6.008   1.384
 5684TIP3    H216938   8.348   6.130   1.312
 5685TIP3   OH216939   8.235   6.480   1.055
 5685TIP3    H116940   8.226   6.382   1.052
 5685TIP3    H216941   8.331   6.487   1.068
 5686TIP3   OH216942   7.937   5.684   0.834
 5686TIP3    H116943   7.903   5.775   0.845
 5686TIP3    H216944   7.854   5.639   0.811
 5687TIP3   OH216945   8.013   5.977   0.998
 5687TIP3    H116946   8.058   5.899   1.038
 5687TIP3    H216947   8.079   6.003   0.932
 5688TIP3   OH216948   8.760   6.403   1.003
 5688TIP3    H116949   8.796   6.316   0.977
 5688TIP3    H216950   8.845   6.447   1.027
 5689TIP3   OH216951   9.197   5.930   1.039
 5689TIP3    H116952   9.193   5.834   1.058
 5689TIP3    H216953   9.155   5.933   0.952
 5690TIP3   OH216954   8.505   5.559   1.015
 5690TIP3    H116955   8.483   5.637   0.960
 5690TIP3    H216956   8.460   5.489   0.962
 5691TIP3   OH216957   8.150   5.765   1.105
 5691TIP3    H116958   8.233   5.747   1.152
 5691TIP3    H216959   8.162   5.709   1.026
 5692TIP3   OH216960   8.610   5.975   0.917
 5692TIP3    H116961   8.703   5.945   0.921
 5692TIP3    H216962   8.565   5.895   0.883
 5693TIP3   OH216963   8.515   5.550   1.437
 5693TIP3    H116964   8.455   5.587   1.370
 5693TIP3    H216965   8.463   5.567   1.519
 5694TIP3   OH216966   8.623   6.325   1.236
 5694TIP3    H116967   8.558   6.388   1.273
 5694TIP3    H216968   8.666   6.379   1.166
 5695TIP3   OH216969   8.381   5.667   1.227
 5695TIP3    H116970   8.445   5.740   1.246
 5695TIP3    H216971   8.428   5.623   1.153
 5696TIP3   OH216972   8.447   6.517   1.326
 5696TIP3    H116973   8.421   6.606   1.293
 5696TIP3    H216974   8.371   6.499   1.385
 5697TIP3   OH216975   8.871   5.272   1.153
 5697TIP3    H116976   8.857   5.175   1.161
 5697TIP3    H216977   8.788   5.305   1.195
 5698TIP3   OH216978   8.347   6.057   0.829
 5698TIP3    H116979   8.335   6.117   0.752
 5698TIP3    H216980   8.443   6.040   0.830
 5699TIP3   OH216981   8.522   6.529   0.927
 5699TIP3    H116982   8.477   6.449   0.895
 5699TIP3    H216983   8.608   6.491   0.958
 5700TIP3   OH216984   8.520   6.081   1.156
 5700TIP3    H116985   8.549   6.058   1.066
 5700TIP3    H216986   8.561   6.168   1.171
 5701TIP3   OH216987   8.652   6.637   1.475
 5701TIP3    H116988   8.593   6.701   1.520
 5701TIP3    H216989   8.586   6.585   1.425
 5702TIP3   OH216990   8.409   6.195   1.572
 5702TIP3    H116991   8.412   6.281   1.619
 5702TIP3    H216992   8.313   6.175   1.581
 5703TIP3   OH216993   8.448   6.809   1.560
 5703TIP3    H116994   8.413   6.806   1.469
 5703TIP3    H216995   8.370   6.786   1.614
 5704TIP3   OH216996   8.030   6.338   1.505
 5704TIP3    H116997   7.961   6.316   1.439
 5704TIP3    H216998   8.064   6.250   1.530
 5705TIP3   OH216999   7.883   6.533   1.135
 5705TIP3    H117000   7.979   6.524   1.126
 5705TIP3    H217001   7.876   6.605   1.200
 5706TIP3   OH217002   8.850   6.766   1.331
 5706TIP3    H117003   8.851   6.859   1.363
 5706TIP3    H217004   8.779   6.728   1.387
 5707TIP3   OH217005   8.235   6.520   1.495
 5707TIP3    H117006   8.283   6.503   1.579
 5707TIP3    H217007   8.160   6.458   1.502
 5708TIP3   OH217008   8.631   5.344   1.279
 5708TIP3    H117009   8.542   5.313   1.253
 5708TIP3    H217010   8.606   5.428   1.322
 5709TIP3   OH217011   9.156   5.462   1.478
 5709TIP3    H117012   9.203   5.436   1.558
 5709TIP3    H217013   9.063   5.442   1.505
 5710TIP3   OH217014   8.568   5.858   1.300
 5710TIP3    H117015   8.514   5.877   1.380
 5710TIP3    H217016   8.550   5.938   1.246
 5711TIP3   OH217017   8.428   5.755   0.856
 5711TIP3    H117018   8.342   5.714   0.838
 5711TIP3    H217019   8.469   5.765   0.766
 5712TIP3   OH217020   9.115   6.112   1.627
 5712TIP3    H117021   9.089   6.040   1.688
 5712TIP3    H217022   9.210   6.120   1.647
 5713TIP3   OH217023   8.386   5.889   1.506
 5713TIP3    H117024   8.400   5.954   1.576
 5713TIP3    H217025   8.370   5.807   1.557
 5714TIP3   OH217026   7.976   5.413   1.084
 5714TIP3    H117027   8.051   5.443   1.141
 5714TIP3    H217028   8.020   5.374   1.008
 5715TIP3   OH217029   8.102   5.462   0.588
 5715TIP3    H117030   8.119   5.555   0.564
 5715TIP3    H217031   8.005   5.460   0.595
 5716TIP3   OH217032   9.079   6.114   1.199
 5716TIP3    H117033   9.137   6.056   1.145
 5716TIP3    H217034   9.067   6.058   1.278
 5717TIP3   OH217035   8.763   5.496   0.932
 5717TIP3    H117036   8.676   5.531   0.961
 5717TIP3    H217037   8.821   5.571   0.942
 5718TIP3   OH217038   8.195   5.610   0.864
 5718TIP3    H117039   8.096   5.616   0.857
 5718TIP3    H217040   8.212   5.515   0.853
 5719TIP3   OH217041   9.161   5.664   1.079
 5719TIP3    H117042   9.166   5.667   1.176
 5719TIP3    H217043   9.121   5.576   1.062
 5720TIP3   OH217044   8.395   6.442   1.714
 5720TIP3    H117045   8.473   6.474   1.765
 5720TIP3    H217046   8.328   6.440   1.786
 5721TIP3   OH217047   8.879   5.891   0.970
 5721TIP3    H117048   8.911   5.819   0.914
 5721TIP3    H217049   8.880   5.852   1.059
 5722TIP3   OH217050   8.385   5.379   0.845
 5722TIP3    H117051   8.351   5.300   0.892
 5722TIP3    H217052   8.463   5.343   0.799
 5723TIP3   OH217053   8.837   5.793   1.259
 5723TIP3    H117054   8.745   5.826   1.272
 5723TIP3    H217055   8.890   5.856   1.311
 5724TIP3   OH217056   8.975   6.505   1.353
 5724TIP3    H117057   8.979   6.482   1.446
 5724TIP3    H217058   8.934   6.594   1.355
 5725TIP3   OH217059   8.267   6.206   1.041
 5725TIP3    H117060   8.289   6.160   0.957
 5725TIP3    H217061   8.296   6.140   1.105
 5726TIP3   OH217062   8.145   6.123   1.642
 5726TIP3    H117063   8.161   6.111   1.738
 5726TIP3    H217064   8.072   6.060   1.626
 5727TIP3   OH217065   8.867   6.239   1.664
 5727TIP3    H117066   8.805   6.181   1.617
 5727TIP3    H217067   8.953   6.205   1.632
 5728TIP3   OH217068   9.139   6.773   1.243
 5728TIP3    H117069   9.044   6.757   1.244
 5728TIP3    H217070   9.154   6.818   1.328
 5729TIP3   OH217071   8.632   6.849   1.130
 5729TIP3    H117072   8.666   6.933   1.099
 5729TIP3    H217073   8.710   6.812   1.176
 5730TIP3   OH217074   9.009   6.473   1.081
 5730TIP3    H117075   9.009   6.487   1.178
 5730TIP3    H217076   9.101   6.451   1.065
 5731TIP3   OH217077   8.356   5.632   1.653
 5731TIP3    H117078   8.260   5.637   1.667
 5731TIP3    H217079   8.382   5.570   1.724
 5732TIP3   OH217080   8.071   6.719   1.287
 5732TIP3    H117081   8.121   6.640   1.311
 5732TIP3    H217082   8.095   6.779   1.359
 5733TIP3   OH217083   9.217   5.699   1.357
 5733TIP3    H117084   9.252   5.744   1.436
 5733TIP3    H217085   9.183   5.616   1.397
 5734TIP3   OH217086   9.033   5.944   1.410
 5734TIP3    H117087   9.046   6.003   1.486
 5734TIP3    H217088   9.094   5.871   1.429
 5735TIP3   OH217089   8.368   5.264   1.254
 5735TIP3    H117090   8.336   5.230   1.168
 5735TIP3    H217091   8.357   5.185   1.312
 5736TIP3   OH217092   8.061   7.022   1.701
 5736TIP3    H117093   8.146   7.019   1.750
 5736TIP3    H217094   8.034   6.928   1.705
 5737TIP3   OH217095   8.549   6.989   1.750
 5737TIP3    H117096   8.642   6.966   1.755
 5737TIP3    H217097   8.519   6.933   1.676
 5738TIP3   OH217098   9.189   6.892   1.488
 5738TIP3    H117099   9.163   6.819   1.549
 5738TIP3    H217100   9.265   6.929   1.532
 5739TIP3   OH217101   8.196   6.432   1.905
 5739TIP3    H117102   8.209   6.335   1.911
 5739TIP3    H217103   8.106   6.436   1.866
 5740TIP3   OH217104   8.804   6.515   1.677
 5740TIP3    H117105   8.757   6.530   1.593
 5740TIP3    H217106   8.831   6.421   1.671
 5741TIP3   OH217107   8.314   6.165   1.887
 5741TIP3    H117108   8.384   6.102   1.871
 5741TIP3    H217109   8.336   6.197   1.977
 5742TIP3   OH217110   8.652   6.054   1.553
 5742TIP3    H117111   8.570   6.108   1.555
 5742TIP3    H217112   8.694   6.084   1.470
 5743TIP3   OH217113   9.163   6.454   1.693
 5743TIP3    H117114   9.229   6.421   1.632
 5743TIP3    H217115   9.157   6.382   1.758
 5744TIP3   OH217116   8.774   5.838   1.675
 5744TIP3    H117117   8.769   5.757   1.620
 5744TIP3    H217118   8.728   5.904   1.619
 5745TIP3   OH217119   8.774   5.623   1.481
 5745TIP3    H117120   8.797   5.666   1.396
 5745TIP3    H217121   8.680   5.600   1.465
 5746TIP3   OH217122   8.808   6.161   1.354
 5746TIP3    H117123   8.887   6.166   1.299
 5746TIP3    H217124   8.749   6.227   1.312
 5747TIP3   OH217125   9.392   6.131   1.733
 5747TIP3    H117126   9.423   6.044   1.766
 5747TIP3    H217127   9.476   6.178   1.725
 5748TIP3   OH217128   8.651   5.950   1.906
 5748TIP3    H117129   8.581   5.883   1.920
 5748TIP3    H217130   8.684   5.925   1.818
 5749TIP3   OH217131   8.904   5.388   1.544
 5749TIP3    H117132   8.852   5.470   1.525
 5749TIP3    H217133   8.834   5.319   1.534
 5750TIP3   OH217134   9.034   5.893   1.763
 5750TIP3    H117135   9.021   5.880   1.859
 5750TIP3    H217136   8.943   5.869   1.733
 5751TIP3   OH217137   9.264   5.814   1.611
 5751TIP3    H117138   9.187   5.834   1.668
 5751TIP3    H217139   9.333   5.799   1.678
 5752TIP3   OH217140   9.479   5.763   1.790
 5752TIP3    H117141   9.524   5.691   1.835
 5752TIP3    H217142   9.477   5.830   1.862
 5753TIP3   OH217143   8.490   5.730   1.957
 5753TIP3    H117144   8.494   5.639   1.923
 5753TIP3    H217145   8.524   5.717   2.048
 5754TIP3   OH217146   9.005   5.402   1.800
 5754TIP3    H117147   9.068   5.328   1.798
 5754TIP3    H217148   8.959   5.391   1.715
 5755TIP3   OH217149   9.069   5.615   1.962
 5755TIP3    H117150   9.044   5.544   1.899
 5755TIP3    H217151   8.990   5.673   1.959
 5756TIP3   OH217152   7.807   6.693   0.905
 5756TIP3    H117153   7.800   6.616   0.963
 5756TIP3    H217154   7.855   6.755   0.963
 5757TIP3   OH217155   8.004   6.092   1.253
 5757TIP3    H117156   8.004   6.063   1.159
 5757TIP3    H217157   8.101   6.095   1.271
 5758TIP3   OH217158   8.222   5.781   1.929
 5758TIP3    H117159   8.320   5.773   1.931
 5758TIP3    H217160   8.196   5.697   1.971
 5759TIP3   OH217161   8.183   5.471   1.257
 5759TIP3    H117162   8.247   5.398   1.270
 5759TIP3    H217163   8.243   5.548   1.257
 5760TIP3   OH217164   7.988   5.746   1.334
 5760TIP3    H117165   8.036   5.740   1.249
 5760TIP3    H217166   8.012   5.834   1.365
 5761TIP3   OH217167   7.964   5.253   0.829
 5761TIP3    H117168   7.872   5.248   0.862
 5761TIP3    H217169   7.958   5.318   0.758
 5762TIP3   OH217170   8.189   5.330   1.649
 5762TIP3    H117171   8.139   5.324   1.732
 5762TIP3    H217172   8.122   5.369   1.589
 5763TIP3   OH217173   8.229   6.755   1.728
 5763TIP3    H117174   8.137   6.730   1.708
 5763TIP3    H217175   8.234   6.736   1.823
 5764TIP3   OH217176   8.404   6.787   1.275
 5764TIP3    H117177   8.352   6.858   1.235
 5764TIP3    H217178   8.490   6.803   1.230
 5765TIP3   OH217179   8.850   7.031   1.414
 5765TIP3    H117180   8.894   7.040   1.502
 5765TIP3    H217181   8.913   7.079   1.356
 5766TIP3   OH217182   9.022   7.172   1.258
 5766TIP3    H117183   9.105   7.148   1.216
 5766TIP3    H217184   9.054   7.229   1.331
 5767TIP3   OH217185   8.086   7.052   1.296
 5767TIP3    H117186   7.996   7.085   1.274
 5767TIP3    H217187   8.089   7.069   1.390
 5768TIP3   OH217188   8.317   7.032   1.149
 5768TIP3    H117189   8.235   7.045   1.202
 5768TIP3    H217190   8.283   7.040   1.059
 5769TIP3   OH217191   7.987   6.857   1.057
 5769TIP3    H117192   8.017   6.826   1.145
 5769TIP3    H217193   8.054   6.809   1.002
 5770TIP3   OH217194   8.178   6.722   0.924
 5770TIP3    H117195   8.194   6.633   0.962
 5770TIP3    H217196   8.270   6.757   0.919
 5771TIP3   OH217197   8.439   6.798   0.922
 5771TIP3    H117198   8.473   6.707   0.919
 5771TIP3    H217199   8.498   6.837   0.989
 5772TIP3   OH217200   9.055   5.423   0.984
 5772TIP3    H117201   8.980   5.388   1.036
 5772TIP3    H217202   9.065   5.351   0.920
 5773TIP3   OH217203   8.281   5.172   1.005
 5773TIP3    H117204   8.189   5.137   1.005
 5773TIP3    H217205   8.331   5.087   1.002
 5774TIP3   OH217206   8.097   5.040   0.685
 5774TIP3    H117207   8.056   5.064   0.600
 5774TIP3    H217208   8.054   5.103   0.746
 5775TIP3   OH217209   8.717   5.206   0.888
 5775TIP3    H117210   8.754   5.274   0.830
 5775TIP3    H217211   8.734   5.248   0.974
 5776TIP3   OH217212   8.487   5.454   1.898
 5776TIP3    H117213   8.453   5.383   1.954
 5776TIP3    H217214   8.582   5.454   1.924
 5777TIP3   OH217215   8.736   5.450   2.017
 5777TIP3    H117216   8.821   5.420   1.980
 5777TIP3    H217217   8.720   5.381   2.084
 5778TIP3   OH217218  -0.054   7.003   2.837
 5778TIP3    H117219  -0.029   6.954   2.917
 5778TIP3    H217220  -0.054   7.095   2.865
 5779TIP3   OH217221   0.443   6.258   3.202
 5779TIP3    H117222   0.467   6.341   3.248
 5779TIP3    H217223   0.454   6.285   3.110
 5780TIP3   OH217224  -0.087   6.435   3.229
 5780TIP3    H117225  -0.060   6.345   3.256
 5780TIP3    H217226  -0.122   6.416   3.141
 5781TIP3   OH217227  -0.135   6.186   2.830
 5781TIP3    H117228  -0.061   6.168   2.893
 5781TIP3    H217229  -0.084   6.221   2.755
 5782TIP3   OH217230   0.516   6.466   3.371
 5782TIP3    H117231   0.431   6.511   3.351
 5782TIP3    H217232   0.519   6.480   3.467
 5783TIP3   OH217233   0.081   6.186   3.000
 5783TIP3    H117234   0.049   6.153   3.085
 5783TIP3    H217235   0.134   6.264   3.026
 5784TIP3   OH217236   0.239   6.156   3.377
 5784TIP3    H117237   0.149   6.192   3.373
 5784TIP3    H217238   0.281   6.191   3.296
 5785TIP3   OH217239   0.181   7.179   3.355
 5785TIP3    H117240   0.143   7.097   3.319
 5785TIP3    H217241   0.159   7.243   3.285
 5786TIP3   OH217242   0.381   6.794   3.193
 5786TIP3    H117243   0.295   6.842   3.204
 5786TIP3    H217244   0.403   6.823   3.102
 5787TIP3   OH217245  -0.199   6.589   2.562
 5787TIP3    H117246  -0.253   6.646   2.621
 5787TIP3    H217247  -0.114   6.591   2.610
 5788TIP3   OH217248   0.061   6.716   3.457
 5788TIP3    H117249   0.049   6.772   3.536
 5788TIP3    H217250  -0.030   6.685   3.444
 5789TIP3   OH217251   0.161   5.743   2.454
 5789TIP3    H117252   0.080   5.762   2.505
 5789TIP3    H217253   0.173   5.827   2.406
 5790TIP3   OH217254   0.416   7.505   3.392
 5790TIP3    H117255   0.416   7.409   3.412
 5790TIP3    H217256   0.323   7.528   3.413
 5791TIP3   OH217257   0.300   6.650   3.666
 5791TIP3    H117258   0.213   6.658   3.623
 5791TIP3    H217259   0.306   6.554   3.674
 5792TIP3   OH217260   0.107   6.457   3.586
 5792TIP3    H117261   0.064   6.430   3.670
 5792TIP3    H217262   0.031   6.497   3.541
 5793TIP3   OH217263  -0.233   6.396   2.987
 5793TIP3    H117264  -0.314   6.419   2.937
 5793TIP3    H217265  -0.210   6.312   2.942
 5794TIP3   OH217266  -0.068   6.162   3.247
 5794TIP3    H117267  -0.065   6.168   3.345
 5794TIP3    H217268  -0.141   6.098   3.235
 5795TIP3   OH217269   0.155   6.937   3.190
 5795TIP3    H117270   0.173   6.993   3.112
 5795TIP3    H217271   0.057   6.936   3.193
 5796TIP3   OH217272  -0.356   6.034   2.421
 5796TIP3    H117273  -0.435   6.086   2.405
 5796TIP3    H217274  -0.291   6.107   2.428
 5797TIP3   OH217275  -0.214   6.261   2.482
 5797TIP3    H117276  -0.131   6.274   2.531
 5797TIP3    H217277  -0.254   6.349   2.487
 5798TIP3   OH217278   0.203   6.362   2.361
 5798TIP3    H117279   0.139   6.315   2.303
 5798TIP3    H217280   0.198   6.450   2.319
 5799TIP3   OH217281   0.427   7.224   3.441
 5799TIP3    H117282   0.329   7.217   3.434
 5799TIP3    H217283   0.451   7.192   3.351
 5800TIP3   OH217284  -0.108   6.821   3.080
 5800TIP3    H117285  -0.174   6.780   3.136
 5800TIP3    H217286  -0.062   6.741   3.045
 5801TIP3   OH217287  -0.039   6.208   3.510
 5801TIP3    H117288  -0.064   6.269   3.581
 5801TIP3    H217289  -0.074   6.123   3.545
 5802TIP3   OH217290  -0.256   5.966   2.685
 5802TIP3    H117291  -0.293   6.004   2.604
 5802TIP3    H217292  -0.237   6.045   2.739
 5803TIP3   OH217293   0.352   6.360   3.584
 5803TIP3    H117294   0.257   6.385   3.592
 5803TIP3    H217295   0.348   6.319   3.496
 5804TIP3   OH217296  -0.016   6.577   2.978
 5804TIP3    H117297  -0.093   6.516   2.982
 5804TIP3    H217298   0.052   6.529   3.028
 5805TIP3   OH217299  -0.018   7.419   2.930
 5805TIP3    H117300  -0.098   7.462   2.896
 5805TIP3    H217301   0.050   7.482   2.904
 5806TIP3   OH217302   0.060   6.664   3.916
 5806TIP3    H117303   0.091   6.581   3.954
 5806TIP3    H217304   0.128   6.727   3.940
 5807TIP3   OH217305   0.085   6.911   3.660
 5807TIP3    H117306   0.028   6.962   3.603
 5807TIP3    H217307   0.174   6.928   3.622
 5808TIP3   OH217308  -0.029   6.393   3.804
 5808TIP3    H117309  -0.109   6.356   3.845
 5808TIP3    H217310   0.041   6.364   3.866
 5809TIP3   OH217311   0.161   6.314   3.982
 5809TIP3    H117312   0.176   6.219   4.001
 5809TIP3    H217313   0.147   6.353   4.071
 5810TIP3   OH217314   0.268   7.767   2.887
 5810TIP3    H117315   0.259   7.707   2.964
 5810TIP3    H217316   0.304   7.709   2.818
 5811TIP3   OH217317   0.236   7.633   3.141
 5811TIP3    H117318   0.195   7.545   3.155
 5811TIP3    H217319   0.300   7.632   3.214
 5812TIP3   OH217320   0.268   7.325   3.727
 5812TIP3    H117321   0.223   7.314   3.811
 5812TIP3    H217322   0.317   7.409   3.740
 5813TIP3   OH217323   0.131   6.814   2.361
 5813TIP3    H117324   0.206   6.873   2.370
 5813TIP3    H217325   0.134   6.768   2.448
 5814TIP3   OH217326   0.227   6.686   2.578
 5814TIP3    H117327   0.160   6.644   2.636
 5814TIP3    H217328   0.288   6.728   2.642
 5815TIP3   OH217329   0.264   7.089   2.990
 5815TIP3    H117330   0.324   7.023   2.949
 5815TIP3    H217331   0.270   7.164   2.928
 5816TIP3   OH217332   0.092   7.381   3.181
 5816TIP3    H117333   0.026   7.428   3.233
 5816TIP3    H217334   0.050   7.375   3.093
 5817TIP3   OH217335   0.145   6.594   2.207
 5817TIP3    H117336   0.064   6.600   2.157
 5817TIP3    H217337   0.137   6.674   2.266
 5818TIP3   OH217338   0.025   6.273   2.175
 5818TIP3    H117339  -0.059   6.317   2.158
 5818TIP3    H217340   0.001   6.178   2.161
 5819TIP3   OH217341   0.040   6.545   2.713
 5819TIP3    H117342   0.042   6.448   2.710
 5819TIP3    H217343   0.025   6.563   2.809
 5820TIP3   OH217344   0.328   6.979   3.565
 5820TIP3    H117345   0.397   6.910   3.558
 5820TIP3    H217346   0.358   7.044   3.500
 5821TIP3   OH217347   0.514   6.786   3.584
 5821TIP3    H117348   0.437   6.735   3.619
 5821TIP3    H217349   0.584   6.720   3.599
 5822TIP3   OH217350  -0.013   5.998   2.140
 5822TIP3    H117351   0.053   5.979   2.209
 5822TIP3    H217352  -0.094   5.954   2.175
 5823TIP3   OH217353   0.034   6.268   2.615
 5823TIP3    H117354   0.075   6.180   2.628
 5823TIP3    H217355   0.090   6.303   2.544
 5824TIP3   OH217356   0.194   6.439   3.095
 5824TIP3    H117357   0.281   6.468   3.060
 5824TIP3    H217358   0.200   6.475   3.186
 5825TIP3   OH217359   0.267   6.580   3.327
 5825TIP3    H117360   0.191   6.616   3.379
 5825TIP3    H217361   0.300   6.662   3.285
 5826TIP3   OH217362   0.717   6.176   3.892
 5826TIP3    H117363   0.771   6.110   3.844
 5826TIP3    H217364   0.686   6.233   3.819
 5827TIP3   OH217365   0.143   6.017   2.642
 5827TIP3    H117366   0.187   6.002   2.728
 5827TIP3    H217367   0.079   5.942   2.640
 5828TIP3   OH217368   0.593   6.315   3.700
 5828TIP3    H117369   0.505   6.357   3.718
 5828TIP3    H217370   0.563   6.247   3.638
 5829TIP3   OH217371   0.225   5.954   2.279
 5829TIP3    H117372   0.265   5.882   2.227
 5829TIP3    H217373   0.291   6.025   2.271
 5830TIP3   OH217374   0.487   6.079   3.570
 5830TIP3    H117375   0.394   6.083   3.541
 5830TIP3    H217376   0.506   5.984   3.557
 5831TIP3   OH217377  -0.270   5.970   3.216
 5831TIP3    H117378  -0.274   5.919   3.298
 5831TIP3    H217379  -0.200   5.925   3.165
 5832TIP3   OH217380   0.218   5.869   3.094
 5832TIP3    H117381   0.250   5.928   3.022
 5832TIP3    H217382   0.123   5.891   3.094
 5833TIP3   OH217383   0.308   5.975   2.859
 5833TIP3    H117384   0.382   5.927   2.816
 5833TIP3    H217385   0.338   6.068   2.846
 5834TIP3   OH217386  -0.057   5.873   3.065
 5834TIP3    H117387  -0.072   5.841   2.976
 5834TIP3    H217388  -0.075   5.792   3.119
 5835TIP3   OH217389  -0.040   5.804   2.633
 5835TIP3    H117390  -0.124   5.853   2.648
 5835TIP3    H217391  -0.059   5.720   2.679
 5836TIP3   OH217392   0.223   6.051   4.013
 5836TIP3    H117393   0.240   6.014   4.103
 5836TIP3    H217394   0.310   6.038   3.969
 5837TIP3   OH217395   0.161   7.592   3.432
 5837TIP3    H117396   0.088   7.542   3.470
 5837TIP3    H217397   0.162   7.666   3.494
 5838TIP3   OH217398   1.423   6.967   2.263
 5838TIP3    H117399   1.396   7.059   2.245
 5838TIP3    H217400   1.343   6.919   2.236
 5839TIP3   OH217401   1.417   6.967   2.647
 5839TIP3    H117402   1.452   6.939   2.733
 5839TIP3    H217403   1.380   6.885   2.613
 5840TIP3   OH217404   0.720   6.863   3.010
 5840TIP3    H117405   0.750   6.796   3.074
 5840TIP3    H217406   0.798   6.920   3.005
 5841TIP3   OH217407   1.663   7.269   2.327
 5841TIP3    H117408   1.653   7.199   2.393
 5841TIP3    H217409   1.693   7.344   2.382
 5842TIP3   OH217410   0.693   7.269   2.739
 5842TIP3    H117411   0.685   7.171   2.740
 5842TIP3    H217412   0.790   7.278   2.735
 5843TIP3   OH217413   0.403   6.475   2.523
 5843TIP3    H117414   0.352   6.557   2.542
 5843TIP3    H217415   0.332   6.420   2.486
 5844TIP3   OH217416   0.464   6.767   2.697
 5844TIP3    H117417   0.512   6.689   2.733
 5844TIP3    H217418   0.519   6.790   2.621
 5845TIP3   OH217419   1.314   7.732   2.344
 5845TIP3    H117420   1.361   7.661   2.295
 5845TIP3    H217421   1.308   7.695   2.432
 5846TIP3   OH217422   1.221   7.192   2.693
 5846TIP3    H117423   1.259   7.115   2.649
 5846TIP3    H217424   1.304   7.238   2.717
 5847TIP3   OH217425   1.630   6.700   2.726
 5847TIP3    H117426   1.673   6.615   2.749
 5847TIP3    H217427   1.602   6.680   2.635
 5848TIP3   OH217428   0.968   6.353   2.693
 5848TIP3    H117429   0.949   6.427   2.631
 5848TIP3    H217430   0.919   6.281   2.648
 5849TIP3   OH217431   1.667   6.441   2.318
 5849TIP3    H117432   1.737   6.427   2.387
 5849TIP3    H217433   1.720   6.480   2.247
 5850TIP3   OH217434   0.605   6.556   2.799
 5850TIP3    H117435   0.688   6.536   2.847
 5850TIP3    H217436   0.616   6.500   2.720
 5851TIP3   OH217437   1.046   6.754   2.590
 5851TIP3    H117438   1.139   6.728   2.604
 5851TIP3    H217439   1.006   6.670   2.559
 5852TIP3   OH217440   2.332   6.737   2.870
 5852TIP3    H117441   2.249   6.752   2.821
 5852TIP3    H217442   2.295   6.721   2.958
 5853TIP3   OH217443   0.965   6.335   3.127
 5853TIP3    H117444   0.907   6.375   3.059
 5853TIP3    H217445   0.914   6.356   3.208
 5854TIP3   OH217446   1.317   7.190   2.132
 5854TIP3    H117447   1.271   7.168   2.050
 5854TIP3    H217448   1.272   7.273   2.157
 5855TIP3   OH217449   1.073   7.112   2.922
 5855TIP3    H117450   1.010   7.177   2.960
 5855TIP3    H217451   1.116   7.164   2.852
 5856TIP3   OH217452   1.877   6.445   2.494
 5856TIP3    H117453   1.866   6.411   2.585
 5856TIP3    H217454   1.936   6.521   2.513
 5857TIP3   OH217455   0.838   6.453   2.912
 5857TIP3    H117456   0.899   6.526   2.934
 5857TIP3    H217457   0.887   6.412   2.837
 5858TIP3   OH217458   0.900   7.305   3.018
 5858TIP3    H117459   0.874   7.392   2.980
 5858TIP3    H217460   0.822   7.290   3.076
 5859TIP3   OH217461   0.339   7.002   2.272
 5859TIP3    H117462   0.326   7.030   2.181
 5859TIP3    H217463   0.358   7.089   2.314
 5860TIP3   OH217464   1.735   7.511   2.495
 5860TIP3    H117465   1.645   7.502   2.534
 5860TIP3    H217466   1.727   7.598   2.451
 5861TIP3   OH217467   1.324   6.061   2.837
 5861TIP3    H117468   1.312   5.966   2.855
 5861TIP3    H217469   1.247   6.099   2.885
 5862TIP3   OH217470   1.439   7.559   2.169
 5862TIP3    H117471   1.490   7.478   2.148
 5862TIP3    H217472   1.498   7.626   2.127
 5863TIP3   OH217473   1.582   7.343   2.074
 5863TIP3    H117474   1.537   7.265   2.040
 5863TIP3    H217475   1.617   7.310   2.159
 5864TIP3   OH217476   1.962   7.427   2.839
 5864TIP3    H117477   1.951   7.348   2.780
 5864TIP3    H217478   1.946   7.500   2.776
 5865TIP3   OH217479   1.251   6.815   2.094
 5865TIP3    H117480   1.171   6.868   2.075
 5865TIP3    H217481   1.300   6.820   2.010
 5866TIP3   OH217482   1.213   6.602   1.813
 5866TIP3    H117483   1.278   6.651   1.867
 5866TIP3    H217484   1.272   6.540   1.766
 5867TIP3   OH217485   2.159   7.066   2.685
 5867TIP3    H117486   2.074   7.115   2.691
 5867TIP3    H217487   2.183   7.083   2.592
 5868TIP3   OH217488   1.600   6.899   2.068
 5868TIP3    H117489   1.546   6.926   2.146
 5868TIP3    H217490   1.683   6.873   2.113
 5869TIP3   OH217491   1.834   6.941   2.980
 5869TIP3    H117492   1.832   7.024   3.030
 5869TIP3    H217493   1.749   6.946   2.932
 5870TIP3   OH217494   0.833   6.899   2.483
 5870TIP3    H117495   0.793   6.840   2.416
 5870TIP3    H217496   0.910   6.846   2.513
 5871TIP3   OH217497   0.963   7.311   2.633
 5871TIP3    H117498   0.943   7.265   2.549
 5871TIP3    H217499   1.053   7.278   2.652
 5872TIP3   OH217500   0.970   6.870   2.837
 5872TIP3    H117501   1.004   6.851   2.748
 5872TIP3    H217502   1.013   6.956   2.859
 5873TIP3   OH217503   1.493   7.508   2.615
 5873TIP3    H117504   1.481   7.587   2.671
 5873TIP3    H217505   1.481   7.434   2.678
 5874TIP3   OH217506   1.106   7.428   3.160
 5874TIP3    H117507   1.048   7.490   3.209
 5874TIP3    H217508   1.040   7.374   3.114
 5875TIP3   OH217509   1.444   6.758   1.894
 5875TIP3    H117510   1.501   6.817   1.948
 5875TIP3    H217511   1.469   6.785   1.803
 5876TIP3   OH217512   0.860   6.986   3.260
 5876TIP3    H117513   0.865   7.071   3.308
 5876TIP3    H217514   0.765   6.965   3.273
 5877TIP3   OH217515   1.186   7.440   2.176
 5877TIP3    H117516   1.265   7.495   2.190
 5877TIP3    H217517   1.125   7.501   2.133
 5878TIP3   OH217518   0.902   7.597   3.248
 5878TIP3    H117519   0.866   7.593   3.157
 5878TIP3    H217520   0.823   7.576   3.303
 5879TIP3   OH217521   1.956   6.000   1.940
 5879TIP3    H117522   1.876   6.019   1.994
 5879TIP3    H217523   1.968   6.086   1.895
 5880TIP3   OH217524   0.704   6.738   2.288
 5880TIP3    H117525   0.641   6.784   2.229
 5880TIP3    H217526   0.657   6.656   2.304
 5881TIP3   OH217527   1.755   7.366   1.489
 5881TIP3    H117528   1.762   7.463   1.474
 5881TIP3    H217529   1.849   7.339   1.479
 5882TIP3   OH217530   0.482   7.125   3.195
 5882TIP3    H117531   0.416   7.099   3.128
 5882TIP3    H217532   0.519   7.039   3.224
 5883TIP3   OH217533   0.339   7.323   2.839
 5883TIP3    H117534   0.426   7.297   2.805
 5883TIP3    H217535   0.363   7.394   2.899
 5884TIP3   OH217536   2.198   7.769   2.882
 5884TIP3    H117537   2.198   7.672   2.897
 5884TIP3    H217538   2.115   7.793   2.929
 5885TIP3   OH217539   1.305   7.558   3.018
 5885TIP3    H117540   1.304   7.650   3.051
 5885TIP3    H217541   1.234   7.517   3.073
 5886TIP3   OH217542   1.070   7.695   1.986
 5886TIP3    H117543   1.018   7.668   1.909
 5886TIP3    H217544   1.031   7.781   2.010
 5887TIP3   OH217545   0.514   7.508   2.358
 5887TIP3    H117546   0.570   7.521   2.437
 5887TIP3    H217547   0.463   7.432   2.388
 5888TIP3   OH217548   1.315   7.612   1.608
 5888TIP3    H117549   1.361   7.540   1.559
 5888TIP3    H217550   1.344   7.598   1.699
 5889TIP3   OH217551   1.322   7.638   1.887
 5889TIP3    H117552   1.231   7.647   1.924
 5889TIP3    H217553   1.368   7.594   1.960
 5890TIP3   OH217554   2.089   6.899   3.157
 5890TIP3    H117555   2.012   6.913   3.100
 5890TIP3    H217556   2.108   6.805   3.139
 5891TIP3   OH217557   0.686   7.310   3.186
 5891TIP3    H117558   0.737   7.292   3.268
 5891TIP3    H217559   0.613   7.245   3.193
 5892TIP3   OH217560   1.085   6.132   2.968
 5892TIP3    H117561   0.994   6.104   2.943
 5892TIP3    H217562   1.063   6.217   3.011
 5893TIP3   OH217563   1.619   6.245   3.161
 5893TIP3    H117564   1.688   6.223   3.226
 5893TIP3    H217565   1.535   6.228   3.209
 5894TIP3   OH217566   1.862   6.676   3.084
 5894TIP3    H117567   1.811   6.674   3.168
 5894TIP3    H217568   1.838   6.763   3.047
 5895TIP3   OH217569   1.514   6.804   1.636
 5895TIP3    H117570   1.487   6.778   1.546
 5895TIP3    H217571   1.592   6.859   1.616
 5896TIP3   OH217572   1.222   6.186   1.934
 5896TIP3    H117573   1.199   6.185   2.029
 5896TIP3    H217574   1.191   6.097   1.909
 5897TIP3   OH217575   1.015   6.648   2.987
 5897TIP3    H117576   0.966   6.670   3.069
 5897TIP3    H217577   1.000   6.729   2.933
 5898TIP3   OH217578   0.901   6.533   2.501
 5898TIP3    H117579   0.808   6.508   2.519
 5898TIP3    H217580   0.914   6.492   2.413
 5899TIP3   OH217581   1.390   6.618   2.227
 5899TIP3    H117582   1.336   6.690   2.187
 5899TIP3    H217583   1.446   6.591   2.151
 5900TIP3   OH217584   1.564   6.899   3.315
 5900TIP3    H117585   1.543   6.826   3.377
 5900TIP3    H217586   1.659   6.913   3.336
 5901TIP3   OH217587   1.546   6.648   2.469
 5901TIP3    H117588   1.489   6.676   2.394
 5901TIP3    H217589   1.581   6.565   2.430
 5902TIP3   OH217590   0.834   6.678   3.196
 5902TIP3    H117591   0.863   6.740   3.264
 5902TIP3    H217592   0.821   6.596   3.248
 5903TIP3   OH217593   0.877   6.147   1.900
 5903TIP3    H117594   0.878   6.145   1.997
 5903TIP3    H217595   0.800   6.206   1.885
 5904TIP3   OH217596   0.429   6.200   2.774
 5904TIP3    H117597   0.503   6.232   2.829
 5904TIP3    H217598   0.472   6.167   2.694
 5905TIP3   OH217599   0.405   6.179   2.294
 5905TIP3    H117600   0.449   6.220   2.216
 5905TIP3    H217601   0.345   6.252   2.318
 5906TIP3   OH217602   1.553   6.897   2.891
 5906TIP3    H117603   1.589   6.825   2.833
 5906TIP3    H217604   1.529   6.844   2.970
 5907TIP3   OH217605   1.223   6.355   2.561
 5907TIP3    H117606   1.144   6.356   2.618
 5907TIP3    H217607   1.295   6.356   2.626
 5908TIP3   OH217608   0.663   6.411   2.571
 5908TIP3    H117609   0.569   6.420   2.545
 5908TIP3    H217610   0.685   6.320   2.547
 5909TIP3   OH217611   0.934   6.404   2.261
 5909TIP3    H117612   1.027   6.425   2.242
 5909TIP3    H217613   0.886   6.432   2.179
 5910TIP3   OH217614   1.693   6.435   2.753
 5910TIP3    H117615   1.678   6.442   2.849
 5910TIP3    H217616   1.630   6.366   2.727
 5911TIP3   OH217617   0.775   6.439   2.041
 5911TIP3    H117618   0.696   6.401   1.998
 5911TIP3    H217619   0.823   6.475   1.964
 5912TIP3   OH217620   1.888   8.122   2.983
 5912TIP3    H117621   1.888   8.142   2.888
 5912TIP3    H217622   1.968   8.167   3.013
 5913TIP3   OH217623   0.846   7.232   3.405
 5913TIP3    H117624   0.927   7.261   3.452
 5913TIP3    H217625   0.783   7.229   3.480
 5914TIP3   OH217626   1.311   6.681   2.658
 5914TIP3    H117627   1.388   6.647   2.608
 5914TIP3    H217628   1.325   6.643   2.746
 5915TIP3   OH217629   0.834   6.172   2.538
 5915TIP3    H117630   0.800   6.092   2.583
 5915TIP3    H217631   0.889   6.135   2.467
 5916TIP3   OH217632   1.286   6.577   2.955
 5916TIP3    H117633   1.199   6.618   2.966
 5916TIP3    H217634   1.346   6.638   3.002
 5917TIP3   OH217635   1.027   6.968   2.047
 5917TIP3    H117636   0.951   6.906   2.034
 5917TIP3    H217637   1.008   7.004   2.137
 5918TIP3   OH217638   1.924   7.210   2.675
 5918TIP3    H117639   1.949   7.257   2.592
 5918TIP3    H217640   1.839   7.167   2.650
 5919TIP3   OH217641   1.479   6.287   1.897
 5919TIP3    H117642   1.383   6.274   1.913
 5919TIP3    H217643   1.495   6.379   1.928
 5920TIP3   OH217644   1.422   7.289   3.042
 5920TIP3    H117645   1.447   7.266   3.132
 5920TIP3    H217646   1.385   7.378   3.051
 5921TIP3   OH217647   1.553   6.527   2.005
 5921TIP3    H117648   1.648   6.535   2.028
 5921TIP3    H217649   1.536   6.611   1.957
 5922TIP3   OH217650   0.716   6.994   2.721
 5922TIP3    H117651   0.755   6.964   2.636
 5922TIP3    H217652   0.755   6.930   2.783
 5923TIP3   OH217653   1.167   7.121   1.870
 5923TIP3    H117654   1.124   7.208   1.884
 5923TIP3    H217655   1.113   7.064   1.929
 5924TIP3   OH217656   0.596   6.917   3.335
 5924TIP3    H117657   0.616   6.899   3.429
 5924TIP3    H217658   0.531   6.848   3.315
 5925TIP3   OH217659   1.322   7.028   3.353
 5925TIP3    H117660   1.264   6.969   3.302
 5925TIP3    H217661   1.411   6.995   3.327
 5926TIP3   OH217662   1.584   7.552   2.936
 5926TIP3    H117663   1.488   7.548   2.949
 5926TIP3    H217664   1.612   7.602   3.015
 5927TIP3   OH217665   1.996   6.618   1.845
 5927TIP3    H117666   1.932   6.574   1.784
 5927TIP3    H217667   1.991   6.708   1.806
 5928TIP3   OH217668   2.212   7.480   2.927
 5928TIP3    H117669   2.114   7.473   2.920
 5928TIP3    H217670   2.238   7.448   2.837
 5929TIP3   OH217671   1.694   7.440   1.754
 5929TIP3    H117672   1.670   7.371   1.817
 5929TIP3    H217673   1.706   7.392   1.670
 5930TIP3   OH217674   1.689   7.071   2.592
 5930TIP3    H117675   1.597   7.044   2.606
 5930TIP3    H217676   1.725   6.991   2.549
 5931TIP3   OH217677   0.818   7.296   2.345
 5931TIP3    H117678   0.823   7.378   2.292
 5931TIP3    H217679   0.723   7.285   2.352
 5932TIP3   OH217680   0.402   6.601   2.122
 5932TIP3    H117681   0.433   6.694   2.099
 5932TIP3    H217682   0.309   6.612   2.138
 5933TIP3   OH217683   0.956   7.063   2.290
 5933TIP3    H117684   0.922   7.153   2.309
 5933TIP3    H217685   0.920   7.014   2.365
 5934TIP3   OH217686   1.086   7.641   2.816
 5934TIP3    H117687   1.127   7.713   2.765
 5934TIP3    H217688   1.163   7.607   2.865
 5935TIP3   OH217689   0.745   7.531   2.197
 5935TIP3    H117690   0.658   7.539   2.242
 5935TIP3    H217691   0.777   7.625   2.202
 5936TIP3   OH217692   1.476   7.277   2.773
 5936TIP3    H117693   1.467   7.273   2.871
 5936TIP3    H217694   1.556   7.223   2.760
 5937TIP3   OH217695   1.451   7.164   1.653
 5937TIP3    H117696   1.498   7.141   1.736
 5937TIP3    H217697   1.360   7.140   1.675
 5938TIP3   OH217698   1.723   7.811   2.826
 5938TIP3    H117699   1.646   7.752   2.819
 5938TIP3    H217700   1.707   7.874   2.752
 5939TIP3   OH217701   1.790   7.645   1.470
 5939TIP3    H117702   1.830   7.722   1.427
 5939TIP3    H217703   1.709   7.688   1.507
 5940TIP3   OH217704   0.808   6.419   3.341
 5940TIP3    H117705   0.712   6.429   3.356
 5940TIP3    H217706   0.834   6.363   3.416
 5941TIP3   OH217707   1.608   7.098   1.872
 5941TIP3    H117708   1.599   7.034   1.946
 5941TIP3    H217709   1.705   7.100   1.861
 5942TIP3   OH217710   0.520   7.502   2.976
 5942TIP3    H117711   0.576   7.428   3.006
 5942TIP3    H217712   0.551   7.572   3.035
 5943TIP3   OH217713   0.787   7.147   1.654
 5943TIP3    H117714   0.830   7.065   1.625
 5943TIP3    H217715   0.791   7.138   1.752
 5944TIP3   OH217716   0.792   7.158   1.923
 5944TIP3    H117717   0.834   7.131   2.006
 5944TIP3    H217718   0.775   7.253   1.939
 5945TIP3   OH217719   0.510   6.845   2.132
 5945TIP3    H117720   0.453   6.889   2.197
 5945TIP3    H217721   0.521   6.916   2.066
 5946TIP3   OH217722   1.643   6.487   3.023
 5946TIP3    H117723   1.730   6.523   3.050
 5946TIP3    H217724   1.636   6.406   3.077
 5947TIP3   OH217725   1.528   6.236   2.185
 5947TIP3    H117726   1.515   6.266   2.094
 5947TIP3    H217727   1.568   6.316   2.227
 5948TIP3   OH217728   1.031   7.355   1.902
 5948TIP3    H117729   0.940   7.381   1.924
 5948TIP3    H217730   1.039   7.383   1.810
 5949TIP3   OH217731   1.214   6.414   2.289
 5949TIP3    H117732   1.280   6.485   2.273
 5949TIP3    H217733   1.219   6.405   2.387
 5950TIP3   OH217734   1.483   6.732   3.098
 5950TIP3    H117735   1.506   6.785   3.178
 5950TIP3    H217736   1.542   6.655   3.108
 5951TIP3   OH217737   1.360   6.141   2.392
 5951TIP3    H117738   1.361   6.212   2.459
 5951TIP3    H217739   1.421   6.179   2.325
 5952TIP3   OH217740   0.761   7.433   1.944
 5952TIP3    H117741   0.755   7.514   1.891
 5952TIP3    H217742   0.752   7.469   2.035
 5953TIP3   OH217743   0.874   6.138   2.177
 5953TIP3    H117744   0.868   6.229   2.215
 5953TIP3    H217745   0.970   6.122   2.189
 5954TIP3   OH217746   2.131   6.635   3.058
 5954TIP3    H117747   2.034   6.636   3.070
 5954TIP3    H217748   2.134   6.579   2.978
 5955TIP3   OH217749   1.774   6.832   2.466
 5955TIP3    H117750   1.701   6.769   2.483
 5955TIP3    H217751   1.849   6.789   2.513
 5956TIP3   OH217752   0.514   7.068   1.982
 5956TIP3    H117753   0.498   7.160   1.957
 5956TIP3    H217754   0.564   7.035   1.905
 5957TIP3   OH217755   0.438   6.332   2.071
 5957TIP3    H117756   0.441   6.428   2.067
 5957TIP3    H217757   0.355   6.316   2.028
 5958TIP3   OH217758   1.743   7.783   2.417
 5958TIP3    H117759   1.701   7.830   2.342
 5958TIP3    H217760   1.837   7.802   2.397
 5959TIP3   OH217761   0.822   6.053   2.942
 5959TIP3    H117762   0.787   6.023   2.855
 5959TIP3    H217763   0.805   5.974   2.998
 5960TIP3   OH217764   0.353   7.271   2.326
 5960TIP3    H117765   0.292   7.327   2.376
 5960TIP3    H217766   0.363   7.317   2.242
 5961TIP3   OH217767   0.513   7.808   3.400
 5961TIP3    H117768   0.601   7.810   3.444
 5961TIP3    H217769   0.500   7.712   3.393
 5962TIP3   OH217770   0.997   7.780   3.438
 5962TIP3    H117771   1.090   7.758   3.450
 5962TIP3    H217772   0.974   7.720   3.364
 5963TIP3   OH217773   0.986   7.351   1.620
 5963TIP3    H117774   0.915   7.283   1.626
 5963TIP3    H217775   1.029   7.317   1.539
 5964TIP3   OH217776   1.636   7.683   3.173
 5964TIP3    H117777   1.627   7.612   3.241
 5964TIP3    H217778   1.714   7.732   3.204
 5965TIP3   OH217779   1.436   7.400   1.487
 5965TIP3    H117780   1.475   7.330   1.542
 5965TIP3    H217781   1.487   7.395   1.404
 5966TIP3   OH217782   0.650   7.218   3.600
 5966TIP3    H117783   0.668   7.122   3.603
 5966TIP3    H217784   0.564   7.219   3.552
 5967TIP3   OH217785   0.646   6.879   1.814
 5967TIP3    H117786   0.707   6.846   1.881
 5967TIP3    H217787   0.705   6.883   1.736
 5968TIP3   OH217788   1.254   7.303   3.369
 5968TIP3    H117789   1.213   7.316   3.282
 5968TIP3    H217790   1.287   7.210   3.364
 5969TIP3   OH217791   1.152   7.062   1.598
 5969TIP3    H117792   1.144   7.079   1.694
 5969TIP3    H217793   1.127   6.968   1.593
 5970TIP3   OH217794   1.746   7.310   2.974
 5970TIP3    H117795   1.821   7.356   2.930
 5970TIP3    H217796   1.675   7.376   2.962
 5971TIP3   OH217797   0.767   6.955   3.576
 5971TIP3    H117798   0.838   6.891   3.560
 5971TIP3    H217799   0.790   6.985   3.667
 5972TIP3   OH217800   0.833   6.770   2.012
 5972TIP3    H117801   0.804   6.734   2.097
 5972TIP3    H217802   0.868   6.691   1.966
 5973TIP3   OH217803   1.099   6.835   3.238
 5973TIP3    H117804   1.023   6.898   3.243
 5973TIP3    H217805   1.148   6.870   3.160
 5974TIP3   OH217806   0.933   6.561   1.853
 5974TIP3    H117807   0.906   6.568   1.759
 5974TIP3    H217808   1.030   6.573   1.846
 5975TIP3   OH217809   1.616   7.238   3.372
 5975TIP3    H117810   1.699   7.217   3.327
 5975TIP3    H217811   1.615   7.173   3.444
 5976TIP3   OH217812   1.756   6.898   1.511
 5976TIP3    H117813   1.731   6.852   1.429
 5976TIP3    H217814   1.725   6.988   1.489
 5977TIP3   OH217815   1.222   6.624   3.367
 5977TIP3    H117816   1.224   6.545   3.310
 5977TIP3    H217817   1.180   6.691   3.308
 5978TIP3   OH217818   1.226   6.407   3.172
 5978TIP3    H117819   1.254   6.453   3.090
 5978TIP3    H217820   1.131   6.388   3.153
 5979TIP3   OH217821   1.254   6.946   3.045
 5979TIP3    H117822   1.337   6.953   2.997
 5979TIP3    H217823   1.199   7.015   3.001
 5980TIP3   OH217824   1.837   6.915   3.428
 5980TIP3    H117825   1.884   6.831   3.434
 5980TIP3    H217826   1.906   6.973   3.391
 5981TIP3   OH217827   1.876   7.168   3.164
 5981TIP3    H117828   1.819   7.221   3.104
 5981TIP3    H217829   1.964   7.186   3.123
 5982TIP3   OH217830   1.100   6.739   3.594
 5982TIP3    H117831   1.031   6.672   3.609
 5982TIP3    H217832   1.136   6.711   3.507
 5983TIP3   OH217833   1.358   6.175   3.241
 5983TIP3    H117834   1.311   6.258   3.217
 5983TIP3    H217835   1.288   6.108   3.226
 5984TIP3   OH217836   1.484   6.681   3.457
 5984TIP3    H117837   1.474   6.671   3.553
 5984TIP3    H217838   1.393   6.656   3.428
 5985TIP3   OH217839   1.723   6.631   3.313
 5985TIP3    H117840   1.647   6.632   3.375
 5985TIP3    H217841   1.797   6.599   3.370
 5986TIP3   OH217842   1.953   6.569   3.464
 5986TIP3    H117843   1.964   6.474   3.483
 5986TIP3    H217844   1.948   6.609   3.553
 5987TIP3   OH217845   0.941   6.517   3.647
 5987TIP3    H117846   0.951   6.427   3.612
 5987TIP3    H217847   0.975   6.507   3.738
 5988TIP3   OH217848   1.450   6.182   3.498
 5988TIP3    H117849   1.522   6.115   3.490
 5988TIP3    H217850   1.413   6.179   3.408
 5989TIP3   OH217851   1.516   6.398   3.657
 5989TIP3    H117852   1.493   6.329   3.592
 5989TIP3    H217853   1.440   6.460   3.650
 5990TIP3   OH217854   0.294   7.458   2.552
 5990TIP3    H117855   0.252   7.399   2.616
 5990TIP3    H217856   0.330   7.526   2.612
 5991TIP3   OH217857   1.994   7.878   2.371
 5991TIP3    H117858   2.023   7.909   2.459
 5991TIP3    H217859   2.060   7.918   2.313
 5992TIP3   OH217860   2.027   7.896   2.655
 5992TIP3    H117861   1.983   7.808   2.650
 5992TIP3    H217862   2.102   7.873   2.711
 5993TIP3   OH217863   2.071   7.572   3.226
 5993TIP3    H117864   1.999   7.579   3.292
 5993TIP3    H217865   2.113   7.661   3.233
 5994TIP3   OH217866   1.889   7.084   1.847
 5994TIP3    H117867   1.958   7.148   1.821
 5994TIP3    H217868   1.930   7.045   1.928
 5995TIP3   OH217869   2.015   6.952   2.051
 5995TIP3    H117870   1.951   6.910   2.112
 5995TIP3    H217871   2.081   6.990   2.113
 5996TIP3   OH217872   2.067   7.343   2.482
 5996TIP3    H117873   2.125   7.280   2.435
 5996TIP3    H217874   2.061   7.417   2.418
 5997TIP3   OH217875   1.902   7.645   2.678
 5997TIP3    H117876   1.831   7.684   2.731
 5997TIP3    H217877   1.852   7.595   2.610
 5998TIP3   OH217878   1.954   6.859   1.698
 5998TIP3    H117879   1.882   6.865   1.632
 5998TIP3    H217880   1.930   6.935   1.755
 5999TIP3   OH217881   1.827   6.531   1.650
 5999TIP3    H117882   1.779   6.573   1.578
 5999TIP3    H217883   1.800   6.437   1.639
 6000TIP3   OH217884   1.829   6.807   2.198
 6000TIP3    H117885   1.842   6.711   2.200
 6000TIP3    H217886   1.816   6.826   2.294
 6001TIP3   OH217887   0.456   6.892   2.943
 6001TIP3    H117888   0.455   6.857   2.851
 6001TIP3    H217889   0.553   6.889   2.961
 6002TIP3   OH217890   2.118   7.233   3.055
 6002TIP3    H117891   2.190   7.166   3.047
 6002TIP3    H217892   2.148   7.301   2.993
 6003TIP3   OH217893   2.305   7.041   3.077
 6003TIP3    H117894   2.230   6.988   3.110
 6003TIP3    H217895   2.378   6.977   3.092
 6004TIP3   OH217896   1.770   6.263   1.634
 6004TIP3    H117897   1.847   6.239   1.690
 6004TIP3    H217898   1.698   6.209   1.668
 6005TIP3   OH217899   1.823   6.522   2.092
 6005TIP3    H117900   1.866   6.434   2.108
 6005TIP3    H217901   1.885   6.558   2.026
 6006TIP3   OH217902   1.987   6.704   2.580
 6006TIP3    H117903   2.075   6.734   2.548
 6006TIP3    H217904   2.003   6.709   2.676
 6007TIP3   OH217905   2.059   6.843   2.824
 6007TIP3    H117906   1.979   6.876   2.867
 6007TIP3    H217907   2.092   6.922   2.777
 6008TIP3   OH217908   0.674   6.570   3.620
 6008TIP3    H117909   0.772   6.564   3.623
 6008TIP3    H217910   0.650   6.486   3.663
 6009TIP3   OH217911   2.510   6.435   3.376
 6009TIP3    H117912   2.565   6.368   3.330
 6009TIP3    H217913   2.479   6.490   3.301
 6010TIP3   OH217914   1.936   6.273   2.129
 6010TIP3    H117915   1.985   6.260   2.213
 6010TIP3    H217916   1.876   6.196   2.131
 6011TIP3   OH217917   0.637   6.260   2.945
 6011TIP3    H117918   0.701   6.188   2.959
 6011TIP3    H217919   0.696   6.337   2.944
 6012TIP3   OH217920   0.441   6.532   3.024
 6012TIP3    H117921   0.490   6.531   2.939
 6012TIP3    H217922   0.469   6.617   3.062
 6013TIP3   OH217923   2.381   6.578   3.184
 6013TIP3    H117924   2.293   6.617   3.201
 6013TIP3    H217925   2.354   6.504   3.126
 6014TIP3   OH217926   2.015   6.213   1.759
 6014TIP3    H117927   2.060   6.139   1.714
 6014TIP3    H217928   2.084   6.282   1.759
 6015TIP3   OH217929   0.421   6.035   2.522
 6015TIP3    H117930   0.328   6.035   2.551
 6015TIP3    H217931   0.418   6.095   2.445
 6016TIP3   OH217932   1.581   7.742   2.030
 6016TIP3    H117933   1.633   7.727   1.949
 6016TIP3    H217934   1.635   7.807   2.078
 6017TIP3   OH217935   0.639   6.109   3.333
 6017TIP3    H117936   0.593   6.110   3.419
 6017TIP3    H217937   0.574   6.158   3.278
 6018TIP3   OH217938   0.686   7.548   3.417
 6018TIP3    H117939   0.595   7.517   3.399
 6018TIP3    H217940   0.697   7.524   3.510
 6019TIP3   OH217941   0.857   7.575   2.962
 6019TIP3    H117942   0.812   7.653   2.924
 6019TIP3    H217943   0.945   7.588   2.919
 6020TIP3   OH217944   1.305   7.824   3.101
 6020TIP3    H117945   1.347   7.822   3.190
 6020TIP3    H217946   1.372   7.873   3.049
 6021TIP3   OH217947   1.484   7.974   2.958
 6021TIP3    H117948   1.555   7.921   2.918
 6021TIP3    H217949   1.536   8.030   3.020
 6022TIP3   OH217950   2.288   6.334   3.076
 6022TIP3    H117951   2.219   6.360   3.010
 6022TIP3    H217952   2.306   6.242   3.049
 6023TIP3   OH217953   0.541   7.833   2.987
 6023TIP3    H117954   0.452   7.854   2.954
 6023TIP3    H217955   0.540   7.877   3.074
 6024TIP3   OH217956   0.775   7.813   2.843
 6024TIP3    H117957   0.691   7.827   2.891
 6024TIP3    H217958   0.754   7.847   2.754
 6025TIP3   OH217959   1.198   7.843   2.643
 6025TIP3    H117960   1.132   7.865   2.574
 6025TIP3    H217961   1.212   7.931   2.684
 6026TIP3   OH217962   1.467   7.783   2.693
 6026TIP3    H117963   1.372   7.798   2.673
 6026TIP3    H217964   1.508   7.860   2.650
 6027TIP3   OH217965   1.676   7.976   2.609
 6027TIP3    H117966   1.661   8.060   2.560
 6027TIP3    H217967   1.701   7.914   2.537
 6028TIP3   OH217968   0.451   7.617   2.730
 6028TIP3    H117969   0.481   7.590   2.820
 6028TIP3    H217970   0.523   7.575   2.677
 6029TIP3   OH217971   0.651   7.498   2.591
 6029TIP3    H117972   0.667   7.413   2.639
 6029TIP3    H217973   0.743   7.535   2.588
 6030TIP3   OH217974   0.912   7.596   2.592
 6030TIP3    H117975   0.945   7.505   2.578
 6030TIP3    H217976   0.956   7.617   2.676
 6031TIP3   OH217977   1.474   6.248   2.668
 6031TIP3    H117978   1.439   6.179   2.726
 6031TIP3    H217979   1.555   6.206   2.631
 6032TIP3   OH217980   2.004   6.114   2.574
 6032TIP3    H117981   2.048   6.179   2.515
 6032TIP3    H217982   1.920   6.160   2.592
 6033TIP3   OH217983   2.104   6.234   2.343
 6033TIP3    H117984   2.180   6.185   2.305
 6033TIP3    H217985   2.135   6.327   2.334
 6034TIP3   OH217986   0.732   5.961   2.695
 6034TIP3    H117987   0.640   5.928   2.695
 6034TIP3    H217988   0.781   5.876   2.690
 6035TIP3   OH217989   0.519   5.828   2.343
 6035TIP3    H117990   0.547   5.888   2.272
 6035TIP3    H217991   0.486   5.892   2.410
 6036TIP3   OH217992   1.175   5.992   2.576
 6036TIP3    H117993   1.232   6.042   2.516
 6036TIP3    H217994   1.194   6.034   2.660
 6037TIP3   OH217995   1.707   6.137   2.564
 6037TIP3    H117996   1.728   6.105   2.475
 6037TIP3    H217997   1.700   6.053   2.615
 6038TIP3   OH217998   1.751   6.060   2.120
 6038TIP3    H117999   1.667   6.105   2.135
 6038TIP3    H218000   1.737   5.976   2.168
 6039TIP3   OH218001   0.636   5.988   2.109
 6039TIP3    H118002   0.687   5.927   2.053
 6039TIP3    H218003   0.707   6.045   2.145
 6040TIP3   OH218004   1.152   6.163   2.203
 6040TIP3    H118005   1.211   6.120   2.266
 6040TIP3    H218006   1.168   6.257   2.230
 6041TIP3   OH218007   1.063   7.601   1.696
 6041TIP3    H118008   1.154   7.617   1.663
 6041TIP3    H218009   1.046   7.514   1.657
 6042TIP3   OH218010   1.727   7.707   1.798
 6042TIP3    H118011   1.718   7.609   1.785
 6042TIP3    H218012   1.682   7.741   1.718
 6043TIP3   OH218013   0.941   6.235   3.580
 6043TIP3    H118014   0.905   6.171   3.643
 6043TIP3    H218015   1.034   6.240   3.611
 6044TIP3   OH218016   1.186   6.236   3.704
 6044TIP3    H118017   1.274   6.216   3.668
 6044TIP3    H218018   1.176   6.167   3.772
 6045TIP3   OH218019   2.011   6.298   3.494
 6045TIP3    H118020   2.034   6.268   3.585
 6045TIP3    H218021   2.099   6.296   3.450
 6046TIP3   OH218022   1.953   7.852   2.985
 6046TIP3    H118023   1.874   7.819   2.939
 6046TIP3    H218024   1.933   7.948   2.989
 6047TIP3   OH218025   3.219   7.222   1.752
 6047TIP3    H118026   3.193   7.315   1.734
 6047TIP3    H218027   3.139   7.176   1.722
 6048TIP3   OH218028   3.217   7.223   2.132
 6048TIP3    H118029   3.249   7.195   2.220
 6048TIP3    H218030   3.175   7.142   2.099
 6049TIP3   OH218031   2.517   7.119   2.496
 6049TIP3    H118032   2.547   7.051   2.560
 6049TIP3    H218033   2.593   7.179   2.496
 6050TIP3   OH218034   3.459   7.524   1.814
 6050TIP3    H118035   3.450   7.457   1.883
 6050TIP3    H218036   3.489   7.602   1.865
 6051TIP3   OH218037   2.487   7.528   2.223
 6051TIP3    H118038   2.479   7.430   2.226
 6051TIP3    H218039   2.584   7.537   2.218
 6052TIP3   OH218040   2.198   6.735   2.006
 6052TIP3    H118041   2.149   6.818   2.023
 6052TIP3    H218042   2.125   6.678   1.977
 6053TIP3   OH218043   2.254   7.018   2.177
 6053TIP3    H118044   2.303   6.943   2.218
 6053TIP3    H218045   2.318   7.050   2.112
 6054TIP3   OH218046   3.091   7.985   1.816
 6054TIP3    H118047   3.152   7.916   1.783
 6054TIP3    H218048   3.122   8.002   1.906
 6055TIP3   OH218049   3.017   7.448   2.180
 6055TIP3    H118050   3.055   7.372   2.133
 6055TIP3    H218051   3.101   7.493   2.205
 6056TIP3   OH218052   4.026   6.771   2.176
 6056TIP3    H118053   4.057   6.852   2.223
 6056TIP3    H218054   4.053   6.791   2.085
 6057TIP3   OH218055   3.428   6.952   2.214
 6057TIP3    H118056   3.471   6.867   2.235
 6057TIP3    H218057   3.399   6.936   2.123
 6058TIP3   OH218058   2.765   6.611   2.179
 6058TIP3    H118059   2.744   6.684   2.118
 6058TIP3    H218060   2.714   6.538   2.137
 6059TIP3   OH218061   3.460   6.698   1.801
 6059TIP3    H118062   3.532   6.685   1.867
 6059TIP3    H218063   3.511   6.736   1.728
 6060TIP3   OH218064   2.404   6.815   2.284
 6060TIP3    H118065   2.485   6.793   2.334
 6060TIP3    H218066   2.415   6.756   2.207
 6061TIP3   OH218067   2.842   7.011   2.075
 6061TIP3    H118068   2.935   6.984   2.091
 6061TIP3    H218069   2.802   6.926   2.045
 6062TIP3   OH218070   4.101   6.976   2.348
 6062TIP3    H118071   4.018   7.024   2.330
 6062TIP3    H218072   4.118   7.002   2.440
 6063TIP3   OH218073   2.762   6.593   2.614
 6063TIP3    H118074   2.702   6.632   2.547
 6063TIP3    H218075   2.710   6.611   2.695
 6064TIP3   OH218076   3.110   7.444   1.623
 6064TIP3    H118077   3.070   7.427   1.537
 6064TIP3    H218078   3.071   7.531   1.645
 6065TIP3   OH218079   2.869   7.369   2.409
 6065TIP3    H118080   2.805   7.433   2.447
 6065TIP3    H218081   2.911   7.421   2.339
 6066TIP3   OH218082   3.670   6.702   1.974
 6066TIP3    H118083   3.661   6.660   2.061
 6066TIP3    H218084   3.726   6.779   1.995
 6067TIP3   OH218085   2.635   6.712   2.399
 6067TIP3    H118086   2.698   6.784   2.421
 6067TIP3    H218087   2.683   6.669   2.325
 6068TIP3   OH218088   2.696   7.561   2.505
 6068TIP3    H118089   2.670   7.648   2.467
 6068TIP3    H218090   2.618   7.546   2.563
 6069TIP3   OH218091   2.095   7.251   1.745
 6069TIP3    H118092   2.053   7.275   1.660
 6069TIP3    H218093   2.122   7.338   1.780
 6070TIP3   OH218094   3.532   7.764   1.980
 6070TIP3    H118095   3.443   7.761   2.022
 6070TIP3    H218096   3.528   7.850   1.935
 6071TIP3   OH218097   3.822   6.672   2.342
 6071TIP3    H118098   3.735   6.705   2.313
 6071TIP3    H218099   3.882   6.703   2.271
 6072TIP3   OH218100   3.122   6.317   2.327
 6072TIP3    H118101   3.110   6.222   2.346
 6072TIP3    H218102   3.043   6.355   2.372
 6073TIP3   OH218103   3.240   7.813   1.661
 6073TIP3    H118104   3.290   7.732   1.634
 6073TIP3    H218105   3.296   7.881   1.617
 6074TIP3   OH218106   3.378   7.597   1.560
 6074TIP3    H118107   3.342   7.517   1.521
 6074TIP3    H218108   3.412   7.564   1.646
 6075TIP3   OH218109   3.757   7.682   2.326
 6075TIP3    H118110   3.748   7.605   2.266
 6075TIP3    H218111   3.741   7.757   2.265
 6076TIP3   OH218112   3.047   7.073   1.580
 6076TIP3    H118113   2.968   7.127   1.559
 6076TIP3    H218114   3.097   7.076   1.497
 6077TIP3   OH218115   3.008   6.859   1.299
 6077TIP3    H118116   3.074   6.909   1.350
 6077TIP3    H218117   3.067   6.797   1.252
 6078TIP3   OH218118   3.953   7.316   2.169
 6078TIP3    H118119   3.871   7.370   2.175
 6078TIP3    H218120   3.983   7.341   2.079
 6079TIP3   OH218121   3.395   7.155   1.555
 6079TIP3    H118122   3.342   7.182   1.633
 6079TIP3    H218123   3.480   7.131   1.599
 6080TIP3   OH218124   3.632   7.198   2.465
 6080TIP3    H118125   3.630   7.281   2.516
 6080TIP3    H218126   3.546   7.203   2.419
 6081TIP3   OH218127   2.629   7.155   1.970
 6081TIP3    H118128   2.590   7.097   1.902
 6081TIP3    H218129   2.707   7.103   1.999
 6082TIP3   OH218130   2.759   7.564   2.120
 6082TIP3    H118131   2.740   7.520   2.036
 6082TIP3    H218132   2.850   7.533   2.139
 6083TIP3   OH218133   2.768   7.127   2.324
 6083TIP3    H118134   2.801   7.109   2.234
 6083TIP3    H218135   2.809   7.213   2.346
 6084TIP3   OH218136   3.294   7.765   2.111
 6084TIP3    H118137   3.256   7.829   2.172
 6084TIP3    H218138   3.283   7.681   2.160
 6085TIP3   OH218139   2.903   7.684   2.648
 6085TIP3    H118140   2.844   7.746   2.696
 6085TIP3    H218141   2.836   7.630   2.601
 6086TIP3   OH218142   3.239   7.015   1.380
 6086TIP3    H118143   3.297   7.073   1.433
 6086TIP3    H218144   3.265   7.040   1.288
 6087TIP3   OH218145   2.655   7.241   2.747
 6087TIP3    H118146   2.661   7.327   2.794
 6087TIP3    H218147   2.561   7.221   2.760
 6088TIP3   OH218148   2.980   7.699   1.652
 6088TIP3    H118149   3.057   7.751   1.681
 6088TIP3    H218150   2.919   7.768   1.623
 6089TIP3   OH218151   2.697   7.853   2.735
 6089TIP3    H118152   2.662   7.850   2.644
 6089TIP3    H218153   2.618   7.831   2.789
 6090TIP3   OH218154   3.752   6.257   1.426
 6090TIP3    H118155   3.673   6.280   1.479
 6090TIP3    H218156   3.766   6.341   1.378
 6091TIP3   OH218157   2.499   6.996   1.770
 6091TIP3    H118158   2.430   7.042   1.717
 6091TIP3    H218159   2.453   6.915   1.795
 6092TIP3   OH218160   3.552   7.623   0.981
 6092TIP3    H118161   3.558   7.719   0.961
 6092TIP3    H218162   3.644   7.595   0.964
 6093TIP3   OH218163   2.277   7.381   2.683
 6093TIP3    H118164   2.212   7.356   2.614
 6093TIP3    H218165   2.313   7.294   2.710
 6094TIP3   OH218166   2.131   7.576   2.313
 6094TIP3    H118167   2.227   7.567   2.306
 6094TIP3    H218168   2.124   7.653   2.371
 6095TIP3   OH218169   3.995   8.026   2.370
 6095TIP3    H118170   3.993   7.929   2.384
 6095TIP3    H218171   3.912   8.051   2.416
 6096TIP3   OH218172   3.100   7.814   2.504
 6096TIP3    H118173   3.101   7.906   2.539
 6096TIP3    H218174   3.030   7.774   2.560
 6097TIP3   OH218175   2.855   7.939   1.457
 6097TIP3    H118176   2.816   7.928   1.369
 6097TIP3    H218177   2.829   8.030   1.481
 6098TIP3   OH218178   2.298   7.791   1.840
 6098TIP3    H118179   2.348   7.783   1.925
 6098TIP3    H218180   2.240   7.714   1.848
 6099TIP3   OH218181   3.061   7.842   1.100
 6099TIP3    H118182   3.120   7.773   1.063
 6099TIP3    H218183   3.097   7.852   1.190
 6100TIP3   OH218184   3.111   7.891   1.370
 6100TIP3    H118185   3.025   7.899   1.416
 6100TIP3    H218186   3.168   7.857   1.441
 6101TIP3   OH218187   3.885   7.158   2.646
 6101TIP3    H118188   3.805   7.171   2.593
 6101TIP3    H218189   3.901   7.062   2.635
 6102TIP3   OH218190   2.482   7.565   2.673
 6102TIP3    H118191   2.532   7.548   2.755
 6102TIP3    H218192   2.408   7.501   2.680
 6103TIP3   OH218193   2.882   6.391   2.454
 6103TIP3    H118194   2.792   6.359   2.431
 6103TIP3    H218195   2.858   6.473   2.500
 6104TIP3   OH218196   3.415   6.504   2.649
 6104TIP3    H118197   3.484   6.476   2.712
 6104TIP3    H218198   3.332   6.483   2.697
 6105TIP3   OH218199   3.653   6.932   2.566
 6105TIP3    H118200   3.606   6.929   2.653
 6105TIP3    H218201   3.630   7.021   2.533
 6106TIP3   OH218202   3.311   7.060   1.122
 6106TIP3    H118203   3.282   7.037   1.032
 6106TIP3    H218204   3.390   7.113   1.102
 6107TIP3   OH218205   3.025   6.439   1.425
 6107TIP3    H118206   2.996   6.439   1.518
 6107TIP3    H218207   2.987   6.354   1.395
 6108TIP3   OH218208   2.815   6.905   2.474
 6108TIP3    H118209   2.763   6.924   2.555
 6108TIP3    H218210   2.797   6.986   2.421
 6109TIP3   OH218211   2.697   6.790   1.986
 6109TIP3    H118212   2.604   6.764   2.005
 6109TIP3    H218213   2.709   6.747   1.899
 6110TIP3   OH218214   3.185   6.874   1.713
 6110TIP3    H118215   3.132   6.947   1.674
 6110TIP3    H218216   3.242   6.849   1.638
 6111TIP3   OH218217   3.361   7.156   2.802
 6111TIP3    H118218   3.339   7.082   2.864
 6111TIP3    H218219   3.455   7.169   2.824
 6112TIP3   OH218220   3.345   6.904   1.955
 6112TIP3    H118221   3.286   6.938   1.884
 6112TIP3    H218222   3.376   6.822   1.912
 6113TIP3   OH218223   2.632   6.933   2.681
 6113TIP3    H118224   2.653   6.995   2.753
 6113TIP3    H218225   2.613   6.851   2.731
 6114TIP3   OH218226   2.678   6.408   1.392
 6114TIP3    H118227   2.674   6.407   1.490
 6114TIP3    H218228   2.602   6.465   1.372
 6115TIP3   OH218229   2.224   6.459   2.251
 6115TIP3    H118230   2.292   6.490   2.315
 6115TIP3    H218231   2.277   6.419   2.182
 6116TIP3   OH218232   2.199   6.437   1.780
 6116TIP3    H118233   2.245   6.479   1.704
 6116TIP3    H218234   2.139   6.510   1.805
 6117TIP3   OH218235   3.352   7.153   2.377
 6117TIP3    H118236   3.386   7.080   2.320
 6117TIP3    H218237   3.325   7.101   2.456
 6118TIP3   OH218238   3.019   6.606   2.048
 6118TIP3    H118239   2.938   6.610   2.103
 6118TIP3    H218240   3.089   6.611   2.115
 6119TIP3   OH218241   2.460   6.670   2.054
 6119TIP3    H118242   2.364   6.677   2.031
 6119TIP3    H218243   2.480   6.576   2.037
 6120TIP3   OH218244   2.730   6.661   1.745
 6120TIP3    H118245   2.823   6.682   1.726
 6120TIP3    H218246   2.683   6.688   1.663
 6121TIP3   OH218247   3.515   6.689   2.249
 6121TIP3    H118248   3.484   6.700   2.341
 6121TIP3    H218249   3.449   6.628   2.214
 6122TIP3   OH218250   2.568   6.694   1.524
 6122TIP3    H118251   2.493   6.655   1.475
 6122TIP3    H218252   2.620   6.733   1.450
 6123TIP3   OH218253   3.684   8.377   2.468
 6123TIP3    H118254   3.680   8.397   2.373
 6123TIP3    H218255   3.763   8.426   2.496
 6124TIP3   OH218256   2.642   7.488   2.891
 6124TIP3    H118257   2.722   7.518   2.940
 6124TIP3    H218258   2.578   7.485   2.965
 6125TIP3   OH218259   3.107   6.938   2.145
 6125TIP3    H118260   3.183   6.902   2.098
 6125TIP3    H218261   3.117   6.900   2.235
 6126TIP3   OH218262   2.629   6.428   2.025
 6126TIP3    H118263   2.595   6.349   2.073
 6126TIP3    H218264   2.681   6.389   1.954
 6127TIP3   OH218265   3.084   6.836   2.437
 6127TIP3    H118266   2.994   6.873   2.452
 6127TIP3    H218267   3.141   6.896   2.488
 6128TIP3   OH218268   2.820   7.228   1.530
 6128TIP3    H118269   2.746   7.164   1.521
 6128TIP3    H218270   2.804   7.263   1.621
 6129TIP3   OH218271   3.722   7.464   2.162
 6129TIP3    H118272   3.747   7.513   2.080
 6129TIP3    H218273   3.635   7.425   2.136
 6130TIP3   OH218274   3.279   6.542   1.389
 6130TIP3    H118275   3.182   6.529   1.399
 6130TIP3    H218276   3.293   6.635   1.414
 6131TIP3   OH218277   3.221   7.547   2.528
 6131TIP3    H118278   3.242   7.523   2.619
 6131TIP3    H218279   3.179   7.634   2.537
 6132TIP3   OH218280   3.349   6.785   1.493
 6132TIP3    H118281   3.445   6.793   1.512
 6132TIP3    H218282   3.331   6.867   1.442
 6133TIP3   OH218283   2.511   7.249   2.208
 6133TIP3    H118284   2.552   7.220   2.124
 6133TIP3    H218285   2.550   7.187   2.272
 6134TIP3   OH218286   2.965   7.376   1.349
 6134TIP3    H118287   2.919   7.463   1.356
 6134TIP3    H218288   2.913   7.322   1.411
 6135TIP3   OH218289   2.392   7.170   2.821
 6135TIP3    H118290   2.411   7.154   2.916
 6135TIP3    H218291   2.323   7.103   2.803
 6136TIP3   OH218292   3.117   7.284   2.841
 6136TIP3    H118293   3.058   7.225   2.792
 6136TIP3    H218294   3.205   7.251   2.813
 6137TIP3   OH218295   3.376   7.814   2.420
 6137TIP3    H118296   3.282   7.805   2.441
 6137TIP3    H218297   3.408   7.861   2.501
 6138TIP3   OH218298   3.790   6.877   1.334
 6138TIP3    H118299   3.728   6.832   1.272
 6138TIP3    H218300   3.787   6.966   1.292
 6139TIP3   OH218301   4.008   7.734   2.415
 6139TIP3    H118302   3.910   7.729   2.406
 6139TIP3    H218303   4.034   7.705   2.324
 6140TIP3   OH218304   3.487   7.698   1.241
 6140TIP3    H118305   3.467   7.626   1.302
 6140TIP3    H218306   3.504   7.653   1.156
 6141TIP3   OH218307   3.485   7.327   2.081
 6141TIP3    H118308   3.392   7.300   2.093
 6141TIP3    H218309   3.521   7.248   2.035
 6142TIP3   OH218310   2.612   7.551   1.829
 6142TIP3    H118311   2.617   7.635   1.779
 6142TIP3    H218312   2.517   7.543   1.844
 6143TIP3   OH218313   2.174   6.859   1.533
 6143TIP3    H118314   2.222   6.942   1.555
 6143TIP3    H218315   2.098   6.865   1.596
 6144TIP3   OH218316   2.752   7.319   1.776
 6144TIP3    H118317   2.717   7.409   1.793
 6144TIP3    H218318   2.716   7.270   1.852
 6145TIP3   OH218319   2.880   7.892   2.306
 6145TIP3    H118320   2.909   7.980   2.277
 6145TIP3    H218321   2.958   7.860   2.355
 6146TIP3   OH218322   2.533   7.794   1.683
 6146TIP3    H118323   2.447   7.802   1.730
 6146TIP3    H218324   2.566   7.886   1.690
 6147TIP3   OH218325   3.273   7.531   2.259
 6147TIP3    H118326   3.263   7.530   2.357
 6147TIP3    H218327   3.353   7.479   2.247
 6148TIP3   OH218328   3.242   7.417   1.145
 6148TIP3    H118329   3.298   7.395   1.222
 6148TIP3    H218330   3.154   7.401   1.182
 6149TIP3   OH218331   3.524   8.068   2.313
 6149TIP3    H118332   3.448   8.008   2.307
 6149TIP3    H218333   3.510   8.131   2.238
 6150TIP3   OH218334   3.585   7.900   0.963
 6150TIP3    H118335   3.625   7.972   0.911
 6150TIP3    H218336   3.505   7.946   0.994
 6151TIP3   OH218337   2.601   6.679   2.827
 6151TIP3    H118338   2.504   6.693   2.839
 6151TIP3    H218339   2.620   6.616   2.898
 6152TIP3   OH218340   3.404   7.356   1.360
 6152TIP3    H118341   3.397   7.290   1.432
 6152TIP3    H218342   3.501   7.357   1.347
 6153TIP3   OH218343   2.320   7.761   2.462
 6153TIP3    H118344   2.372   7.685   2.492
 6153TIP3    H218345   2.351   7.830   2.522
 6154TIP3   OH218346   2.607   7.400   1.137
 6154TIP3    H118347   2.636   7.310   1.115
 6154TIP3    H218348   2.593   7.392   1.234
 6155TIP3   OH218349   2.557   7.410   1.412
 6155TIP3    H118350   2.628   7.381   1.472
 6155TIP3    H218351   2.563   7.508   1.422
 6156TIP3   OH218352   2.292   7.103   1.617
 6156TIP3    H118353   2.226   7.147   1.676
 6156TIP3    H218354   2.307   7.174   1.553
 6157TIP3   OH218355   3.442   6.739   2.507
 6157TIP3    H118356   3.521   6.779   2.548
 6157TIP3    H218357   3.428   6.659   2.563
 6158TIP3   OH218358   3.325   6.491   1.671
 6158TIP3    H118359   3.310   6.519   1.579
 6158TIP3    H218360   3.364   6.572   1.711
 6159TIP3   OH218361   2.818   7.604   1.360
 6159TIP3    H118362   2.736   7.639   1.400
 6159TIP3    H218363   2.846   7.680   1.307
 6160TIP3   OH218364   3.011   6.669   1.775
 6160TIP3    H118365   3.076   6.741   1.758
 6160TIP3    H218366   3.016   6.661   1.873
 6161TIP3   OH218367   3.281   6.990   2.585
 6161TIP3    H118368   3.299   7.045   2.664
 6161TIP3    H218369   3.337   6.912   2.601
 6162TIP3   OH218370   3.163   6.396   1.876
 6162TIP3    H118371   3.161   6.469   1.942
 6162TIP3    H218372   3.221   6.437   1.808
 6163TIP3   OH218373   2.557   7.682   1.430
 6163TIP3    H118374   2.534   7.755   1.368
 6163TIP3    H218375   2.547   7.726   1.517
 6164TIP3   OH218376   2.669   6.395   1.668
 6164TIP3    H118377   2.663   6.485   1.705
 6164TIP3    H218378   2.765   6.380   1.679
 6165TIP3   OH218379   3.921   6.892   2.565
 6165TIP3    H118380   3.823   6.889   2.571
 6165TIP3    H218381   3.933   6.849   2.479
 6166TIP3   OH218382   3.571   7.085   1.954
 6166TIP3    H118383   3.497   7.025   1.968
 6166TIP3    H218384   3.644   7.040   2.002
 6167TIP3   OH218385   2.284   7.317   1.423
 6167TIP3    H118386   2.351   7.386   1.438
 6167TIP3    H218387   2.332   7.262   1.358
 6168TIP3   OH218388   2.230   6.589   1.550
 6168TIP3    H118389   2.229   6.687   1.550
 6168TIP3    H218390   2.138   6.568   1.528
 6169TIP3   OH218391   3.541   8.030   1.902
 6169TIP3    H118392   3.495   8.081   1.832
 6169TIP3    H218393   3.634   8.055   1.881
 6170TIP3   OH218394   2.623   6.305   2.430
 6170TIP3    H118395   2.585   6.275   2.345
 6170TIP3    H218396   2.608   6.227   2.488
 6171TIP3   OH218397   2.155   7.526   1.813
 6171TIP3    H118398   2.083   7.558   1.869
 6171TIP3    H218399   2.131   7.567   1.726
 6172TIP3   OH218400   2.311   8.068   2.883
 6172TIP3    H118401   2.397   8.067   2.930
 6172TIP3    H218402   2.291   7.973   2.881
 6173TIP3   OH218403   2.793   8.035   2.927
 6173TIP3    H118404   2.888   8.016   2.935
 6173TIP3    H218405   2.770   7.977   2.852
 6174TIP3   OH218406   2.773   7.611   1.056
 6174TIP3    H118407   2.727   7.534   1.096
 6174TIP3    H218408   2.852   7.568   1.016
 6175TIP3   OH218409   3.434   7.937   2.659
 6175TIP3    H118410   3.425   7.868   2.729
 6175TIP3    H218411   3.510   7.989   2.691
 6176TIP3   OH218412   3.209   7.651   0.969
 6176TIP3    H118413   3.265   7.593   1.024
 6176TIP3    H218414   3.260   7.657   0.886
 6177TIP3   OH218415   2.442   7.475   3.083
 6177TIP3    H118416   2.460   7.379   3.086
 6177TIP3    H218417   2.354   7.477   3.040
 6178TIP3   OH218418   2.419   7.125   1.275
 6178TIP3    H118419   2.473   7.094   1.350
 6178TIP3    H218420   2.489   7.129   1.206
 6179TIP3   OH218421   3.051   7.559   2.856
 6179TIP3    H118422   3.008   7.574   2.769
 6179TIP3    H218423   3.082   7.466   2.849
 6180TIP3   OH218424   2.914   7.318   1.083
 6180TIP3    H118425   2.927   7.335   1.178
 6180TIP3    H218426   2.919   7.220   1.080
 6181TIP3   OH218427   3.542   7.567   2.461
 6181TIP3    H118428   3.617   7.613   2.417
 6181TIP3    H218429   3.471   7.631   2.449
 6182TIP3   OH218430   2.561   7.212   3.064
 6182TIP3    H118431   2.630   7.147   3.046
 6182TIP3    H218432   2.585   7.242   3.153
 6183TIP3   OH218433   2.624   7.030   1.497
 6183TIP3    H118434   2.600   6.992   1.583
 6183TIP3    H218435   2.661   6.952   1.450
 6184TIP3   OH218436   2.898   7.096   2.728
 6184TIP3    H118437   2.819   7.153   2.730
 6184TIP3    H218438   2.944   7.128   2.647
 6185TIP3   OH218439   2.728   6.820   1.340
 6185TIP3    H118440   2.701   6.824   1.246
 6185TIP3    H218441   2.825   6.830   1.332
 6186TIP3   OH218442   3.412   7.495   2.860
 6186TIP3    H118443   3.494   7.474   2.814
 6186TIP3    H218444   3.411   7.428   2.931
 6187TIP3   OH218445   3.551   7.152   1.001
 6187TIP3    H118446   3.529   7.108   0.917
 6187TIP3    H218447   3.521   7.243   0.979
 6188TIP3   OH218448   3.020   6.882   2.853
 6188TIP3    H118449   3.018   6.801   2.798
 6188TIP3    H218450   2.976   6.948   2.796
 6189TIP3   OH218451   3.022   6.666   2.658
 6189TIP3    H118452   3.048   6.709   2.574
 6189TIP3    H218453   2.927   6.645   2.641
 6190TIP3   OH218454   3.051   7.204   2.531
 6190TIP3    H118455   3.134   7.212   2.481
 6190TIP3    H218456   2.995   7.272   2.488
 6191TIP3   OH218457   3.633   7.171   2.915
 6191TIP3    H118458   3.681   7.088   2.923
 6191TIP3    H218459   3.702   7.230   2.880
 6192TIP3   OH218460   3.673   7.423   2.649
 6192TIP3    H118461   3.615   7.477   2.590
 6192TIP3    H218462   3.761   7.443   2.609
 6193TIP3   OH218463   2.898   6.996   3.082
 6193TIP3    H118464   2.829   6.927   3.096
 6193TIP3    H218465   2.933   6.970   2.995
 6194TIP3   OH218466   3.154   6.432   2.726
 6194TIP3    H118467   3.106   6.515   2.704
 6194TIP3    H218468   3.083   6.365   2.715
 6195TIP3   OH218469   3.280   6.938   2.943
 6195TIP3    H118470   3.269   6.926   3.039
 6195TIP3    H218471   3.190   6.913   2.913
 6196TIP3   OH218472   3.520   6.886   2.797
 6196TIP3    H118473   3.444   6.887   2.858
 6196TIP3    H218474   3.593   6.854   2.854
 6197TIP3   OH218475   3.748   6.827   2.949
 6197TIP3    H118476   3.761   6.731   2.967
 6197TIP3    H218477   3.744   6.865   3.040
 6198TIP3   OH218478   2.742   6.773   3.132
 6198TIP3    H118479   2.745   6.683   3.096
 6198TIP3    H218480   2.773   6.759   3.223
 6199TIP3   OH218481   3.248   6.441   2.984
 6199TIP3    H118482   3.318   6.372   2.978
 6199TIP3    H218483   3.209   6.435   2.894
 6200TIP3   OH218484   3.313   6.656   3.144
 6200TIP3    H118485   3.291   6.585   3.079
 6200TIP3    H218486   3.236   6.716   3.136
 6201TIP3   OH218487   2.531   7.876   1.235
 6201TIP3    H118488   2.628   7.875   1.223
 6201TIP3    H218489   2.506   7.934   1.160
 6202TIP3   OH218490   2.016   7.264   1.470
 6202TIP3    H118491   2.107   7.292   1.448
 6202TIP3    H218492   2.010   7.180   1.420
 6203TIP3   OH218493   1.929   7.880   1.872
 6203TIP3    H118494   1.861   7.817   1.839
 6203TIP3    H218495   1.974   7.823   1.939
 6204TIP3   OH218496   2.065   7.732   2.059
 6204TIP3    H118497   2.055   7.658   2.121
 6204TIP3    H218498   2.117   7.793   2.115
 6205TIP3   OH218499   3.793   8.127   1.860
 6205TIP3    H118500   3.816   8.165   1.947
 6205TIP3    H218501   3.849   8.178   1.800
 6206TIP3   OH218502   3.829   8.153   2.142
 6206TIP3    H118503   3.782   8.067   2.134
 6206TIP3    H218504   3.901   8.126   2.201
 6207TIP3   OH218505   3.868   7.828   2.714
 6207TIP3    H118506   3.795   7.836   2.778
 6207TIP3    H218507   3.909   7.917   2.719
 6208TIP3   OH218508   3.684   7.341   1.334
 6208TIP3    H118509   3.752   7.406   1.306
 6208TIP3    H218510   3.728   7.302   1.413
 6209TIP3   OH218511   3.812   7.209   1.537
 6209TIP3    H118512   3.747   7.167   1.598
 6209TIP3    H218513   3.878   7.247   1.598
 6210TIP3   OH218514   3.864   7.599   1.970
 6210TIP3    H118515   3.920   7.537   1.919
 6210TIP3    H218516   3.858   7.676   1.910
 6211TIP3   OH218517   3.700   7.900   2.165
 6211TIP3    H118518   3.630   7.946   2.214
 6211TIP3    H218519   3.650   7.854   2.095
 6212TIP3   OH218520   3.749   7.115   1.186
 6212TIP3    H118521   3.678   7.120   1.118
 6212TIP3    H218522   3.725   7.192   1.241
 6213TIP3   OH218523   3.620   6.788   1.141
 6213TIP3    H118524   3.581   6.834   1.066
 6213TIP3    H218525   3.594   6.695   1.124
 6214TIP3   OH218526   3.625   7.065   1.685
 6214TIP3    H118527   3.637   6.968   1.683
 6214TIP3    H218528   3.613   7.082   1.781
 6215TIP3   OH218529   2.253   7.145   2.428
 6215TIP3    H118530   2.251   7.110   2.336
 6215TIP3    H218531   2.350   7.143   2.446
 6216TIP3   OH218532   3.915   7.489   2.541
 6216TIP3    H118533   3.988   7.424   2.532
 6216TIP3    H218534   3.943   7.560   2.481
 6217TIP3   OH218535   4.101   7.296   2.560
 6217TIP3    H118536   4.026   7.245   2.599
 6217TIP3    H218537   4.174   7.232   2.573
 6218TIP3   OH218538   3.568   6.519   1.121
 6218TIP3    H118539   3.645   6.496   1.176
 6218TIP3    H218540   3.497   6.465   1.157
 6219TIP3   OH218541   3.620   6.780   1.580
 6219TIP3    H118542   3.663   6.692   1.595
 6219TIP3    H218543   3.680   6.816   1.512
 6220TIP3   OH218544   3.784   6.957   2.073
 6220TIP3    H118545   3.870   6.982   2.034
 6220TIP3    H218546   3.797   6.992   2.163
 6221TIP3   OH218547   3.851   7.099   2.307
 6221TIP3    H118548   3.774   7.134   2.356
 6221TIP3    H218549   3.884   7.179   2.262
 6222TIP3   OH218550   2.478   6.840   3.134
 6222TIP3    H118551   2.572   6.822   3.117
 6222TIP3    H218552   2.446   6.749   3.153
 6223TIP3   OH218553   4.305   6.690   2.864
 6223TIP3    H118554   4.363   6.623   2.820
 6223TIP3    H218555   4.277   6.746   2.788
 6224TIP3   OH218556   3.731   6.531   1.616
 6224TIP3    H118557   3.782   6.517   1.698
 6224TIP3    H218558   3.672   6.453   1.617
 6225TIP3   OH218559   2.437   6.511   2.412
 6225TIP3    H118560   2.499   6.442   2.441
 6225TIP3    H218561   2.488   6.591   2.431
 6226TIP3   OH218562   2.228   6.807   2.502
 6226TIP3    H118563   2.282   6.791   2.423
 6226TIP3    H218564   2.274   6.881   2.543
 6227TIP3   OH218565   4.176   6.830   2.670
 6227TIP3    H118566   4.088   6.869   2.690
 6227TIP3    H218567   4.150   6.758   2.610
 6228TIP3   OH218568   3.812   6.469   1.247
 6228TIP3    H118569   3.858   6.396   1.202
 6228TIP3    H218570   3.879   6.540   1.246
 6229TIP3   OH218571   2.216   6.283   2.002
 6229TIP3    H118572   2.127   6.292   2.040
 6229TIP3    H218573   2.214   6.350   1.930
 6230TIP3   OH218574   3.374   7.994   1.514
 6230TIP3    H118575   3.432   7.984   1.435
 6230TIP3    H218576   3.421   8.062   1.565
 6231TIP3   OH218577   2.438   6.375   2.824
 6231TIP3    H118578   2.397   6.370   2.911
 6231TIP3    H218579   2.361   6.409   2.775
 6232TIP3   OH218580   2.477   7.803   2.903
 6232TIP3    H118581   2.386   7.773   2.886
 6232TIP3    H218582   2.487   7.782   2.996
 6233TIP3   OH218583   2.653   7.831   2.451
 6233TIP3    H118584   2.606   7.908   2.412
 6233TIP3    H218585   2.739   7.843   2.406
 6234TIP3   OH218586   3.100   8.078   2.588
 6234TIP3    H118587   3.142   8.081   2.677
 6234TIP3    H218588   3.166   8.128   2.535
 6235TIP3   OH218589   3.291   8.213   2.448
 6235TIP3    H118590   3.370   8.182   2.402
 6235TIP3    H218591   3.329   8.282   2.506
 6236TIP3   OH218592   4.073   6.593   2.547
 6236TIP3    H118593   3.981   6.583   2.516
 6236TIP3    H218594   4.107   6.501   2.535
 6237TIP3   OH218595   2.331   8.091   2.472
 6237TIP3    H118596   2.242   8.127   2.450
 6237TIP3    H218597   2.341   8.123   2.563
 6238TIP3   OH218598   2.566   8.064   2.330
 6238TIP3    H118599   2.480   8.079   2.375
 6238TIP3    H218600   2.548   8.100   2.241
 6239TIP3   OH218601   3.501   8.233   2.100
 6239TIP3    H118602   3.412   8.271   2.082
 6239TIP3    H218603   3.506   8.171   2.025
 6240TIP3   OH218604   2.243   7.885   2.219
 6240TIP3    H118605   2.270   7.860   2.309
 6240TIP3    H218606   2.315   7.842   2.168
 6241TIP3   OH218607   2.435   7.756   2.073
 6241TIP3    H118608   2.452   7.672   2.123
 6241TIP3    H218609   2.526   7.794   2.071
 6242TIP3   OH218610   2.698   7.845   2.082
 6242TIP3    H118611   2.734   7.756   2.069
 6242TIP3    H218612   2.744   7.870   2.165
 6243TIP3   OH218613   3.275   6.506   2.156
 6243TIP3    H118614   3.236   6.439   2.216
 6243TIP3    H218615   3.354   6.460   2.121
 6244TIP3   OH218616   3.798   6.382   2.057
 6244TIP3    H118617   3.839   6.438   1.988
 6244TIP3    H218618   3.708   6.417   2.064
 6245TIP3   OH218619   3.898   6.491   1.829
 6245TIP3    H118620   3.972   6.438   1.794
 6245TIP3    H218621   3.934   6.582   1.816
 6246TIP3   OH218622   2.529   6.216   2.178
 6246TIP3    H118623   2.438   6.181   2.182
 6246TIP3    H218624   2.580   6.132   2.177
 6247TIP3   OH218625   2.309   6.085   1.825
 6247TIP3    H118626   2.341   6.147   1.757
 6247TIP3    H218627   2.281   6.147   1.896
 6248TIP3   OH218628   2.991   6.242   2.050
 6248TIP3    H118629   3.038   6.314   2.007
 6248TIP3    H218630   2.981   6.276   2.140
 6249TIP3   OH218631   3.509   6.392   2.052
 6249TIP3    H118632   3.527   6.359   1.963
 6249TIP3    H218633   3.500   6.308   2.104
 6250TIP3   OH218634   3.547   6.317   1.604
 6250TIP3    H118635   3.463   6.364   1.621
 6250TIP3    H218636   3.533   6.234   1.654
 6251TIP3   OH218637   2.033   7.653   1.608
 6251TIP3    H118638   1.947   7.621   1.574
 6251TIP3    H218639   2.021   7.748   1.595
 6252TIP3   OH218640   2.431   6.249   1.591
 6252TIP3    H118641   2.482   6.186   1.537
 6252TIP3    H218642   2.501   6.303   1.630
 6253TIP3   OH218643   2.947   6.418   1.693
 6253TIP3    H118644   3.008   6.377   1.757
 6253TIP3    H218645   2.962   6.512   1.716
 6254TIP3   OH218646   2.801   7.848   1.191
 6254TIP3    H118647   2.891   7.869   1.157
 6254TIP3    H218648   2.782   7.770   1.133
 6255TIP3   OH218649   3.524   7.964   1.283
 6255TIP3    H118650   3.514   7.867   1.271
 6255TIP3    H218651   3.479   7.997   1.203
 6256TIP3   OH218652   2.737   6.495   3.073
 6256TIP3    H118653   2.703   6.426   3.133
 6256TIP3    H218654   2.831   6.498   3.100
 6257TIP3   OH218655   2.985   6.495   3.193
 6257TIP3    H118656   3.070   6.470   3.152
 6257TIP3    H218657   2.973   6.423   3.258
 6258TIP3   OH218658   2.108   7.685   1.251
 6258TIP3    H118659   2.098   7.713   1.344
 6258TIP3    H218660   2.193   7.637   1.252
 6259TIP3   OH218661   3.809   6.556   2.980
 6259TIP3    H118662   3.829   6.524   3.070
 6259TIP3    H218663   3.896   6.550   2.936
 6260TIP3   OH218664   3.750   8.109   2.474
 6260TIP3    H118665   3.671   8.077   2.424
 6260TIP3    H218666   3.731   8.205   2.476
 6261TIP3   OH218667   5.015   7.480   1.238
 6261TIP3    H118668   4.988   7.572   1.219
 6261TIP3    H218669   4.937   7.432   1.206
 6262TIP3   OH218670   5.012   7.480   1.619
 6262TIP3    H118671   5.044   7.451   1.706
 6262TIP3    H218672   4.972   7.399   1.584
 6263TIP3   OH218673   4.313   7.376   1.986
 6263TIP3    H118674   4.346   7.309   2.049
 6263TIP3    H218675   4.392   7.432   1.977
 6264TIP3   OH218676   5.256   7.783   1.300
 6264TIP3    H118677   5.244   7.713   1.366
 6264TIP3    H218678   5.286   7.858   1.354
 6265TIP3   OH218679   4.285   7.784   1.711
 6265TIP3    H118680   4.275   7.687   1.713
 6265TIP3    H218681   4.381   7.793   1.704
 6266TIP3   OH218682   3.991   6.988   1.496
 6266TIP3    H118683   3.944   7.073   1.510
 6266TIP3    H218684   3.919   6.935   1.457
 6267TIP3   OH218685   4.050   7.275   1.664
 6267TIP3    H118686   4.100   7.200   1.703
 6267TIP3    H218687   4.112   7.307   1.597
 6268TIP3   OH218688   4.906   8.242   1.317
 6268TIP3    H118689   4.953   8.172   1.268
 6268TIP3    H218690   4.902   8.206   1.406
 6269TIP3   OH218691   4.813   7.705   1.668
 6269TIP3    H118692   4.851   7.629   1.621
 6269TIP3    H218693   4.896   7.750   1.692
 6270TIP3   OH218694   5.824   7.026   1.665
 6270TIP3    H118695   5.853   7.108   1.709
 6270TIP3    H218696   5.847   7.046   1.572
 6271TIP3   OH218697   5.224   7.208   1.701
 6271TIP3    H118698   5.268   7.123   1.721
 6271TIP3    H218699   5.194   7.193   1.610
 6272TIP3   OH218700   4.561   6.867   1.666
 6272TIP3    H118701   4.542   6.940   1.603
 6272TIP3    H218702   4.513   6.794   1.622
 6273TIP3   OH218703   5.256   6.958   1.289
 6273TIP3    H118704   5.329   6.942   1.353
 6273TIP3    H218705   5.307   6.993   1.214
 6274TIP3   OH218706   4.196   7.070   1.773
 6274TIP3    H118707   4.279   7.050   1.820
 6274TIP3    H218708   4.209   7.014   1.693
 6275TIP3   OH218709   4.638   7.267   1.565
 6275TIP3    H118710   4.731   7.242   1.578
 6275TIP3    H218711   4.598   7.183   1.533
 6276TIP3   OH218712   5.897   7.231   1.837
 6276TIP3    H118713   5.814   7.281   1.818
 6276TIP3    H218714   5.917   7.262   1.926
 6277TIP3   OH218715   4.560   6.850   2.099
 6277TIP3    H118716   4.499   6.887   2.032
 6277TIP3    H218717   4.508   6.868   2.181
 6278TIP3   OH218718   4.910   7.703   1.107
 6278TIP3    H118719   4.864   7.680   1.025
 6278TIP3    H218720   4.864   7.786   1.132
 6279TIP3   OH218721   4.665   7.625   1.896
 6279TIP3    H118722   4.602   7.691   1.933
 6279TIP3    H218723   4.708   7.677   1.825
 6280TIP3   OH218724   5.467   6.960   1.460
 6280TIP3    H118725   5.460   6.910   1.542
 6280TIP3    H218726   5.523   7.036   1.485
 6281TIP3   OH218727   4.429   6.965   1.885
 6281TIP3    H118728   4.491   7.038   1.907
 6281TIP3    H218729   4.479   6.924   1.810
 6282TIP3   OH218730   4.492   7.818   1.992
 6282TIP3    H118731   4.467   7.904   1.953
 6282TIP3    H218732   4.414   7.804   2.050
 6283TIP3   OH218733   3.888   7.509   1.229
 6283TIP3    H118734   3.849   7.534   1.144
 6283TIP3    H218735   3.918   7.595   1.265
 6284TIP3   OH218736   5.327   8.023   1.468
 6284TIP3    H118737   5.237   8.016   1.507
 6284TIP3    H218738   5.321   8.110   1.424
 6285TIP3   OH218739   5.619   6.925   1.831
 6285TIP3    H118740   5.531   6.957   1.802
 6285TIP3    H218741   5.678   6.957   1.760
 6286TIP3   OH218742   4.917   6.570   1.812
 6286TIP3    H118743   4.905   6.475   1.831
 6286TIP3    H218744   4.839   6.607   1.859
 6287TIP3   OH218745   5.031   8.072   1.141
 6287TIP3    H118746   5.082   7.990   1.121
 6287TIP3    H218747   5.091   8.139   1.101
 6288TIP3   OH218748   5.175   7.856   1.045
 6288TIP3    H118749   5.128   7.778   1.013
 6288TIP3    H218750   5.210   7.824   1.131
 6289TIP3   OH218751   5.554   7.939   1.813
 6289TIP3    H118752   5.544   7.861   1.753
 6289TIP3    H218753   5.538   8.013   1.751
 6290TIP3   OH218754   4.844   7.332   1.069
 6290TIP3    H118755   4.764   7.383   1.046
 6290TIP3    H218756   4.892   7.329   0.985
 6291TIP3   OH218757   4.803   7.117   0.787
 6291TIP3    H118758   4.872   7.165   0.837
 6291TIP3    H218759   4.860   7.053   0.739
 6292TIP3   OH218760   5.749   7.573   1.655
 6292TIP3    H118761   5.667   7.627   1.661
 6292TIP3    H218762   5.779   7.597   1.565
 6293TIP3   OH218763   5.193   7.415   1.042
 6293TIP3    H118764   5.138   7.440   1.120
 6293TIP3    H218765   5.276   7.387   1.086
 6294TIP3   OH218766   5.428   7.454   1.952
 6294TIP3    H118767   5.426   7.538   2.002
 6294TIP3    H218768   5.342   7.459   1.906
 6295TIP3   OH218769   4.425   7.412   1.458
 6295TIP3    H118770   4.384   7.355   1.390
 6295TIP3    H218771   4.502   7.360   1.486
 6296TIP3   OH218772   4.554   7.823   1.607
 6296TIP3    H118773   4.535   7.780   1.522
 6296TIP3    H218774   4.645   7.790   1.625
 6297TIP3   OH218775   4.561   7.384   1.811
 6297TIP3    H118776   4.595   7.363   1.722
 6297TIP3    H218777   4.605   7.469   1.832
 6298TIP3   OH218778   5.085   8.022   1.589
 6298TIP3    H118779   5.073   8.101   1.644
 6298TIP3    H218780   5.073   7.948   1.652
 6299TIP3   OH218781   4.699   7.940   2.136
 6299TIP3    H118782   4.640   8.003   2.182
 6299TIP3    H218783   4.632   7.887   2.087
 6300TIP3   OH218784   5.033   7.271   0.871
 6300TIP3    H118785   5.093   7.331   0.922
 6300TIP3    H218786   5.055   7.297   0.778
 6301TIP3   OH218787   4.453   7.497   2.236
 6301TIP3    H118788   4.458   7.584   2.281
 6301TIP3    H218789   4.357   7.478   2.244
 6302TIP3   OH218790   4.776   7.952   1.148
 6302TIP3    H118791   4.854   8.008   1.162
 6302TIP3    H218792   4.716   8.010   1.100
 6303TIP3   OH218793   4.493   8.110   2.222
 6303TIP3    H118794   4.459   8.106   2.131
 6303TIP3    H218795   4.414   8.088   2.275
 6304TIP3   OH218796   5.549   6.514   0.915
 6304TIP3    H118797   5.468   6.535   0.966
 6304TIP3    H218798   5.562   6.596   0.864
 6305TIP3   OH218799   4.292   7.255   1.263
 6305TIP3    H118800   4.227   7.301   1.205
 6305TIP3    H218801   4.249   7.170   1.275
 6306TIP3   OH218802   4.072   7.639   2.170
 6306TIP3    H118803   4.008   7.616   2.100
 6306TIP3    H218804   4.110   7.552   2.195
 6307TIP3   OH218805   3.926   7.829   1.806
 6307TIP3    H118806   4.022   7.828   1.795
 6307TIP3    H218807   3.913   7.912   1.855
 6308TIP3   OH218808   5.792   8.282   1.857
 6308TIP3    H118809   5.790   8.186   1.870
 6308TIP3    H218810   5.708   8.307   1.903
 6309TIP3   OH218811   4.897   8.070   1.992
 6309TIP3    H118812   4.897   8.163   2.025
 6309TIP3    H218813   4.827   8.030   2.047
 6310TIP3   OH218814   4.656   8.197   0.942
 6310TIP3    H118815   4.614   8.176   0.857
 6310TIP3    H218816   4.624   8.288   0.960
 6311TIP3   OH218817   4.095   8.049   1.328
 6311TIP3    H118818   4.143   8.038   1.412
 6311TIP3    H218819   4.036   7.971   1.332
 6312TIP3   OH218820   4.853   8.094   0.604
 6312TIP3    H118821   4.916   8.038   0.557
 6312TIP3    H218822   4.892   8.102   0.693
 6313TIP3   OH218823   4.912   8.146   0.867
 6313TIP3    H118824   4.821   8.153   0.902
 6313TIP3    H218825   4.958   8.104   0.941
 6314TIP3   OH218826   5.682   7.414   2.133
 6314TIP3    H118827   5.602   7.427   2.080
 6314TIP3    H218828   5.697   7.318   2.122
 6315TIP3   OH218829   4.278   7.822   2.160
 6315TIP3    H118830   4.328   7.805   2.242
 6315TIP3    H218831   4.204   7.758   2.167
 6316TIP3   OH218832   4.677   6.646   1.941
 6316TIP3    H118833   4.587   6.615   1.917
 6316TIP3    H218834   4.653   6.728   1.987
 6317TIP3   OH218835   5.210   6.761   2.136
 6317TIP3    H118836   5.278   6.734   2.201
 6317TIP3    H218837   5.126   6.740   2.182
 6318TIP3   OH218838   5.450   7.189   2.053
 6318TIP3    H118839   5.402   7.186   2.139
 6318TIP3    H218840   5.426   7.277   2.019
 6319TIP3   OH218841   5.097   7.320   0.614
 6319TIP3    H118842   5.074   7.284   0.526
 6319TIP3    H218843   5.183   7.362   0.595
 6320TIP3   OH218844   4.820   6.696   0.912
 6320TIP3    H118845   4.790   6.694   1.005
 6320TIP3    H218846   4.784   6.611   0.881
 6321TIP3   OH218847   4.608   7.161   1.960
 6321TIP3    H118848   4.559   7.182   2.042
 6321TIP3    H218849   4.592   7.242   1.906
 6322TIP3   OH218850   4.493   7.047   1.474
 6322TIP3    H118851   4.400   7.021   1.491
 6322TIP3    H218852   4.506   7.006   1.386
 6323TIP3   OH218853   4.982   7.132   1.202
 6323TIP3    H118854   4.929   7.204   1.160
 6323TIP3    H218855   5.037   7.103   1.126
 6324TIP3   OH218856   5.157   7.412   2.289
 6324TIP3    H118857   5.135   7.339   2.351
 6324TIP3    H218858   5.251   7.426   2.310
 6325TIP3   OH218859   5.140   7.162   1.442
 6325TIP3    H118860   5.081   7.192   1.370
 6325TIP3    H218861   5.173   7.080   1.400
 6326TIP3   OH218862   4.427   7.190   2.170
 6326TIP3    H118863   4.456   7.253   2.238
 6326TIP3    H218864   4.416   7.108   2.222
 6327TIP3   OH218865   4.475   6.665   0.880
 6327TIP3    H118866   4.470   6.664   0.977
 6327TIP3    H218867   4.398   6.721   0.857
 6328TIP3   OH218868   4.023   6.715   1.747
 6328TIP3    H118869   4.096   6.746   1.805
 6328TIP3    H218870   4.069   6.681   1.669
 6329TIP3   OH218871   3.993   6.693   1.268
 6329TIP3    H118872   4.039   6.732   1.191
 6329TIP3    H218873   3.934   6.767   1.292
 6330TIP3   OH218874   5.149   7.409   1.865
 6330TIP3    H118875   5.183   7.336   1.807
 6330TIP3    H218876   5.122   7.356   1.943
 6331TIP3   OH218877   4.818   6.870   1.537
 6331TIP3    H118878   4.737   6.867   1.591
 6331TIP3    H218879   4.888   6.869   1.604
 6332TIP3   OH218880   4.254   6.925   1.545
 6332TIP3    H118881   4.160   6.931   1.518
 6332TIP3    H218882   4.279   6.834   1.521
 6333TIP3   OH218883   4.524   6.920   1.232
 6333TIP3    H118884   4.619   6.936   1.213
 6333TIP3    H218885   4.479   6.945   1.149
 6334TIP3   OH218886   5.312   6.945   1.738
 6334TIP3    H118887   5.276   6.957   1.829
 6334TIP3    H218888   5.247   6.884   1.700
 6335TIP3   OH218889   4.363   6.953   1.011
 6335TIP3    H118890   4.292   6.910   0.960
 6335TIP3    H218891   4.416   6.991   0.938
 6336TIP3   OH218892   5.480   8.634   1.956
 6336TIP3    H118893   5.480   8.655   1.861
 6336TIP3    H218894   5.560   8.681   1.986
 6337TIP3   OH218895   4.438   7.743   2.379
 6337TIP3    H118896   4.519   7.774   2.426
 6337TIP3    H218897   4.374   7.744   2.453
 6338TIP3   OH218898   4.903   7.196   1.633
 6338TIP3    H118899   4.976   7.158   1.582
 6338TIP3    H218900   4.915   7.155   1.720
 6339TIP3   OH218901   4.424   6.686   1.510
 6339TIP3    H118902   4.394   6.605   1.557
 6339TIP3    H218903   4.481   6.650   1.441
 6340TIP3   OH218904   4.880   7.092   1.925
 6340TIP3    H118905   4.790   7.130   1.938
 6340TIP3    H218906   4.938   7.153   1.975
 6341TIP3   OH218907   4.617   7.485   1.018
 6341TIP3    H118908   4.543   7.421   1.006
 6341TIP3    H218909   4.599   7.519   1.109
 6342TIP3   OH218910   5.518   7.721   1.648
 6342TIP3    H118911   5.543   7.770   1.567
 6342TIP3    H218912   5.432   7.681   1.623
 6343TIP3   OH218913   5.074   6.796   0.882
 6343TIP3    H118914   4.977   6.783   0.888
 6343TIP3    H218915   5.086   6.891   0.903
 6344TIP3   OH218916   5.014   7.801   2.016
 6344TIP3    H118917   5.039   7.781   2.107
 6344TIP3    H218918   4.978   7.891   2.023
 6345TIP3   OH218919   5.145   7.043   0.984
 6345TIP3    H118920   5.241   7.049   0.999
 6345TIP3    H218921   5.126   7.123   0.930
 6346TIP3   OH218922   4.306   7.504   1.695
 6346TIP3    H118923   4.346   7.478   1.609
 6346TIP3    H218924   4.350   7.443   1.756
 6347TIP3   OH218925   4.763   7.635   0.839
 6347TIP3    H118926   4.719   7.722   0.848
 6347TIP3    H218927   4.707   7.580   0.898
 6348TIP3   OH218928   4.187   7.428   2.308
 6348TIP3    H118929   4.211   7.414   2.402
 6348TIP3    H218930   4.120   7.360   2.293
 6349TIP3   OH218931   4.914   7.540   2.328
 6349TIP3    H118932   4.856   7.483   2.275
 6349TIP3    H218933   5.002   7.508   2.301
 6350TIP3   OH218934   5.176   8.061   1.911
 6350TIP3    H118935   5.080   8.061   1.923
 6350TIP3    H218936   5.204   8.114   1.989
 6351TIP3   OH218937   5.586   7.130   0.821
 6351TIP3    H118938   5.525   7.087   0.757
 6351TIP3    H218939   5.582   7.221   0.782
 6352TIP3   OH218940   5.804   7.991   1.902
 6352TIP3    H118941   5.707   7.986   1.893
 6352TIP3    H218942   5.831   7.962   1.811
 6353TIP3   OH218943   5.293   7.948   0.721
 6353TIP3    H118944   5.259   7.896   0.795
 6353TIP3    H218945   5.292   7.885   0.649
 6354TIP3   OH218946   5.282   7.583   1.568
 6354TIP3    H118947   5.189   7.557   1.580
 6354TIP3    H218948   5.317   7.504   1.522
 6355TIP3   OH218949   4.409   7.809   1.320
 6355TIP3    H118950   4.413   7.891   1.266
 6355TIP3    H218951   4.314   7.796   1.326
 6356TIP3   OH218952   3.972   7.115   1.021
 6356TIP3    H118953   4.019   7.199   1.040
 6356TIP3    H218954   3.896   7.123   1.082
 6357TIP3   OH218955   4.549   7.577   1.264
 6357TIP3    H118956   4.515   7.666   1.281
 6357TIP3    H218957   4.512   7.527   1.340
 6358TIP3   OH218958   4.678   8.154   1.789
 6358TIP3    H118959   4.719   8.226   1.737
 6358TIP3    H218960   4.755   8.120   1.838
 6359TIP3   OH218961   4.330   8.049   1.173
 6359TIP3    H118962   4.243   8.057   1.217
 6359TIP3    H218963   4.360   8.142   1.175
 6360TIP3   OH218964   5.068   7.789   1.747
 6360TIP3    H118965   5.059   7.787   1.845
 6360TIP3    H218966   5.148   7.737   1.733
 6361TIP3   OH218967   5.018   7.680   0.649
 6361TIP3    H118968   5.074   7.653   0.725
 6361TIP3    H218969   4.930   7.655   0.681
 6362TIP3   OH218970   5.315   8.324   1.799
 6362TIP3    H118971   5.237   8.267   1.790
 6362TIP3    H218972   5.301   8.388   1.725
 6363TIP3   OH218973   4.402   6.934   2.317
 6363TIP3    H118974   4.305   6.936   2.330
 6363TIP3    H218975   4.429   6.871   2.386
 6364TIP3   OH218976   5.199   7.613   0.847
 6364TIP3    H118977   5.190   7.547   0.919
 6364TIP3    H218978   5.296   7.613   0.835
 6365TIP3   OH218979   4.118   8.018   1.947
 6365TIP3    H118980   4.169   7.941   1.977
 6365TIP3    H218981   4.147   8.085   2.011
 6366TIP3   OH218982   4.404   7.662   0.629
 6366TIP3    H118983   4.422   7.571   0.597
 6366TIP3    H218984   4.387   7.647   0.724
 6367TIP3   OH218985   4.353   7.666   0.904
 6367TIP3    H118986   4.426   7.642   0.962
 6367TIP3    H218987   4.357   7.764   0.907
 6368TIP3   OH218988   4.089   7.360   1.104
 6368TIP3    H118989   4.023   7.406   1.161
 6368TIP3    H218990   4.105   7.429   1.037
 6369TIP3   OH218991   5.236   6.998   1.996
 6369TIP3    H118992   5.316   7.036   2.035
 6369TIP3    H218993   5.223   6.917   2.051
 6370TIP3   OH218994   5.115   6.750   1.160
 6370TIP3    H118995   5.103   6.773   1.066
 6370TIP3    H218996   5.156   6.831   1.196
 6371TIP3   OH218997   4.623   7.865   0.860
 6371TIP3    H118998   4.536   7.901   0.887
 6371TIP3    H218999   4.626   7.893   0.766
 6372TIP3   OH219000   4.806   6.927   1.263
 6372TIP3    H119001   4.872   6.998   1.245
 6372TIP3    H219002   4.812   6.920   1.361
 6373TIP3   OH219003   5.076   7.246   2.073
 6373TIP3    H119004   5.096   7.301   2.151
 6373TIP3    H219005   5.132   7.169   2.086
 6374TIP3   OH219006   4.952   6.656   1.367
 6374TIP3    H119007   4.947   6.731   1.428
 6374TIP3    H219008   5.012   6.692   1.297
 6375TIP3   OH219009   4.361   7.940   0.915
 6375TIP3    H119010   4.332   8.010   0.852
 6375TIP3    H219011   4.346   7.984   1.001
 6376TIP3   OH219012   4.462   6.652   1.156
 6376TIP3    H119013   4.461   6.743   1.192
 6376TIP3    H219014   4.558   6.634   1.165
 6377TIP3   OH219015   5.717   7.147   2.054
 6377TIP3    H119016   5.619   7.144   2.058
 6377TIP3    H219017   5.730   7.111   1.965
 6378TIP3   OH219018   5.368   7.341   1.440
 6378TIP3    H119019   5.292   7.281   1.453
 6378TIP3    H219020   5.440   7.295   1.488
 6379TIP3   OH219021   4.080   7.571   0.911
 6379TIP3    H119022   4.145   7.643   0.919
 6379TIP3    H219023   4.125   7.517   0.842
 6380TIP3   OH219024   4.025   6.845   1.043
 6380TIP3    H119025   4.028   6.943   1.039
 6380TIP3    H219026   3.939   6.827   1.004
 6381TIP3   OH219027   5.335   8.295   1.391
 6381TIP3    H119028   5.293   8.343   1.316
 6381TIP3    H219029   5.429   8.316   1.371
 6382TIP3   OH219030   4.412   6.568   1.918
 6382TIP3    H119031   4.381   6.532   1.832
 6382TIP3    H219032   4.404   6.489   1.977
 6383TIP3   OH219033   3.953   7.784   1.300
 6383TIP3    H119034   3.879   7.816   1.354
 6383TIP3    H219035   3.930   7.823   1.213
 6384TIP3   OH219036   4.107   8.325   2.370
 6384TIP3    H119037   4.193   8.323   2.416
 6384TIP3    H219038   4.086   8.230   2.367
 6385TIP3   OH219039   4.589   8.292   2.413
 6385TIP3    H119040   4.684   8.273   2.423
 6385TIP3    H219041   4.566   8.233   2.338
 6386TIP3   OH219042   4.588   7.862   0.578
 6386TIP3    H119043   4.519   7.792   0.588
 6386TIP3    H219044   4.620   7.841   0.489
 6387TIP3   OH219045   5.228   8.196   2.146
 6387TIP3    H119046   5.220   8.126   2.215
 6387TIP3    H219047   5.306   8.246   2.177
 6388TIP3   OH219048   4.238   7.731   2.570
 6388TIP3    H119049   4.255   7.636   2.573
 6388TIP3    H219050   4.150   7.734   2.526
 6389TIP3   OH219051   4.216   7.383   0.761
 6389TIP3    H119052   4.272   7.351   0.833
 6389TIP3    H219053   4.283   7.391   0.690
 6390TIP3   OH219054   4.846   7.815   2.343
 6390TIP3    H119055   4.805   7.831   2.256
 6390TIP3    H219056   4.878   7.723   2.336
 6391TIP3   OH219057   4.725   7.569   0.571
 6391TIP3    H119058   4.721   7.590   0.666
 6391TIP3    H219059   4.719   7.471   0.572
 6392TIP3   OH219060   5.339   7.824   1.948
 6392TIP3    H119061   5.413   7.869   1.904
 6392TIP3    H219062   5.268   7.890   1.936
 6393TIP3   OH219063   4.356   7.464   2.551
 6393TIP3    H119064   4.432   7.408   2.530
 6393TIP3    H219065   4.381   7.497   2.640
 6394TIP3   OH219066   4.424   7.286   0.985
 6394TIP3    H119067   4.399   7.244   1.069
 6394TIP3    H219068   4.460   7.210   0.934
 6395TIP3   OH219069   4.691   7.349   2.212
 6395TIP3    H119070   4.615   7.411   2.216
 6395TIP3    H219071   4.740   7.383   2.134
 6396TIP3   OH219072   4.524   7.077   0.828
 6396TIP3    H119073   4.496   7.079   0.734
 6396TIP3    H219074   4.621   7.086   0.819
 6397TIP3   OH219075   5.208   7.751   2.346
 6397TIP3    H119076   5.290   7.732   2.300
 6397TIP3    H219077   5.208   7.685   2.418
 6398TIP3   OH219078   5.339   7.421   0.527
 6398TIP3    H119079   5.372   7.394   0.438
 6398TIP3    H219080   5.316   7.514   0.511
 6399TIP3   OH219081   4.815   7.138   2.341
 6399TIP3    H119082   4.816   7.058   2.285
 6399TIP3    H219083   4.772   7.204   2.282
 6400TIP3   OH219084   4.818   6.924   2.147
 6400TIP3    H119085   4.846   6.966   2.062
 6400TIP3    H219086   4.725   6.901   2.128
 6401TIP3   OH219087   4.846   7.461   2.020
 6401TIP3    H119088   4.929   7.468   1.970
 6401TIP3    H219089   4.791   7.529   1.976
 6402TIP3   OH219090   5.429   7.428   2.402
 6402TIP3    H119091   5.478   7.345   2.410
 6402TIP3    H219092   5.497   7.488   2.367
 6403TIP3   OH219093   5.469   7.680   2.136
 6403TIP3    H119094   5.411   7.734   2.077
 6403TIP3    H219095   5.557   7.700   2.096
 6404TIP3   OH219096   4.692   7.252   2.569
 6404TIP3    H119097   4.624   7.183   2.582
 6404TIP3    H219098   4.728   7.227   2.482
 6405TIP3   OH219099   4.951   6.689   2.213
 6405TIP3    H119100   4.902   6.772   2.190
 6405TIP3    H219101   4.880   6.622   2.201
 6406TIP3   OH219102   5.077   7.194   2.429
 6406TIP3    H119103   5.066   7.183   2.526
 6406TIP3    H219104   4.986   7.169   2.400
 6407TIP3   OH219105   5.316   7.142   2.284
 6407TIP3    H119106   5.240   7.144   2.345
 6407TIP3    H219107   5.389   7.112   2.342
 6408TIP3   OH219108   5.543   7.082   2.437
 6408TIP3    H119109   5.557   6.987   2.455
 6408TIP3    H219110   5.540   7.122   2.526
 6409TIP3   OH219111   4.532   7.032   2.622
 6409TIP3    H119112   4.539   6.942   2.586
 6409TIP3    H219113   4.568   7.018   2.712
 6410TIP3   OH219114   5.045   6.698   2.471
 6410TIP3    H119115   5.113   6.628   2.464
 6410TIP3    H219116   5.005   6.692   2.381
 6411TIP3   OH219117   5.109   6.912   2.631
 6411TIP3    H119118   5.087   6.842   2.565
 6411TIP3    H219119   5.033   6.972   2.623
 6412TIP3   OH219120   4.328   8.145   0.728
 6412TIP3    H119121   4.424   8.143   0.708
 6412TIP3    H219122   4.294   8.181   0.644
 6413TIP3   OH219123   3.812   7.523   0.950
 6413TIP3    H119124   3.907   7.545   0.934
 6413TIP3    H219125   3.806   7.435   0.905
 6414TIP3   OH219126   3.724   8.138   1.360
 6414TIP3    H119127   3.657   8.075   1.325
 6414TIP3    H219128   3.769   8.081   1.426
 6415TIP3   OH219129   3.862   7.990   1.545
 6415TIP3    H119130   3.848   7.916   1.606
 6415TIP3    H219131   3.912   8.051   1.603
 6416TIP3   OH219132   5.586   8.392   1.346
 6416TIP3    H119133   5.618   8.425   1.431
 6416TIP3    H219134   5.651   8.428   1.283
 6417TIP3   OH219135   5.617   8.410   1.630
 6417TIP3    H119136   5.576   8.322   1.624
 6417TIP3    H219137   5.696   8.387   1.682
 6418TIP3   OH219138   5.664   8.085   2.201
 6418TIP3    H119139   5.591   8.093   2.265
 6418TIP3    H219140   5.705   8.174   2.205
 6419TIP3   OH219141   5.481   7.601   0.827
 6419TIP3    H119142   5.557   7.657   0.805
 6419TIP3    H219143   5.516   7.556   0.908
 6420TIP3   OH219144   5.607   7.466   1.025
 6420TIP3    H119145   5.543   7.422   1.086
 6420TIP3    H219146   5.674   7.502   1.086
 6421TIP3   OH219147   5.660   7.856   1.456
 6421TIP3    H119148   5.716   7.793   1.405
 6421TIP3    H219149   5.655   7.932   1.396
 6422TIP3   OH219150   5.494   8.157   1.653
 6422TIP3    H119151   5.423   8.199   1.704
 6422TIP3    H219152   5.444   8.109   1.583
 6423TIP3   OH219153   5.548   7.370   0.689
 6423TIP3    H119154   5.468   7.370   0.632
 6423TIP3    H219155   5.527   7.448   0.744
 6424TIP3   OH219156   5.418   7.054   0.617
 6424TIP3    H119157   5.362   7.075   0.540
 6424TIP3    H219158   5.394   6.959   0.629
 6425TIP3   OH219159   5.422   7.320   1.171
 6425TIP3    H119160   5.431   7.224   1.167
 6425TIP3    H219161   5.409   7.336   1.267
 6426TIP3   OH219162   4.049   7.394   1.918
 6426TIP3    H119163   4.048   7.365   1.824
 6426TIP3    H219164   4.147   7.397   1.935
 6427TIP3   OH219165   5.711   7.746   2.028
 6427TIP3    H119166   5.784   7.680   2.019
 6427TIP3    H219167   5.739   7.816   1.967
 6428TIP3   OH219168   5.897   7.553   2.048
 6428TIP3    H119169   5.823   7.502   2.087
 6428TIP3    H219170   5.970   7.489   2.060
 6429TIP3   OH219171   5.347   6.795   0.641
 6429TIP3    H119172   5.432   6.751   0.663
 6429TIP3    H219173   5.283   6.723   0.647
 6430TIP3   OH219174   5.418   7.038   1.067
 6430TIP3    H119175   5.458   6.949   1.083
 6430TIP3    H219176   5.477   7.069   0.996
 6431TIP3   OH219177   5.581   7.213   1.561
 6431TIP3    H119178   5.667   7.239   1.521
 6431TIP3    H219179   5.594   7.250   1.651
 6432TIP3   OH219180   5.648   7.356   1.795
 6432TIP3    H119181   5.570   7.391   1.843
 6432TIP3    H219182   5.681   7.436   1.749
 6433TIP3   OH219183   4.265   7.082   2.593
 6433TIP3    H119184   4.363   7.076   2.593
 6433TIP3    H219185   4.241   6.997   2.635
 6434TIP3   OH219186   6.099   6.945   2.351
 6434TIP3    H119187   6.158   6.879   2.307
 6434TIP3    H219188   6.073   7.002   2.276
 6435TIP3   OH219189   5.526   6.788   1.106
 6435TIP3    H119190   5.576   6.771   1.189
 6435TIP3    H219191   5.467   6.710   1.103
 6436TIP3   OH219192   4.226   6.774   1.924
 6436TIP3    H119193   4.289   6.700   1.935
 6436TIP3    H219194   4.289   6.849   1.918
 6437TIP3   OH219195   4.030   7.049   1.996
 6437TIP3    H119196   4.080   7.041   1.913
 6437TIP3    H219197   4.059   7.134   2.029
 6438TIP3   OH219198   5.972   7.087   2.158
 6438TIP3    H119199   5.884   7.126   2.176
 6438TIP3    H219200   5.946   7.015   2.097
 6439TIP3   OH219201   5.614   6.722   0.738
 6439TIP3    H119202   5.655   6.649   0.686
 6439TIP3    H219203   5.678   6.794   0.725
 6440TIP3   OH219204   4.012   6.546   1.494
 6440TIP3    H119205   3.920   6.551   1.524
 6440TIP3    H219206   4.012   6.608   1.418
 6441TIP3   OH219207   5.176   8.254   1.005
 6441TIP3    H119208   5.226   8.239   0.923
 6441TIP3    H219209   5.228   8.323   1.049
 6442TIP3   OH219210   4.235   6.637   2.315
 6442TIP3    H119211   4.182   6.626   2.396
 6442TIP3    H219212   4.167   6.668   2.253
 6443TIP3   OH219213   4.273   8.059   2.390
 6443TIP3    H119214   4.181   8.030   2.373
 6443TIP3    H219215   4.283   8.040   2.484
 6444TIP3   OH219216   4.451   8.089   1.937
 6444TIP3    H119217   4.403   8.165   1.898
 6444TIP3    H219218   4.537   8.103   1.893
 6445TIP3   OH219219   4.897   8.336   2.074
 6445TIP3    H119220   4.939   8.336   2.163
 6445TIP3    H219221   4.964   8.386   2.023
 6446TIP3   OH219222   5.077   8.487   1.932
 6446TIP3    H119223   5.148   8.435   1.891
 6446TIP3    H219224   5.128   8.544   1.993
 6447TIP3   OH219225   5.870   6.850   2.034
 6447TIP3    H119226   5.779   6.845   2.000
 6447TIP3    H219227   5.901   6.757   2.020
 6448TIP3   OH219228   4.129   8.350   1.958
 6448TIP3    H119229   4.040   8.384   1.935
 6448TIP3    H219230   4.134   8.377   2.050
 6449TIP3   OH219231   4.365   8.327   1.818
 6449TIP3    H119232   4.279   8.340   1.863
 6449TIP3    H219233   4.345   8.359   1.728
 6450TIP3   OH219234   4.791   8.356   1.616
 6450TIP3    H119235   4.722   8.377   1.550
 6450TIP3    H219236   4.804   8.443   1.658
 6451TIP3   OH219237   5.059   8.296   1.667
 6451TIP3    H119238   4.965   8.312   1.647
 6451TIP3    H219239   5.102   8.371   1.624
 6452TIP3   OH219240   5.266   8.488   1.582
 6452TIP3    H119241   5.253   8.573   1.534
 6452TIP3    H219242   5.293   8.428   1.509
 6453TIP3   OH219243   4.041   8.143   1.705
 6453TIP3    H119244   4.066   8.117   1.796
 6453TIP3    H219245   4.113   8.099   1.654
 6454TIP3   OH219246   4.233   8.013   1.561
 6454TIP3    H119247   4.249   7.928   1.609
 6454TIP3    H219248   4.324   8.050   1.557
 6455TIP3   OH219249   4.499   8.109   1.564
 6455TIP3    H119250   4.531   8.018   1.550
 6455TIP3    H219251   4.543   8.129   1.649
 6456TIP3   OH219252   5.074   6.764   1.649
 6456TIP3    H119253   5.032   6.694   1.703
 6456TIP3    H219254   5.147   6.716   1.607
 6457TIP3   OH219255   5.599   6.645   1.559
 6457TIP3    H119256   5.637   6.696   1.484
 6457TIP3    H219257   5.504   6.664   1.551
 6458TIP3   OH219258   5.694   6.746   1.323
 6458TIP3    H119259   5.766   6.694   1.282
 6458TIP3    H219260   5.727   6.838   1.307
 6459TIP3   OH219261   4.324   6.472   1.669
 6459TIP3    H119262   4.233   6.437   1.671
 6459TIP3    H219263   4.375   6.389   1.667
 6460TIP3   OH219264   4.101   6.342   1.312
 6460TIP3    H119265   4.139   6.400   1.244
 6460TIP3    H219266   4.078   6.407   1.382
 6461TIP3   OH219267   4.765   6.508   1.549
 6461TIP3    H119268   4.825   6.556   1.490
 6461TIP3    H219269   4.790   6.542   1.636
 6462TIP3   OH219270   5.315   6.652   1.534
 6462TIP3    H119271   5.314   6.616   1.444
 6462TIP3    H219272   5.301   6.570   1.588
 6463TIP3   OH219273   5.344   6.574   1.095
 6463TIP3    H119274   5.257   6.616   1.105
 6463TIP3    H219275   5.330   6.489   1.142
 6464TIP3   OH219276   3.828   7.912   1.098
 6464TIP3    H119277   3.743   7.878   1.062
 6464TIP3    H219278   3.816   8.007   1.081
 6465TIP3   OH219279   4.227   6.503   1.080
 6465TIP3    H119280   4.277   6.441   1.024
 6465TIP3    H219281   4.299   6.558   1.117
 6466TIP3   OH219282   4.740   6.676   1.179
 6466TIP3    H119283   4.801   6.631   1.239
 6466TIP3    H219284   4.760   6.769   1.204
 6467TIP3   OH219285   4.593   8.118   0.672
 6467TIP3    H119286   4.685   8.133   0.641
 6467TIP3    H219287   4.578   8.032   0.626
 6468TIP3   OH219288   5.319   8.216   0.770
 6468TIP3    H119289   5.308   8.120   0.754
 6468TIP3    H219290   5.275   8.254   0.691
 6469TIP3   OH219291   4.531   6.756   2.562
 6469TIP3    H119292   4.499   6.683   2.618
 6469TIP3    H219293   4.626   6.756   2.586
 6470TIP3   OH219294   4.781   6.752   2.679
 6470TIP3    H119295   4.865   6.727   2.638
 6470TIP3    H219296   4.769   6.680   2.745
 6471TIP3   OH219297   3.905   7.935   0.738
 6471TIP3    H119298   3.907   7.963   0.831
 6471TIP3    H219299   3.994   7.896   0.725
 6472TIP3   OH219300   5.605   6.812   2.467
 6472TIP3    H119301   5.626   6.781   2.558
 6472TIP3    H219302   5.693   6.808   2.424
 6473TIP3   OH219303   5.545   8.365   1.960
 6473TIP3    H119304   5.467   8.333   1.911
 6473TIP3    H219305   5.526   8.461   1.962
 6474TIP3   OH219306   6.807   7.731   1.103
 6474TIP3    H119307   6.843   7.714   1.192
 6474TIP3    H219308   6.760   7.648   1.085
 6475TIP3   OH219309   6.110   7.632   1.472
 6475TIP3    H119310   6.142   7.565   1.536
 6475TIP3    H219311   6.186   7.691   1.467
 6476TIP3   OH219312   6.080   8.040   1.201
 6476TIP3    H119313   6.072   7.942   1.202
 6476TIP3    H219314   6.176   8.050   1.189
 6477TIP3   OH219315   5.789   7.248   0.980
 6477TIP3    H119316   5.739   7.330   0.996
 6477TIP3    H219317   5.718   7.190   0.947
 6478TIP3   OH219318   5.846   7.531   1.149
 6478TIP3    H119319   5.895   7.456   1.190
 6478TIP3    H219320   5.912   7.568   1.089
 6479TIP3   OH219321   6.610   7.961   1.151
 6479TIP3    H119322   6.650   7.883   1.108
 6479TIP3    H219323   6.693   8.006   1.178
 6480TIP3   OH219324   7.622   7.287   1.155
 6480TIP3    H119325   7.648   7.366   1.206
 6480TIP3    H219326   7.658   7.305   1.067
 6481TIP3   OH219327   7.014   7.463   1.190
 6481TIP3    H119328   7.058   7.378   1.210
 6481TIP3    H219329   6.995   7.454   1.095
 6482TIP3   OH219330   6.359   7.122   1.152
 6482TIP3    H119331   6.336   7.195   1.090
 6482TIP3    H219332   6.310   7.048   1.109
 6483TIP3   OH219333   5.992   7.327   1.259
 6483TIP3    H119334   6.075   7.306   1.307
 6483TIP3    H219335   6.004   7.270   1.180
 6484TIP3   OH219336   6.434   7.523   1.048
 6484TIP3    H119337   6.526   7.497   1.065
 6484TIP3    H219338   6.394   7.439   1.018
 6485TIP3   OH219339   7.691   7.495   1.326
 6485TIP3    H119340   7.609   7.543   1.306
 6485TIP3    H219341   7.668   7.467   1.417
 6486TIP3   OH219342   6.355   7.107   1.586
 6486TIP3    H119343   6.294   7.144   1.519
 6486TIP3    H219344   6.305   7.125   1.668
 6487TIP3   OH219345   6.460   7.883   1.383
 6487TIP3    H119346   6.396   7.947   1.421
 6487TIP3    H219347   6.501   7.936   1.312
 6488TIP3   OH219348   7.275   7.212   0.956
 6488TIP3    H119349   7.273   7.177   1.046
 6488TIP3    H219350   7.315   7.300   0.973
 6489TIP3   OH219351   6.226   7.222   1.370
 6489TIP3    H119352   6.287   7.295   1.394
 6489TIP3    H219353   6.276   7.180   1.297
 6490TIP3   OH219354   6.288   8.075   1.480
 6490TIP3    H119355   6.264   8.160   1.438
 6490TIP3    H219356   6.209   8.062   1.537
 6491TIP3   OH219357   5.686   7.765   0.723
 6491TIP3    H119358   5.611   7.795   0.670
 6491TIP3    H219359   5.701   7.842   0.783
 6492TIP3   OH219360   7.139   8.291   0.964
 6492TIP3    H119361   7.051   8.268   1.002
 6492TIP3    H219362   7.111   8.335   0.883
 6493TIP3   OH219363   7.416   7.188   1.319
 6493TIP3    H119364   7.328   7.224   1.298
 6493TIP3    H219365   7.471   7.218   1.244
 6494TIP3   OH219366   6.704   6.820   1.301
 6494TIP3    H119367   6.696   6.726   1.325
 6494TIP3    H219368   6.628   6.859   1.350
 6495TIP3   OH219369   7.353   8.194   1.300
 6495TIP3    H119370   7.338   8.120   1.237
 6495TIP3    H219371   7.333   8.272   1.244
 6496TIP3   OH219372   7.544   7.833   1.144
 6496TIP3    H119373   7.463   7.889   1.154
 6496TIP3    H219374   7.543   7.819   1.049
 6497TIP3   OH219375   7.228   7.719   1.433
 6497TIP3    H119376   7.217   7.793   1.495
 6497TIP3    H219377   7.139   7.717   1.391
 6498TIP3   OH219378   6.220   7.669   0.946
 6498TIP3    H119379   6.179   7.610   0.879
 6498TIP3    H219380   6.299   7.618   0.973
 6499TIP3   OH219381   6.345   8.074   1.098
 6499TIP3    H119382   6.323   8.045   1.008
 6499TIP3    H219383   6.436   8.041   1.110
 6500TIP3   OH219384   6.358   7.641   1.297
 6500TIP3    H119385   6.392   7.624   1.207
 6500TIP3    H219386   6.401   7.726   1.321
 6501TIP3   OH219387   6.890   8.270   1.067
 6501TIP3    H119388   6.870   8.354   1.112
 6501TIP3    H219389   6.871   8.203   1.136
 6502TIP3   OH219390   6.493   8.201   1.618
 6502TIP3    H119391   6.432   8.263   1.664
 6502TIP3    H219392   6.427   8.146   1.571
 6503TIP3   OH219393   6.248   7.754   1.721
 6503TIP3    H119394   6.253   7.841   1.767
 6503TIP3    H219395   6.153   7.735   1.731
 6504TIP3   OH219396   6.289   8.368   1.710
 6504TIP3    H119397   6.256   8.367   1.618
 6504TIP3    H219398   6.208   8.344   1.761
 6505TIP3   OH219399   6.085   7.505   0.764
 6505TIP3    H119400   6.026   7.551   0.701
 6505TIP3    H219401   6.029   7.431   0.791
 6506TIP3   OH219402   5.868   7.896   1.657
 6506TIP3    H119403   5.805   7.872   1.586
 6506TIP3    H219404   5.905   7.809   1.682
 6507TIP3   OH219405   5.724   8.086   1.293
 6507TIP3    H119406   5.819   8.080   1.277
 6507TIP3    H219407   5.717   8.167   1.345
 6508TIP3   OH219408   7.583   8.540   1.342
 6508TIP3    H119409   7.582   8.443   1.355
 6508TIP3    H219410   7.499   8.564   1.389
 6509TIP3   OH219411   6.700   8.324   1.480
 6509TIP3    H119412   6.700   8.419   1.508
 6509TIP3    H219413   6.624   8.289   1.531
 6510TIP3   OH219414   5.882   8.293   0.812
 6510TIP3    H119415   5.951   8.297   0.882
 6510TIP3    H219416   5.825   8.224   0.851
 6511TIP3   OH219417   7.508   7.690   1.593
 6511TIP3    H119418   7.414   7.705   1.577
 6511TIP3    H219419   7.511   7.594   1.603
 6512TIP3   OH219420   6.073   8.079   1.648
 6512TIP3    H119421   6.124   8.060   1.729
 6512TIP3    H219422   6.000   8.015   1.654
 6513TIP3   OH219423   6.470   6.903   1.430
 6513TIP3    H119424   6.381   6.872   1.405
 6513TIP3    H219425   6.446   6.985   1.477
 6514TIP3   OH219426   7.005   7.016   1.619
 6514TIP3    H119427   7.077   6.998   1.683
 6514TIP3    H219428   6.924   6.998   1.671
 6515TIP3   OH219429   7.247   7.445   1.538
 6515TIP3    H119430   7.239   7.424   1.635
 6515TIP3    H219431   7.211   7.535   1.534
 6516TIP3   OH219432   6.405   7.416   1.445
 6516TIP3    H119433   6.359   7.439   1.528
 6516TIP3    H219434   6.389   7.498   1.393
 6517TIP3   OH219435   6.289   7.300   0.959
 6517TIP3    H119436   6.196   7.277   0.980
 6517TIP3    H219437   6.297   7.263   0.869
 6518TIP3   OH219438   6.959   7.676   1.775
 6518TIP3    H119439   6.930   7.603   1.835
 6518TIP3    H219440   7.052   7.685   1.806
 6519TIP3   OH219441   6.943   7.427   0.921
 6519TIP3    H119442   6.901   7.489   0.858
 6519TIP3    H219443   6.963   7.354   0.862
 6520TIP3   OH219444   6.223   7.446   1.657
 6520TIP3    H119445   6.259   7.509   1.721
 6520TIP3    H219446   6.213   7.365   1.710
 6521TIP3   OH219447   5.815   6.972   1.237
 6521TIP3    H119448   5.893   7.000   1.289
 6521TIP3    H219449   5.853   6.934   1.156
 6522TIP3   OH219450   5.793   6.953   0.756
 6522TIP3    H119451   5.841   6.990   0.680
 6522TIP3    H219452   5.731   7.026   0.777
 6523TIP3   OH219453   6.946   7.667   1.353
 6523TIP3    H119454   6.978   7.594   1.296
 6523TIP3    H219455   6.920   7.617   1.433
 6524TIP3   OH219456   6.617   7.131   1.042
 6524TIP3    H119457   6.526   7.116   1.072
 6524TIP3    H219458   6.661   7.143   1.127
 6525TIP3   OH219459   6.051   7.181   1.030
 6525TIP3    H119460   5.956   7.188   1.005
 6525TIP3    H219461   6.073   7.089   1.009
 6526TIP3   OH219462   6.318   7.182   0.708
 6526TIP3    H119463   6.415   7.189   0.721
 6526TIP3    H219464   6.303   7.239   0.631
 6527TIP3   OH219465   7.107   7.198   1.222
 6527TIP3    H119466   7.090   7.220   1.317
 6527TIP3    H219467   7.043   7.127   1.212
 6528TIP3   OH219468   7.278   8.877   1.436
 6528TIP3    H119469   7.273   8.911   1.344
 6528TIP3    H219470   7.330   8.945   1.481
 6529TIP3   OH219471   6.235   8.000   1.865
 6529TIP3    H119472   6.315   8.034   1.910
 6529TIP3    H219473   6.172   8.000   1.940
 6530TIP3   OH219474   6.699   7.456   1.120
 6530TIP3    H119475   6.777   7.418   1.078
 6530TIP3    H219476   6.706   7.421   1.211
 6531TIP3   OH219477   6.224   6.941   0.998
 6531TIP3    H119478   6.187   6.863   1.045
 6531TIP3    H219479   6.278   6.898   0.930
 6532TIP3   OH219480   6.678   7.354   1.404
 6532TIP3    H119481   6.589   7.388   1.423
 6532TIP3    H219482   6.735   7.411   1.460
 6533TIP3   OH219483   7.316   7.983   1.117
 6533TIP3    H119484   7.285   8.034   1.041
 6533TIP3    H219485   7.235   7.927   1.131
 6534TIP3   OH219486   6.815   8.058   1.501
 6534TIP3    H119487   6.835   8.032   1.592
 6534TIP3    H219488   6.776   8.146   1.511
 6535TIP3   OH219489   6.099   7.757   1.182
 6535TIP3    H119490   6.141   7.735   1.097
 6535TIP3    H219491   6.147   7.699   1.244
 6536TIP3   OH219492   5.983   7.686   1.795
 6536TIP3    H119493   6.008   7.671   1.889
 6536TIP3    H219494   5.917   7.616   1.781
 6537TIP3   OH219495   6.706   7.809   1.797
 6537TIP3    H119496   6.658   7.735   1.759
 6537TIP3    H219497   6.797   7.773   1.800
 6538TIP3   OH219498   6.975   8.315   1.401
 6538TIP3    H119499   6.878   8.315   1.409
 6538TIP3    H219500   7.000   8.369   1.478
 6539TIP3   OH219501   7.601   8.247   1.393
 6539TIP3    H119502   7.503   8.242   1.388
 6539TIP3    H219503   7.623   8.221   1.301
 6540TIP3   OH219504   7.086   7.836   1.082
 6540TIP3    H119505   6.990   7.820   1.078
 6540TIP3    H219506   7.118   7.761   1.026
 6541TIP3   OH219507   6.221   8.076   0.822
 6541TIP3    H119508   6.231   8.168   0.789
 6541TIP3    H219509   6.141   8.048   0.776
 6542TIP3   OH219510   5.756   7.368   0.510
 6542TIP3    H119511   5.798   7.452   0.538
 6542TIP3    H219512   5.677   7.368   0.568
 6543TIP3   OH219513   6.366   7.840   0.773
 6543TIP3    H119514   6.322   7.928   0.779
 6543TIP3    H219515   6.312   7.789   0.835
 6544TIP3   OH219516   6.473   8.409   1.276
 6544TIP3    H119517   6.506   8.491   1.233
 6544TIP3    H219518   6.552   8.382   1.324
 6545TIP3   OH219519   6.864   8.042   1.233
 6545TIP3    H119520   6.853   8.044   1.331
 6545TIP3    H219521   6.947   7.992   1.225
 6546TIP3   OH219522   7.126   8.574   1.278
 6546TIP3    H119523   7.040   8.531   1.294
 6546TIP3    H219524   7.099   8.652   1.227
 6547TIP3   OH219525   6.199   7.189   1.803
 6547TIP3    H119526   6.103   7.193   1.818
 6547TIP3    H219527   6.228   7.130   1.875
 6548TIP3   OH219528   5.910   8.275   1.437
 6548TIP3    H119529   5.965   8.200   1.464
 6548TIP3    H219530   5.947   8.345   1.492
 6549TIP3   OH219531   5.876   7.594   0.604
 6549TIP3    H119532   5.817   7.652   0.656
 6549TIP3    H219533   5.916   7.659   0.541
 6550TIP3   OH219534   7.047   7.247   1.478
 6550TIP3    H119535   7.114   7.294   1.530
 6550TIP3    H219536   7.027   7.170   1.536
 6551TIP3   OH219537   6.584   7.189   0.772
 6551TIP3    H119538   6.664   7.224   0.729
 6551TIP3    H219539   6.610   7.188   0.867
 6552TIP3   OH219540   6.875   7.505   1.564
 6552TIP3    H119541   6.890   7.565   1.640
 6552TIP3    H219542   6.925   7.427   1.592
 6553TIP3   OH219543   6.246   6.907   0.654
 6553TIP3    H119544   6.242   6.998   0.689
 6553TIP3    H219545   6.336   6.881   0.681
 6554TIP3   OH219546   7.517   7.398   1.521
 6554TIP3    H119547   7.425   7.409   1.556
 6554TIP3    H219548   7.497   7.333   1.452
 6555TIP3   OH219549   7.165   7.610   0.949
 6555TIP3    H119550   7.093   7.546   0.934
 6555TIP3    H219551   7.238   7.551   0.976
 6556TIP3   OH219552   5.828   7.105   0.518
 6556TIP3    H119553   5.796   7.198   0.514
 6556TIP3    H219554   5.753   7.058   0.479
 6557TIP3   OH219555   6.207   6.822   1.405
 6557TIP3    H119556   6.176   6.789   1.318
 6557TIP3    H219557   6.197   6.743   1.462
 6558TIP3   OH219558   5.726   8.042   0.830
 6558TIP3    H119559   5.657   8.106   0.849
 6558TIP3    H219560   5.744   8.055   0.734
 6559TIP3   OH219561   5.903   8.581   1.858
 6559TIP3    H119562   5.989   8.579   1.904
 6559TIP3    H219563   5.882   8.486   1.855
 6560TIP3   OH219564   6.385   8.539   1.911
 6560TIP3    H119565   6.481   8.538   1.906
 6560TIP3    H219566   6.361   8.487   1.832
 6561TIP3   OH219567   7.027   8.452   1.634
 6561TIP3    H119568   7.016   8.382   1.702
 6561TIP3    H219569   7.102   8.504   1.668
 6562TIP3   OH219570   6.035   7.988   2.057
 6562TIP3    H119571   6.052   7.892   2.061
 6562TIP3    H219572   5.947   7.990   2.013
 6563TIP3   OH219573   6.641   8.076   1.824
 6563TIP3    H119574   6.601   8.082   1.736
 6563TIP3    H219575   6.677   7.984   1.825
 6564TIP3   OH219576   7.136   8.076   1.432
 6564TIP3    H119577   7.205   8.133   1.393
 6564TIP3    H219578   7.059   8.136   1.428
 6565TIP3   OH219579   6.153   7.719   2.037
 6565TIP3    H119580   6.230   7.666   2.015
 6565TIP3    H219581   6.178   7.752   2.126
 6566TIP3   OH219582   6.486   7.601   1.694
 6566TIP3    H119583   6.414   7.668   1.701
 6566TIP3    H219584   6.536   7.635   1.617
 6567TIP3   OH219585   7.006   8.014   1.821
 6567TIP3    H119586   7.084   7.963   1.798
 6567TIP3    H219587   6.972   7.967   1.898
 6568TIP3   OH219588   6.592   7.386   1.833
 6568TIP3    H119589   6.608   7.310   1.773
 6568TIP3    H219590   6.562   7.455   1.770
 6569TIP3   OH219591   6.615   7.181   1.630
 6569TIP3    H119592   6.641   7.222   1.545
 6569TIP3    H219593   6.520   7.159   1.613
 6570TIP3   OH219594   6.638   7.707   1.496
 6570TIP3    H119595   6.726   7.726   1.460
 6570TIP3    H219596   6.585   7.781   1.459
 6571TIP3   OH219597   7.220   7.685   1.870
 6571TIP3    H119598   7.234   7.588   1.877
 6571TIP3    H219599   7.309   7.719   1.877
 6572TIP3   OH219600   7.269   7.937   1.623
 6572TIP3    H119601   7.207   7.989   1.566
 6572TIP3    H219602   7.355   7.958   1.581
 6573TIP3   OH219603   6.481   7.513   2.055
 6573TIP3    H119604   6.416   7.441   2.070
 6573TIP3    H219605   6.521   7.484   1.970
 6574TIP3   OH219606   6.745   6.945   1.698
 6574TIP3    H119607   6.698   7.028   1.676
 6574TIP3    H219608   6.675   6.878   1.687
 6575TIP3   OH219609   6.849   7.479   1.916
 6575TIP3    H119610   6.884   7.448   2.001
 6575TIP3    H219611   6.766   7.428   1.910
 6576TIP3   OH219612   6.327   7.288   2.110
 6576TIP3    H119613   6.341   7.200   2.072
 6576TIP3    H219614   6.365   7.275   2.200
 6577TIP3   OH219615   6.838   6.950   1.956
 6577TIP3    H119616   6.911   6.885   1.952
 6577TIP3    H219617   6.803   6.944   1.865
 6578TIP3   OH219618   6.893   7.158   2.127
 6578TIP3    H119619   6.878   7.095   2.054
 6578TIP3    H219620   6.825   7.227   2.112
 6579TIP3   OH219621   5.513   8.395   0.847
 6579TIP3    H119622   5.450   8.329   0.812
 6579TIP3    H219623   5.561   8.343   0.915
 6580TIP3   OH219624   5.651   8.251   1.034
 6580TIP3    H119625   5.649   8.173   1.092
 6580TIP3    H219626   5.706   8.311   1.088
 6581TIP3   OH219627   7.433   8.668   1.120
 6581TIP3    H119628   7.378   8.588   1.107
 6581TIP3    H219629   7.500   8.632   1.180
 6582TIP3   OH219630   7.463   8.339   1.689
 6582TIP3    H119631   7.388   8.346   1.751
 6582TIP3    H219632   7.501   8.429   1.693
 6583TIP3   OH219633   7.299   8.414   1.144
 6583TIP3    H119634   7.231   8.464   1.195
 6583TIP3    H219635   7.243   8.370   1.075
 6584TIP3   OH219636   5.846   7.651   1.405
 6584TIP3    H119637   5.845   7.623   1.311
 6584TIP3    H219638   5.943   7.654   1.421
 6585TIP3   OH219639   7.516   7.994   1.516
 6585TIP3    H119640   7.562   7.917   1.481
 6585TIP3    H219641   7.541   8.064   1.453
 6586TIP3   OH219642   7.382   7.462   1.042
 6586TIP3    H119643   7.462   7.501   1.001
 6586TIP3    H219644   7.388   7.501   1.132
 6587TIP3   OH219645   7.439   7.608   1.273
 6587TIP3    H119646   7.365   7.631   1.333
 6587TIP3    H219647   7.467   7.696   1.242
 6588TIP3   OH219648   6.060   7.338   2.077
 6588TIP3    H119649   6.158   7.332   2.080
 6588TIP3    H219650   6.037   7.254   2.121
 6589TIP3   OH219651   7.913   7.215   1.837
 6589TIP3    H119652   7.957   7.139   1.793
 6589TIP3    H219653   7.874   7.262   1.760
 6590TIP3   OH219654   6.024   7.030   1.411
 6590TIP3    H119655   6.086   6.956   1.421
 6590TIP3    H219656   6.086   7.105   1.405
 6591TIP3   OH219657   5.827   7.305   1.484
 6591TIP3    H119658   5.876   7.297   1.400
 6591TIP3    H219659   5.857   7.391   1.515
 6592TIP3   OH219660   7.772   7.339   1.641
 6592TIP3    H119661   7.692   7.386   1.669
 6592TIP3    H219662   7.735   7.271   1.583
 6593TIP3   OH219663   5.809   6.816   0.990
 6593TIP3    H119664   5.715   6.806   1.009
 6593TIP3    H219665   5.809   6.868   0.906
 6594TIP3   OH219666   6.029   6.887   1.799
 6594TIP3    H119667   5.979   6.883   1.882
 6594TIP3    H219668   5.962   6.926   1.739
 6595TIP3   OH219669   6.069   8.313   1.881
 6595TIP3    H119670   5.979   8.286   1.856
 6595TIP3    H219671   6.070   8.295   1.976
 6596TIP3   OH219672   6.248   8.347   1.425
 6596TIP3    H119673   6.200   8.422   1.384
 6596TIP3    H219674   6.334   8.359   1.380
 6597TIP3   OH219675   6.704   8.595   1.553
 6597TIP3    H119676   6.755   8.617   1.633
 6597TIP3    H219677   6.732   8.665   1.490
 6598TIP3   OH219678   7.667   7.105   1.514
 6598TIP3    H119679   7.572   7.093   1.494
 6598TIP3    H219680   7.697   7.011   1.508
 6599TIP3   OH219681   5.922   8.602   1.448
 6599TIP3    H119682   5.834   8.639   1.423
 6599TIP3    H219683   5.932   8.639   1.536
 6600TIP3   OH219684   6.154   8.573   1.300
 6600TIP3    H119685   6.068   8.592   1.345
 6600TIP3    H219686   6.138   8.610   1.211
 6601TIP3   OH219687   6.587   8.617   1.120
 6601TIP3    H119688   6.517   8.643   1.056
 6601TIP3    H219689   6.597   8.697   1.176
 6602TIP3   OH219690   6.857   8.562   1.131
 6602TIP3    H119691   6.759   8.560   1.124
 6602TIP3    H219692   6.864   8.651   1.170
 6603TIP3   OH219693   7.089   8.774   1.058
 6603TIP3    H119694   7.008   8.824   1.044
 6603TIP3    H219695   7.077   8.698   1.000
 6604TIP3   OH219696   5.833   8.396   1.193
 6604TIP3    H119697   5.863   8.373   1.283
 6604TIP3    H219698   5.906   8.356   1.141
 6605TIP3   OH219699   6.028   8.273   1.047
 6605TIP3    H119700   6.046   8.187   1.092
 6605TIP3    H219701   6.118   8.311   1.043
 6606TIP3   OH219702   6.292   8.366   1.052
 6606TIP3    H119703   6.325   8.277   1.036
 6606TIP3    H219704   6.339   8.387   1.135
 6607TIP3   OH219705   7.400   6.909   1.056
 6607TIP3    H119706   7.433   6.946   0.971
 6607TIP3    H219707   7.307   6.896   1.038
 6608TIP3   OH219708   7.506   6.985   0.812
 6608TIP3    H119709   7.589   6.937   0.819
 6608TIP3    H219710   7.539   7.076   0.801
 6609TIP3   OH219711   6.119   6.732   1.156
 6609TIP3    H119712   6.027   6.699   1.154
 6609TIP3    H219713   6.169   6.647   1.152
 6610TIP3   OH219714   5.919   6.600   0.807
 6610TIP3    H119715   5.940   6.655   0.729
 6610TIP3    H219716   5.881   6.665   0.868
 6611TIP3   OH219717   6.554   6.778   1.036
 6611TIP3    H119718   6.638   6.814   1.008
 6611TIP3    H219719   6.563   6.784   1.132
 6612TIP3   OH219720   6.016   6.760   0.578
 6612TIP3    H119721   6.055   6.698   0.513
 6612TIP3    H219722   6.094   6.811   0.605
 6613TIP3   OH219723   6.513   6.927   0.708
 6613TIP3    H119724   6.559   6.865   0.766
 6613TIP3    H219725   6.548   7.015   0.736
 6614TIP3   OH219726   6.328   7.007   2.043
 6614TIP3    H119727   6.296   6.939   2.105
 6614TIP3    H219728   6.422   7.011   2.070
 6615TIP3   OH219729   6.575   7.008   2.165
 6615TIP3    H119730   6.662   6.994   2.125
 6615TIP3    H219731   6.570   6.934   2.228
 6616TIP3   OH219732   7.401   7.023   1.948
 6616TIP3    H119733   7.418   7.025   2.045
 6616TIP3    H219734   7.482   7.063   1.912
 6617TIP3   OH219735   7.342   8.615   1.450
 6617TIP3    H119736   7.265   8.583   1.398
 6617TIP3    H219737   7.323   8.711   1.448
 6618TIP3   OH219738   8.149   7.376   1.081
 6618TIP3    H119739   8.078   7.377   1.016
 6618TIP3    H219740   8.098   7.388   1.164
 6619TIP3   OH219741   8.049   8.002   1.223
 6619TIP3    H119742   8.050   8.088   1.270
 6619TIP3    H219743   7.965   8.008   1.176
 6620TIP3   OH219744   7.657   8.155   1.144
 6620TIP3    H119745   7.617   8.125   1.062
 6620TIP3    H219746   7.688   8.071   1.186
 6621TIP3   OH219747   7.890   8.301   1.131
 6621TIP3    H119748   7.910   8.295   1.225
 6621TIP3    H219749   7.799   8.266   1.126
 6622TIP3   OH219750   8.804   7.277   1.100
 6622TIP3    H119751   8.870   7.248   1.165
 6622TIP3    H219752   8.720   7.249   1.139
 6623TIP3   OH219753   7.976   7.706   1.183
 6623TIP3    H119754   8.055   7.760   1.185
 6623TIP3    H219755   8.007   7.618   1.209
 6624TIP3   OH219756   8.030   8.235   1.367
 6624TIP3    H119757   8.092   8.309   1.369
 6624TIP3    H219758   7.968   8.257   1.439
 6625TIP3   OH219759   7.748   7.944   1.296
 6625TIP3    H119760   7.824   7.894   1.329
 6625TIP3    H219761   7.695   7.876   1.251
 6626TIP3   OH219762   7.996   7.445   1.304
 6626TIP3    H119763   7.898   7.445   1.307
 6626TIP3    H219764   8.017   7.374   1.367
 6627TIP3   OH219765   7.979   7.084   0.890
 6627TIP3    H119766   7.978   7.037   0.805
 6627TIP3    H219767   7.986   7.010   0.953
 6628TIP3   OH219768   7.678   8.815   1.386
 6628TIP3    H119769   7.773   8.805   1.373
 6628TIP3    H219770   7.647   8.727   1.357
 6629TIP3   OH219771   7.827   8.255   1.550
 6629TIP3    H119772   7.833   8.165   1.584
 6629TIP3    H219773   7.740   8.253   1.505
 6630TIP3   OH219774   8.269   7.847   1.180
 6630TIP3    H119775   8.202   7.915   1.205
 6630TIP3    H219776   8.281   7.867   1.086
 6631TIP3   OH219777   8.398   7.648   1.317
 6631TIP3    H119778   8.405   7.568   1.261
 6631TIP3    H219779   8.360   7.713   1.255
 6632TIP3   OH219780   8.408   7.440   1.120
 6632TIP3    H119781   8.434   7.465   1.030
 6632TIP3    H219782   8.315   7.411   1.106
 6633TIP3   OH219783   8.270   7.761   1.538
 6633TIP3    H119784   8.239   7.669   1.545
 6633TIP3    H219785   8.319   7.756   1.453
 6634TIP3   OH219786   8.541   7.201   1.186
 6634TIP3    H119787   8.498   7.286   1.166
 6634TIP3    H219788   8.467   7.138   1.174
 6635TIP3   OH219789   8.642   7.741   1.426
 6635TIP3    H119790   8.628   7.702   1.514
 6635TIP3    H219791   8.564   7.708   1.379
 6636TIP3   OH219792   8.113   7.546   1.600
 6636TIP3    H119793   8.112   7.457   1.557
 6636TIP3    H219794   8.159   7.520   1.684
 6637TIP3   OH219795   8.635   7.209   1.444
 6637TIP3    H119796   8.704   7.140   1.438
 6637TIP3    H219797   8.599   7.206   1.353
 6638TIP3   OH219798   8.694   7.419   1.607
 6638TIP3    H119799   8.678   7.350   1.539
 6638TIP3    H219800   8.617   7.478   1.596
 6639TIP3   OH219801   7.859   7.324   0.944
 6639TIP3    H119802   7.905   7.237   0.950
 6639TIP3    H219803   7.901   7.361   0.866
 6640TIP3   OH219804   7.641   7.567   0.953
 6640TIP3    H119805   7.712   7.502   0.952
 6640TIP3    H219806   7.681   7.640   1.002
 6641TIP3   OH219807   7.830   7.154   1.289
 6641TIP3    H119808   7.780   7.136   1.371
 6641TIP3    H219809   7.757   7.182   1.231
 6642TIP3   OH219810   7.856   8.566   1.408
 6642TIP3    H119811   7.777   8.548   1.355
 6642TIP3    H219812   7.831   8.530   1.494
 6643TIP3   OH219813   8.123   7.278   1.535
 6643TIP3    H119814   8.087   7.205   1.589
 6643TIP3    H219815   8.218   7.273   1.561
 6644TIP3   OH219816   8.373   7.267   1.654
 6644TIP3    H119817   8.456   7.238   1.613
 6644TIP3    H219818   8.359   7.196   1.720
 6645TIP3   OH219819   9.142   7.302   1.463
 6645TIP3    H119820   9.195   7.305   1.545
 6645TIP3    H219821   9.206   7.331   1.396
 6646TIP3   OH219822   0.354   7.994   3.536
 6646TIP3    H119823   0.407   7.926   3.489
 6646TIP3    H219824   0.318   8.046   3.461
 6647TIP3   OH219825   0.221   8.132   3.334
 6647TIP3    H119826   0.129   8.156   3.349
 6647TIP3    H219827   0.210   8.057   3.273
 6648TIP3   OH219828   0.122   7.892   3.204
 6648TIP3    H119829   0.027   7.885   3.190
 6648TIP3    H219830   0.150   7.799   3.195
 6649TIP3   OH219831   1.868   8.327   2.327
 6649TIP3    H119832   1.900   8.409   2.370
 6649TIP3    H219833   1.892   8.345   2.234
 6650TIP3   OH219834   1.278   8.513   2.360
 6650TIP3    H119835   1.316   8.424   2.379
 6650TIP3    H219836   1.234   8.496   2.275
 6651TIP3   OH219837   1.293   8.231   1.949
 6651TIP3    H119838   1.362   8.225   2.019
 6651TIP3    H219839   1.347   8.276   1.881
 6652TIP3   OH219840   1.954   8.529   2.499
 6652TIP3    H119841   1.873   8.576   2.471
 6652TIP3    H219842   1.957   8.553   2.593
 6653TIP3   OH219843   0.608   8.146   2.769
 6653TIP3    H119844   0.555   8.182   2.695
 6653TIP3    H219845   0.552   8.169   2.845
 6654TIP3   OH219846   1.504   8.261   2.121
 6654TIP3    H119847   1.502   8.211   2.203
 6654TIP3    H219848   1.558   8.339   2.146
 6655TIP3   OH219849   0.490   8.252   2.550
 6655TIP3    H119850   0.533   8.339   2.560
 6655TIP3    H219851   0.492   8.243   2.454
 6656TIP3   OH219852   1.663   8.230   2.496
 6656TIP3    H119853   1.576   8.257   2.464
 6656TIP3    H219854   1.722   8.260   2.423
 6657TIP3   OH219855   0.961   7.874   2.476
 6657TIP3    H119856   0.951   7.778   2.492
 6657TIP3    H219857   0.883   7.908   2.525
 6658TIP3   OH219858   1.501   8.751   2.604
 6658TIP3    H119859   1.512   8.839   2.565
 6658TIP3    H219860   1.411   8.728   2.572
 6659TIP3   OH219861   1.601   7.816   1.578
 6659TIP3    H119862   1.515   7.831   1.621
 6659TIP3    H219863   1.610   7.897   1.523
 6660TIP3   OH219864   1.722   8.720   2.790
 6660TIP3    H119865   1.642   8.713   2.734
 6660TIP3    H219866   1.749   8.625   2.793
 6661TIP3   OH219867   0.722   7.948   2.605
 6661TIP3    H119868   0.632   7.916   2.580
 6661TIP3    H219869   0.696   8.029   2.654
 6662TIP3   OH219870   1.256   8.065   2.800
 6662TIP3    H119871   1.324   8.035   2.863
 6662TIP3    H219872   1.172   8.041   2.845
 6663TIP3   OH219873   1.498   8.480   2.723
 6663TIP3    H119874   1.449   8.475   2.808
 6663TIP3    H219875   1.467   8.563   2.685
 6664TIP3   OH219876   0.648   8.476   2.610
 6664TIP3    H119877   0.582   8.486   2.681
 6664TIP3    H219878   0.632   8.553   2.553
 6665TIP3   OH219879   1.205   8.698   2.945
 6665TIP3    H119880   1.198   8.621   3.004
 6665TIP3    H219881   1.293   8.732   2.970
 6666TIP3   OH219882   1.191   8.451   2.099
 6666TIP3    H119883   1.096   8.460   2.081
 6666TIP3    H219884   1.209   8.359   2.072
 6667TIP3   OH219885   0.466   8.486   2.828
 6667TIP3    H119886   0.416   8.537   2.892
 6667TIP3    H219887   0.450   8.395   2.860
 6668TIP3   OH219888   1.245   8.699   2.551
 6668TIP3    H119889   1.250   8.631   2.479
 6668TIP3    H219890   1.172   8.659   2.604
 6669TIP3   OH219891   0.902   8.175   2.203
 6669TIP3    H119892   0.806   8.159   2.194
 6669TIP3    H219893   0.917   8.174   2.298
 6670TIP3   OH219894   1.352   8.247   2.404
 6670TIP3    H119895   1.317   8.258   2.495
 6670TIP3    H219896   1.290   8.179   2.371
 6671TIP3   OH219897   0.964   8.499   2.280
 6671TIP3    H119898   0.998   8.409   2.269
 6671TIP3    H219899   0.948   8.503   2.375
 6672TIP3   OH219900   0.918   8.386   2.593
 6672TIP3    H119901   0.832   8.431   2.595
 6672TIP3    H219902   0.978   8.451   2.635
 6673TIP3   OH219903   0.941   8.712   3.084
 6673TIP3    H119904   0.892   8.763   3.014
 6673TIP3    H219905   1.012   8.673   3.032
 6674TIP3   OH219906   0.450   8.236   2.983
 6674TIP3    H119907   0.356   8.211   2.995
 6674TIP3    H219908   0.490   8.175   3.047
 6675TIP3   OH219909   1.276   8.305   2.666
 6675TIP3    H119910   1.363   8.333   2.698
 6675TIP3    H219911   1.263   8.220   2.713
 6676TIP3   OH219912   1.142   8.078   1.747
 6676TIP3    H119913   1.126   8.165   1.708
 6676TIP3    H219914   1.196   8.104   1.824
 6677TIP3   OH219915   1.109   8.542   2.731
 6677TIP3    H119916   1.141   8.593   2.809
 6677TIP3    H219917   1.166   8.463   2.734
 6678TIP3   OH219918   1.009   7.974   2.049
 6678TIP3    H119919   0.975   8.046   2.106
 6678TIP3    H219920   1.045   8.026   1.976
 6679TIP3   OH219921   1.766   8.452   2.714
 6679TIP3    H119922   1.669   8.445   2.725
 6679TIP3    H219923   1.776   8.405   2.630
 6680TIP3   OH219924   1.408   8.628   2.080
 6680TIP3    H119925   1.340   8.569   2.116
 6680TIP3    H219926   1.485   8.604   2.135
 6681TIP3   OH219927   0.461   7.855   2.585
 6681TIP3    H119928   0.425   7.815   2.505
 6681TIP3    H219929   0.455   7.780   2.648
 6682TIP3   OH219930   0.432   8.753   3.184
 6682TIP3    H119931   0.462   8.667   3.217
 6682TIP3    H219932   0.429   8.808   3.265
 6683TIP3   OH219933   0.718   8.609   2.871
 6683TIP3    H119934   0.642   8.573   2.917
 6683TIP3    H219935   0.681   8.623   2.783
 6684TIP3   OH219936   0.869   8.421   3.014
 6684TIP3    H119937   0.871   8.338   2.960
 6684TIP3    H219938   0.830   8.484   2.950
 6685TIP3   OH219939   0.865   8.223   2.813
 6685TIP3    H119940   0.891   8.267   2.729
 6685TIP3    H219941   0.772   8.199   2.795
 6686TIP3   OH219942   1.483   8.737   3.061
 6686TIP3    H119943   1.502   8.645   3.083
 6686TIP3    H219944   1.571   8.767   3.035
 6687TIP3   OH219945   0.708   8.567   3.222
 6687TIP3    H119946   0.662   8.481   3.235
 6687TIP3    H219947   0.771   8.546   3.151
 6688TIP3   OH219948   0.997   7.989   2.876
 6688TIP3    H119949   0.948   8.071   2.853
 6688TIP3    H219950   0.928   7.921   2.864
 6689TIP3   OH219951   1.126   8.487   3.096
 6689TIP3    H119952   1.118   8.481   3.192
 6689TIP3    H219953   1.035   8.458   3.071
 6690TIP3   OH219954   1.366   8.444   2.954
 6690TIP3    H119955   1.288   8.434   3.012
 6690TIP3    H219956   1.438   8.408   3.010
 6691TIP3   OH219957   1.594   8.385   3.103
 6691TIP3    H119958   1.606   8.289   3.120
 6691TIP3    H219959   1.588   8.423   3.193
 6692TIP3   OH219960   0.585   8.329   3.285
 6692TIP3    H119961   0.586   8.238   3.250
 6692TIP3    H219962   0.618   8.314   3.376
 6693TIP3   OH219963   1.090   8.000   3.134
 6693TIP3    H119964   1.158   7.930   3.130
 6693TIP3    H219965   1.051   7.993   3.044
 6694TIP3   OH219966   1.157   8.215   3.291
 6694TIP3    H119967   1.134   8.143   3.228
 6694TIP3    H219968   1.079   8.273   3.286
 6695TIP3   OH219969   1.470   8.613   1.817
 6695TIP3    H119970   1.492   8.519   1.824
 6695TIP3    H219971   1.459   8.637   1.912
 6696TIP3   OH219972   1.932   8.876   2.718
 6696TIP3    H119973   1.858   8.817   2.746
 6696TIP3    H219974   2.007   8.813   2.722
 6697TIP3   OH219975   1.457   8.336   1.753
 6697TIP3    H119976   1.501   8.250   1.770
 6697TIP3    H219977   1.469   8.335   1.656
 6698TIP3   OH219978   1.625   8.511   2.215
 6698TIP3    H119979   1.711   8.540   2.175
 6698TIP3    H219980   1.640   8.546   2.305
 6699TIP3   OH219981   1.703   8.641   2.446
 6699TIP3    H119982   1.628   8.671   2.499
 6699TIP3    H219983   1.751   8.725   2.428
 6700TIP3   OH219984   0.321   8.399   3.276
 6700TIP3    H119985   0.415   8.378   3.265
 6700TIP3    H219986   0.284   8.312   3.296
 6701TIP3   OH219987   2.142   8.246   3.012
 6701TIP3    H119988   2.202   8.180   2.972
 6701TIP3    H219989   2.120   8.304   2.937
 6702TIP3   OH219990   1.573   8.089   1.775
 6702TIP3    H119991   1.621   8.071   1.859
 6702TIP3    H219992   1.521   8.006   1.767
 6703TIP3   OH219993   0.282   8.074   2.564
 6703TIP3    H119994   0.335   8.001   2.600
 6703TIP3    H219995   0.342   8.150   2.576
 6704TIP3   OH219996   2.019   8.392   2.816
 6704TIP3    H119997   1.929   8.425   2.834
 6704TIP3    H219998   1.998   8.316   2.759
 6705TIP3   OH219999   1.669   8.018   1.392
 6705TIP3    H120000   1.705   7.945   1.337
 6705TIP3    H220001   1.736   8.089   1.381
 6706TIP3   OH220002   0.266   8.020   3.007
 6706TIP3    H120003   0.218   7.973   3.077
 6706TIP3    H220004   0.248   7.962   2.932
 6707TIP3   OH220005   1.915   8.150   2.697
 6707TIP3    H120006   1.824   8.141   2.665
 6707TIP3    H220007   1.948   8.058   2.685
 6708TIP3   OH220008   1.147   8.063   2.342
 6708TIP3    H120009   1.085   7.997   2.377
 6708TIP3    H220010   1.192   8.014   2.271
 6709TIP3   OH220011   1.647   7.946   2.222
 6709TIP3    H120012   1.682   7.999   2.147
 6709TIP3    H220013   1.550   7.961   2.213
 6710TIP3   OH220014   1.743   8.050   1.987
 6710TIP3    H120015   1.815   7.997   1.946
 6710TIP3    H220016   1.775   8.141   1.970
 6711TIP3   OH220017   0.815   7.797   2.221
 6711TIP3    H120018   0.846   7.856   2.150
 6711TIP3    H220019   0.843   7.843   2.300
 6712TIP3   OH220020   1.369   7.948   2.191
 6712TIP3    H120021   1.359   7.903   2.107
 6712TIP3    H220022   1.350   7.874   2.254
 6713TIP3   OH220023   1.397   7.875   1.764
 6713TIP3    H120024   1.317   7.920   1.793
 6713TIP3    H220025   1.380   7.785   1.799
 6714TIP3   OH220026   0.579   8.054   3.223
 6714TIP3    H120027   0.544   7.986   3.283
 6714TIP3    H220028   0.673   8.055   3.250
 6715TIP3   OH220029   0.826   8.053   3.343
 6715TIP3    H120030   0.911   8.028   3.303
 6715TIP3    H220031   0.815   7.982   3.410
 6716TIP3   OH220032   1.650   8.114   3.131
 6716TIP3    H120033   1.669   8.082   3.221
 6716TIP3    H220034   1.738   8.108   3.088
 6717TIP3   OH220035   1.818   8.547   1.642
 6717TIP3    H120036   1.794   8.634   1.677
 6717TIP3    H220037   1.758   8.490   1.691
 6718TIP3   OH220038   3.675   8.582   1.807
 6718TIP3    H120039   3.696   8.665   1.853
 6718TIP3    H220040   3.695   8.606   1.714
 6719TIP3   OH220041   3.063   8.769   1.850
 6719TIP3    H120042   3.087   8.683   1.887
 6719TIP3    H220043   3.031   8.744   1.761
 6720TIP3   OH220044   2.396   8.424   1.819
 6720TIP3    H120045   2.386   8.497   1.755
 6720TIP3    H220046   2.352   8.351   1.771
 6721TIP3   OH220047   3.095   8.511   1.437
 6721TIP3    H120048   3.165   8.495   1.504
 6721TIP3    H220049   3.149   8.549   1.365
 6722TIP3   OH220050   2.028   8.609   1.930
 6722TIP3    H120051   2.115   8.602   1.972
 6722TIP3    H220052   2.048   8.573   1.842
 6723TIP3   OH220053   2.486   8.828   1.708
 6723TIP3    H120054   2.575   8.795   1.734
 6723TIP3    H220055   2.441   8.748   1.676
 6724TIP3   OH220056   3.753   8.790   1.984
 6724TIP3    H120057   3.671   8.833   1.952
 6724TIP3    H220058   3.733   8.785   2.078
 6725TIP3   OH220059   2.401   8.410   2.251
 6725TIP3    H120060   2.340   8.442   2.182
 6725TIP3    H220061   2.347   8.426   2.332
 6726TIP3   OH220062   3.301   8.520   1.611
 6726TIP3    H120063   3.311   8.452   1.679
 6726TIP3    H220064   3.359   8.591   1.643
 6727TIP3   OH220065   2.271   8.521   2.037
 6727TIP3    H120066   2.335   8.594   2.053
 6727TIP3    H220067   2.316   8.477   1.961
 6728TIP3   OH220068   3.468   8.530   2.001
 6728TIP3    H120069   3.388   8.476   1.989
 6728TIP3    H220070   3.514   8.520   1.916
 6729TIP3   OH220071   2.733   8.129   1.940
 6729TIP3    H120072   2.755   8.042   1.977
 6729TIP3    H220073   2.665   8.160   2.003
 6730TIP3   OH220074   2.637   8.682   0.989
 6730TIP3    H120075   2.729   8.707   1.004
 6730TIP3    H220076   2.641   8.637   0.902
 6731TIP3   OH220077   3.299   9.015   2.087
 6731TIP3    H120078   3.306   9.103   2.049
 6731TIP3    H220079   3.209   8.988   2.057
 6732TIP3   OH220080   3.390   8.072   1.065
 6732TIP3    H120081   3.309   8.091   1.117
 6732TIP3    H220082   3.401   8.156   1.016
 6733TIP3   OH220083   3.515   8.976   2.275
 6733TIP3    H120084   3.435   8.967   2.220
 6733TIP3    H220085   3.543   8.882   2.277
 6734TIP3   OH220086   2.514   8.202   2.098
 6734TIP3    H120087   2.424   8.173   2.071
 6734TIP3    H220088   2.493   8.287   2.139
 6735TIP3   OH220089   3.043   8.361   2.333
 6735TIP3    H120090   3.118   8.301   2.328
 6735TIP3    H220091   2.966   8.302   2.331
 6736TIP3   OH220092   3.309   8.755   2.225
 6736TIP3    H120093   3.248   8.735   2.299
 6736TIP3    H220094   3.255   8.811   2.168
 6737TIP3   OH220095   2.660   8.255   1.060
 6737TIP3    H120096   2.635   8.255   1.155
 6737TIP3    H220097   2.629   8.167   1.034
 6738TIP3   OH220098   2.444   8.730   2.105
 6738TIP3    H120099   2.375   8.740   2.174
 6738TIP3    H220100   2.432   8.809   2.050
 6739TIP3   OH220101   2.333   8.606   1.629
 6739TIP3    H120102   2.240   8.578   1.641
 6739TIP3    H220103   2.353   8.566   1.542
 6740TIP3   OH220104   2.833   8.695   1.353
 6740TIP3    H120105   2.752   8.742   1.325
 6740TIP3    H220106   2.877   8.675   1.268
 6741TIP3   OH220107   3.000   8.962   2.436
 6741TIP3    H120108   2.990   8.880   2.491
 6741TIP3    H220109   3.094   8.980   2.452
 6742TIP3   OH220110   2.975   8.709   1.593
 6742TIP3    H120111   2.916   8.726   1.517
 6742TIP3    H220112   3.018   8.628   1.557
 6743TIP3   OH220113   2.267   8.742   2.324
 6743TIP3    H120114   2.205   8.793   2.377
 6743TIP3    H220115   2.247   8.651   2.354
 6744TIP3   OH220116   2.310   8.220   1.019
 6744TIP3    H120117   2.316   8.225   1.117
 6744TIP3    H220118   2.212   8.217   1.007
 6745TIP3   OH220119   1.861   8.278   1.893
 6745TIP3    H120120   1.935   8.305   1.951
 6745TIP3    H220121   1.905   8.232   1.820
 6746TIP3   OH220122   1.826   8.264   1.412
 6746TIP3    H120123   1.885   8.296   1.342
 6746TIP3    H220124   1.784   8.346   1.442
 6747TIP3   OH220125   3.041   8.956   2.044
 6747TIP3    H120126   3.043   8.893   1.967
 6747TIP3    H220127   2.971   8.911   2.096
 6748TIP3   OH220128   2.651   8.439   1.684
 6748TIP3    H120129   2.580   8.429   1.750
 6748TIP3    H220130   2.730   8.411   1.735
 6749TIP3   OH220131   2.092   8.485   1.687
 6749TIP3    H120132   1.998   8.480   1.660
 6749TIP3    H220133   2.125   8.394   1.672
 6750TIP3   OH220134   2.378   8.471   1.397
 6750TIP3    H120135   2.471   8.494   1.380
 6750TIP3    H220136   2.331   8.509   1.320
 6751TIP3   OH220137   2.228   8.519   1.182
 6751TIP3    H120138   2.184   8.448   1.135
 6751TIP3    H220139   2.272   8.565   1.107
 6752TIP3   OH220140   2.739   8.745   1.779
 6752TIP3    H120141   2.815   8.707   1.732
 6752TIP3    H220142   2.755   8.716   1.871
 6753TIP3   OH220143   2.261   8.245   1.659
 6753TIP3    H120144   2.235   8.164   1.706
 6753TIP3    H220145   2.329   8.213   1.599
 6754TIP3   OH220146   2.717   8.643   2.080
 6754TIP3    H120147   2.631   8.687   2.082
 6754TIP3    H220148   2.776   8.707   2.124
 6755TIP3   OH220149   2.913   8.365   1.029
 6755TIP3    H120150   2.817   8.347   1.039
 6755TIP3    H220151   2.921   8.461   1.049
 6756TIP3   OH220152   2.984   8.622   1.118
 6756TIP3    H120153   3.075   8.607   1.151
 6756TIP3    H220154   2.995   8.704   1.068
 6757TIP3   OH220155   2.736   8.976   2.573
 6757TIP3    H120156   2.691   9.025   2.498
 6757TIP3    H220157   2.801   8.925   2.524
 6758TIP3   OH220158   3.427   8.683   0.974
 6758TIP3    H120159   3.363   8.643   0.911
 6758TIP3    H220160   3.428   8.774   0.941
 6759TIP3   OH220161   2.237   8.490   2.464
 6759TIP3    H120162   2.141   8.490   2.480
 6759TIP3    H220163   2.269   8.430   2.534
 6760TIP3   OH220164   3.069   8.591   2.166
 6760TIP3    H120165   3.164   8.576   2.158
 6760TIP3    H220166   3.042   8.499   2.188
 6761TIP3   OH220167   2.959   8.306   1.307
 6761TIP3    H120168   2.947   8.334   1.215
 6761TIP3    H220169   2.999   8.385   1.349
 6762TIP3   OH220170   2.654   8.485   1.413
 6762TIP3    H120171   2.724   8.552   1.401
 6762TIP3    H220172   2.656   8.474   1.511
 6763TIP3   OH220173   2.903   8.800   2.220
 6763TIP3    H120174   2.939   8.844   2.299
 6763TIP3    H220175   2.960   8.721   2.211
 6764TIP3   OH220176   2.795   8.208   1.515
 6764TIP3    H120177   2.821   8.258   1.595
 6764TIP3    H220178   2.852   8.251   1.447
 6765TIP3   OH220179   2.306   8.215   1.299
 6765TIP3    H120180   2.309   8.303   1.343
 6765TIP3    H220181   2.400   8.191   1.311
 6766TIP3   OH220182   3.569   8.706   2.193
 6766TIP3    H120183   3.473   8.711   2.214
 6766TIP3    H220184   3.559   8.645   2.117
 6767TIP3   OH220185   3.199   8.886   1.575
 6767TIP3    H120186   3.130   8.823   1.603
 6767TIP3    H220187   3.276   8.857   1.629
 6768TIP3   OH220188   2.250   8.124   2.069
 6768TIP3    H120189   2.222   8.090   1.982
 6768TIP3    H220190   2.242   8.044   2.126
 6769TIP3   OH220191   2.238   9.006   2.671
 6769TIP3    H120192   2.283   8.928   2.705
 6769TIP3    H220193   2.227   9.062   2.751
 6770TIP3   OH220194   2.511   8.869   2.355
 6770TIP3    H120195   2.435   8.821   2.388
 6770TIP3    H220196   2.488   8.879   2.263
 6771TIP3   OH220197   2.367   8.613   0.969
 6771TIP3    H120198   2.364   8.628   0.873
 6771TIP3    H220199   2.458   8.641   0.991
 6772TIP3   OH220200   2.660   8.678   2.500
 6772TIP3    H120201   2.667   8.596   2.446
 6772TIP3    H220202   2.625   8.741   2.435
 6773TIP3   OH220203   2.661   8.479   2.301
 6773TIP3    H120204   2.691   8.520   2.217
 6773TIP3    H220205   2.568   8.456   2.280
 6774TIP3   OH220206   3.288   8.991   2.556
 6774TIP3    H120207   3.290   8.894   2.564
 6774TIP3    H220208   3.367   9.006   2.502
 6775TIP3   OH220209   2.506   8.821   2.712
 6775TIP3    H120210   2.457   8.737   2.724
 6775TIP3    H220211   2.564   8.801   2.637
 6776TIP3   OH220212   2.789   8.237   2.361
 6776TIP3    H120213   2.748   8.324   2.339
 6776TIP3    H220214   2.713   8.176   2.350
 6777TIP3   OH220215   2.914   8.750   2.582
 6777TIP3    H120216   2.907   8.737   2.678
 6777TIP3    H220217   2.826   8.714   2.556
 6778TIP3   OH220218   3.170   8.722   2.454
 6778TIP3    H120219   3.088   8.682   2.488
 6778TIP3    H220220   3.239   8.667   2.497
 6779TIP3   OH220221   3.404   8.644   2.592
 6779TIP3    H120222   3.409   8.547   2.606
 6779TIP3    H220223   3.392   8.679   2.682
 6780TIP3   OH220224   2.371   8.588   2.772
 6780TIP3    H120225   2.379   8.497   2.737
 6780TIP3    H220226   2.409   8.575   2.862
 6781TIP3   OH220227   2.881   8.254   2.622
 6781TIP3    H120228   2.953   8.189   2.616
 6781TIP3    H220229   2.848   8.253   2.530
 6782TIP3   OH220230   2.953   8.471   2.778
 6782TIP3    H120231   2.931   8.400   2.714
 6782TIP3    H220232   2.875   8.529   2.772
 6783TIP3   OH220233   3.258   8.609   0.773
 6783TIP3    H120234   3.219   8.625   0.686
 6783TIP3    H220235   3.236   8.514   0.782
 6784TIP3   OH220236   3.291   8.859   1.321
 6784TIP3    H120237   3.292   8.763   1.332
 6784TIP3    H220238   3.269   8.887   1.413
 6785TIP3   OH220239   3.727   9.132   2.211
 6785TIP3    H120240   3.652   9.073   2.233
 6785TIP3    H220241   3.801   9.068   2.214
 6786TIP3   OH220242   3.199   8.346   0.778
 6786TIP3    H120243   3.279   8.309   0.820
 6786TIP3    H220244   3.132   8.277   0.791
 6787TIP3   OH220245   3.251   8.585   1.214
 6787TIP3    H120246   3.294   8.498   1.230
 6787TIP3    H220247   3.313   8.623   1.150
 6788TIP3   OH220248   3.420   8.770   1.702
 6788TIP3    H120249   3.506   8.798   1.662
 6788TIP3    H220250   3.437   8.799   1.793
 6789TIP3   OH220251   3.502   8.900   1.930
 6789TIP3    H120252   3.428   8.928   1.987
 6789TIP3    H220253   3.548   8.985   1.913
 6790TIP3   OH220254   2.103   8.653   2.751
 6790TIP3    H120255   2.200   8.641   2.746
 6790TIP3    H220256   2.078   8.566   2.787
 6791TIP3   OH220257   3.940   8.504   2.499
 6791TIP3    H120258   3.999   8.438   2.458
 6791TIP3    H220259   3.915   8.561   2.423
 6792TIP3   OH220260   3.369   8.343   1.253
 6792TIP3    H120261   3.417   8.328   1.338
 6792TIP3    H220262   3.308   8.266   1.254
 6793TIP3   OH220263   2.064   8.329   2.076
 6793TIP3    H120264   2.130   8.256   2.085
 6793TIP3    H220265   2.123   8.405   2.067
 6794TIP3   OH220266   1.872   8.614   2.154
 6794TIP3    H120267   1.920   8.601   2.069
 6794TIP3    H220268   1.891   8.707   2.171
 6795TIP3   OH220269   3.815   8.648   2.302
 6795TIP3    H120270   3.723   8.681   2.310
 6795TIP3    H220271   3.797   8.571   2.246
 6796TIP3   OH220272   3.450   8.281   0.883
 6796TIP3    H120273   3.490   8.206   0.835
 6796TIP3    H220274   3.521   8.349   0.878
 6797TIP3   OH220275   1.850   8.114   1.642
 6797TIP3    H120276   1.757   8.108   1.671
 6797TIP3    H220277   1.844   8.170   1.562
 6798TIP3   OH220278   2.075   8.192   2.464
 6798TIP3    H120279   2.023   8.183   2.546
 6798TIP3    H220280   2.007   8.228   2.403
 6799TIP3   OH220281   3.713   8.408   2.184
 6799TIP3    H120282   3.622   8.397   2.147
 6799TIP3    H220283   3.745   8.315   2.172
 6800TIP3   OH220284   2.891   8.308   1.766
 6800TIP3    H120285   2.865   8.256   1.845
 6800TIP3    H220286   2.988   8.305   1.774
 6801TIP3   OH220287   3.446   8.192   1.703
 6801TIP3    H120288   3.476   8.250   1.630
 6801TIP3    H220289   3.350   8.214   1.708
 6802TIP3   OH220290   3.535   8.307   1.470
 6802TIP3    H120291   3.607   8.253   1.432
 6802TIP3    H220292   3.570   8.398   1.455
 6803TIP3   OH220293   2.166   8.030   1.819
 6803TIP3    H120294   2.074   7.995   1.821
 6803TIP3    H220295   2.217   7.947   1.817
 6804TIP3   OH220296   1.954   7.895   1.464
 6804TIP3    H120297   1.988   7.956   1.396
 6804TIP3    H220298   1.920   7.957   1.531
 6805TIP3   OH220299   2.605   8.068   1.701
 6805TIP3    H120300   2.664   8.117   1.642
 6805TIP3    H220301   2.643   8.093   1.788
 6806TIP3   OH220302   3.170   8.208   1.669
 6806TIP3    H120303   3.142   8.157   1.592
 6806TIP3    H220304   3.146   8.147   1.741
 6807TIP3   OH220305   3.184   8.131   1.244
 6807TIP3    H120306   3.099   8.175   1.259
 6807TIP3    H220307   3.171   8.047   1.293
 6808TIP3   OH220308   2.067   8.063   1.246
 6808TIP3    H120309   2.112   8.002   1.184
 6808TIP3    H220310   2.144   8.114   1.280
 6809TIP3   OH220311   2.584   8.233   1.329
 6809TIP3    H120312   2.646   8.193   1.393
 6809TIP3    H220313   2.599   8.328   1.353
 6810TIP3   OH220314   2.372   8.312   2.711
 6810TIP3    H120315   2.341   8.240   2.769
 6810TIP3    H220316   2.468   8.313   2.736
 6811TIP3   OH220317   2.622   8.310   2.828
 6811TIP3    H120318   2.706   8.285   2.786
 6811TIP3    H220319   2.612   8.239   2.895
 6812TIP3   OH220320   3.445   8.372   2.618
 6812TIP3    H120321   3.466   8.339   2.708
 6812TIP3    H220322   3.533   8.365   2.574
 6813TIP3   OH220323   3.629   8.818   1.131
 6813TIP3    H120324   3.584   8.891   1.176
 6813TIP3    H220325   3.556   8.755   1.116
 6814TIP3   OH220326   5.461   8.839   1.301
 6814TIP3    H120327   5.493   8.922   1.342
 6814TIP3    H220328   5.481   8.857   1.207
 6815TIP3   OH220329   4.836   9.008   1.338
 6815TIP3    H120330   4.892   8.929   1.353
 6815TIP3    H220331   4.882   9.051   1.262
 6816TIP3   OH220332   4.200   8.681   1.302
 6816TIP3    H120333   4.180   8.753   1.239
 6816TIP3    H220334   4.152   8.607   1.258
 6817TIP3   OH220335   4.898   8.767   0.910
 6817TIP3    H120336   4.967   8.756   0.981
 6817TIP3    H220337   4.953   8.808   0.841
 6818TIP3   OH220338   3.826   8.869   1.419
 6818TIP3    H120339   3.913   8.854   1.459
 6818TIP3    H220340   3.839   8.831   1.330
 6819TIP3   OH220341   4.303   9.085   1.155
 6819TIP3    H120342   4.376   9.045   1.207
 6819TIP3    H220343   4.240   9.011   1.146
 6820TIP3   OH220344   5.547   9.041   1.475
 6820TIP3    H120345   5.467   9.089   1.444
 6820TIP3    H220346   5.551   9.071   1.567
 6821TIP3   OH220347   4.197   8.666   1.738
 6821TIP3    H120348   4.136   8.697   1.669
 6821TIP3    H220349   4.144   8.682   1.819
 6822TIP3   OH220350   5.095   8.775   1.098
 6822TIP3    H120351   5.113   8.726   1.179
 6822TIP3    H220352   5.147   8.856   1.111
 6823TIP3   OH220353   4.069   8.775   1.521
 6823TIP3    H120354   4.130   8.850   1.537
 6823TIP3    H220355   4.116   8.732   1.446
 6824TIP3   OH220356   5.256   8.742   1.469
 6824TIP3    H120357   5.169   8.771   1.437
 6824TIP3    H220358   5.316   8.773   1.397
 6825TIP3   OH220359   4.554   8.385   1.450
 6825TIP3    H120360   4.542   8.289   1.467
 6825TIP3    H220361   4.476   8.421   1.496
 6826TIP3   OH220362   5.094   9.266   1.579
 6826TIP3    H120363   5.106   9.351   1.534
 6826TIP3    H220364   5.003   9.241   1.548
 6827TIP3   OH220365   5.185   8.339   0.561
 6827TIP3    H120366   5.100   8.341   0.612
 6827TIP3    H220367   5.194   8.433   0.540
 6828TIP3   OH220368   5.314   9.232   1.764
 6828TIP3    H120369   5.236   9.227   1.707
 6828TIP3    H220370   5.341   9.138   1.766
 6829TIP3   OH220371   4.315   8.460   1.578
 6829TIP3    H120372   4.225   8.429   1.554
 6829TIP3    H220373   4.291   8.543   1.624
 6830TIP3   OH220374   4.848   8.577   1.773
 6830TIP3    H120375   4.916   8.548   1.837
 6830TIP3    H220376   4.764   8.554   1.819
 6831TIP3   OH220377   5.089   8.992   1.694
 6831TIP3    H120378   5.041   8.988   1.781
 6831TIP3    H220379   5.061   9.077   1.659
 6832TIP3   OH220380   4.479   8.494   0.546
 6832TIP3    H120381   4.443   8.505   0.635
 6832TIP3    H220382   4.433   8.416   0.515
 6833TIP3   OH220383   4.240   8.984   1.585
 6833TIP3    H120384   4.180   8.990   1.662
 6833TIP3    H220385   4.227   9.070   1.542
 6834TIP3   OH220386   4.129   8.864   1.114
 6834TIP3    H120387   4.037   8.835   1.129
 6834TIP3    H220388   4.144   8.826   1.024
 6835TIP3   OH220389   4.627   8.970   0.804
 6835TIP3    H120390   4.539   8.993   0.768
 6835TIP3    H220391   4.678   8.950   0.724
 6836TIP3   OH220392   4.795   9.211   1.920
 6836TIP3    H120393   4.792   9.132   1.978
 6836TIP3    H220394   4.884   9.245   1.942
 6837TIP3   OH220395   4.761   8.965   1.046
 6837TIP3    H120396   4.811   8.941   0.965
 6837TIP3    H220397   4.808   8.906   1.106
 6838TIP3   OH220398   4.058   8.998   1.799
 6838TIP3    H120399   4.002   9.050   1.856
 6838TIP3    H220400   4.035   8.907   1.828
 6839TIP3   OH220401   4.107   8.480   0.519
 6839TIP3    H120402   4.122   8.479   0.615
 6839TIP3    H220403   4.016   8.512   0.517
 6840TIP3   OH220404   3.657   8.532   1.382
 6840TIP3    H120405   3.732   8.560   1.439
 6840TIP3    H220406   3.701   8.490   1.306
 6841TIP3   OH220407   3.633   8.505   0.902
 6841TIP3    H120408   3.685   8.545   0.830
 6841TIP3    H220409   3.575   8.579   0.928
 6842TIP3   OH220410   4.840   9.204   1.525
 6842TIP3    H120411   4.831   9.137   1.453
 6842TIP3    H220412   4.768   9.173   1.582
 6843TIP3   OH220413   4.456   8.689   1.173
 6843TIP3    H120414   4.375   8.685   1.226
 6843TIP3    H220415   4.525   8.681   1.241
 6844TIP3   OH220416   3.891   8.743   1.178
 6844TIP3    H120417   3.796   8.746   1.153
 6844TIP3    H220418   3.916   8.650   1.159
 6845TIP3   OH220419   4.160   8.737   0.871
 6845TIP3    H120420   4.254   8.754   0.851
 6845TIP3    H220421   4.114   8.763   0.788
 6846TIP3   OH220422   4.951   8.759   1.382
 6846TIP3    H120423   4.909   8.769   1.470
 6846TIP3    H220424   4.893   8.693   1.340
 6847TIP3   OH220425   4.002   8.757   0.640
 6847TIP3    H120426   3.916   8.726   0.609
 6847TIP3    H220427   4.039   8.797   0.561
 6848TIP3   OH220428   4.549   9.003   1.253
 6848TIP3    H120429   4.632   8.955   1.239
 6848TIP3    H220430   4.550   9.008   1.349
 6849TIP3   OH220431   4.063   8.500   1.148
 6849TIP3    H120432   4.031   8.419   1.194
 6849TIP3    H220433   4.115   8.463   1.076
 6850TIP3   OH220434   4.512   8.899   1.568
 6850TIP3    H120435   4.425   8.944   1.571
 6850TIP3    H220436   4.572   8.963   1.610
 6851TIP3   OH220437   4.533   9.224   2.057
 6851TIP3    H120438   4.487   9.274   1.987
 6851TIP3    H220439   4.610   9.189   2.008
 6852TIP3   OH220440   4.033   8.745   1.951
 6852TIP3    H120441   3.937   8.750   1.965
 6852TIP3    H220442   4.060   8.683   2.021
 6853TIP3   OH220443   4.867   8.818   1.640
 6853TIP3    H120444   4.954   8.848   1.669
 6853TIP3    H220445   4.856   8.734   1.690
 6854TIP3   OH220446   4.741   8.580   0.788
 6854TIP3    H120447   4.729   8.614   0.698
 6854TIP3    H220448   4.800   8.648   0.827
 6855TIP3   OH220449   4.443   8.743   0.902
 6855TIP3    H120450   4.527   8.788   0.884
 6855TIP3    H220451   4.446   8.732   1.000
 6856TIP3   OH220452   4.699   9.055   1.707
 6856TIP3    H120453   4.732   9.106   1.783
 6856TIP3    H220454   4.758   8.976   1.706
 6857TIP3   OH220455   4.591   8.472   1.000
 6857TIP3    H120456   4.593   8.543   1.066
 6857TIP3    H220457   4.648   8.510   0.929
 6858TIP3   OH220458   4.100   8.466   0.796
 6858TIP3    H120459   4.099   8.558   0.830
 6858TIP3    H220460   4.196   8.446   0.806
 6859TIP3   OH220461   5.358   8.965   1.690
 6859TIP3    H120462   5.260   8.956   1.697
 6859TIP3    H220463   5.371   8.924   1.603
 6860TIP3   OH220464   4.961   9.156   1.147
 6860TIP3    H120465   4.961   9.115   1.058
 6860TIP3    H220466   5.058   9.160   1.159
 6861TIP3   OH220467   3.667   8.672   0.672
 6861TIP3    H120468   3.655   8.767   0.684
 6861TIP3    H220469   3.579   8.638   0.653
 6862TIP3   OH220470   4.050   8.380   1.555
 6862TIP3    H120471   4.018   8.347   1.469
 6862TIP3    H220472   4.040   8.301   1.612
 6863TIP3   OH220473   4.033   9.262   2.160
 6863TIP3    H120474   4.079   9.182   2.188
 6863TIP3    H220475   4.028   9.316   2.242
 6864TIP3   OH220476   4.309   9.121   1.847
 6864TIP3    H120477   4.239   9.085   1.902
 6864TIP3    H220478   4.260   9.143   1.767
 6865TIP3   OH220479   4.460   8.932   1.989
 6865TIP3    H120480   4.464   8.849   1.935
 6865TIP3    H220481   4.424   8.994   1.924
 6866TIP3   OH220482   4.456   8.735   1.786
 6866TIP3    H120483   4.484   8.779   1.702
 6866TIP3    H220484   4.363   8.713   1.767
 6867TIP3   OH220485   5.076   9.251   2.035
 6867TIP3    H120486   5.094   9.158   2.056
 6867TIP3    H220487   5.163   9.281   2.008
 6868TIP3   OH220488   4.293   9.081   2.191
 6868TIP3    H120489   4.253   8.993   2.206
 6868TIP3    H220490   4.362   9.061   2.125
 6869TIP3   OH220491   4.589   8.502   1.849
 6869TIP3    H120492   4.540   8.584   1.827
 6869TIP3    H220493   4.519   8.435   1.838
 6870TIP3   OH220494   4.719   8.999   2.070
 6870TIP3    H120495   4.711   8.993   2.167
 6870TIP3    H220496   4.628   8.971   2.046
 6871TIP3   OH220497   4.959   8.958   1.928
 6871TIP3    H120498   4.881   8.947   1.986
 6871TIP3    H220499   5.031   8.922   1.984
 6872TIP3   OH220500   5.185   8.898   2.077
 6872TIP3    H120501   5.198   8.802   2.095
 6872TIP3    H220502   5.180   8.936   2.167
 6873TIP3   OH220503   4.171   8.845   2.260
 6873TIP3    H120504   4.174   8.754   2.223
 6873TIP3    H220505   4.207   8.829   2.349
 6874TIP3   OH220506   4.682   8.513   2.107
 6874TIP3    H120507   4.750   8.443   2.103
 6874TIP3    H220508   4.643   8.505   2.018
 6875TIP3   OH220509   4.749   8.727   2.266
 6875TIP3    H120510   4.726   8.656   2.202
 6875TIP3    H220511   4.671   8.786   2.260
 6876TIP3   OH220512   5.022   9.059   0.900
 6876TIP3    H120513   5.052   8.993   0.837
 6876TIP3    H220514   5.089   9.124   0.884
 6877TIP3   OH220515   5.524   9.389   1.694
 6877TIP3    H120516   5.450   9.330   1.720
 6877TIP3    H220517   5.599   9.326   1.697
 6878TIP3   OH220518   5.068   8.853   0.712
 6878TIP3    H120519   5.104   8.762   0.725
 6878TIP3    H220520   5.135   8.890   0.652
 6879TIP3   OH220521   5.217   9.024   1.191
 6879TIP3    H120522   5.295   9.053   1.139
 6879TIP3    H220523   5.243   9.060   1.278
 6880TIP3   OH220524   5.297   9.154   1.421
 6880TIP3    H120525   5.222   9.185   1.472
 6880TIP3    H220526   5.345   9.238   1.402
 6881TIP3   OH220527   3.904   8.915   2.249
 6881TIP3    H120528   3.999   8.897   2.236
 6881TIP3    H220529   3.874   8.826   2.275
 6882TIP3   OH220530   5.736   8.760   1.987
 6882TIP3    H120531   5.795   8.694   1.945
 6882TIP3    H220532   5.712   8.817   1.911
 6883TIP3   OH220533   5.148   8.597   0.748
 6883TIP3    H120534   5.209   8.585   0.824
 6883TIP3    H220535   5.093   8.516   0.755
 6884TIP3   OH220536   3.863   8.585   1.560
 6884TIP3    H120537   3.927   8.512   1.571
 6884TIP3    H220538   3.922   8.662   1.553
 6885TIP3   OH220539   3.668   8.870   1.641
 6885TIP3    H120540   3.716   8.858   1.555
 6885TIP3    H220541   3.689   8.962   1.660
 6886TIP3   OH220542   5.611   8.905   1.791
 6886TIP3    H120543   5.520   8.938   1.806
 6886TIP3    H220544   5.591   8.830   1.733
 6887TIP3   OH220545   3.651   8.367   1.135
 6887TIP3    H120546   3.557   8.363   1.161
 6887TIP3    H220547   3.648   8.423   1.055
 6888TIP3   OH220548   3.871   8.448   1.951
 6888TIP3    H120549   3.817   8.439   2.031
 6888TIP3    H220550   3.805   8.485   1.889
 6889TIP3   OH220551   5.507   8.664   1.671
 6889TIP3    H120552   5.416   8.656   1.637
 6889TIP3    H220553   5.539   8.572   1.659
 6890TIP3   OH220554   4.708   8.577   1.282
 6890TIP3    H120555   4.669   8.508   1.338
 6890TIP3    H220556   4.784   8.531   1.242
 6891TIP3   OH220557   5.233   8.461   1.199
 6891TIP3    H120558   5.272   8.510   1.122
 6891TIP3    H220559   5.138   8.480   1.189
 6892TIP3   OH220560   5.325   8.557   0.961
 6892TIP3    H120561   5.398   8.505   0.921
 6892TIP3    H220562   5.361   8.648   0.945
 6893TIP3   OH220563   3.961   8.288   1.307
 6893TIP3    H120564   3.869   8.253   1.307
 6893TIP3    H220565   4.012   8.204   1.304
 6894TIP3   OH220566   3.745   8.157   0.953
 6894TIP3    H120567   3.779   8.214   0.881
 6894TIP3    H220568   3.719   8.221   1.021
 6895TIP3   OH220569   4.402   8.322   1.186
 6895TIP3    H120570   4.463   8.369   1.127
 6895TIP3    H220571   4.429   8.356   1.273
 6896TIP3   OH220572   4.948   8.466   1.172
 6896TIP3    H120573   4.952   8.431   1.082
 6896TIP3    H220574   4.936   8.384   1.225
 6897TIP3   OH220575   4.976   8.382   0.738
 6897TIP3    H120576   4.886   8.418   0.735
 6897TIP3    H220577   4.961   8.297   0.786
 6898TIP3   OH220578   3.864   8.319   0.721
 6898TIP3    H120579   3.910   8.253   0.665
 6898TIP3    H220580   3.941   8.369   0.757
 6899TIP3   OH220581   4.375   8.491   0.815
 6899TIP3    H120582   4.438   8.444   0.872
 6899TIP3    H220583   4.396   8.584   0.840
 6900TIP3   OH220584   4.168   8.571   2.200
 6900TIP3    H120585   4.136   8.497   2.255
 6900TIP3    H220586   4.263   8.571   2.224
 6901TIP3   OH220587   4.418   8.566   2.317
 6901TIP3    H120588   4.503   8.541   2.276
 6901TIP3    H220589   4.406   8.495   2.383
 6902TIP3   OH220590   5.242   8.627   2.105
 6902TIP3    H120591   5.262   8.595   2.195
 6902TIP3    H220592   5.330   8.622   2.062
 6903TIP3   OH220593   5.638   9.144   0.913
 6903TIP3    H120594   5.721   9.096   0.928
 6903TIP3    H220595   5.601   9.101   0.834
 6904TIP3   OH220596   5.993   8.920   1.226
 6904TIP3    H120597   5.936   8.948   1.152
 6904TIP3    H220598   5.936   8.940   1.303
 6905TIP3   OH220599   5.878   9.022   0.997
 6905TIP3    H120600   5.938   9.095   1.023
 6905TIP3    H220601   5.910   9.010   0.904
 6906TIP3   OH220602   6.361   8.629   0.958
 6906TIP3    H120603   6.331   8.539   0.980
 6906TIP3    H220604   6.281   8.681   0.974
 6907TIP3   OH220605   6.107   8.713   1.066
 6907TIP3    H120606   6.015   8.687   1.046
 6907TIP3    H220607   6.091   8.799   1.107
 6908TIP3   OH220608   6.905   9.276   1.188
 6908TIP3    H120609   6.858   9.255   1.272
 6908TIP3    H220610   6.834   9.320   1.140
 6909TIP3   OH220611   6.029   9.240   1.078
 6909TIP3    H120612   5.962   9.254   1.147
 6909TIP3    H220613   6.030   9.324   1.029
 6910TIP3   OH220614   6.594   9.479   1.409
 6910TIP3    H120615   6.577   9.398   1.463
 6910TIP3    H220616   6.689   9.489   1.424
 6911TIP3   OH220617   5.861   9.256   1.302
 6911TIP3    H120618   5.796   9.306   1.352
 6911TIP3    H220619   5.840   9.165   1.329
 6912TIP3   OH220620   5.461   8.774   0.880
 6912TIP3    H120621   5.529   8.812   0.940
 6912TIP3    H220622   5.509   8.760   0.799
 6913TIP3   OH220623   6.307   9.147   1.073
 6913TIP3    H120624   6.228   9.197   1.049
 6913TIP3    H220625   6.371   9.217   1.096
 6914TIP3   OH220626   6.320   9.492   1.543
 6914TIP3    H120627   6.285   9.540   1.465
 6914TIP3    H220628   6.384   9.432   1.502
 6915TIP3   OH220629   5.828   9.003   1.438
 6915TIP3    H120630   5.731   9.002   1.453
 6915TIP3    H220631   5.860   8.942   1.506
 6916TIP3   OH220632   6.664   9.089   1.153
 6916TIP3    H120633   6.759   9.087   1.169
 6916TIP3    H220634   6.643   9.000   1.188
 6917TIP3   OH220635   6.498   9.312   1.196
 6917TIP3    H120636   6.539   9.359   1.270
 6917TIP3    H220637   6.553   9.232   1.187
 6918TIP3   OH220638   7.176   9.220   1.156
 6918TIP3    H120639   7.084   9.236   1.186
 6918TIP3    H220640   7.161   9.204   1.062
 6919TIP3   OH220641   5.841   8.638   1.048
 6919TIP3    H120642   5.811   8.606   0.960
 6919TIP3    H220643   5.833   8.557   1.102
 6920TIP3   OH220644   5.829   9.520   1.645
 6920TIP3    H120645   5.874   9.442   1.677
 6920TIP3    H220646   5.818   9.576   1.725
 6921TIP3   OH220647   6.103   9.385   1.327
 6921TIP3    H120648   6.024   9.335   1.352
 6921TIP3    H220649   6.096   9.382   1.232
 6922TIP3   OH220650   6.252   9.194   1.475
 6922TIP3    H120651   6.257   9.111   1.422
 6922TIP3    H220652   6.217   9.255   1.408
 6923TIP3   OH220653   6.250   8.991   1.285
 6923TIP3    H120654   6.280   9.036   1.203
 6923TIP3    H220655   6.158   8.966   1.260
 6924TIP3   OH220656   6.883   9.506   1.533
 6924TIP3    H120657   6.882   9.408   1.535
 6924TIP3    H220658   6.967   9.520   1.486
 6925TIP3   OH220659   6.102   9.333   1.690
 6925TIP3    H120660   6.051   9.249   1.698
 6925TIP3    H220661   6.156   9.316   1.611
 6926TIP3   OH220662   6.373   8.749   1.341
 6926TIP3    H120663   6.339   8.837   1.314
 6926TIP3    H220664   6.299   8.690   1.320
 6927TIP3   OH220665   6.503   9.270   1.555
 6927TIP3    H120666   6.498   9.254   1.651
 6927TIP3    H220667   6.418   9.229   1.528
 6928TIP3   OH220668   6.764   9.231   1.418
 6928TIP3    H120669   6.682   9.191   1.450
 6928TIP3    H220670   6.831   9.174   1.461
 6929TIP3   OH220671   6.993   9.165   1.565
 6929TIP3    H120672   7.002   9.067   1.576
 6929TIP3    H220673   6.982   9.193   1.658
 6930TIP3   OH220674   5.963   9.102   1.746
 6930TIP3    H120675   5.971   9.012   1.709
 6930TIP3    H220676   6.000   9.087   1.835
 6931TIP3   OH220677   6.473   8.767   1.594
 6931TIP3    H120678   6.548   8.707   1.581
 6931TIP3    H220679   6.439   8.768   1.502
 6932TIP3   OH220680   6.542   8.980   1.755
 6932TIP3    H120681   6.523   8.911   1.688
 6932TIP3    H220682   6.466   9.040   1.746
 6933TIP3   OH220683   5.695   9.166   1.725
 6933TIP3    H120684   5.792   9.154   1.719
 6933TIP3    H220685   5.670   9.079   1.762
 6934TIP3   OH220686   7.525   9.030   1.456
 6934TIP3    H120687   7.569   8.942   1.444
 6934TIP3    H220688   7.475   9.039   1.374
 6935TIP3   OH220689   5.662   8.848   1.053
 6935TIP3    H120690   5.721   8.770   1.059
 6935TIP3    H220691   5.728   8.919   1.043
 6936TIP3   OH220692   5.465   9.126   1.130
 6936TIP3    H120693   5.503   9.113   1.041
 6936TIP3    H220694   5.487   9.219   1.142
 6937TIP3   OH220695   5.667   8.706   1.439
 6937TIP3    H120696   5.613   8.698   1.519
 6937TIP3    H220697   5.601   8.742   1.376
 6938TIP3   OH220698   7.319   8.920   1.159
 6938TIP3    H120699   7.227   8.909   1.130
 6938TIP3    H220700   7.354   8.831   1.139
 6939TIP3   OH220701   5.754   8.541   0.810
 6939TIP3    H120702   5.664   8.506   0.793
 6939TIP3    H220703   5.808   8.463   0.787
 6940TIP3   OH220704   5.964   8.825   1.685
 6940TIP3    H120705   5.934   8.753   1.743
 6940TIP3    H220706   6.059   8.827   1.707
 6941TIP3   OH220707   6.214   8.825   1.801
 6941TIP3    H120708   6.296   8.802   1.753
 6941TIP3    H220709   6.207   8.751   1.864
 6942TIP3   OH220710   7.048   8.906   1.611
 6942TIP3    H120711   7.062   8.855   1.693
 6942TIP3    H220712   7.104   8.861   1.546
 6943TIP3   OH220713   1.778   0.227   6.054
 6943TIP3    H120714   1.833   0.168   6.107
 6943TIP3    H220715   1.793   0.312   6.102
 6944TIP3   OH220716   1.398   0.650   6.082
 6944TIP3    H120717   1.444   0.578   6.033
 6944TIP3    H220718   1.417   0.629   6.174
 6945TIP3   OH220719   1.819   0.441   6.235
 6945TIP3    H120720   1.732   0.437   6.276
 6945TIP3    H220721   1.820   0.533   6.199
 6946TIP3   OH220722   1.538   0.487   5.912
 6946TIP3    H120723   1.581   0.403   5.883
 6946TIP3    H220724   1.600   0.553   5.873
 6947TIP3   OH220725   1.646   0.251   5.812
 6947TIP3    H120726   1.682   0.186   5.747
 6947TIP3    H220727   1.710   0.245   5.886
 6948TIP3   OH220728   2.076   0.359   6.579
 6948TIP3    H120729   2.041   0.277   6.541
 6948TIP3    H220730   2.050   0.426   6.514
 6949TIP3   OH220731   2.278   0.010   6.429
 6949TIP3    H120732   2.182   0.021   6.441
 6949TIP3    H220733   2.287   0.019   6.332
 6950TIP3   OH220734   1.857   0.300   5.233
 6950TIP3    H120735   1.864   0.396   5.215
 6950TIP3    H220736   1.949   0.271   5.220
 6951TIP3   OH220737   2.298   0.693   6.623
 6951TIP3    H120738   2.308   0.595   6.628
 6951TIP3    H220739   2.225   0.705   6.684
 6952TIP3   OH220740   1.170   0.622   5.705
 6952TIP3    H120741   1.120   0.605   5.624
 6952TIP3    H220742   1.136   0.710   5.732
 6953TIP3   OH220743   1.370   0.517   5.357
 6953TIP3    H120744   1.432   0.451   5.318
 6953TIP3    H220745   1.405   0.524   5.449
 6954TIP3   OH220746   1.424   0.569   5.627
 6954TIP3    H120747   1.334   0.580   5.667
 6954TIP3    H220748   1.481   0.569   5.705
 6955TIP3   OH220749   1.980   1.053   6.727
 6955TIP3    H120750   1.985   1.066   6.631
 6955TIP3    H220751   2.063   1.092   6.757
 6956TIP3   OH220752   2.017   0.136   6.416
 6956TIP3    H120753   2.066   0.184   6.345
 6956TIP3    H220754   1.926   0.140   6.384
 6957TIP3   OH220755   2.321   0.418   6.665
 6957TIP3    H120756   2.223   0.406   6.662
 6957TIP3    H220757   2.343   0.381   6.576
 6958TIP3   OH220758   1.801   0.366   5.497
 6958TIP3    H120759   1.763   0.290   5.542
 6958TIP3    H220760   1.808   0.334   5.405
 6959TIP3   OH220761   1.575   0.110   5.393
 6959TIP3    H120762   1.603   0.074   5.479
 6959TIP3    H220763   1.477   0.101   5.400
 6960TIP3   OH220764   1.888   0.574   5.219
 6960TIP3    H120765   1.923   0.645   5.161
 6960TIP3    H220766   1.808   0.620   5.252
 6961TIP3   OH220767   1.718   0.038   5.646
 6961TIP3    H120768   1.707  -0.054   5.676
 6961TIP3    H220769   1.810   0.034   5.613
 6962TIP3   OH220770   1.843   0.705   6.158
 6962TIP3    H120771   1.801   0.756   6.085
 6962TIP3    H220772   1.937   0.728   6.140
 6963TIP3   OH220773   1.792   0.647   6.836
 6963TIP3    H120774   1.767   0.573   6.897
 6963TIP3    H220775   1.875   0.668   6.867
 6964TIP3   OH220776   1.532   0.338   5.230
 6964TIP3    H120777   1.566   0.262   5.280
 6964TIP3    H220778   1.579   0.330   5.145
 6965TIP3   OH220779   1.893  -0.164   5.237
 6965TIP3    H120780   1.858  -0.214   5.161
 6965TIP3    H220781   1.847  -0.078   5.222
 6966TIP3   OH220782   2.094   0.803   6.116
 6966TIP3    H120783   2.121   0.844   6.200
 6966TIP3    H220784   2.150   0.850   6.052
 6967TIP3   OH220785   2.128   0.824   6.399
 6967TIP3    H120786   2.088   0.735   6.389
 6967TIP3    H220787   2.205   0.802   6.454
 6968TIP3   OH220788   2.181   0.504   6.953
 6968TIP3    H120789   2.111   0.501   7.021
 6968TIP3    H220790   2.221   0.592   6.972
 6969TIP3   OH220791   1.988   0.017   5.595
 6969TIP3    H120792   2.057   0.078   5.562
 6969TIP3    H220793   2.034  -0.026   5.670
 6970TIP3   OH220794   2.116  -0.113   5.804
 6970TIP3    H120795   2.048  -0.103   5.872
 6970TIP3    H220796   2.195  -0.075   5.848
 6971TIP3   OH220797   2.160   0.269   6.223
 6971TIP3    H120798   2.222   0.206   6.180
 6971TIP3    H220799   2.166   0.346   6.163
 6972TIP3   OH220800   2.004   0.569   6.408
 6972TIP3    H120801   1.924   0.608   6.446
 6972TIP3    H220802   1.967   0.516   6.335
 6973TIP3   OH220803   2.059  -0.206   5.441
 6973TIP3    H120804   1.994  -0.196   5.368
 6973TIP3    H220805   2.028  -0.134   5.500
 6974TIP3   OH220806   2.228   0.170   6.802
 6974TIP3    H120807   2.288   0.093   6.791
 6974TIP3    H220808   2.249   0.226   6.726
 6975TIP3   OH220809   2.393  -0.045   6.819
 6975TIP3    H120810   2.336  -0.120   6.838
 6975TIP3    H220811   2.482  -0.080   6.835
 6976TIP3   OH220812   1.682   0.664   5.772
 6976TIP3    H120813   1.733   0.654   5.689
 6976TIP3    H220814   1.726   0.740   5.814
 6977TIP3   OH220815   1.612   0.871   6.719
 6977TIP3    H120816   1.643   0.900   6.630
 6977TIP3    H220817   1.648   0.941   6.775
 6978TIP3   OH220818   1.341   0.770   6.391
 6978TIP3    H120819   1.268   0.780   6.328
 6978TIP3    H220820   1.345   0.864   6.419
 6979TIP3   OH220821   1.594   0.720   6.468
 6979TIP3    H120822   1.504   0.742   6.437
 6979TIP3    H220823   1.648   0.785   6.420
 6980TIP3   OH220824   1.773   0.907   6.353
 6980TIP3    H120825   1.759   0.992   6.308
 6980TIP3    H220826   1.803   0.849   6.280
 6981TIP3   OH220827   1.109   0.496   5.434
 6981TIP3    H120828   1.201   0.523   5.414
 6981TIP3    H220829   1.103   0.421   5.374
 6982TIP3   OH220830   1.826   0.636   5.540
 6982TIP3    H120831   1.819   0.539   5.524
 6982TIP3    H220832   1.781   0.671   5.460
 6983TIP3   OH220833   3.323   0.148   5.498
 6983TIP3    H120834   3.299   0.240   5.475
 6983TIP3    H220835   3.247   0.099   5.463
 6984TIP3   OH220836   3.311   0.154   5.877
 6984TIP3    H120837   3.347   0.127   5.963
 6984TIP3    H220838   3.274   0.070   5.845
 6985TIP3   OH220839   2.614   0.053   6.236
 6985TIP3    H120840   2.645  -0.015   6.299
 6985TIP3    H220841   2.694   0.107   6.229
 6986TIP3   OH220842   3.554   0.460   5.558
 6986TIP3    H120843   3.551   0.385   5.620
 6986TIP3    H220844   3.591   0.530   5.614
 6987TIP3   OH220845   2.587   0.458   5.965
 6987TIP3    H120846   2.578   0.360   5.967
 6987TIP3    H220847   2.684   0.465   5.967
 6988TIP3   OH220848   2.286  -0.345   5.758
 6988TIP3    H120849   2.246  -0.257   5.771
 6988TIP3    H220850   2.215  -0.391   5.713
 6989TIP3   OH220851   2.359  -0.052   5.914
 6989TIP3    H120852   2.406  -0.127   5.958
 6989TIP3    H220853   2.425  -0.024   5.849
 6990TIP3   OH220854   3.201   0.904   5.558
 6990TIP3    H120855   3.260   0.829   5.540
 6990TIP3    H220856   3.195   0.901   5.655
 6991TIP3   OH220857   3.118   0.380   5.919
 6991TIP3    H120858   3.155   0.298   5.881
 6991TIP3    H220859   3.202   0.424   5.944
 6992TIP3   OH220860   3.532  -0.109   5.955
 6992TIP3    H120861   3.560  -0.196   5.988
 6992TIP3    H220862   3.500  -0.130   5.865
 6993TIP3   OH220863   2.501  -0.257   6.027
 6993TIP3    H120864   2.579  -0.283   6.080
 6993TIP3    H220865   2.519  -0.313   5.948
 6994TIP3   OH220866   2.942  -0.057   5.825
 6994TIP3    H120867   3.033  -0.091   5.840
 6994TIP3    H220868   2.897  -0.140   5.794
 6995TIP3   OH220869   4.181  -0.115   6.107
 6995TIP3    H120870   4.115  -0.045   6.088
 6995TIP3    H220871   4.221  -0.085   6.190
 6996TIP3   OH220872   3.219   0.368   5.358
 6996TIP3    H120873   3.173   0.328   5.283
 6996TIP3    H220874   3.149   0.410   5.409
 6997TIP3   OH220875   2.968   0.299   6.150
 6997TIP3    H120876   2.905   0.362   6.190
 6997TIP3    H220877   3.012   0.353   6.082
 6998TIP3   OH220878   2.738  -0.352   6.127
 6998TIP3    H120879   2.805  -0.285   6.151
 6998TIP3    H220880   2.779  -0.397   6.053
 6999TIP3   OH220881   2.794   0.492   6.247
 6999TIP3    H120882   2.768   0.579   6.211
 6999TIP3    H220883   2.717   0.475   6.306
 7000TIP3   OH220884   2.191   0.182   5.486
 7000TIP3    H120885   2.150   0.205   5.400
 7000TIP3    H220886   2.221   0.269   5.519
 7001TIP3   OH220887   3.629   0.697   5.724
 7001TIP3    H120888   3.539   0.690   5.763
 7001TIP3    H220889   3.625   0.785   5.682
 7002TIP3   OH220890   3.309   0.734   5.352
 7002TIP3    H120891   3.371   0.657   5.352
 7002TIP3    H220892   3.376   0.804   5.334
 7003TIP3   OH220893   3.471   0.528   5.304
 7003TIP3    H120894   3.459   0.445   5.256
 7003TIP3    H220895   3.507   0.495   5.390
 7004TIP3   OH220896   3.857   0.613   6.068
 7004TIP3    H120897   3.848   0.535   6.009
 7004TIP3    H220898   3.843   0.687   6.005
 7005TIP3   OH220899   3.154   0.011   5.325
 7005TIP3    H120900   3.067   0.047   5.298
 7005TIP3    H220901   3.197  -0.005   5.239
 7006TIP3   OH220902   3.103  -0.207   5.047
 7006TIP3    H120903   3.181  -0.164   5.087
 7006TIP3    H220904   3.147  -0.279   4.999
 7007TIP3   OH220905   4.052   0.245   5.914
 7007TIP3    H120906   3.970   0.298   5.920
 7007TIP3    H220907   4.081   0.267   5.823
 7008TIP3   OH220908   3.498   0.089   5.296
 7008TIP3    H120909   3.445   0.109   5.377
 7008TIP3    H220910   3.581   0.058   5.338
 7009TIP3   OH220911   3.728   0.132   6.201
 7009TIP3    H120912   3.727   0.215   6.253
 7009TIP3    H220913   3.642   0.139   6.155
 7010TIP3   OH220914   2.735   0.089   5.709
 7010TIP3    H120915   2.688   0.030   5.646
 7010TIP3    H220916   2.807   0.030   5.741
 7011TIP3   OH220917   2.864   0.503   5.857
 7011TIP3    H120918   2.838   0.445   5.785
 7011TIP3    H220919   2.952   0.467   5.880
 7012TIP3   OH220920   2.867   0.053   6.071
 7012TIP3    H120921   2.899   0.030   5.981
 7012TIP3    H220922   2.910   0.139   6.088
 7013TIP3   OH220923   3.385   0.695   5.841
 7013TIP3    H120924   3.377   0.773   5.898
 7013TIP3    H220925   3.377   0.621   5.904
 7014TIP3   OH220926   3.001   0.618   6.387
 7014TIP3    H120927   2.943   0.678   6.438
 7014TIP3    H220928   2.934   0.562   6.342
 7015TIP3   OH220929   3.338  -0.059   5.125
 7015TIP3    H120930   3.400  -0.004   5.177
 7015TIP3    H220931   3.364  -0.035   5.033
 7016TIP3   OH220932   2.746   0.188   6.482
 7016TIP3    H120933   2.752   0.269   6.537
 7016TIP3    H220934   2.654   0.160   6.501
 7017TIP3   OH220935   2.796   0.791   6.480
 7017TIP3    H120936   2.762   0.781   6.389
 7017TIP3    H220937   2.717   0.765   6.533
 7018TIP3   OH220938   2.593  -0.062   5.521
 7018TIP3    H120939   2.522  -0.030   5.461
 7018TIP3    H220940   2.572  -0.156   5.530
 7019TIP3   OH220941   3.653   0.556   4.723
 7019TIP3    H120942   3.662   0.652   4.704
 7019TIP3    H220943   3.745   0.525   4.708
 7020TIP3   OH220944   2.379   0.312   6.422
 7020TIP3    H120945   2.313   0.284   6.356
 7020TIP3    H220946   2.415   0.225   6.452
 7021TIP3   OH220947   2.229   0.502   6.065
 7021TIP3    H120948   2.324   0.496   6.049
 7021TIP3    H220949   2.222   0.586   6.112
 7022TIP3   OH220950   4.095   0.955   6.112
 7022TIP3    H120951   4.094   0.859   6.128
 7022TIP3    H220952   4.012   0.981   6.159
 7023TIP3   OH220953   3.199   0.747   6.245
 7023TIP3    H120954   3.199   0.838   6.281
 7023TIP3    H220955   3.129   0.705   6.301
 7024TIP3   OH220956   2.400   0.721   5.582
 7024TIP3    H120957   2.446   0.710   5.668
 7024TIP3    H220958   2.341   0.644   5.583
 7025TIP3   OH220959   3.178   0.767   4.846
 7025TIP3    H120960   3.214   0.696   4.787
 7025TIP3    H220961   3.251   0.774   4.908
 7026TIP3   OH220962   3.989   0.085   6.402
 7026TIP3    H120963   3.913   0.117   6.351
 7026TIP3    H220964   4.003  -0.004   6.368
 7027TIP3   OH220965   2.580   0.499   6.418
 7027TIP3    H120966   2.633   0.478   6.498
 7027TIP3    H220967   2.509   0.431   6.422
 7028TIP3   OH220968   3.662  -0.051   6.404
 7028TIP3    H120969   3.700  -0.138   6.388
 7028TIP3    H220970   3.677  -0.003   6.321
 7029TIP3   OH220971   3.416  -0.004   4.869
 7029TIP3    H120972   3.378  -0.031   4.783
 7029TIP3    H220973   3.497   0.043   4.840
 7030TIP3   OH220974   2.920  -0.170   6.224
 7030TIP3    H120975   2.861  -0.146   6.298
 7030TIP3    H220976   2.906  -0.092   6.165
 7031TIP3   OH220977   2.781  -0.253   5.722
 7031TIP3    H120978   2.708  -0.308   5.755
 7031TIP3    H220979   2.807  -0.302   5.641
 7032TIP3   OH220980   3.293  -0.189   5.456
 7032TIP3    H120981   3.239  -0.118   5.415
 7032TIP3    H220982   3.339  -0.226   5.379
 7033TIP3   OH220983   3.465   0.136   6.512
 7033TIP3    H120984   3.449   0.081   6.593
 7033TIP3    H220985   3.561   0.128   6.507
 7034TIP3   OH220986   3.450  -0.164   5.695
 7034TIP3    H120987   3.391  -0.138   5.622
 7034TIP3    H220988   3.483  -0.249   5.661
 7035TIP3   OH220989   2.728  -0.128   6.418
 7035TIP3    H120990   2.762  -0.074   6.491
 7035TIP3    H220991   2.679  -0.198   6.463
 7036TIP3   OH220992   3.459   0.090   6.117
 7036TIP3    H120993   3.489   0.018   6.058
 7036TIP3    H220994   3.428   0.038   6.194
 7037TIP3   OH220995   2.555  -0.404   5.799
 7037TIP3    H120996   2.461  -0.389   5.774
 7037TIP3    H220997   2.567  -0.498   5.780
 7038TIP3   OH220998   2.842  -0.382   5.487
 7038TIP3    H120999   2.929  -0.409   5.454
 7038TIP3    H221000   2.785  -0.391   5.408
 7039TIP3   OH221001   2.655  -0.366   5.265
 7039TIP3    H121002   2.597  -0.418   5.208
 7039TIP3    H221003   2.719  -0.332   5.199
 7040TIP3   OH221004   3.783   1.309   6.212
 7040TIP3    H121005   3.785   1.331   6.118
 7040TIP3    H221006   3.864   1.354   6.244
 7041TIP3   OH221007   2.743   0.422   6.634
 7041TIP3    H121008   2.824   0.448   6.684
 7041TIP3    H221009   2.679   0.418   6.708
 7042TIP3   OH221010   3.211  -0.124   5.897
 7042TIP3    H121011   3.267  -0.183   5.845
 7042TIP3    H221012   3.207  -0.172   5.983
 7043TIP3   OH221013   3.193  -0.227   6.174
 7043TIP3    H121014   3.102  -0.201   6.197
 7043TIP3    H221015   3.247  -0.176   6.237
 7044TIP3   OH221016   2.919   0.159   5.274
 7044TIP3    H121017   2.848   0.092   5.261
 7044TIP3    H221018   2.900   0.188   5.367
 7045TIP3   OH221019   3.822   0.395   5.904
 7045TIP3    H121020   3.847   0.442   5.822
 7045TIP3    H221021   3.736   0.353   5.879
 7046TIP3   OH221022   3.321   0.477   6.269
 7046TIP3    H121023   3.343   0.447   6.358
 7046TIP3    H221024   3.281   0.564   6.284
 7047TIP3   OH221025   3.437  -0.303   5.238
 7047TIP3    H121026   3.535  -0.294   5.247
 7047TIP3    H221027   3.417  -0.230   5.176
 7048TIP3   OH221028   2.614   0.180   5.948
 7048TIP3    H121029   2.654   0.150   5.864
 7048TIP3    H221030   2.650   0.116   6.011
 7049TIP3   OH221031   3.059   0.318   5.107
 7049TIP3    H121032   2.988   0.382   5.094
 7049TIP3    H221033   3.012   0.247   5.156
 7050TIP3   OH221034   2.496   0.107   6.566
 7050TIP3    H121035   2.514   0.085   6.659
 7050TIP3    H221036   2.423   0.046   6.542
 7051TIP3   OH221037   3.216   0.230   6.580
 7051TIP3    H121038   3.163   0.168   6.528
 7051TIP3    H221039   3.306   0.206   6.548
 7052TIP3   OH221040   3.479   0.741   6.163
 7052TIP3    H121041   3.383   0.735   6.178
 7052TIP3    H221042   3.508   0.789   6.243
 7053TIP3   OH221043   3.892  -0.196   5.074
 7053TIP3    H121044   3.833  -0.244   5.013
 7053TIP3    H221045   3.889  -0.108   5.031
 7054TIP3   OH221046   4.107   0.662   6.158
 7054TIP3    H121047   4.009   0.659   6.149
 7054TIP3    H221048   4.133   0.635   6.067
 7055TIP3   OH221049   3.574   0.626   4.981
 7055TIP3    H121050   3.573   0.549   5.040
 7055TIP3    H221051   3.599   0.586   4.895
 7056TIP3   OH221052   3.586   0.257   5.821
 7056TIP3    H121053   3.493   0.229   5.835
 7056TIP3    H221054   3.622   0.177   5.777
 7057TIP3   OH221055   2.709   0.484   5.567
 7057TIP3    H121056   2.701   0.569   5.520
 7057TIP3    H221057   2.617   0.464   5.586
 7058TIP3   OH221058   2.275  -0.215   5.274
 7058TIP3    H121059   2.323  -0.133   5.294
 7058TIP3    H221060   2.200  -0.208   5.338
 7059TIP3   OH221061   2.861   0.259   5.522
 7059TIP3    H121062   2.811   0.341   5.541
 7059TIP3    H221063   2.826   0.199   5.591
 7060TIP3   OH221064   2.982   0.827   6.045
 7060TIP3    H121065   3.025   0.899   5.995
 7060TIP3    H221066   3.058   0.792   6.095
 7061TIP3   OH221067   2.638   0.723   5.434
 7061TIP3    H121068   2.549   0.731   5.474
 7061TIP3    H221069   2.666   0.818   5.434
 7062TIP3   OH221070   3.373   0.464   6.001
 7062TIP3    H121071   3.362   0.462   6.098
 7062TIP3    H221072   3.451   0.408   5.989
 7063TIP3   OH221073   3.345   0.356   4.886
 7063TIP3    H121074   3.396   0.333   4.967
 7063TIP3    H221075   3.259   0.318   4.906
 7064TIP3   OH221076   3.618   0.998   6.056
 7064TIP3    H121077   3.542   0.938   6.049
 7064TIP3    H221078   3.602   1.060   5.982
 7065TIP3   OH221079   3.684   0.831   4.707
 7065TIP3    H121080   3.725   0.901   4.652
 7065TIP3    H221081   3.604   0.879   4.735
 7066TIP3   OH221082   3.505   0.297   5.110
 7066TIP3    H121083   3.494   0.224   5.175
 7066TIP3    H221084   3.601   0.289   5.092
 7067TIP3   OH221085   2.421   0.692   6.204
 7067TIP3    H121086   2.470   0.613   6.234
 7067TIP3    H221087   2.454   0.758   6.267
 7068TIP3   OH221088   2.719   0.334   4.883
 7068TIP3    H121089   2.723   0.241   4.852
 7068TIP3    H221090   2.694   0.322   4.977
 7069TIP3   OH221091   2.668   0.339   5.151
 7069TIP3    H121092   2.713   0.311   5.231
 7069TIP3    H221093   2.665   0.438   5.163
 7070TIP3   OH221094   2.390   0.032   5.357
 7070TIP3    H121095   2.325   0.077   5.416
 7070TIP3    H221096   2.405   0.103   5.291
 7071TIP3   OH221097   3.134  -0.406   5.517
 7071TIP3    H121098   3.177  -0.320   5.501
 7071TIP3    H221099   3.095  -0.394   5.605
 7072TIP3   OH221100   3.384  -0.070   6.324
 7072TIP3    H121101   3.381  -0.009   6.399
 7072TIP3    H221102   3.468  -0.116   6.343
 7073TIP3   OH221103   2.657   0.608   5.176
 7073TIP3    H121104   2.638   0.676   5.108
 7073TIP3    H221105   2.644   0.659   5.259
 7074TIP3   OH221106   3.670   0.020   5.695
 7074TIP3    H121107   3.599  -0.045   5.709
 7074TIP3    H221108   3.746  -0.022   5.742
 7075TIP3   OH221109   2.384   0.245   5.168
 7075TIP3    H121110   2.442   0.324   5.168
 7075TIP3    H221111   2.431   0.191   5.101
 7076TIP3   OH221112   2.308  -0.502   5.284
 7076TIP3    H121113   2.351  -0.415   5.284
 7076TIP3    H221114   2.222  -0.479   5.320
 7077TIP3   OH221115   3.638   0.968   5.645
 7077TIP3    H121116   3.599   1.016   5.569
 7077TIP3    H221117   3.734   0.987   5.628
 7078TIP3   OH221118   2.257   0.462   5.556
 7078TIP3    H121119   2.182   0.490   5.609
 7078TIP3    H221120   2.233   0.499   5.468
 7079TIP3   OH221121   2.413   0.997   6.623
 7079TIP3    H121122   2.498   0.995   6.671
 7079TIP3    H221123   2.394   0.902   6.618
 7080TIP3   OH221124   2.911   0.973   6.662
 7080TIP3    H121125   2.996   0.928   6.675
 7080TIP3    H221126   2.873   0.916   6.593
 7081TIP3   OH221127   2.881   0.539   4.806
 7081TIP3    H121128   2.820   0.466   4.834
 7081TIP3    H221129   2.949   0.488   4.758
 7082TIP3   OH221130   3.532   0.870   6.401
 7082TIP3    H121131   3.522   0.800   6.470
 7082TIP3    H221132   3.610   0.919   6.432
 7083TIP3   OH221133   3.311   0.580   4.705
 7083TIP3    H121134   3.359   0.517   4.762
 7083TIP3    H221135   3.365   0.581   4.623
 7084TIP3   OH221136   2.547   0.409   6.823
 7084TIP3    H121137   2.558   0.314   6.841
 7084TIP3    H221138   2.458   0.410   6.781
 7085TIP3   OH221139   2.519   0.059   5.018
 7085TIP3    H121140   2.572   0.018   5.088
 7085TIP3    H221141   2.586   0.065   4.947
 7086TIP3   OH221142   3.150   0.500   6.599
 7086TIP3    H121143   3.109   0.510   6.511
 7086TIP3    H221144   3.184   0.408   6.596
 7087TIP3   OH221145   3.036   0.255   4.827
 7087TIP3    H121146   3.028   0.263   4.923
 7087TIP3    H221147   3.035   0.157   4.818
 7088TIP3   OH221148   3.643   0.496   6.204
 7088TIP3    H121149   3.716   0.544   6.160
 7088TIP3    H221150   3.570   0.560   6.193
 7089TIP3   OH221151   2.658   0.123   6.810
 7089TIP3    H121152   2.739   0.074   6.790
 7089TIP3    H221153   2.681   0.161   6.898
 7090TIP3   OH221154   2.733  -0.040   5.244
 7090TIP3    H121155   2.705  -0.085   5.325
 7090TIP3    H221156   2.765  -0.116   5.190
 7091TIP3   OH221157   2.975   0.040   6.458
 7091TIP3    H121158   2.897   0.103   6.463
 7091TIP3    H221159   3.026   0.078   6.384
 7092TIP3   OH221160   2.824  -0.245   5.082
 7092TIP3    H121161   2.800  -0.245   4.988
 7092TIP3    H221162   2.922  -0.243   5.075
 7093TIP3   OH221163   3.514   0.431   6.606
 7093TIP3    H121164   3.593   0.403   6.559
 7093TIP3    H221165   3.507   0.363   6.675
 7094TIP3   OH221166   3.650   0.084   4.743
 7094TIP3    H121167   3.629   0.039   4.659
 7094TIP3    H221168   3.620   0.175   4.719
 7095TIP3   OH221169   3.164  -0.128   6.545
 7095TIP3    H121170   3.127  -0.216   6.517
 7095TIP3    H221171   3.099  -0.067   6.510
 7096TIP3   OH221172   3.150   0.140   6.280
 7096TIP3    H121173   3.231   0.135   6.227
 7096TIP3    H221174   3.097   0.205   6.229
 7097TIP3   OH221175   3.735   0.115   6.666
 7097TIP3    H121176   3.768   0.024   6.657
 7097TIP3    H221177   3.805   0.168   6.628
 7098TIP3   OH221178   3.776   0.350   6.388
 7098TIP3    H121179   3.716   0.405   6.333
 7098TIP3    H221180   3.863   0.375   6.348
 7099TIP3   OH221181   2.972  -0.054   6.818
 7099TIP3    H121182   2.909  -0.129   6.817
 7099TIP3    H221183   3.041  -0.084   6.758
 7100TIP3   OH221184   3.417  -0.030   6.711
 7100TIP3    H121185   3.381  -0.053   6.798
 7100TIP3    H221186   3.411  -0.114   6.663
 7101TIP3   OH221187   2.640   0.811   4.987
 7101TIP3    H121188   2.736   0.815   4.975
 7101TIP3    H221189   2.610   0.859   4.908
 7102TIP3   OH221190   2.117   0.197   5.206
 7102TIP3    H121191   2.211   0.219   5.190
 7102TIP3    H221192   2.110   0.110   5.162
 7103TIP3   OH221193   2.029   0.810   5.614
 7103TIP3    H121194   1.961   0.748   5.578
 7103TIP3    H221195   2.073   0.752   5.680
 7104TIP3   OH221196   2.165   0.663   5.802
 7104TIP3    H121197   2.154   0.588   5.862
 7104TIP3    H221198   2.216   0.724   5.858
 7105TIP3   OH221199   3.889   1.065   5.602
 7105TIP3    H121200   3.919   1.097   5.689
 7105TIP3    H221201   3.953   1.105   5.542
 7106TIP3   OH221202   3.921   1.083   5.884
 7106TIP3    H121203   3.880   0.994   5.881
 7106TIP3    H221204   3.998   1.063   5.940
 7107TIP3   OH221205   3.967   0.758   6.456
 7107TIP3    H121206   3.895   0.767   6.522
 7107TIP3    H221207   4.009   0.846   6.461
 7108TIP3   OH221208   3.783   0.273   5.077
 7108TIP3    H121209   3.853   0.334   5.048
 7108TIP3    H221210   3.825   0.232   5.156
 7109TIP3   OH221211   3.911   0.140   5.280
 7109TIP3    H121212   3.848   0.096   5.340
 7109TIP3    H221213   3.978   0.175   5.341
 7110TIP3   OH221214   3.963   0.529   5.710
 7110TIP3    H121215   4.019   0.465   5.662
 7110TIP3    H221216   3.959   0.604   5.648
 7111TIP3   OH221217   3.798   0.831   5.907
 7111TIP3    H121218   3.728   0.871   5.961
 7111TIP3    H221219   3.747   0.781   5.840
 7112TIP3   OH221220   3.848   0.044   4.928
 7112TIP3    H121221   3.778   0.053   4.860
 7112TIP3    H221222   3.825   0.120   4.985
 7113TIP3   OH221223   3.730  -0.286   4.874
 7113TIP3    H121224   3.685  -0.219   4.822
 7113TIP3    H221225   3.687  -0.367   4.843
 7114TIP3   OH221226   3.726  -0.005   5.428
 7114TIP3    H121227   3.736  -0.101   5.429
 7114TIP3    H221228   3.712   0.014   5.524
 7115TIP3   OH221229   2.351   0.079   6.164
 7115TIP3    H121230   2.353   0.044   6.072
 7115TIP3    H221231   2.447   0.076   6.187
 7116TIP3   OH221232   4.019   0.415   6.282
 7116TIP3    H121233   4.092   0.350   6.269
 7116TIP3    H221234   4.046   0.488   6.224
 7117TIP3   OH221235   4.205   0.215   6.295
 7117TIP3    H121236   4.137   0.166   6.345
 7117TIP3    H221237   4.286   0.176   6.329
 7118TIP3   OH221238   3.708  -0.287   5.274
 7118TIP3    H121239   3.753  -0.326   5.352
 7118TIP3    H221240   3.783  -0.254   5.221
 7119TIP3   OH221241   3.888  -0.080   5.820
 7119TIP3    H121242   3.978  -0.071   5.781
 7119TIP3    H221243   3.908  -0.064   5.914
 7120TIP3   OH221244   3.952   0.037   6.070
 7120TIP3    H121245   3.869   0.078   6.100
 7120TIP3    H221246   3.988   0.107   6.012
 7121TIP3   OH221247   2.354  -0.283   6.259
 7121TIP3    H121248   2.396  -0.285   6.171
 7121TIP3    H221249   2.366  -0.191   6.286
 7122TIP3   OH221250   3.462   0.929   5.254
 7122TIP3    H121251   3.524   0.914   5.179
 7122TIP3    H221252   3.514   0.992   5.308
 7123TIP3   OH221253   2.577   0.739   6.649
 7123TIP3    H121254   2.490   0.700   6.628
 7123TIP3    H221255   2.592   0.707   6.739
 7124TIP3   OH221256   2.754   0.763   6.194
 7124TIP3    H121257   2.707   0.839   6.154
 7124TIP3    H221258   2.841   0.776   6.150
 7125TIP3   OH221259   3.200   1.013   6.331
 7125TIP3    H121260   3.243   1.008   6.419
 7125TIP3    H221261   3.269   1.059   6.279
 7126TIP3   OH221262   3.381   1.161   6.187
 7126TIP3    H121263   3.452   1.108   6.147
 7126TIP3    H221264   3.433   1.217   6.248
 7127TIP3   OH221265   2.433   1.024   6.214
 7127TIP3    H121266   2.344   1.056   6.190
 7127TIP3    H221267   2.437   1.051   6.306
 7128TIP3   OH221268   2.669   1.000   6.073
 7128TIP3    H121269   2.583   1.014   6.119
 7128TIP3    H221270   2.648   1.034   5.983
 7129TIP3   OH221271   3.097   1.033   5.865
 7129TIP3    H121272   3.021   1.053   5.807
 7129TIP3    H221273   3.109   1.119   5.911
 7130TIP3   OH221274   3.363   0.969   5.919
 7130TIP3    H121275   3.269   0.988   5.901
 7130TIP3    H221276   3.407   1.047   5.881
 7131TIP3   OH221277   3.567   1.160   5.837
 7131TIP3    H121278   3.556   1.246   5.791
 7131TIP3    H221279   3.596   1.101   5.765
 7132TIP3   OH221280   2.343   0.815   5.961
 7132TIP3    H121281   2.369   0.790   6.052
 7132TIP3    H221282   2.416   0.772   5.911
 7133TIP3   OH221283   2.537   0.686   5.817
 7133TIP3    H121284   2.552   0.602   5.866
 7133TIP3    H221285   2.628   0.723   5.813
 7134TIP3   OH221286   2.805   0.780   5.819
 7134TIP3    H121287   2.833   0.687   5.812
 7134TIP3    H221288   2.847   0.803   5.904
 7135TIP3   OH221289   2.131   0.587   5.353
 7135TIP3    H121290   2.047   0.553   5.317
 7135TIP3    H221291   2.120   0.681   5.332
 7136TIP3   OH221292   2.915   0.773   4.948
 7136TIP3    H121293   2.996   0.796   4.898
 7136TIP3    H221294   2.890   0.691   4.901
 7137TIP3   OH221295   3.616   0.892   5.028
 7137TIP3    H121296   3.608   0.796   5.010
 7137TIP3    H221297   3.581   0.929   4.944
 7138TIP3   OH221298   2.208   0.614   4.991
 7138TIP3    H121299   2.207   0.641   5.084
 7138TIP3    H221300   2.296   0.572   4.981
 7139TIP3   OH221301   3.850   1.040   6.214
 7139TIP3    H121302   3.769   1.008   6.168
 7139TIP3    H221303   3.831   1.135   6.218
 7140TIP3   OH221304   5.115   0.412   4.978
 7140TIP3    H121305   5.089   0.504   4.961
 7140TIP3    H221306   5.033   0.366   4.956
 7141TIP3   OH221307   5.113   0.408   5.361
 7141TIP3    H121308   5.144   0.382   5.449
 7141TIP3    H221309   5.070   0.325   5.331
 7142TIP3   OH221310   4.411   0.310   5.726
 7142TIP3    H121311   4.446   0.242   5.788
 7142TIP3    H221312   4.490   0.365   5.714
 7143TIP3   OH221313   5.357   0.710   5.043
 7143TIP3    H121314   5.343   0.642   5.111
 7143TIP3    H221315   5.383   0.787   5.097
 7144TIP3   OH221316   4.383   0.714   5.452
 7144TIP3    H121317   4.375   0.616   5.455
 7144TIP3    H221318   4.480   0.723   5.449
 7145TIP3   OH221319   4.084  -0.090   5.246
 7145TIP3    H121320   4.037  -0.005   5.257
 7145TIP3    H221321   4.021  -0.138   5.188
 7146TIP3   OH221322   4.152   0.203   5.407
 7146TIP3    H121323   4.201   0.127   5.446
 7146TIP3    H221324   4.214   0.232   5.339
 7147TIP3   OH221325   5.004   1.174   5.058
 7147TIP3    H121326   5.053   1.102   5.012
 7147TIP3    H221327   5.000   1.140   5.148
 7148TIP3   OH221328   4.912   0.636   5.410
 7148TIP3    H121329   4.949   0.558   5.363
 7148TIP3    H221330   4.997   0.680   5.433
 7149TIP3   OH221331   5.332   0.146   5.443
 7149TIP3    H121332   5.355   0.057   5.472
 7149TIP3    H221333   5.296   0.129   5.354
 7150TIP3   OH221334   4.297  -0.003   5.515
 7150TIP3    H121335   4.377  -0.028   5.566
 7150TIP3    H221336   4.312  -0.057   5.435
 7151TIP3   OH221337   4.739   0.198   5.312
 7151TIP3    H121338   4.829   0.164   5.327
 7151TIP3    H221339   4.693   0.117   5.281
 7152TIP3   OH221340   5.974   0.144   5.600
 7152TIP3    H121341   5.908   0.209   5.569
 7152TIP3    H221342   6.017   0.190   5.672
 7153TIP3   OH221343   5.010   0.634   4.848
 7153TIP3    H121344   4.962   0.611   4.767
 7153TIP3    H221345   4.965   0.717   4.873
 7154TIP3   OH221346   4.765   0.555   5.638
 7154TIP3    H121347   4.701   0.620   5.676
 7154TIP3    H221348   4.807   0.607   5.567
 7155TIP3   OH221349   4.534  -0.096   5.615
 7155TIP3    H121350   4.601  -0.029   5.638
 7155TIP3    H221351   4.575  -0.142   5.541
 7156TIP3   OH221352   4.592   0.748   5.734
 7156TIP3    H121353   4.566   0.835   5.696
 7156TIP3    H221354   4.514   0.733   5.792
 7157TIP3   OH221355   3.987   0.440   4.972
 7157TIP3    H121356   3.950   0.465   4.886
 7157TIP3    H221357   4.019   0.525   5.008
 7158TIP3   OH221358   5.428   0.954   5.211
 7158TIP3    H121359   5.339   0.945   5.251
 7158TIP3    H221360   5.420   1.041   5.166
 7159TIP3   OH221361   5.132   1.002   4.887
 7159TIP3    H121362   5.182   0.920   4.864
 7159TIP3    H221363   5.190   1.069   4.844
 7160TIP3   OH221364   5.274   0.786   4.790
 7160TIP3    H121365   5.225   0.709   4.758
 7160TIP3    H221366   5.310   0.752   4.876
 7161TIP3   OH221367   5.654   0.869   5.554
 7161TIP3    H121368   5.642   0.792   5.495
 7161TIP3    H221369   5.636   0.944   5.494
 7162TIP3   OH221370   4.940   0.259   4.808
 7162TIP3    H121371   4.858   0.310   4.793
 7162TIP3    H221372   4.984   0.267   4.722
 7163TIP3   OH221373   4.905   0.042   4.514
 7163TIP3    H121374   4.971   0.074   4.578
 7163TIP3    H221375   4.908  -0.054   4.524
 7164TIP3   OH221376   5.849   0.503   5.402
 7164TIP3    H121377   5.765   0.555   5.407
 7164TIP3    H221378   5.877   0.524   5.311
 7165TIP3   OH221379   5.294   0.342   4.786
 7165TIP3    H121380   5.239   0.370   4.864
 7165TIP3    H221381   5.377   0.317   4.832
 7166TIP3   OH221382   5.525   0.390   5.685
 7166TIP3    H121383   5.522   0.473   5.735
 7166TIP3    H221384   5.438   0.394   5.639
 7167TIP3   OH221385   4.527   0.344   5.199
 7167TIP3    H121386   4.483   0.285   5.134
 7167TIP3    H221387   4.602   0.287   5.229
 7168TIP3   OH221388   4.655   0.755   5.348
 7168TIP3    H121389   4.634   0.708   5.266
 7168TIP3    H221390   4.745   0.722   5.368
 7169TIP3   OH221391   4.663   0.309   5.558
 7169TIP3    H121392   4.694   0.287   5.467
 7169TIP3    H221393   4.705   0.396   5.575
 7170TIP3   OH221394   5.187   0.951   5.331
 7170TIP3    H121395   5.173   1.031   5.385
 7170TIP3    H221396   5.173   0.878   5.395
 7171TIP3   OH221397   4.798   0.870   5.876
 7171TIP3    H121398   4.739   0.933   5.924
 7171TIP3    H221399   4.731   0.817   5.829
 7172TIP3   OH221400   5.143   0.193   4.618
 7172TIP3    H121401   5.196   0.256   4.673
 7172TIP3    H221402   5.160   0.229   4.528
 7173TIP3   OH221403   4.542   0.441   5.973
 7173TIP3    H121404   4.548   0.524   6.025
 7173TIP3    H221405   4.449   0.418   5.986
 7174TIP3   OH221406   4.877   0.882   4.884
 7174TIP3    H121407   4.954   0.938   4.905
 7174TIP3    H221408   4.814   0.946   4.846
 7175TIP3   OH221409   4.593   1.039   5.964
 7175TIP3    H121410   4.557   1.036   5.874
 7175TIP3    H221411   4.514   1.018   6.019
 7176TIP3   OH221412   4.390   0.193   5.005
 7176TIP3    H121413   4.319   0.226   4.947
 7176TIP3    H221414   4.366   0.101   5.018
 7177TIP3   OH221415   5.447   0.811   4.207
 7177TIP3    H121416   5.455   0.908   4.191
 7177TIP3    H221417   5.540   0.782   4.193
 7178TIP3   OH221418   4.171   0.569   5.912
 7178TIP3    H121419   4.109   0.544   5.841
 7178TIP3    H221420   4.210   0.483   5.938
 7179TIP3   OH221421   4.027   0.761   5.546
 7179TIP3    H121422   4.122   0.752   5.534
 7179TIP3    H221423   4.022   0.841   5.601
 7180TIP3   OH221424   5.892   1.212   5.600
 7180TIP3    H121425   5.890   1.116   5.615
 7180TIP3    H221426   5.809   1.239   5.645
 7181TIP3   OH221427   4.997   1.000   5.734
 7181TIP3    H121428   4.997   1.093   5.767
 7181TIP3    H221429   4.926   0.961   5.789
 7182TIP3   OH221430   4.756   1.128   4.687
 7182TIP3    H121431   4.711   1.109   4.603
 7182TIP3    H221432   4.725   1.218   4.708
 7183TIP3   OH221433   4.195   0.978   5.070
 7183TIP3    H121434   4.244   0.969   5.155
 7183TIP3    H221435   4.138   0.899   5.074
 7184TIP3   OH221436   4.959   1.029   4.328
 7184TIP3    H121437   5.018   0.960   4.291
 7184TIP3    H221438   4.994   1.038   4.419
 7185TIP3   OH221439   5.009   1.077   4.598
 7185TIP3    H121440   4.920   1.086   4.641
 7185TIP3    H221441   5.060   1.037   4.670
 7186TIP3   OH221442   5.786   0.338   5.887
 7186TIP3    H121443   5.708   0.381   5.848
 7186TIP3    H221444   5.779   0.250   5.849
 7187TIP3   OH221445   4.378   0.752   5.902
 7187TIP3    H121446   4.428   0.737   5.984
 7187TIP3    H221447   4.304   0.688   5.910
 7188TIP3   OH221448   5.473   0.209   5.896
 7188TIP3    H121449   5.484   0.116   5.873
 7188TIP3    H221450   5.468   0.253   5.810
 7189TIP3   OH221451   5.236   0.204   4.356
 7189TIP3    H121452   5.181   0.206   4.274
 7189TIP3    H221453   5.290   0.285   4.338
 7190TIP3   OH221454   4.716   0.086   5.711
 7190TIP3    H121455   4.657   0.110   5.785
 7190TIP3    H221456   4.703   0.164   5.652
 7191TIP3   OH221457   4.577   0.003   5.210
 7191TIP3    H121458   4.503  -0.052   5.242
 7191TIP3    H221459   4.602  -0.046   5.129
 7192TIP3   OH221460   5.082   0.074   4.948
 7192TIP3    H121461   5.021   0.144   4.915
 7192TIP3    H221462   5.135   0.059   4.869
 7193TIP3   OH221463   5.262   0.389   5.999
 7193TIP3    H121464   5.249   0.335   6.081
 7193TIP3    H221465   5.358   0.386   5.994
 7194TIP3   OH221466   5.250   0.094   5.182
 7194TIP3    H121467   5.186   0.121   5.113
 7194TIP3    H221468   5.273   0.006   5.153
 7195TIP3   OH221469   4.523   0.129   5.907
 7195TIP3    H121470   4.559   0.184   5.978
 7195TIP3    H221471   4.478   0.058   5.954
 7196TIP3   OH221472   5.258   0.346   5.605
 7196TIP3    H121473   5.287   0.273   5.544
 7196TIP3    H221474   5.224   0.293   5.680
 7197TIP3   OH221475   4.349  -0.148   5.286
 7197TIP3    H121476   4.255  -0.133   5.263
 7197TIP3    H221477   4.358  -0.243   5.272
 7198TIP3   OH221478   4.638  -0.124   4.973
 7198TIP3    H121479   4.723  -0.154   4.938
 7198TIP3    H221480   4.578  -0.134   4.897
 7199TIP3   OH221481   4.453  -0.111   4.753
 7199TIP3    H121482   4.393  -0.162   4.696
 7199TIP3    H221483   4.515  -0.077   4.685
 7200TIP3   OH221484   5.581   1.563   5.699
 7200TIP3    H121485   5.580   1.589   5.605
 7200TIP3    H221486   5.659   1.612   5.732
 7201TIP3   OH221487   4.537   0.677   6.123
 7201TIP3    H121488   4.618   0.705   6.170
 7201TIP3    H221489   4.474   0.677   6.197
 7202TIP3   OH221490   5.009   0.131   5.386
 7202TIP3    H121491   5.058   0.064   5.337
 7202TIP3    H221492   5.002   0.088   5.473
 7203TIP3   OH221493   4.988   0.039   5.655
 7203TIP3    H121494   4.896   0.058   5.682
 7203TIP3    H221495   5.041   0.085   5.722
 7204TIP3   OH221496   4.716   0.414   4.762
 7204TIP3    H121497   4.643   0.349   4.751
 7204TIP3    H221498   4.698   0.448   4.853
 7205TIP3   OH221499   5.618   0.649   5.392
 7205TIP3    H121500   5.641   0.698   5.310
 7205TIP3    H221501   5.531   0.609   5.367
 7206TIP3   OH221502   5.119   0.734   5.757
 7206TIP3    H121503   5.136   0.709   5.849
 7206TIP3    H221504   5.077   0.822   5.766
 7207TIP3   OH221505   5.277  -0.040   4.614
 7207TIP3    H121506   5.347  -0.047   4.683
 7207TIP3    H221507   5.224   0.034   4.651
 7208TIP3   OH221508   4.409   0.435   5.436
 7208TIP3    H121509   4.448   0.408   5.351
 7208TIP3    H221510   4.448   0.371   5.497
 7209TIP3   OH221511   4.863   0.564   4.584
 7209TIP3    H121512   4.815   0.651   4.590
 7209TIP3    H221513   4.806   0.509   4.643
 7210TIP3   OH221514   4.286   0.360   6.051
 7210TIP3    H121515   4.312   0.344   6.143
 7210TIP3    H221516   4.218   0.291   6.038
 7211TIP3   OH221517   5.013   0.484   6.068
 7211TIP3    H121518   4.957   0.427   6.013
 7211TIP3    H221519   5.102   0.461   6.034
 7212TIP3   OH221520   5.277   0.992   5.652
 7212TIP3    H121521   5.180   0.991   5.665
 7212TIP3    H221522   5.305   1.044   5.731
 7213TIP3   OH221523   5.686   0.065   4.566
 7213TIP3    H121524   5.682   0.002   4.493
 7213TIP3    H221525   5.678   0.151   4.518
 7214TIP3   OH221526   5.904   0.917   5.644
 7214TIP3    H121527   5.807   0.916   5.633
 7214TIP3    H221528   5.932   0.893   5.553
 7215TIP3   OH221529   5.385   0.884   4.470
 7215TIP3    H121530   5.362   0.813   4.531
 7215TIP3    H221531   5.400   0.838   4.385
 7216TIP3   OH221532   5.382   0.513   5.310
 7216TIP3    H121533   5.289   0.486   5.323
 7216TIP3    H221534   5.417   0.433   5.265
 7217TIP3   OH221535   4.508   0.739   5.061
 7217TIP3    H121536   4.511   0.821   5.008
 7217TIP3    H221537   4.414   0.725   5.070
 7218TIP3   OH221538   4.073   0.042   4.765
 7218TIP3    H121539   4.121   0.125   4.783
 7218TIP3    H221540   3.997   0.051   4.826
 7219TIP3   OH221541   4.651   0.507   5.007
 7219TIP3    H121542   4.613   0.596   5.026
 7219TIP3    H221543   4.614   0.455   5.080
 7220TIP3   OH221544   4.778   1.084   5.531
 7220TIP3    H121545   4.819   1.157   5.481
 7220TIP3    H221546   4.854   1.051   5.581
 7221TIP3   OH221547   4.429   0.979   4.915
 7221TIP3    H121548   4.343   0.988   4.960
 7221TIP3    H221549   4.461   1.072   4.918
 7222TIP3   OH221550   5.168   0.719   5.489
 7222TIP3    H121551   5.158   0.718   5.587
 7222TIP3    H221552   5.247   0.664   5.477
 7223TIP3   OH221553   5.139   0.604   4.372
 7223TIP3    H121554   5.191   0.584   4.453
 7223TIP3    H221555   5.049   0.587   4.402
 7224TIP3   OH221556   5.417   1.252   5.540
 7224TIP3    H121557   5.337   1.195   5.533
 7224TIP3    H221558   5.400   1.317   5.468
 7225TIP3   OH221559   5.480   1.086   4.192
 7225TIP3    H121560   5.519   1.156   4.137
 7225TIP3    H221561   5.401   1.134   4.225
 7226TIP3   OH221562   5.300   0.538   4.586
 7226TIP3    H121563   5.293   0.478   4.663
 7226TIP3    H221564   5.397   0.542   4.575
 7227TIP3   OH221565   4.215   0.948   5.692
 7227TIP3    H121566   4.269   0.873   5.722
 7227TIP3    H221567   4.245   1.017   5.752
 7228TIP3   OH221568   4.508   0.593   4.372
 7228TIP3    H121569   4.520   0.501   4.342
 7228TIP3    H221570   4.489   0.580   4.467
 7229TIP3   OH221571   4.452   0.597   4.645
 7229TIP3    H121572   4.522   0.569   4.706
 7229TIP3    H221573   4.457   0.695   4.651
 7230TIP3   OH221574   4.185   0.288   4.844
 7230TIP3    H121575   4.122   0.334   4.904
 7230TIP3    H221576   4.204   0.359   4.780
 7231TIP3   OH221577   4.719   0.794   4.593
 7231TIP3    H121578   4.632   0.823   4.628
 7231TIP3    H221579   4.735   0.864   4.528
 7232TIP3   OH221580   4.932  -0.151   5.003
 7232TIP3    H121581   4.971  -0.062   4.993
 7232TIP3    H221582   4.887  -0.145   5.089
 7233TIP3   OH221583   5.182   0.187   5.811
 7233TIP3    H121584   5.181   0.251   5.885
 7233TIP3    H221585   5.258   0.132   5.834
 7234TIP3   OH221586   4.461   0.870   4.659
 7234TIP3    H121587   4.432   0.939   4.596
 7234TIP3    H221588   4.445   0.914   4.746
 7235TIP3   OH221589   5.467   0.277   5.181
 7235TIP3    H121590   5.395   0.213   5.196
 7235TIP3    H221591   5.542   0.234   5.229
 7236TIP3   OH221592   4.179   0.503   4.653
 7236TIP3    H121593   4.245   0.574   4.661
 7236TIP3    H221594   4.224   0.447   4.586
 7237TIP3   OH221595   4.103  -0.247   4.768
 7237TIP3    H121596   4.142  -0.158   4.771
 7237TIP3    H221597   4.019  -0.231   4.812
 7238TIP3   OH221598   5.435   1.225   5.132
 7238TIP3    H121599   5.393   1.273   5.058
 7238TIP3    H221600   5.530   1.244   5.112
 7239TIP3   OH221601   4.053   0.715   5.043
 7239TIP3    H121602   3.979   0.748   5.096
 7239TIP3    H221603   4.032   0.754   4.955
 7240TIP3   OH221604   4.208   1.255   6.112
 7240TIP3    H121605   4.293   1.256   6.159
 7240TIP3    H221606   4.189   1.160   6.111
 7241TIP3   OH221607   4.689   1.223   6.155
 7241TIP3    H121608   4.783   1.204   6.166
 7241TIP3    H221609   4.667   1.163   6.081
 7242TIP3   OH221610   4.672   0.797   4.286
 7242TIP3    H121611   4.615   0.725   4.323
 7242TIP3    H221612   4.746   0.745   4.250
 7243TIP3   OH221613   5.331   1.125   5.886
 7243TIP3    H121614   5.320   1.057   5.956
 7243TIP3    H221615   5.407   1.177   5.919
 7244TIP3   OH221616   5.107   0.838   4.195
 7244TIP3    H121617   5.157   0.777   4.251
 7244TIP3    H221618   5.160   0.840   4.113
 7245TIP3   OH221619   4.338   0.661   6.313
 7245TIP3    H121620   4.355   0.566   6.319
 7245TIP3    H221621   4.250   0.663   6.269
 7246TIP3   OH221622   4.314   0.314   4.505
 7246TIP3    H121623   4.368   0.277   4.577
 7246TIP3    H221624   4.382   0.322   4.434
 7247TIP3   OH221625   4.948   0.756   6.085
 7247TIP3    H121626   4.904   0.769   5.999
 7247TIP3    H221627   4.978   0.663   6.080
 7248TIP3   OH221628   4.824   0.515   4.313
 7248TIP3    H121629   4.824   0.527   4.410
 7248TIP3    H221630   4.825   0.416   4.309
 7249TIP3   OH221631   5.440   0.752   5.693
 7249TIP3    H121632   5.511   0.802   5.648
 7249TIP3    H221633   5.366   0.814   5.682
 7250TIP3   OH221634   4.455   0.387   6.295
 7250TIP3    H121635   4.534   0.335   6.275
 7250TIP3    H221636   4.480   0.422   6.384
 7251TIP3   OH221637   4.525   0.216   4.730
 7251TIP3    H121638   4.499   0.174   4.814
 7251TIP3    H221639   4.557   0.138   4.678
 7252TIP3   OH221640   4.772   0.296   5.945
 7252TIP3    H121641   4.694   0.358   5.951
 7252TIP3    H221642   4.821   0.334   5.870
 7253TIP3   OH221643   4.619   0.012   4.566
 7253TIP3    H121644   4.588   0.011   4.474
 7253TIP3    H221645   4.715   0.022   4.552
 7254TIP3   OH221646   5.308   0.686   6.093
 7254TIP3    H121647   5.387   0.659   6.045
 7254TIP3    H221648   5.303   0.619   6.163
 7255TIP3   OH221649   5.449   0.342   4.229
 7255TIP3    H121650   5.427   0.297   4.145
 7255TIP3    H221651   5.418   0.433   4.205
 7256TIP3   OH221652   4.962   0.130   6.033
 7256TIP3    H121653   4.923   0.043   6.005
 7256TIP3    H221654   4.899   0.192   5.997
 7257TIP3   OH221655   4.947   0.399   5.768
 7257TIP3    H121656   5.026   0.394   5.712
 7257TIP3    H221657   4.892   0.463   5.718
 7258TIP3   OH221658   5.534   0.371   6.158
 7258TIP3    H121659   5.559   0.281   6.132
 7258TIP3    H221660   5.598   0.427   6.113
 7259TIP3   OH221661   5.573   0.606   5.876
 7259TIP3    H121662   5.511   0.660   5.821
 7259TIP3    H221663   5.658   0.633   5.835
 7260TIP3   OH221664   4.771   0.204   6.306
 7260TIP3    H121665   4.705   0.132   6.305
 7260TIP3    H221666   4.835   0.173   6.241
 7261TIP3   OH221667   5.219   0.223   6.198
 7261TIP3    H121668   5.174   0.208   6.283
 7261TIP3    H221669   5.184   0.150   6.145
 7262TIP3   OH221670   4.431   1.072   4.472
 7262TIP3    H121671   4.526   1.069   4.453
 7262TIP3    H221672   4.400   1.120   4.393
 7263TIP3   OH221673   3.911   0.453   4.690
 7263TIP3    H121674   4.006   0.476   4.676
 7263TIP3    H221675   3.906   0.365   4.648
 7264TIP3   OH221676   3.823   1.064   5.103
 7264TIP3    H121677   3.756   1.002   5.068
 7264TIP3    H221678   3.869   1.009   5.169
 7265TIP3   OH221679   3.960   0.918   5.290
 7265TIP3    H121680   3.953   0.844   5.351
 7265TIP3    H221681   4.012   0.981   5.344
 7266TIP3   OH221682   5.689   1.314   5.089
 7266TIP3    H121683   5.712   1.351   5.177
 7266TIP3    H221684   5.747   1.366   5.030
 7267TIP3   OH221685   5.718   1.338   5.370
 7267TIP3    H121686   5.676   1.250   5.367
 7267TIP3    H221687   5.792   1.320   5.430
 7268TIP3   OH221688   5.766   1.013   5.945
 7268TIP3    H121689   5.691   1.023   6.008
 7268TIP3    H221690   5.806   1.102   5.948
 7269TIP3   OH221691   5.582   0.524   4.561
 7269TIP3    H121692   5.648   0.590   4.533
 7269TIP3    H221693   5.625   0.488   4.642
 7270TIP3   OH221694   5.708   0.395   4.768
 7270TIP3    H121695   5.644   0.353   4.829
 7270TIP3    H221696   5.774   0.434   4.829
 7271TIP3   OH221697   5.762   0.786   5.201
 7271TIP3    H121698   5.815   0.723   5.149
 7271TIP3    H221699   5.750   0.860   5.138
 7272TIP3   OH221700   5.594   1.087   5.395
 7272TIP3    H121701   5.524   1.131   5.448
 7272TIP3    H221702   5.542   1.039   5.327
 7273TIP3   OH221703   5.638   0.293   4.416
 7273TIP3    H121704   5.572   0.308   4.345
 7273TIP3    H221705   5.620   0.372   4.472
 7274TIP3   OH221706   5.523   0.249   4.918
 7274TIP3    H121707   5.540   0.154   4.927
 7274TIP3    H221708   5.507   0.273   5.012
 7275TIP3   OH221709   4.148   0.326   5.660
 7275TIP3    H121710   4.148   0.295   5.567
 7275TIP3    H221711   4.245   0.329   5.677
 7276TIP3   OH221712   5.814   0.673   5.770
 7276TIP3    H121713   5.887   0.609   5.753
 7276TIP3    H221714   5.837   0.747   5.710
 7277TIP3   OH221715   5.999   0.470   5.778
 7277TIP3    H121716   5.931   0.424   5.830
 7277TIP3    H221717   6.081   0.448   5.824
 7278TIP3   OH221718   5.502  -0.036   4.759
 7278TIP3    H121719   5.544  -0.073   4.840
 7278TIP3    H221720   5.579   0.006   4.715
 7279TIP3   OH221721   5.685   0.176   5.307
 7279TIP3    H121722   5.775   0.185   5.269
 7279TIP3    H221723   5.703   0.193   5.400
 7280TIP3   OH221724   5.749   0.294   5.555
 7280TIP3    H121725   5.665   0.334   5.587
 7280TIP3    H221726   5.783   0.366   5.497
 7281TIP3   OH221727   4.142  -0.018   5.742
 7281TIP3    H121728   4.187  -0.032   5.657
 7281TIP3    H221729   4.170   0.072   5.763
 7282TIP3   OH221730   5.272   1.184   4.746
 7282TIP3    H121731   5.323   1.169   4.664
 7282TIP3    H221732   5.326   1.252   4.790
 7283TIP3   OH221733   4.373   0.988   6.132
 7283TIP3    H121734   4.281   0.960   6.117
 7283TIP3    H221735   4.384   0.971   6.226
 7284TIP3   OH221736   4.550   1.019   5.678
 7284TIP3    H121737   4.503   1.096   5.640
 7284TIP3    H221738   4.637   1.032   5.635
 7285TIP3   OH221739   4.997   1.266   5.816
 7285TIP3    H121740   5.038   1.266   5.905
 7285TIP3    H221741   5.064   1.317   5.765
 7286TIP3   OH221742   5.177   1.417   5.674
 7286TIP3    H121743   5.249   1.365   5.636
 7286TIP3    H221744   5.226   1.475   5.736
 7287TIP3   OH221745   4.228   1.277   5.702
 7287TIP3    H121746   4.139   1.312   5.680
 7287TIP3    H221747   4.240   1.314   5.791
 7288TIP3   OH221748   4.464   1.256   5.560
 7288TIP3    H121749   4.378   1.269   5.605
 7288TIP3    H221750   4.444   1.290   5.470
 7289TIP3   OH221751   4.891   1.286   5.357
 7289TIP3    H121752   4.821   1.308   5.292
 7289TIP3    H221753   4.904   1.373   5.402
 7290TIP3   OH221754   5.159   1.225   5.407
 7290TIP3    H121755   5.064   1.241   5.389
 7290TIP3    H221756   5.200   1.304   5.369
 7291TIP3   OH221757   5.367   1.418   5.325
 7291TIP3    H121758   5.353   1.503   5.278
 7291TIP3    H221759   5.392   1.358   5.252
 7292TIP3   OH221760   4.138   1.071   5.448
 7292TIP3    H121761   4.166   1.047   5.539
 7292TIP3    H221762   4.211   1.028   5.397
 7293TIP3   OH221763   4.333   0.943   5.304
 7293TIP3    H121764   4.349   0.859   5.352
 7293TIP3    H221765   4.423   0.980   5.300
 7294TIP3   OH221766   4.599   1.039   5.307
 7294TIP3    H121767   4.630   0.947   5.295
 7294TIP3    H221768   4.642   1.060   5.391
 7295TIP3   OH221769   3.926   0.843   4.842
 7295TIP3    H121770   3.842   0.812   4.803
 7295TIP3    H221771   3.917   0.938   4.823
 7296TIP3   OH221772   4.699   1.034   4.421
 7296TIP3    H121773   4.788   1.056   4.385
 7296TIP3    H221774   4.677   0.958   4.362
 7297TIP3   OH221775   5.417   1.150   4.514
 7297TIP3    H121776   5.409   1.053   4.500
 7297TIP3    H221777   5.374   1.184   4.433
 7298TIP3   OH221778   4.004   0.868   4.479
 7298TIP3    H121779   4.008   0.898   4.571
 7298TIP3    H221780   4.092   0.827   4.466
 7299TIP3   OH221781   5.647   1.295   5.700
 7299TIP3    H121782   5.566   1.264   5.654
 7299TIP3    H221783   5.627   1.391   5.704
 7300TIP3   OH221784   6.912   0.664   4.468
 7300TIP3    H121785   6.886   0.757   4.453
 7300TIP3    H221786   6.834   0.618   4.433
 7301TIP3   OH221787   6.887   0.663   4.851
 7301TIP3    H121788   6.942   0.645   4.929
 7301TIP3    H221789   6.860   0.574   4.823
 7302TIP3   OH221790   6.215   0.565   5.208
 7302TIP3    H121791   6.250   0.490   5.259
 7302TIP3    H221792   6.296   0.616   5.196
 7303TIP3   OH221793   7.154   0.969   4.531
 7303TIP3    H121794   7.131   0.902   4.598
 7303TIP3    H221795   7.177   1.045   4.588
 7304TIP3   OH221796   5.880   0.168   4.735
 7304TIP3    H121797   5.835   0.253   4.746
 7304TIP3    H221798   5.816   0.122   4.678
 7305TIP3   OH221799   5.952   0.463   4.894
 7305TIP3    H121800   5.999   0.385   4.932
 7305TIP3    H221801   6.009   0.483   4.818
 7306TIP3   OH221802   6.799   1.428   4.548
 7306TIP3    H121803   6.844   1.358   4.496
 7306TIP3    H221804   6.805   1.393   4.637
 7307TIP3   OH221805   6.716   0.885   4.914
 7307TIP3    H121806   6.764   0.816   4.863
 7307TIP3    H221807   6.785   0.956   4.905
 7308TIP3   OH221808   7.113   0.388   4.935
 7308TIP3    H121809   7.172   0.312   4.941
 7308TIP3    H221810   7.087   0.384   4.841
 7309TIP3   OH221811   6.091   0.251   5.002
 7309TIP3    H121812   6.166   0.214   5.052
 7309TIP3    H221813   6.106   0.201   4.919
 7310TIP3   OH221814   6.540   0.452   4.782
 7310TIP3    H121815   6.630   0.416   4.797
 7310TIP3    H221816   6.492   0.369   4.757
 7311TIP3   OH221817   7.771   0.398   5.082
 7311TIP3    H121818   7.708   0.469   5.060
 7311TIP3    H221819   7.814   0.429   5.163
 7312TIP3   OH221820   6.802   0.887   4.338
 7312TIP3    H121821   6.762   0.866   4.253
 7312TIP3    H221822   6.758   0.971   4.361
 7313TIP3   OH221823   6.526   0.880   5.108
 7313TIP3    H121824   6.555   0.880   5.203
 7313TIP3    H221825   6.613   0.880   5.063
 7314TIP3   OH221826   6.315   0.114   5.082
 7314TIP3    H121827   6.355   0.199   5.107
 7314TIP3    H221828   6.366   0.095   5.002
 7315TIP3   OH221829   5.783   0.696   4.459
 7315TIP3    H121830   5.745   0.720   4.372
 7315TIP3    H221831   5.813   0.782   4.493
 7316TIP3   OH221832   7.215   1.203   4.714
 7316TIP3    H121833   7.135   1.174   4.764
 7316TIP3    H221834   7.187   1.287   4.675
 7317TIP3   OH221835   6.921   1.259   4.369
 7317TIP3    H121836   6.973   1.177   4.351
 7317TIP3    H221837   6.983   1.325   4.329
 7318TIP3   OH221838   7.067   1.044   4.280
 7318TIP3    H121839   7.033   0.963   4.240
 7318TIP3    H221840   7.105   1.010   4.365
 7319TIP3   OH221841   7.453   1.125   5.043
 7319TIP3    H121842   7.437   1.048   4.984
 7319TIP3    H221843   7.430   1.199   4.983
 7320TIP3   OH221844   6.741   0.519   4.297
 7320TIP3    H121845   6.660   0.568   4.272
 7320TIP3    H221846   6.788   0.513   4.212
 7321TIP3   OH221847   6.695   0.307   4.020
 7321TIP3    H121848   6.770   0.350   4.063
 7321TIP3    H221849   6.743   0.237   3.970
 7322TIP3   OH221850   7.645   0.758   4.889
 7322TIP3    H121851   7.562   0.812   4.893
 7322TIP3    H221852   7.674   0.781   4.798
 7323TIP3   OH221853   7.089   0.601   4.269
 7323TIP3    H121854   7.035   0.626   4.348
 7323TIP3    H221855   7.172   0.573   4.313
 7324TIP3   OH221856   7.320   0.648   5.177
 7324TIP3    H121857   7.320   0.735   5.220
 7324TIP3    H221858   7.238   0.655   5.124
 7325TIP3   OH221859   6.321   0.600   4.690
 7325TIP3    H121860   6.276   0.544   4.623
 7325TIP3    H221861   6.397   0.542   4.713
 7326TIP3   OH221862   6.472   0.587   5.010
 7326TIP3    H121863   6.500   0.548   4.924
 7326TIP3    H221864   6.537   0.658   5.022
 7327TIP3   OH221865   6.566   1.131   5.349
 7327TIP3    H121866   6.529   1.206   5.399
 7327TIP3    H221867   6.485   1.082   5.331
 7328TIP3   OH221868   6.932   0.452   4.099
 7328TIP3    H121869   6.992   0.509   4.151
 7328TIP3    H221870   6.957   0.477   4.007
 7329TIP3   OH221871   6.333   0.699   5.461
 7329TIP3    H121872   6.337   0.783   5.511
 7329TIP3    H221873   6.239   0.677   5.469
 7330TIP3   OH221874   6.666   1.144   4.377
 7330TIP3    H121875   6.751   1.191   4.390
 7330TIP3    H221876   6.613   1.209   4.329
 7331TIP3   OH221877   6.381   1.303   5.451
 7331TIP3    H121878   6.342   1.290   5.362
 7331TIP3    H221879   6.305   1.279   5.510
 7332TIP3   OH221880   6.181   0.451   4.500
 7332TIP3    H121881   6.116   0.483   4.434
 7332TIP3    H221882   6.164   0.356   4.501
 7333TIP3   OH221883   7.244   1.068   3.693
 7333TIP3    H121884   7.252   1.165   3.678
 7333TIP3    H221885   7.336   1.039   3.680
 7334TIP3   OH221886   5.971   0.827   5.396
 7334TIP3    H121887   5.903   0.806   5.330
 7334TIP3    H221888   6.006   0.739   5.422
 7335TIP3   OH221889   5.815   1.022   5.034
 7335TIP3    H121890   5.911   1.025   5.040
 7335TIP3    H221891   5.791   1.101   5.085
 7336TIP3   OH221892   7.687   1.470   5.087
 7336TIP3    H121893   7.685   1.373   5.098
 7336TIP3    H221894   7.603   1.494   5.132
 7337TIP3   OH221895   6.785   1.261   5.219
 7337TIP3    H121896   6.786   1.353   5.254
 7337TIP3    H221897   6.712   1.220   5.269
 7338TIP3   OH221898   6.551   1.383   4.175
 7338TIP3    H121899   6.509   1.364   4.089
 7338TIP3    H221900   6.522   1.474   4.194
 7339TIP3   OH221901   5.988   1.238   4.551
 7339TIP3    H121902   6.031   1.233   4.639
 7339TIP3    H221903   5.931   1.159   4.555
 7340TIP3   OH221904   6.755   1.285   3.815
 7340TIP3    H121905   6.814   1.216   3.778
 7340TIP3    H221906   6.791   1.294   3.906
 7341TIP3   OH221907   6.804   1.335   4.085
 7341TIP3    H121908   6.717   1.342   4.129
 7341TIP3    H221909   6.858   1.295   4.156
 7342TIP3   OH221910   7.578   0.595   5.378
 7342TIP3    H121911   7.510   0.633   5.318
 7342TIP3    H221912   7.600   0.512   5.334
 7343TIP3   OH221913   6.177   1.014   5.374
 7343TIP3    H121914   6.232   0.998   5.453
 7343TIP3    H221915   6.108   0.946   5.384
 7344TIP3   OH221916   7.243   0.460   5.367
 7344TIP3    H121917   7.306   0.391   5.371
 7344TIP3    H221918   7.279   0.521   5.295
 7345TIP3   OH221919   7.008   0.503   3.841
 7345TIP3    H121920   6.972   0.480   3.753
 7345TIP3    H221921   7.085   0.558   3.816
 7346TIP3   OH221922   6.457   0.325   5.135
 7346TIP3    H121923   6.495   0.329   5.223
 7346TIP3    H221924   6.479   0.415   5.103
 7347TIP3   OH221925   6.374   0.253   4.697
 7347TIP3    H121926   6.299   0.200   4.728
 7347TIP3    H221927   6.398   0.206   4.614
 7348TIP3   OH221928   6.884   0.323   4.429
 7348TIP3    H121929   6.830   0.395   4.388
 7348TIP3    H221930   6.931   0.288   4.351
 7349TIP3   OH221931   7.041   0.632   5.501
 7349TIP3    H121932   7.049   0.568   5.570
 7349TIP3    H221933   7.136   0.645   5.478
 7350TIP3   OH221934   7.036   0.349   4.671
 7350TIP3    H121935   6.982   0.382   4.597
 7350TIP3    H221936   7.070   0.267   4.633
 7351TIP3   OH221937   6.324   0.380   5.422
 7351TIP3    H121938   6.293   0.440   5.490
 7351TIP3    H221939   6.273   0.300   5.436
 7352TIP3   OH221940   7.050   0.597   5.093
 7352TIP3    H121941   7.076   0.524   5.033
 7352TIP3    H221942   7.017   0.546   5.169
 7353TIP3   OH221943   6.145   0.108   4.773
 7353TIP3    H121944   6.050   0.121   4.750
 7353TIP3    H221945   6.157   0.014   4.756
 7354TIP3   OH221946   6.434   0.131   4.460
 7354TIP3    H121947   6.522   0.106   4.428
 7354TIP3    H221948   6.379   0.121   4.380
 7355TIP3   OH221949   6.246   0.147   4.238
 7355TIP3    H121950   6.191   0.094   4.177
 7355TIP3    H221951   6.311   0.183   4.174
 7356TIP3   OH221952   7.377   1.820   5.186
 7356TIP3    H121953   7.374   1.842   5.091
 7356TIP3    H221954   7.455   1.870   5.215
 7357TIP3   OH221955   6.335   0.933   5.606
 7357TIP3    H121956   6.416   0.961   5.654
 7357TIP3    H221957   6.269   0.938   5.678
 7358TIP3   OH221958   6.806   0.381   4.861
 7358TIP3    H121959   6.869   0.345   4.797
 7358TIP3    H221960   6.818   0.320   4.935
 7359TIP3   OH221961   6.764   0.272   5.205
 7359TIP3    H121962   6.719   0.333   5.145
 7359TIP3    H221963   6.842   0.322   5.234
 7360TIP3   OH221964   6.509   0.673   4.245
 7360TIP3    H121965   6.438   0.606   4.235
 7360TIP3    H221966   6.491   0.706   4.337
 7361TIP3   OH221967   7.417   0.907   4.881
 7361TIP3    H121968   7.437   0.956   4.799
 7361TIP3    H221969   7.331   0.865   4.858
 7362TIP3   OH221970   6.859   0.973   5.284
 7362TIP3    H121971   6.937   0.969   5.341
 7362TIP3    H221972   6.880   1.048   5.225
 7363TIP3   OH221973   7.030   0.209   4.209
 7363TIP3    H121974   7.127   0.218   4.219
 7363TIP3    H221975   7.008   0.284   4.151
 7364TIP3   OH221976   6.245   0.730   4.926
 7364TIP3    H121977   6.251   0.685   4.838
 7364TIP3    H221978   6.252   0.651   4.982
 7365TIP3   OH221979   6.658   0.822   4.068
 7365TIP3    H121980   6.610   0.908   4.076
 7365TIP3    H221981   6.604   0.765   4.127
 7366TIP3   OH221982   6.080   0.612   5.537
 7366TIP3    H121983   6.102   0.598   5.631
 7366TIP3    H221984   6.006   0.551   5.524
 7367TIP3   OH221985   6.782   0.558   5.476
 7367TIP3    H121986   6.766   0.583   5.382
 7367TIP3    H221987   6.873   0.599   5.487
 7368TIP3   OH221988   7.100   1.264   5.139
 7368TIP3    H121989   7.014   1.244   5.100
 7368TIP3    H221990   7.080   1.311   5.221
 7369TIP3   OH221991   7.485   0.317   4.048
 7369TIP3    H121992   7.426   0.269   3.986
 7369TIP3    H221993   7.481   0.405   4.005
 7370TIP3   OH221994   7.702   1.176   5.131
 7370TIP3    H121995   7.604   1.173   5.120
 7370TIP3    H221996   7.729   1.148   5.040
 7371TIP3   OH221997   7.180   1.140   3.957
 7371TIP3    H121998   7.159   1.069   4.018
 7371TIP3    H221999   7.195   1.094   3.872
 7372TIP3   OH222000   7.198   0.763   4.801
 7372TIP3    H122001   7.102   0.771   4.813
 7372TIP3    H222002   7.208   0.683   4.747
 7373TIP3   OH222003   6.287   1.011   4.575
 7373TIP3    H122004   6.306   1.083   4.512
 7373TIP3    H222005   6.209   0.971   4.534
 7374TIP3   OH222006   5.867   0.298   4.252
 7374TIP3    H122007   5.918   0.379   4.268
 7374TIP3    H222008   5.791   0.310   4.313
 7375TIP3   OH222009   6.436   0.768   4.491
 7375TIP3    H122010   6.420   0.858   4.525
 7375TIP3    H222011   6.407   0.713   4.566
 7376TIP3   OH222012   6.581   1.335   5.011
 7376TIP3    H122013   6.621   1.412   4.966
 7376TIP3    H222014   6.659   1.300   5.058
 7377TIP3   OH222015   6.227   1.237   4.401
 7377TIP3    H122016   6.139   1.246   4.444
 7377TIP3    H222017   6.258   1.331   4.403
 7378TIP3   OH222018   6.936   0.866   3.859
 7378TIP3    H122019   6.990   0.843   3.938
 7378TIP3    H222020   6.848   0.840   3.890
 7379TIP3   OH222021   7.215   1.514   5.031
 7379TIP3    H122022   7.143   1.448   5.029
 7379TIP3    H222023   7.190   1.572   4.955
 7380TIP3   OH222024   7.277   1.343   3.679
 7380TIP3    H122025   7.315   1.415   3.625
 7380TIP3    H222026   7.197   1.390   3.712
 7381TIP3   OH222027   7.097   0.803   4.076
 7381TIP3    H122028   7.087   0.735   4.146
 7381TIP3    H222029   7.194   0.800   4.064
 7382TIP3   OH222030   6.020   1.195   5.182
 7382TIP3    H122031   6.073   1.131   5.234
 7382TIP3    H222032   6.038   1.277   5.230
 7383TIP3   OH222033   6.303   0.851   3.860
 7383TIP3    H122034   6.317   0.760   3.828
 7383TIP3    H222035   6.284   0.836   3.954
 7384TIP3   OH222036   6.248   0.853   4.134
 7384TIP3    H122037   6.324   0.825   4.186
 7384TIP3    H222038   6.254   0.951   4.139
 7385TIP3   OH222039   5.981   0.544   4.330
 7385TIP3    H122040   5.919   0.592   4.388
 7385TIP3    H222041   6.001   0.613   4.265
 7386TIP3   OH222042   6.514   1.051   4.081
 7386TIP3    H122043   6.427   1.082   4.114
 7386TIP3    H222044   6.532   1.118   4.014
 7387TIP3   OH222045   6.726   0.107   4.488
 7387TIP3    H122046   6.770   0.193   4.469
 7387TIP3    H222047   6.689   0.122   4.577
 7388TIP3   OH222048   6.989   0.404   5.301
 7388TIP3    H122049   6.962   0.472   5.365
 7388TIP3    H222050   7.085   0.403   5.320
 7389TIP3   OH222051   6.256   1.127   4.146
 7389TIP3    H122052   6.227   1.195   4.082
 7389TIP3    H222053   6.242   1.173   4.231
 7390TIP3   OH222054   7.262   0.524   4.666
 7390TIP3    H122055   7.192   0.458   4.680
 7390TIP3    H222056   7.338   0.485   4.714
 7391TIP3   OH222057   5.975   0.759   4.140
 7391TIP3    H122058   6.043   0.829   4.147
 7391TIP3    H222059   6.020   0.703   4.073
 7392TIP3   OH222060   5.900   0.007   4.261
 7392TIP3    H122061   5.953   0.089   4.267
 7392TIP3    H222062   5.812   0.044   4.258
 7393TIP3   OH222063   7.227   1.486   4.622
 7393TIP3    H122064   7.188   1.533   4.545
 7393TIP3    H222065   7.323   1.499   4.602
 7394TIP3   OH222066   5.851   0.975   4.531
 7394TIP3    H122067   5.775   1.004   4.583
 7394TIP3    H222068   5.828   1.011   4.443
 7395TIP3   OH222069   6.004   1.512   5.598
 7395TIP3    H122070   6.089   1.513   5.646
 7395TIP3    H222071   5.984   1.417   5.598
 7396TIP3   OH222072   6.486   1.479   5.645
 7396TIP3    H122073   6.581   1.459   5.652
 7396TIP3    H222074   6.462   1.425   5.568
 7397TIP3   OH222075   6.468   1.054   3.774
 7397TIP3    H122076   6.412   0.981   3.810
 7397TIP3    H222077   6.542   1.002   3.737
 7398TIP3   OH222078   7.112   1.394   5.389
 7398TIP3    H122079   7.113   1.316   5.449
 7398TIP3    H222080   7.197   1.437   5.407
 7399TIP3   OH222081   6.903   1.095   3.682
 7399TIP3    H122082   6.950   1.032   3.740
 7399TIP3    H222083   6.958   1.096   3.602
 7400TIP3   OH222084   6.135   0.918   5.798
 7400TIP3    H122085   6.150   0.823   5.806
 7400TIP3    H222086   6.047   0.921   5.755
 7401TIP3   OH222087   6.110   0.570   3.993
 7401TIP3    H122088   6.167   0.534   4.064
 7401TIP3    H222089   6.176   0.578   3.921
 7402TIP3   OH222090   6.759   1.075   5.547
 7402TIP3    H122091   6.712   1.036   5.471
 7402TIP3    H222092   6.827   1.124   5.499
 7403TIP3   OH222093   6.618   0.769   3.799
 7403TIP3    H122094   6.622   0.782   3.896
 7403TIP3    H222095   6.620   0.670   3.795
 7404TIP3   OH222096   7.236   1.004   5.182
 7404TIP3    H122097   7.304   1.060   5.140
 7404TIP3    H222098   7.158   1.043   5.139
 7405TIP3   OH222099   6.254   0.633   5.783
 7405TIP3    H122100   6.342   0.605   5.754
 7405TIP3    H222101   6.277   0.672   5.870
 7406TIP3   OH222102   6.318   0.472   4.214
 7406TIP3    H122103   6.300   0.426   4.298
 7406TIP3    H222104   6.356   0.399   4.160
 7407TIP3   OH222105   6.549   0.595   5.606
 7407TIP3    H122106   6.491   0.632   5.536
 7407TIP3    H222107   6.636   0.590   5.561
 7408TIP3   OH222108   6.417   0.268   4.057
 7408TIP3    H122109   6.394   0.269   3.962
 7408TIP3    H222110   6.515   0.270   4.050
 7409TIP3   OH222111   7.109   0.943   5.580
 7409TIP3    H122112   7.185   0.919   5.525
 7409TIP3    H222113   7.109   0.871   5.646
 7410TIP3   OH222114   7.244   0.597   3.716
 7410TIP3    H122115   7.221   0.552   3.632
 7410TIP3    H222116   7.213   0.688   3.693
 7411TIP3   OH222117   6.553   0.497   5.324
 7411TIP3    H122118   6.615   0.457   5.383
 7411TIP3    H222119   6.466   0.465   5.359
 7412TIP3   OH222120   6.786   0.651   5.217
 7412TIP3    H122121   6.857   0.690   5.163
 7412TIP3    H222122   6.717   0.716   5.211
 7413TIP3   OH222123   7.331   0.629   5.641
 7413TIP3    H122124   7.363   0.539   5.633
 7413TIP3    H222125   7.400   0.681   5.595
 7414TIP3   OH222126   7.369   0.865   5.368
 7414TIP3    H122127   7.310   0.919   5.310
 7414TIP3    H222128   7.455   0.888   5.327
 7415TIP3   OH222129   6.550   0.420   5.807
 7415TIP3    H122130   6.535   0.339   5.759
 7415TIP3    H222131   6.555   0.486   5.734
 7416TIP3   OH222132   7.064   0.433   5.669
 7416TIP3    H122133   7.098   0.398   5.756
 7416TIP3    H222134   7.090   0.357   5.614
 7417TIP3   OH222135   6.227   1.329   3.959
 7417TIP3    H122136   6.323   1.326   3.940
 7417TIP3    H222137   6.196   1.376   3.880
 7418TIP3   OH222138   5.708   0.709   4.179
 7418TIP3    H122139   5.802   0.733   4.163
 7418TIP3    H222140   5.703   0.621   4.135
 7419TIP3   OH222141   5.620   1.323   4.589
 7419TIP3    H122142   5.553   1.260   4.553
 7419TIP3    H222143   5.665   1.265   4.654
 7420TIP3   OH222144   5.757   1.176   4.776
 7420TIP3    H122145   5.743   1.103   4.837
 7420TIP3    H222146   5.806   1.238   4.834
 7421TIP3   OH222147   7.483   1.575   4.574
 7421TIP3    H122148   7.509   1.607   4.662
 7421TIP3    H222149   7.546   1.619   4.516
 7422TIP3   OH222150   7.515   1.595   4.857
 7422TIP3    H122151   7.468   1.509   4.853
 7422TIP3    H222152   7.589   1.571   4.913
 7423TIP3   OH222153   7.563   1.270   5.433
 7423TIP3    H122154   7.488   1.280   5.494
 7423TIP3    H222155   7.602   1.360   5.435
 7424TIP3   OH222156   7.377   0.784   4.049
 7424TIP3    H122157   7.446   0.848   4.023
 7424TIP3    H222158   7.419   0.745   4.129
 7425TIP3   OH222159   7.505   0.651   4.253
 7425TIP3    H122160   7.440   0.609   4.313
 7425TIP3    H222161   7.570   0.690   4.315
 7426TIP3   OH222162   7.562   1.045   4.689
 7426TIP3    H122163   7.611   0.980   4.636
 7426TIP3    H222164   7.546   1.117   4.626
 7427TIP3   OH222165   7.389   1.344   4.882
 7427TIP3    H122166   7.317   1.382   4.936
 7427TIP3    H222167   7.339   1.293   4.815
 7428TIP3   OH222168   7.441   0.556   3.901
 7428TIP3    H122169   7.370   0.566   3.833
 7428TIP3    H222170   7.418   0.632   3.958
 7429TIP3   OH222171   7.323   0.226   3.847
 7429TIP3    H122172   7.278   0.297   3.800
 7429TIP3    H222173   7.279   0.148   3.813
 7430TIP3   OH222174   7.320   0.509   4.400
 7430TIP3    H122175   7.329   0.412   4.402
 7430TIP3    H222176   7.305   0.528   4.496
 7431TIP3   OH222177   5.946   0.579   5.147
 7431TIP3    H122178   5.944   0.549   5.054
 7431TIP3    H222179   6.043   0.583   5.163
 7432TIP3   OH222180   7.611   0.927   5.259
 7432TIP3    H122181   7.685   0.865   5.242
 7432TIP3    H222182   7.629   0.998   5.195
 7433TIP3   OH222183   7.797   0.726   5.271
 7433TIP3    H122184   7.730   0.678   5.323
 7433TIP3    H222185   7.879   0.685   5.301
 7434TIP3   OH222186   7.300   0.225   4.248
 7434TIP3    H122187   7.346   0.187   4.326
 7434TIP3    H222188   7.374   0.260   4.195
 7435TIP3   OH222189   7.481   0.430   4.798
 7435TIP3    H122190   7.569   0.440   4.755
 7435TIP3    H222191   7.503   0.453   4.889
 7436TIP3   OH222192   7.544   0.552   5.045
 7436TIP3    H122193   7.459   0.594   5.072
 7436TIP3    H222194   7.580   0.622   4.986
 7437TIP3   OH222195   5.939   0.240   5.231
 7437TIP3    H122196   5.982   0.224   5.145
 7437TIP3    H222197   5.964   0.332   5.246
 7438TIP3   OH222198   7.067   1.442   4.233
 7438TIP3    H122199   7.119   1.425   4.151
 7438TIP3    H222200   7.123   1.506   4.279
 7439TIP3   OH222201   6.170   1.240   5.619
 7439TIP3    H122202   6.077   1.216   5.604
 7439TIP3    H222203   6.178   1.229   5.714
 7440TIP3   OH222204   6.350   1.257   5.149
 7440TIP3    H122205   6.300   1.334   5.116
 7440TIP3    H222206   6.438   1.280   5.115
 7441TIP3   OH222207   6.792   1.526   5.307
 7441TIP3    H122208   6.837   1.528   5.393
 7441TIP3    H222209   6.857   1.573   5.251
 7442TIP3   OH222210   6.969   1.675   5.161
 7442TIP3    H122211   7.035   1.621   5.114
 7442TIP3    H222212   7.026   1.728   5.221
 7443TIP3   OH222213   6.023   1.528   5.193
 7443TIP3    H122214   5.935   1.564   5.168
 7443TIP3    H222215   6.037   1.572   5.277
 7444TIP3   OH222216   6.260   1.507   5.047
 7444TIP3    H122217   6.175   1.521   5.094
 7444TIP3    H222218   6.240   1.545   4.959
 7445TIP3   OH222219   6.682   1.542   4.845
 7445TIP3    H122220   6.620   1.574   4.777
 7445TIP3    H222221   6.704   1.625   4.892
 7446TIP3   OH222222   6.959   1.503   4.902
 7446TIP3    H122223   6.866   1.494   4.874
 7446TIP3    H222224   6.992   1.575   4.847
 7447TIP3   OH222225   7.170   1.681   4.811
 7447TIP3    H122226   7.153   1.763   4.760
 7447TIP3    H222227   7.191   1.616   4.741
 7448TIP3   OH222228   5.934   1.331   4.936
 7448TIP3    H122229   5.962   1.308   5.027
 7448TIP3    H222230   6.007   1.288   4.885
 7449TIP3   OH222231   6.126   1.202   4.787
 7449TIP3    H122232   6.148   1.111   4.764
 7449TIP3    H222233   6.216   1.242   4.792
 7450TIP3   OH222234   6.393   1.276   4.804
 7450TIP3    H122235   6.462   1.237   4.750
 7450TIP3    H222236   6.443   1.304   4.883
 7451TIP3   OH222237   5.722   1.099   4.329
 7451TIP3    H122238   5.638   1.066   4.293
 7451TIP3    H222239   5.713   1.194   4.308
 7452TIP3   OH222240   6.496   1.291   3.908
 7452TIP3    H122241   6.584   1.312   3.872
 7452TIP3    H222242   6.474   1.215   3.849
 7453TIP3   OH222243   7.213   1.407   4.001
 7453TIP3    H122244   7.205   1.309   3.987
 7453TIP3    H222245   7.170   1.440   3.920
 7454TIP3   OH222246   5.800   1.124   3.965
 7454TIP3    H122247   5.803   1.154   4.057
 7454TIP3    H222248   5.889   1.083   3.953
 7455TIP3   OH222249   7.441   1.551   5.190
 7455TIP3    H122250   7.363   1.519   5.141
 7455TIP3    H222251   7.421   1.647   5.191
 7456TIP3   OH222252   8.709   0.925   3.948
 7456TIP3    H122253   8.683   1.018   3.939
 7456TIP3    H222254   8.626   0.881   3.921
 7457TIP3   OH222255   8.695   0.917   4.337
 7457TIP3    H122256   8.733   0.896   4.424
 7457TIP3    H222257   8.656   0.832   4.312
 7458TIP3   OH222258   8.006   0.823   4.700
 7458TIP3    H122259   8.042   0.756   4.761
 7458TIP3    H222260   8.084   0.877   4.685
 7459TIP3   OH222261   8.948   1.224   4.016
 7459TIP3    H122262   8.942   1.156   4.085
 7459TIP3    H222263   8.976   1.301   4.070
 7460TIP3   OH222264   7.977   1.228   4.427
 7460TIP3    H122265   7.968   1.130   4.429
 7460TIP3    H222266   8.074   1.236   4.421
 7461TIP3   OH222267   7.676   0.422   4.220
 7461TIP3    H122268   7.630   0.507   4.232
 7461TIP3    H222269   7.613   0.376   4.162
 7462TIP3   OH222270   7.746   0.717   4.381
 7462TIP3    H122271   7.795   0.641   4.419
 7462TIP3    H222272   7.805   0.745   4.310
 7463TIP3   OH222273   8.598   1.685   4.032
 7463TIP3    H122274   8.643   1.610   3.987
 7463TIP3    H222275   8.592   1.653   4.123
 7464TIP3   OH222276   8.505   1.148   4.384
 7464TIP3    H122277   8.542   1.069   4.340
 7464TIP3    H222278   8.589   1.194   4.405
 7465TIP3   OH222279   8.926   0.668   4.411
 7465TIP3    H122280   8.944   0.582   4.452
 7465TIP3    H222281   8.894   0.643   4.321
 7466TIP3   OH222282   7.889   0.509   4.490
 7466TIP3    H122283   7.970   0.483   4.540
 7466TIP3    H222284   7.905   0.456   4.409
 7467TIP3   OH222285   8.330   0.711   4.286
 7467TIP3    H122286   8.421   0.679   4.300
 7467TIP3    H222287   8.285   0.629   4.255
 7468TIP3   OH222288   8.616   1.160   3.811
 7468TIP3    H122289   8.558   1.121   3.744
 7468TIP3    H222290   8.561   1.235   3.841
 7469TIP3   OH222291   8.357   1.068   4.611
 7469TIP3    H122292   8.294   1.134   4.648
 7469TIP3    H222293   8.399   1.119   4.539
 7470TIP3   OH222294   8.129   0.416   4.587
 7470TIP3    H122295   8.194   0.484   4.612
 7470TIP3    H222296   8.170   0.375   4.510
 7471TIP3   OH222297   8.185   1.262   4.708
 7471TIP3    H122298   8.159   1.347   4.668
 7471TIP3    H222299   8.106   1.246   4.765
 7472TIP3   OH222300   7.581   0.953   3.946
 7472TIP3    H122301   7.540   0.979   3.861
 7472TIP3    H222302   7.611   1.038   3.981
 7473TIP3   OH222303   9.011   1.452   4.176
 7473TIP3    H122304   8.921   1.453   4.216
 7473TIP3    H222305   9.015   1.541   4.137
 7474TIP3   OH222306   8.721   1.503   3.863
 7474TIP3    H122307   8.781   1.429   3.843
 7474TIP3    H222308   8.774   1.579   3.829
 7475TIP3   OH222309   8.874   1.278   3.756
 7475TIP3    H122310   8.791   1.227   3.757
 7475TIP3    H222311   8.908   1.258   3.846
 7476TIP3   OH222312   8.533   0.779   3.786
 7476TIP3    H122313   8.450   0.826   3.762
 7476TIP3    H222314   8.577   0.769   3.700
 7477TIP3   OH222315   8.492   0.566   3.504
 7477TIP3    H122316   8.570   0.607   3.546
 7477TIP3    H222317   8.533   0.489   3.460
 7478TIP3   OH222318   8.896   0.854   3.767
 7478TIP3    H122319   8.826   0.882   3.831
 7478TIP3    H222320   8.972   0.851   3.826
 7479TIP3   OH222321   9.127   0.909   4.651
 7479TIP3    H122322   9.110   0.983   4.710
 7479TIP3    H222323   9.040   0.894   4.611
 7480TIP3   OH222324   8.120   0.857   4.173
 7480TIP3    H122325   8.076   0.799   4.107
 7480TIP3    H222326   8.194   0.800   4.203
 7481TIP3   OH222327   8.247   1.267   4.322
 7481TIP3    H122328   8.226   1.221   4.239
 7481TIP3    H222329   8.338   1.234   4.341
 7482TIP3   OH222330   8.256   0.822   4.532
 7482TIP3    H122331   8.286   0.800   4.441
 7482TIP3    H222332   8.298   0.910   4.547
 7483TIP3   OH222333   8.774   1.467   4.303
 7483TIP3    H122334   8.762   1.545   4.360
 7483TIP3    H222335   8.764   1.392   4.365
 7484TIP3   OH222336   8.390   1.383   4.852
 7484TIP3    H122337   8.330   1.447   4.897
 7484TIP3    H222338   8.324   1.330   4.802
 7485TIP3   OH222339   8.725   0.707   3.592
 7485TIP3    H122340   8.791   0.758   3.644
 7485TIP3    H222341   8.755   0.726   3.500
 7486TIP3   OH222342   8.134   0.953   4.948
 7486TIP3    H122343   8.139   1.037   4.998
 7486TIP3    H222344   8.040   0.931   4.958
 7487TIP3   OH222345   8.466   1.393   3.859
 7487TIP3    H122346   8.546   1.446   3.877
 7487TIP3    H222347   8.405   1.458   3.822
 7488TIP3   OH222348   8.186   1.553   4.938
 7488TIP3    H122349   8.151   1.550   4.847
 7488TIP3    H222350   8.106   1.531   4.991
 7489TIP3   OH222351   7.982   0.706   3.980
 7489TIP3    H122352   7.912   0.740   3.921
 7489TIP3    H222353   7.957   0.614   3.991
 7490TIP3   OH222354   7.765   1.084   4.885
 7490TIP3    H122355   7.697   1.064   4.817
 7490TIP3    H222356   7.800   0.995   4.906
 7491TIP3   OH222357   7.619   1.276   4.515
 7491TIP3    H122358   7.715   1.269   4.508
 7491TIP3    H222359   7.609   1.354   4.572
 7492TIP3   OH222360   8.590   1.512   4.709
 7492TIP3    H122361   8.589   1.605   4.741
 7492TIP3    H222362   8.518   1.474   4.764
 7493TIP3   OH222363   8.349   1.642   3.660
 7493TIP3    H122364   8.302   1.623   3.577
 7493TIP3    H222365   8.317   1.732   3.683
 7494TIP3   OH222366   7.787   1.491   4.043
 7494TIP3    H122367   7.835   1.481   4.129
 7494TIP3    H222368   7.730   1.413   4.046
 7495TIP3   OH222369   8.553   1.544   3.302
 7495TIP3    H122370   8.614   1.474   3.269
 7495TIP3    H222371   8.584   1.554   3.394
 7496TIP3   OH222372   8.600   1.590   3.572
 7496TIP3    H122373   8.512   1.600   3.614
 7496TIP3    H222374   8.651   1.553   3.646
 7497TIP3   OH222375   7.970   1.266   4.876
 7497TIP3    H122376   8.020   1.249   4.958
 7497TIP3    H222377   7.897   1.202   4.882
 7498TIP3   OH222378   8.806   0.754   3.330
 7498TIP3    H122379   8.776   0.733   3.239
 7498TIP3    H222380   8.846   0.841   3.317
 7499TIP3   OH222381   8.308   0.600   4.684
 7499TIP3    H122382   8.249   0.624   4.758
 7499TIP3    H222383   8.295   0.678   4.625
 7500TIP3   OH222384   8.170   0.514   4.184
 7500TIP3    H122385   8.095   0.461   4.215
 7500TIP3    H222386   8.195   0.466   4.102
 7501TIP3   OH222387   8.677   0.584   3.908
 7501TIP3    H122388   8.613   0.655   3.885
 7501TIP3    H222389   8.726   0.580   3.824
 7502TIP3   OH222390   8.863   0.895   4.969
 7502TIP3    H122391   8.839   0.844   5.050
 7502TIP3    H222392   8.957   0.910   4.987
 7503TIP3   OH222393   8.821   0.596   4.165
 7503TIP3    H122394   8.776   0.639   4.090
 7503TIP3    H222395   8.856   0.517   4.122
 7504TIP3   OH222396   8.118   0.641   4.881
 7504TIP3    H122397   8.149   0.698   4.952
 7504TIP3    H222398   8.066   0.573   4.926
 7505TIP3   OH222399   8.840   0.860   4.576
 7505TIP3    H122400   8.877   0.790   4.517
 7505TIP3    H222401   8.815   0.806   4.653
 7506TIP3   OH222402   7.941   0.366   4.260
 7506TIP3    H122403   7.847   0.382   4.237
 7506TIP3    H222404   7.950   0.271   4.242
 7507TIP3   OH222405   8.231   0.388   3.947
 7507TIP3    H122406   8.316   0.360   3.910
 7507TIP3    H222407   8.171   0.379   3.871
 7508TIP3   OH222408   8.045   0.402   3.727
 7508TIP3    H122409   7.985   0.351   3.670
 7508TIP3    H222410   8.107   0.437   3.660
 7509TIP3   OH222411   9.166   2.082   4.670
 7509TIP3    H122412   9.168   2.099   4.573
 7509TIP3    H222413   9.235   2.142   4.700
 7510TIP3   OH222414   8.129   1.189   5.097
 7510TIP3    H122415   8.210   1.218   5.144
 7510TIP3    H222416   8.065   1.190   5.171
 7511TIP3   OH222417   8.599   0.645   4.355
 7511TIP3    H122418   8.665   0.597   4.302
 7511TIP3    H222419   8.597   0.592   4.437
 7512TIP3   OH222420   8.579   0.534   4.642
 7512TIP3    H122421   8.488   0.567   4.659
 7512TIP3    H222422   8.634   0.593   4.698
 7513TIP3   OH222423   8.306   0.930   3.733
 7513TIP3    H122424   8.235   0.863   3.723
 7513TIP3    H222425   8.289   0.962   3.825
 7514TIP3   OH222426   8.719   1.249   4.731
 7514TIP3    H122427   8.724   1.221   4.823
 7514TIP3    H222428   8.673   1.334   4.736
 7515TIP3   OH222429   8.002   0.949   4.410
 7515TIP3    H122430   8.040   0.922   4.324
 7515TIP3    H222431   8.040   0.883   4.469
 7516TIP3   OH222432   8.453   1.078   3.555
 7516TIP3    H122433   8.407   1.164   3.562
 7516TIP3    H222434   8.398   1.022   3.614
 7517TIP3   OH222435   7.878   0.871   5.024
 7517TIP3    H122436   7.902   0.854   5.117
 7517TIP3    H222437   7.807   0.805   5.008
 7518TIP3   OH222438   8.609   0.996   5.039
 7518TIP3    H122439   8.550   0.940   4.987
 7518TIP3    H222440   8.696   0.972   5.001
 7519TIP3   OH222441   8.868   1.506   4.626
 7519TIP3    H122442   8.771   1.503   4.639
 7519TIP3    H222443   8.895   1.560   4.704
 7520TIP3   OH222444   8.993   1.366   3.421
 7520TIP3    H122445   8.968   1.347   3.512
 7520TIP3    H222446   8.917   1.334   3.372
 7521TIP3   OH222447   8.944   1.035   4.273
 7521TIP3    H122448   8.859   0.990   4.288
 7521TIP3    H222449   9.008   0.963   4.272
 7522TIP3   OH222450   8.100   1.252   4.035
 7522TIP3    H122451   8.102   1.335   3.982
 7522TIP3    H222452   8.006   1.238   4.044
 7523TIP3   OH222453   7.665   0.555   3.738
 7523TIP3    H122454   7.714   0.638   3.757
 7523TIP3    H222455   7.589   0.564   3.799
 7524TIP3   OH222456   8.245   1.021   3.981
 7524TIP3    H122457   8.206   1.109   4.000
 7524TIP3    H222458   8.207   0.968   4.054
 7525TIP3   OH222459   8.370   1.598   4.505
 7525TIP3    H122460   8.411   1.670   4.453
 7525TIP3    H222461   8.448   1.564   4.553
 7526TIP3   OH222462   8.022   1.492   3.888
 7526TIP3    H122463   7.935   1.500   3.933
 7526TIP3    H222464   8.052   1.586   3.891
 7527TIP3   OH222465   8.760   1.234   4.458
 7527TIP3    H122466   8.758   1.227   4.556
 7527TIP3    H222467   8.836   1.177   4.435
 7528TIP3   OH222468   8.726   1.129   3.349
 7528TIP3    H122469   8.781   1.095   3.422
 7528TIP3    H222470   8.637   1.103   3.380
 7529TIP3   OH222471   8.998   1.765   4.515
 7529TIP3    H122472   8.918   1.711   4.501
 7529TIP3    H222473   8.991   1.829   4.441
 7530TIP3   OH222474   8.897   1.037   3.548
 7530TIP3    H122475   8.883   0.980   3.626
 7530TIP3    H222476   8.969   1.093   3.579
 7531TIP3   OH222477   7.809   1.461   4.664
 7531TIP3    H122478   7.861   1.385   4.693
 7531TIP3    H222479   7.839   1.529   4.726
 7532TIP3   OH222480   8.101   1.106   3.345
 7532TIP3    H122481   8.113   1.013   3.316
 7532TIP3    H222482   8.082   1.094   3.440
 7533TIP3   OH222483   8.045   1.110   3.617
 7533TIP3    H122484   8.114   1.081   3.679
 7533TIP3    H222485   8.050   1.208   3.625
 7534TIP3   OH222486   7.778   0.802   3.818
 7534TIP3    H122487   7.714   0.848   3.877
 7534TIP3    H222488   7.795   0.873   3.753
 7535TIP3   OH222489   8.311   1.308   3.566
 7535TIP3    H122490   8.225   1.335   3.602
 7535TIP3    H222491   8.327   1.381   3.504
 7536TIP3   OH222492   8.527   0.362   3.978
 7536TIP3    H122493   8.566   0.450   3.961
 7536TIP3    H222494   8.481   0.375   4.062
 7537TIP3   OH222495   8.770   0.697   4.781
 7537TIP3    H122496   8.792   0.754   4.856
 7537TIP3    H222497   8.846   0.635   4.777
 7538TIP3   OH222498   8.054   1.383   3.633
 7538TIP3    H122499   8.024   1.452   3.570
 7538TIP3    H222500   8.038   1.427   3.720
 7539TIP3   OH222501   7.771   1.016   3.627
 7539TIP3    H122502   7.837   1.087   3.635
 7539TIP3    H222503   7.817   0.960   3.560
 7540TIP3   OH222504   7.695   0.266   3.742
 7540TIP3    H122505   7.735   0.355   3.745
 7540TIP3    H222506   7.611   0.283   3.785
 7541TIP3   OH222507   9.045   1.743   4.117
 7541TIP3    H122508   9.007   1.793   4.041
 7541TIP3    H222509   9.124   1.699   4.077
 7542TIP3   OH222510   7.646   1.230   4.016
 7542TIP3    H122511   7.572   1.259   4.071
 7542TIP3    H222512   7.621   1.269   3.929
 7543TIP3   OH222513   7.799   1.767   5.086
 7543TIP3    H122514   7.885   1.766   5.132
 7543TIP3    H222515   7.777   1.672   5.083
 7544TIP3   OH222516   8.283   1.734   5.130
 7544TIP3    H122517   8.377   1.715   5.137
 7544TIP3    H222518   8.257   1.677   5.056
 7545TIP3   OH222519   8.263   1.310   3.259
 7545TIP3    H122520   8.205   1.240   3.298
 7545TIP3    H222521   8.337   1.255   3.228
 7546TIP3   OH222522   8.919   1.641   4.864
 7546TIP3    H122523   8.910   1.569   4.931
 7546TIP3    H222524   8.995   1.691   4.897
 7547TIP3   OH222525   8.705   1.349   3.182
 7547TIP3    H122526   8.733   1.265   3.223
 7547TIP3    H222527   8.743   1.345   3.091
 7548TIP3   OH222528   7.930   1.174   5.288
 7548TIP3    H122529   7.947   1.079   5.290
 7548TIP3    H222530   7.843   1.177   5.242
 7549TIP3   OH222531   7.907   0.827   3.478
 7549TIP3    H122532   7.961   0.790   3.551
 7549TIP3    H222533   7.976   0.835   3.408
 7550TIP3   OH222534   8.539   1.269   5.060
 7550TIP3    H122535   8.495   1.283   4.974
 7550TIP3    H222536   8.571   1.176   5.053
 7551TIP3   OH222537   8.418   1.027   3.285
 7551TIP3    H122538   8.417   1.040   3.382
 7551TIP3    H222539   8.416   0.929   3.281
 7552TIP3   OH222540   9.039   1.272   4.665
 7552TIP3    H122541   9.084   1.313   4.590
 7552TIP3    H222542   8.955   1.322   4.664
 7553TIP3   OH222543   8.047   0.900   5.270
 7553TIP3    H122544   8.126   0.850   5.247
 7553TIP3    H222545   8.073   0.934   5.358
 7554TIP3   OH222546   8.117   0.730   3.703
 7554TIP3    H122547   8.092   0.688   3.787
 7554TIP3    H222548   8.151   0.653   3.651
 7555TIP3   OH222549   8.366   0.812   4.919
 7555TIP3    H122550   8.287   0.872   4.924
 7555TIP3    H222551   8.415   0.849   4.843
 7556TIP3   OH222552   8.213   0.524   3.543
 7556TIP3    H122553   8.188   0.523   3.449
 7556TIP3    H222554   8.310   0.529   3.536
 7557TIP3   OH222555   8.900   1.199   5.068
 7557TIP3    H122556   8.976   1.172   5.015
 7557TIP3    H222557   8.898   1.132   5.138
 7558TIP3   OH222558   8.551   0.643   5.011
 7558TIP3    H122559   8.520   0.557   4.973
 7558TIP3    H222560   8.490   0.705   4.970
 7559TIP3   OH222561   8.541   0.914   4.742
 7559TIP3    H122562   8.620   0.905   4.687
 7559TIP3    H222563   8.486   0.976   4.689
 7560TIP3   OH222564   9.122   0.879   5.118
 7560TIP3    H122565   9.163   0.792   5.110
 7560TIP3    H222566   9.193   0.940   5.092
 7561TIP3   OH222567   9.175   1.135   4.853
 7561TIP3    H122568   9.112   1.186   4.796
 7561TIP3    H222569   9.252   1.138   4.795
 7562TIP3   OH222570   8.365   0.716   5.281
 7562TIP3    H122571   8.300   0.644   5.278
 7562TIP3    H222572   8.428   0.690   5.213
 7563TIP3   OH222573   8.806   0.741   5.175
 7563TIP3    H122574   8.764   0.719   5.259
 7563TIP3    H222575   8.795   0.658   5.125
 7564TIP3   OH222576   8.023   1.585   3.446
 7564TIP3    H122577   8.118   1.583   3.426
 7564TIP3    H222578   7.991   1.633   3.367
 7565TIP3   OH222579   7.503   0.967   3.663
 7565TIP3    H122580   7.598   0.989   3.650
 7565TIP3    H222581   7.498   0.878   3.621
 7566TIP3   OH222582   7.416   1.579   4.076
 7566TIP3    H122583   7.349   1.517   4.041
 7566TIP3    H222584   7.461   1.522   4.142
 7567TIP3   OH222585   7.553   1.432   4.263
 7567TIP3    H122586   7.543   1.358   4.324
 7567TIP3    H222587   7.603   1.494   4.319
 7568TIP3   OH222588   9.164   1.553   4.394
 7568TIP3    H122589   9.097   1.614   4.427
 7568TIP3    H222590   9.119   1.511   4.319
 7569TIP3   OH222591   7.741   0.833   4.636
 7569TIP3    H122592   7.740   0.806   4.541
 7569TIP3    H222593   7.838   0.839   4.651
 7570TIP3   OH222594   7.734   0.496   4.717
 7570TIP3    H122595   7.780   0.481   4.632
 7570TIP3    H222596   7.755   0.588   4.733
 7571TIP3   OH222597   8.843   1.711   3.748
 7571TIP3    H122598   8.882   1.683   3.661
 7571TIP3    H222599   8.912   1.769   3.783
 7572TIP3   OH222600   7.966   1.501   5.106
 7572TIP3    H122601   7.874   1.474   5.088
 7572TIP3    H222602   7.974   1.484   5.200
 7573TIP3   OH222603   8.144   1.533   4.654
 7573TIP3    H122604   8.095   1.609   4.615
 7573TIP3    H222605   8.229   1.547   4.609
 7574TIP3   OH222606   8.589   1.779   4.791
 7574TIP3    H122607   8.632   1.780   4.879
 7574TIP3    H222608   8.656   1.829   4.738
 7575TIP3   OH222609   8.768   1.929   4.648
 7575TIP3    H122610   8.839   1.879   4.605
 7575TIP3    H222611   8.819   1.987   4.708
 7576TIP3   OH222612   7.821   1.792   4.675
 7576TIP3    H122613   7.732   1.826   4.651
 7576TIP3    H222614   7.828   1.824   4.766
 7577TIP3   OH222615   8.057   1.770   4.533
 7577TIP3    H122616   7.971   1.783   4.579
 7577TIP3    H222617   8.037   1.803   4.444
 7578TIP3   OH222618   8.482   1.799   4.331
 7578TIP3    H122619   8.413   1.821   4.266
 7578TIP3    H222620   8.496   1.887   4.374
 7579TIP3   OH222621   8.749   1.738   4.383
 7579TIP3    H122622   8.656   1.757   4.362
 7579TIP3    H222623   8.794   1.814   4.342
 7580TIP3   OH222624   8.952   1.926   4.302
 7580TIP3    H122625   8.938   2.012   4.258
 7580TIP3    H222626   8.986   1.871   4.228
 7581TIP3   OH222627   7.732   1.586   4.422
 7581TIP3    H122628   7.758   1.559   4.513
 7581TIP3    H222629   7.804   1.542   4.371
 7582TIP3   OH222630   7.925   1.456   4.278
 7582TIP3    H122631   7.941   1.372   4.326
 7582TIP3    H222632   8.016   1.493   4.274
 7583TIP3   OH222633   8.191   1.552   4.280
 7583TIP3    H122634   8.223   1.460   4.267
 7583TIP3    H222635   8.235   1.573   4.365
 7584TIP3   OH222636   7.520   1.356   3.813
 7584TIP3    H122637   7.435   1.323   3.778
 7584TIP3    H222638   7.509   1.450   3.795
 7585TIP3   OH222639   8.292   1.546   3.394
 7585TIP3    H122640   8.380   1.569   3.358
 7585TIP3    H222641   8.269   1.471   3.335
 7586TIP3   OH222642   8.938   1.629   3.513
 7586TIP3    H122643   8.984   1.552   3.475
 7586TIP3    H222644   8.921   1.682   3.433
 7587TIP3   OH222645   7.596   1.383   3.452
 7587TIP3    H122646   7.596   1.409   3.545
 7587TIP3    H222647   7.685   1.341   3.442
 7588TIP3   OH222648   9.207   1.813   4.689
 7588TIP3    H122649   9.142   1.773   4.628
 7588TIP3    H222650   9.184   1.907   4.677
 7589TIP3   OH222651   1.162   1.714   5.643
 7589TIP3    H122652   1.132   1.805   5.622
 7589TIP3    H222653   1.084   1.663   5.617
 7590TIP3   OH222654   1.160   1.710   6.025
 7590TIP3    H122655   1.189   1.680   6.113
 7590TIP3    H222656   1.117   1.629   5.991
 7591TIP3   OH222657   0.498   1.643   6.394
 7591TIP3    H122658   0.526   1.564   6.444
 7591TIP3    H222659   0.583   1.685   6.374
 7592TIP3   OH222660   1.404   2.013   5.706
 7592TIP3    H122661   1.385   1.943   5.770
 7592TIP3    H222662   1.428   2.087   5.763
 7593TIP3   OH222663   0.428   2.014   6.116
 7593TIP3    H122664   0.419   1.917   6.119
 7593TIP3    H222665   0.525   2.022   6.110
 7594TIP3   OH222666   1.050   2.477   5.722
 7594TIP3    H122667   1.098   2.404   5.676
 7594TIP3    H222668   1.042   2.441   5.811
 7595TIP3   OH222669   0.957   1.937   6.074
 7595TIP3    H122670   0.991   1.860   6.027
 7595TIP3    H222671   1.042   1.980   6.097
 7596TIP3   OH222672   1.973   1.257   6.073
 7596TIP3    H122673   1.999   1.342   6.114
 7596TIP3    H222674   1.985   1.279   5.978
 7597TIP3   OH222675   1.381   1.444   6.105
 7597TIP3    H122676   1.410   1.354   6.131
 7597TIP3    H222677   1.338   1.427   6.019
 7598TIP3   OH222678   1.403   1.185   5.694
 7598TIP3    H122679   1.476   1.172   5.758
 7598TIP3    H222680   1.451   1.226   5.620
 7599TIP3   OH222681   0.797   1.509   5.969
 7599TIP3    H122682   0.888   1.479   5.986
 7599TIP3    H222683   0.755   1.424   5.942
 7600TIP3   OH222684   2.046   1.469   6.239
 7600TIP3    H122685   1.962   1.515   6.218
 7600TIP3    H222686   2.049   1.482   6.335
 7601TIP3   OH222687   1.056   1.937   5.512
 7601TIP3    H122688   1.007   1.908   5.434
 7601TIP3    H222689   1.009   2.019   5.535
 7602TIP3   OH222690   0.811   1.857   6.303
 7602TIP3    H122691   0.748   1.922   6.340
 7602TIP3    H222692   0.854   1.908   6.231
 7603TIP3   OH222693   1.615   1.188   5.867
 7603TIP3    H122694   1.598   1.146   5.951
 7603TIP3    H222695   1.663   1.269   5.894
 7604TIP3   OH222696   0.635   2.049   6.402
 7604TIP3    H122697   0.610   2.135   6.362
 7604TIP3    H222698   0.554   2.029   6.452
 7605TIP3   OH222699   0.077   1.755   5.621
 7605TIP3    H122700  -0.002   1.766   5.568
 7605TIP3    H222701   0.064   1.819   5.692
 7606TIP3   OH222702   1.474   2.256   5.876
 7606TIP3    H122703   1.385   2.247   5.915
 7606TIP3    H222704   1.465   2.342   5.830
 7607TIP3   OH222705   1.761   1.159   6.239
 7607TIP3    H122706   1.671   1.184   6.211
 7607TIP3    H222707   1.816   1.190   6.164
 7608TIP3   OH222708   1.178   2.304   5.552
 7608TIP3    H122709   1.227   2.221   5.529
 7608TIP3    H222710   1.236   2.369   5.507
 7609TIP3   OH222711   1.319   2.088   5.453
 7609TIP3    H122712   1.272   2.011   5.420
 7609TIP3    H222713   1.355   2.054   5.538
 7610TIP3   OH222714   1.700   2.171   6.217
 7610TIP3    H122715   1.687   2.092   6.159
 7610TIP3    H222716   1.681   2.245   6.156
 7611TIP3   OH222717   0.990   1.564   5.474
 7611TIP3    H122718   0.908   1.613   5.453
 7611TIP3    H222719   1.034   1.561   5.388
 7612TIP3   OH222720   0.948   1.347   5.196
 7612TIP3    H122721   1.018   1.396   5.243
 7612TIP3    H222722   1.003   1.284   5.145
 7613TIP3   OH222723   1.896   1.809   6.064
 7613TIP3    H122724   1.811   1.858   6.070
 7613TIP3    H222725   1.922   1.831   5.972
 7614TIP3   OH222726   1.338   1.646   5.447
 7614TIP3    H122727   1.282   1.671   5.524
 7614TIP3    H222728   1.420   1.619   5.493
 7615TIP3   OH222729   1.574   1.689   6.352
 7615TIP3    H122730   1.567   1.773   6.401
 7615TIP3    H222731   1.485   1.686   6.310
 7616TIP3   OH222732   0.582   1.658   5.873
 7616TIP3    H122733   0.538   1.603   5.804
 7616TIP3    H222734   0.656   1.600   5.899
 7617TIP3   OH222735   0.699   2.055   6.012
 7617TIP3    H122736   0.677   2.009   5.930
 7617TIP3    H222737   0.789   2.022   6.030
 7618TIP3   OH222738   0.699   1.631   6.192
 7618TIP3    H122739   0.741   1.600   6.109
 7618TIP3    H222740   0.754   1.708   6.217
 7619TIP3   OH222741   1.233   2.253   5.995
 7619TIP3    H122742   1.218   2.331   6.049
 7619TIP3    H222743   1.218   2.178   6.057
 7620TIP3   OH222744   0.843   2.171   6.542
 7620TIP3    H122745   0.784   2.235   6.587
 7620TIP3    H222746   0.777   2.118   6.493
 7621TIP3   OH222747   1.181   1.501   5.274
 7621TIP3    H122748   1.238   1.562   5.326
 7621TIP3    H222749   1.205   1.527   5.181
 7622TIP3   OH222750   0.601   1.740   6.641
 7622TIP3    H122751   0.592   1.826   6.685
 7622TIP3    H222752   0.511   1.724   6.607
 7623TIP3   OH222753   0.922   2.183   5.546
 7623TIP3    H122754   0.998   2.240   5.569
 7623TIP3    H222755   0.858   2.246   5.511
 7624TIP3   OH222756   0.637   2.339   6.629
 7624TIP3    H122757   0.604   2.340   6.538
 7624TIP3    H222758   0.557   2.318   6.681
 7625TIP3   OH222759   1.695   0.746   5.322
 7625TIP3    H122760   1.613   0.765   5.372
 7625TIP3    H222761   1.707   0.829   5.271
 7626TIP3   OH222762   0.474   1.516   5.664
 7626TIP3    H122763   0.400   1.562   5.620
 7626TIP3    H222764   0.432   1.430   5.682
 7627TIP3   OH222765   1.492   2.113   4.869
 7627TIP3    H122766   1.500   2.209   4.855
 7627TIP3    H222767   1.584   2.083   4.856
 7628TIP3   OH222768   0.060   2.063   6.214
 7628TIP3    H122769   0.151   2.037   6.196
 7628TIP3    H222770   0.076   2.144   6.267
 7629TIP3   OH222771   1.937   2.514   6.264
 7629TIP3    H122772   1.935   2.417   6.278
 7629TIP3    H222773   1.853   2.540   6.309
 7630TIP3   OH222774   1.042   2.301   6.399
 7630TIP3    H122775   1.042   2.394   6.431
 7630TIP3    H222776   0.970   2.262   6.453
 7631TIP3   OH222777   0.803   2.432   5.349
 7631TIP3    H122778   0.754   2.411   5.267
 7631TIP3    H222779   0.768   2.520   5.373
 7632TIP3   OH222780   0.242   2.281   5.733
 7632TIP3    H122781   0.288   2.271   5.819
 7632TIP3    H222782   0.184   2.203   5.736
 7633TIP3   OH222783   1.005   2.332   4.991
 7633TIP3    H122784   1.063   2.261   4.955
 7633TIP3    H222785   1.037   2.339   5.083
 7634TIP3   OH222786   1.054   2.379   5.261
 7634TIP3    H122787   0.965   2.389   5.302
 7634TIP3    H222788   1.103   2.335   5.332
 7635TIP3   OH222789   1.828   1.649   6.535
 7635TIP3    H122790   1.744   1.663   6.489
 7635TIP3    H222791   1.837   1.553   6.530
 7636TIP3   OH222792   0.414   2.037   6.568
 7636TIP3    H122793   0.473   2.037   6.646
 7636TIP3    H222794   0.338   1.987   6.601
 7637TIP3   OH222795   1.387   0.985   6.578
 7637TIP3    H122796   1.422   0.945   6.659
 7637TIP3    H222797   1.295   1.005   6.599
 7638TIP3   OH222798   1.618   1.439   6.476
 7638TIP3    H122799   1.557   1.425   6.552
 7638TIP3    H222800   1.573   1.509   6.426
 7639TIP3   OH222801   1.256   1.552   5.018
 7639TIP3    H122802   1.221   1.526   4.930
 7639TIP3    H222803   1.336   1.602   4.991
 7640TIP3   OH222804   0.959   0.929   5.327
 7640TIP3    H122805   0.926   0.940   5.418
 7640TIP3    H222806   0.945   0.834   5.317
 7641TIP3   OH222807   0.799   1.444   6.363
 7641TIP3    H122808   0.722   1.407   6.408
 7641TIP3    H222809   0.758   1.497   6.293
 7642TIP3   OH222810   0.668   1.287   5.886
 7642TIP3    H122811   0.584   1.245   5.912
 7642TIP3    H222812   0.678   1.248   5.797
 7643TIP3   OH222813   1.135   1.372   5.608
 7643TIP3    H122814   1.077   1.440   5.568
 7643TIP3    H222815   1.183   1.338   5.530
 7644TIP3   OH222816   1.305   1.649   6.700
 7644TIP3    H122817   1.286   1.573   6.758
 7644TIP3    H222818   1.401   1.660   6.717
 7645TIP3   OH222819   1.294   1.395   5.844
 7645TIP3    H122820   1.228   1.425   5.779
 7645TIP3    H222821   1.318   1.310   5.803
 7646TIP3   OH222822   1.306   1.643   6.270
 7646TIP3    H122823   1.334   1.568   6.211
 7646TIP3    H222824   1.269   1.592   6.345
 7647TIP3   OH222825   0.963   1.135   5.941
 7647TIP3    H122826   0.881   1.121   5.989
 7647TIP3    H222827   1.030   1.095   5.999
 7648TIP3   OH222828   0.670   1.176   5.638
 7648TIP3    H122829   0.765   1.174   5.618
 7648TIP3    H222830   0.627   1.169   5.551
 7649TIP3   OH222831   1.456   1.176   6.151
 7649TIP3    H122832   1.406   1.181   6.236
 7649TIP3    H222833   1.396   1.117   6.104
 7650TIP3   OH222834   0.518   1.157   5.405
 7650TIP3    H122835   0.431   1.153   5.362
 7650TIP3    H222836   0.569   1.208   5.339
 7651TIP3   OH222837   1.626   2.864   6.363
 7651TIP3    H122838   1.623   2.889   6.268
 7651TIP3    H222839   1.703   2.914   6.394
 7652TIP3   OH222840   0.589   1.986   6.782
 7652TIP3    H122841   0.676   2.020   6.809
 7652TIP3    H222842   0.552   1.970   6.871
 7653TIP3   OH222843   1.057   1.440   6.039
 7653TIP3    H122844   1.103   1.368   5.993
 7653TIP3    H222845   1.050   1.402   6.130
 7654TIP3   OH222846   1.035   1.345   6.291
 7654TIP3    H122847   0.951   1.380   6.329
 7654TIP3    H222848   1.096   1.359   6.364
 7655TIP3   OH222849   0.761   1.716   5.424
 7655TIP3    H122850   0.688   1.652   5.412
 7655TIP3    H222851   0.743   1.750   5.515
 7656TIP3   OH222852   1.662   1.951   6.054
 7656TIP3    H122853   1.684   2.000   5.973
 7656TIP3    H222854   1.576   1.910   6.032
 7657TIP3   OH222855   1.213   1.030   5.283
 7657TIP3    H122856   1.117   1.017   5.294
 7657TIP3    H222857   1.227   1.124   5.306
 7658TIP3   OH222858   1.170   2.040   6.419
 7658TIP3    H122859   1.176   2.006   6.509
 7658TIP3    H222860   1.122   2.124   6.430
 7659TIP3   OH222861   1.290   1.273   5.386
 7659TIP3    H122862   1.385   1.282   5.404
 7659TIP3    H222863   1.269   1.354   5.335
 7660TIP3   OH222864   0.448   1.738   6.104
 7660TIP3    H122865   0.484   1.711   6.017
 7660TIP3    H222866   0.510   1.693   6.164
 7661TIP3   OH222867   0.906   1.866   5.245
 7661TIP3    H122868   0.859   1.952   5.253
 7661TIP3    H222869   0.852   1.810   5.304
 7662TIP3   OH222870   1.057   1.770   6.738
 7662TIP3    H122871   1.001   1.720   6.675
 7662TIP3    H222872   1.145   1.739   6.709
 7663TIP3   OH222873   1.323   2.299   6.313
 7663TIP3    H122874   1.227   2.291   6.327
 7663TIP3    H222875   1.349   2.348   6.395
 7664TIP3   OH222876   1.734   1.364   5.224
 7664TIP3    H122877   1.671   1.319   5.164
 7664TIP3    H222878   1.728   1.454   5.184
 7665TIP3   OH222879   1.949   2.222   6.307
 7665TIP3    H122880   1.851   2.218   6.299
 7665TIP3    H222881   1.974   2.193   6.217
 7666TIP3   OH222882   1.433   2.185   5.135
 7666TIP3    H122883   1.405   2.116   5.197
 7666TIP3    H222884   1.442   2.137   5.051
 7667TIP3   OH222885   1.427   1.814   5.973
 7667TIP3    H122886   1.334   1.787   5.988
 7667TIP3    H222887   1.461   1.734   5.929
 7668TIP3   OH222888   0.553   2.042   5.725
 7668TIP3    H122889   0.552   2.124   5.672
 7668TIP3    H222890   0.459   2.024   5.734
 7669TIP3   OH222891   0.697   1.812   5.669
 7669TIP3    H122892   0.658   1.899   5.689
 7669TIP3    H222893   0.664   1.759   5.745
 7670TIP3   OH222894   0.823   2.385   6.196
 7670TIP3    H122895   0.862   2.458   6.144
 7670TIP3    H222896   0.900   2.352   6.244
 7671TIP3   OH222897   0.474   2.280   5.577
 7671TIP3    H122898   0.388   2.288   5.624
 7671TIP3    H222899   0.505   2.374   5.581
 7672TIP3   OH222900   1.214   2.021   6.151
 7672TIP3    H122901   1.205   2.020   6.249
 7672TIP3    H222902   1.289   1.962   6.139
 7673TIP3   OH222903   1.184   1.914   5.035
 7673TIP3    H122904   1.237   1.888   5.114
 7673TIP3    H222905   1.096   1.885   5.063
 7674TIP3   OH222906   1.462   2.554   6.204
 7674TIP3    H122907   1.384   2.496   6.199
 7674TIP3    H222908   1.443   2.618   6.132
 7675TIP3   OH222909   1.526   2.389   4.855
 7675TIP3    H122910   1.564   2.462   4.804
 7675TIP3    H222911   1.445   2.433   4.889
 7676TIP3   OH222912   1.345   1.846   5.250
 7676TIP3    H122913   1.334   1.781   5.322
 7676TIP3    H222914   1.442   1.844   5.240
 7677TIP3   OH222915   0.257   2.243   6.354
 7677TIP3    H122916   0.316   2.173   6.385
 7677TIP3    H222917   0.279   2.316   6.413
 7678TIP3   OH222918   0.553   1.894   5.035
 7678TIP3    H122919   0.566   1.802   5.005
 7678TIP3    H222920   0.534   1.880   5.130
 7679TIP3   OH222921   0.498   1.897   5.307
 7679TIP3    H122922   0.566   1.869   5.369
 7679TIP3    H222923   0.502   1.995   5.315
 7680TIP3   OH222924   0.248   1.578   5.514
 7680TIP3    H122925   0.186   1.632   5.570
 7680TIP3    H222926   0.262   1.642   5.443
 7681TIP3   OH222927   1.386   1.273   6.421
 7681TIP3    H122928   1.476   1.264   6.453
 7681TIP3    H222929   1.349   1.183   6.429
 7682TIP3   OH222930   1.274   0.979   5.558
 7682TIP3    H122931   1.251   1.008   5.468
 7682TIP3    H222932   1.306   1.062   5.599
 7683TIP3   OH222933   0.763   2.097   5.256
 7683TIP3    H122934   0.676   2.123   5.292
 7683TIP3    H222935   0.778   2.167   5.192
 7684TIP3   OH222936   0.956   1.172   5.672
 7684TIP3    H122937   1.021   1.244   5.659
 7684TIP3    H222938   0.957   1.165   5.771
 7685TIP3   OH222939   1.222   1.486   6.474
 7685TIP3    H122940   1.243   1.529   6.559
 7685TIP3    H222941   1.281   1.408   6.473
 7686TIP3   OH222942   1.102   0.882   5.758
 7686TIP3    H122943   1.110   0.938   5.837
 7686TIP3    H222944   1.159   0.930   5.694
 7687TIP3   OH222945   0.506   2.171   5.323
 7687TIP3    H122946   0.476   2.241   5.260
 7687TIP3    H222947   0.489   2.214   5.410
 7688TIP3   OH222948   1.873   1.372   6.452
 7688TIP3    H122949   1.776   1.382   6.470
 7688TIP3    H222950   1.868   1.333   6.364
 7689TIP3   OH222951   1.514   1.572   5.846
 7689TIP3    H122952   1.435   1.516   5.858
 7689TIP3    H222953   1.582   1.523   5.897
 7690TIP3   OH222954   0.220   1.805   5.311
 7690TIP3    H122955   0.287   1.874   5.326
 7690TIP3    H222956   0.268   1.750   5.246
 7691TIP3   OH222957   1.480   2.528   5.796
 7691TIP3    H122958   1.438   2.574   5.721
 7691TIP3    H222959   1.575   2.547   5.775
 7692TIP3   OH222960   0.102   2.035   5.725
 7692TIP3    H122961   0.013   2.059   5.752
 7692TIP3    H222962   0.095   2.047   5.629
 7693TIP3   OH222963   0.269   2.564   6.754
 7693TIP3    H122964   0.344   2.566   6.816
 7693TIP3    H222965   0.233   2.476   6.769
 7694TIP3   OH222966   0.735   2.523   6.820
 7694TIP3    H122967   0.830   2.504   6.827
 7694TIP3    H222968   0.710   2.465   6.746
 7695TIP3   OH222969   0.716   2.097   4.949
 7695TIP3    H122970   0.659   2.027   4.988
 7695TIP3    H222971   0.790   2.043   4.917
 7696TIP3   OH222972   1.374   2.428   6.552
 7696TIP3    H122973   1.364   2.357   6.620
 7696TIP3    H222974   1.451   2.478   6.584
 7697TIP3   OH222975   1.153   2.140   4.860
 7697TIP3    H122976   1.194   2.073   4.918
 7697TIP3    H222977   1.210   2.137   4.781
 7698TIP3   OH222978   0.365   1.615   5.169
 7698TIP3    H122979   0.419   1.583   5.243
 7698TIP3    H222980   0.433   1.617   5.098
 7699TIP3   OH222981   0.991   2.046   6.748
 7699TIP3    H122982   0.950   2.061   6.661
 7699TIP3    H222983   1.022   1.952   6.741
 7700TIP3   OH222984   0.869   1.814   4.975
 7700TIP3    H122985   0.871   1.826   5.072
 7700TIP3    H222986   0.869   1.716   4.970
 7701TIP3   OH222987   1.486   2.054   6.357
 7701TIP3    H122988   1.555   2.104   6.311
 7701TIP3    H222989   1.409   2.112   6.345
 7702TIP3   OH222990   0.566   1.520   5.385
 7702TIP3    H122991   0.548   1.488   5.476
 7702TIP3    H222992   0.603   1.440   5.342
 7703TIP3   OH222993   0.824   1.581   6.626
 7703TIP3    H122994   0.756   1.652   6.627
 7703TIP3    H222995   0.873   1.600   6.543
 7704TIP3   OH222996   0.668   1.307   5.231
 7704TIP3    H122997   0.642   1.313   5.137
 7704TIP3    H222998   0.765   1.318   5.224
 7705TIP3   OH222999   1.355   1.985   6.755
 7705TIP3    H123000   1.432   1.960   6.703
 7705TIP3    H223001   1.350   1.915   6.822
 7706TIP3   OH223002   1.493   1.643   4.892
 7706TIP3    H123003   1.469   1.595   4.811
 7706TIP3    H223004   1.461   1.733   4.868
 7707TIP3   OH223005   0.995   1.382   6.735
 7707TIP3    H123006   0.947   1.313   6.687
 7707TIP3    H223007   0.934   1.457   6.717
 7708TIP3   OH223008   0.994   1.708   6.445
 7708TIP3    H123009   1.063   1.680   6.384
 7708TIP3    H223010   0.937   1.765   6.389
 7709TIP3   OH223011   1.574   1.662   6.810
 7709TIP3    H123012   1.619   1.576   6.809
 7709TIP3    H223013   1.642   1.721   6.773
 7710TIP3   OH223014   1.614   1.912   6.546
 7710TIP3    H123015   1.556   1.964   6.486
 7710TIP3    H223016   1.701   1.930   6.503
 7711TIP3   OH223017   1.242   1.424   6.838
 7711TIP3    H123018   1.226   1.432   6.933
 7711TIP3    H223019   1.152   1.408   6.802
 7712TIP3   OH223020   1.473   1.382   6.695
 7712TIP3    H123021   1.392   1.382   6.750
 7712TIP3    H223022   1.541   1.345   6.756
 7713TIP3   OH223023   1.700   1.314   6.846
 7713TIP3    H123024   1.709   1.219   6.867
 7713TIP3    H223025   1.690   1.356   6.935
 7714TIP3   OH223026   0.476   2.375   5.136
 7714TIP3    H123027   0.571   2.371   5.115
 7714TIP3    H223028   0.443   2.421   5.057
 7715TIP3   OH223029  -0.043   1.726   5.364
 7715TIP3    H123030   0.045   1.768   5.356
 7715TIP3    H223031  -0.023   1.638   5.324
 7716TIP3   OH223032  -0.123   2.363   5.753
 7716TIP3    H123033  -0.210   2.323   5.747
 7716TIP3    H223034  -0.083   2.316   5.829
 7717TIP3   OH223035  -0.006   2.231   5.959
 7717TIP3    H123036  -0.000   2.151   6.012
 7717TIP3    H223037   0.051   2.292   6.011
 7718TIP3   OH223038   1.733   2.619   5.751
 7718TIP3    H123039   1.758   2.651   5.840
 7718TIP3    H223040   1.795   2.667   5.694
 7719TIP3   OH223041   1.764   2.640   6.032
 7719TIP3    H123042   1.719   2.552   6.029
 7719TIP3    H223043   1.837   2.618   6.092
 7720TIP3   OH223044   1.810   2.316   6.607
 7720TIP3    H123045   1.736   2.324   6.670
 7720TIP3    H223046   1.850   2.405   6.612
 7721TIP3   OH223047   1.626   1.829   5.227
 7721TIP3    H123048   1.695   1.893   5.201
 7721TIP3    H223049   1.667   1.789   5.307
 7722TIP3   OH223050   1.754   1.696   5.431
 7722TIP3    H123051   1.687   1.653   5.488
 7722TIP3    H223052   1.814   1.737   5.495
 7723TIP3   OH223053   1.809   2.090   5.865
 7723TIP3    H123054   1.860   2.026   5.811
 7723TIP3    H223055   1.795   2.163   5.803
 7724TIP3   OH223056   1.639   2.389   6.058
 7724TIP3    H123057   1.568   2.431   6.111
 7724TIP3    H223058   1.588   2.341   5.990
 7725TIP3   OH223059   1.691   1.604   5.078
 7725TIP3    H123060   1.620   1.607   5.011
 7725TIP3    H223061   1.664   1.681   5.133
 7726TIP3   OH223062   1.565   1.277   5.031
 7726TIP3    H123063   1.518   1.317   4.957
 7726TIP3    H223064   1.538   1.183   5.021
 7727TIP3   OH223065   1.569   1.552   5.577
 7727TIP3    H123066   1.573   1.455   5.572
 7727TIP3    H223067   1.553   1.567   5.673
 7728TIP3   OH223068   1.856   1.977   6.435
 7728TIP3    H123069   1.929   1.913   6.424
 7728TIP3    H223070   1.881   2.048   6.373
 7729TIP3   OH223071   2.045   1.785   6.449
 7729TIP3    H123072   1.967   1.738   6.487
 7729TIP3    H223073   2.114   1.718   6.465
 7730TIP3   OH223074   1.506   1.012   5.020
 7730TIP3    H123075   1.578   0.979   5.076
 7730TIP3    H223076   1.431   0.954   5.042
 7731TIP3   OH223077   1.563   1.270   5.473
 7731TIP3    H123078   1.604   1.181   5.489
 7731TIP3    H223079   1.621   1.303   5.402
 7732TIP3   OH223080   1.728   1.439   5.968
 7732TIP3    H123081   1.813   1.469   5.929
 7732TIP3    H223082   1.736   1.479   6.057
 7733TIP3   OH223083   1.794   1.587   6.200
 7733TIP3    H123084   1.715   1.618   6.249
 7733TIP3    H223085   1.824   1.669   6.156
 7734TIP3   OH223086   2.249   1.178   6.757
 7734TIP3    H123087   2.304   1.111   6.710
 7734TIP3    H223088   2.216   1.233   6.683
 7735TIP3   OH223089   1.674   1.019   5.509
 7735TIP3    H123090   1.719   1.003   5.595
 7735TIP3    H223091   1.612   0.944   5.507
 7736TIP3   OH223092   2.121   1.319   6.565
 7736TIP3    H123093   2.035   1.359   6.589
 7736TIP3    H223094   2.089   1.249   6.505
 7737TIP3   OH223095   1.756   0.954   5.144
 7737TIP3    H123096   1.793   0.882   5.089
 7737TIP3    H223097   1.821   1.025   5.133
 7738TIP3   OH223098   1.317   2.485   5.409
 7738TIP3    H123099   1.370   2.470   5.328
 7738TIP3    H223100   1.370   2.551   5.456
 7739TIP3   OH223101   0.411   2.275   6.796
 7739TIP3    H123102   0.326   2.231   6.779
 7739TIP3    H223103   0.413   2.282   6.892
 7740TIP3   OH223104   0.595   2.321   6.344
 7740TIP3    H123105   0.547   2.396   6.305
 7740TIP3    H223106   0.681   2.335   6.298
 7741TIP3   OH223107   1.042   2.567   6.480
 7741TIP3    H123108   1.084   2.568   6.569
 7741TIP3    H223109   1.108   2.617   6.428
 7742TIP3   OH223110   1.221   2.718   6.338
 7742TIP3    H123111   1.292   2.666   6.298
 7742TIP3    H223112   1.272   2.775   6.399
 7743TIP3   OH223113   2.017   1.082   6.439
 7743TIP3    H123114   1.925   1.082   6.407
 7743TIP3    H223115   2.041   0.988   6.427
 7744TIP3   OH223116   0.274   2.578   6.367
 7744TIP3    H123117   0.184   2.611   6.344
 7744TIP3    H223118   0.280   2.609   6.458
 7745TIP3   OH223119   0.509   2.558   6.223
 7745TIP3    H123120   0.423   2.571   6.270
 7745TIP3    H223121   0.488   2.591   6.134
 7746TIP3   OH223122   0.936   2.587   6.020
 7746TIP3    H123123   0.865   2.608   5.956
 7746TIP3    H223124   0.948   2.675   6.064
 7747TIP3   OH223125   1.203   2.528   6.072
 7747TIP3    H123126   1.109   2.542   6.053
 7747TIP3    H223127   1.244   2.606   6.031
 7748TIP3   OH223128   1.415   2.720   5.989
 7748TIP3    H123129   1.398   2.804   5.941
 7748TIP3    H223130   1.437   2.659   5.916
 7749TIP3   OH223131   0.183   2.369   6.108
 7749TIP3    H123132   0.205   2.349   6.201
 7749TIP3    H223133   0.258   2.325   6.062
 7750TIP3   OH223134   0.379   2.243   5.967
 7750TIP3    H123135   0.396   2.158   6.015
 7750TIP3    H223136   0.470   2.280   5.962
 7751TIP3   OH223137   0.645   2.340   5.969
 7751TIP3    H123138   0.675   2.248   5.957
 7751TIP3    H223139   0.687   2.360   6.054
 7752TIP3   OH223140   1.210   0.994   6.002
 7752TIP3    H123141   1.198   1.005   6.099
 7752TIP3    H223142   1.290   0.942   5.999
 7753TIP3   OH223143   1.749   0.872   5.965
 7753TIP3    H123144   1.783   0.927   5.891
 7753TIP3    H223145   1.653   0.891   5.960
 7754TIP3   OH223146   1.840   0.975   5.728
 7754TIP3    H123147   1.913   0.926   5.685
 7754TIP3    H223148   1.870   1.068   5.714
 7755TIP3   OH223149   1.472   0.877   5.943
 7755TIP3    H123150   1.441   0.860   5.854
 7755TIP3    H223151   1.448   0.794   5.991
 7756TIP3   OH223152   1.490   0.808   5.499
 7756TIP3    H123153   1.405   0.857   5.513
 7756TIP3    H223154   1.468   0.722   5.541
 7757TIP3   OH223155  -0.040   2.142   5.510
 7757TIP3    H123156  -0.097   2.101   5.445
 7757TIP3    H223157  -0.050   2.237   5.486
 7758TIP3   OH223158   0.876   0.930   5.588
 7758TIP3    H123159   0.934   0.880   5.648
 7758TIP3    H223160   0.899   1.021   5.618
 7759TIP3   OH223161   0.744   2.335   5.083
 7759TIP3    H123162   0.832   2.356   5.047
 7759TIP3    H223163   0.722   2.259   5.025
 7760TIP3   OH223164   1.465   2.452   5.176
 7760TIP3    H123165   1.457   2.354   5.164
 7760TIP3    H223166   1.418   2.484   5.097
 7761TIP3   OH223167   0.049   2.170   5.143
 7761TIP3    H123168   0.051   2.207   5.232
 7761TIP3    H223169   0.139   2.130   5.134
 7762TIP3   OH223170   1.748   1.043   6.879
 7762TIP3    H123171   1.775   1.016   6.969
 7762TIP3    H223172   1.835   1.042   6.831
 7763TIP3   OH223173   1.692   2.596   6.363
 7763TIP3    H123174   1.611   2.564   6.318
 7763TIP3    H223175   1.670   2.692   6.368
 7764TIP3   OH223176   2.941   1.963   5.158
 7764TIP3    H123177   2.926   2.053   5.122
 7764TIP3    H223178   2.888   1.912   5.094
 7765TIP3   OH223179   2.952   1.975   5.511
 7765TIP3    H123180   2.975   1.929   5.593
 7765TIP3    H223181   2.917   1.905   5.454
 7766TIP3   OH223182   2.257   1.864   5.874
 7766TIP3    H123183   2.291   1.800   5.939
 7766TIP3    H223184   2.330   1.927   5.868
 7767TIP3   OH223185   3.199   2.273   5.190
 7767TIP3    H123186   3.182   2.200   5.251
 7767TIP3    H223187   3.227   2.345   5.250
 7768TIP3   OH223188   2.226   2.274   5.604
 7768TIP3    H123189   2.217   2.177   5.606
 7768TIP3    H223190   2.323   2.282   5.595
 7769TIP3   OH223191   1.933   1.480   5.390
 7769TIP3    H123192   1.881   1.561   5.402
 7769TIP3    H223193   1.864   1.422   5.352
 7770TIP3   OH223194   1.994   1.766   5.559
 7770TIP3    H123195   2.042   1.688   5.595
 7770TIP3    H223196   2.048   1.788   5.482
 7771TIP3   OH223197   2.843   2.733   5.208
 7771TIP3    H123198   2.891   2.663   5.159
 7771TIP3    H223199   2.841   2.696   5.297
 7772TIP3   OH223200   2.752   2.190   5.565
 7772TIP3    H123201   2.790   2.118   5.512
 7772TIP3    H223202   2.835   2.237   5.586
 7773TIP3   OH223203   3.764   1.514   5.558
 7773TIP3    H123204   3.794   1.596   5.602
 7773TIP3    H223205   3.787   1.533   5.465
 7774TIP3   OH223206   3.159   1.695   5.599
 7774TIP3    H123207   3.207   1.611   5.614
 7774TIP3    H223208   3.136   1.685   5.504
 7775TIP3   OH223209   2.503   1.356   5.560
 7775TIP3    H123210   2.482   1.428   5.496
 7775TIP3    H223211   2.456   1.281   5.516
 7776TIP3   OH223212   3.194   1.443   5.187
 7776TIP3    H123213   3.271   1.432   5.247
 7776TIP3    H223214   3.241   1.484   5.110
 7777TIP3   OH223215   2.137   1.558   5.666
 7777TIP3    H123216   2.220   1.535   5.712
 7777TIP3    H223217   2.147   1.501   5.586
 7778TIP3   OH223218   2.577   1.754   5.460
 7778TIP3    H123219   2.671   1.729   5.467
 7778TIP3    H223220   2.537   1.671   5.425
 7779TIP3   OH223221   3.837   1.718   5.731
 7779TIP3    H123222   3.756   1.769   5.713
 7779TIP3    H223223   3.862   1.752   5.819
 7780TIP3   OH223224   2.502   1.340   5.995
 7780TIP3    H123225   2.442   1.375   5.926
 7780TIP3    H223226   2.449   1.357   6.075
 7781TIP3   OH223227   2.843   2.182   5.009
 7781TIP3    H123228   2.819   2.166   4.917
 7781TIP3    H223229   2.804   2.270   5.024
 7782TIP3   OH223230   2.618   2.107   5.802
 7782TIP3    H123231   2.551   2.172   5.833
 7782TIP3    H223232   2.656   2.156   5.726
 7783TIP3   OH223233   3.408   1.443   5.355
 7783TIP3    H123234   3.405   1.403   5.443
 7783TIP3    H223235   3.463   1.522   5.371
 7784TIP3   OH223236   2.372   1.454   5.778
 7784TIP3    H123237   2.436   1.527   5.797
 7784TIP3    H223238   2.418   1.411   5.702
 7785TIP3   OH223239   2.436   2.303   5.885
 7785TIP3    H123240   2.411   2.388   5.843
 7785TIP3    H223241   2.356   2.290   5.941
 7786TIP3   OH223242   1.832   1.997   5.122
 7786TIP3    H123243   1.787   2.022   5.039
 7786TIP3    H223244   1.860   2.083   5.157
 7787TIP3   OH223245   3.270   2.512   5.365
 7787TIP3    H123246   3.178   2.505   5.401
 7787TIP3    H223247   3.263   2.597   5.316
 7788TIP3   OH223248   3.558   1.412   5.722
 7788TIP3    H123249   3.472   1.445   5.693
 7788TIP3    H223250   3.619   1.446   5.652
 7789TIP3   OH223251   2.859   1.057   5.709
 7789TIP3    H123252   2.843   0.962   5.725
 7789TIP3    H223253   2.780   1.095   5.753
 7790TIP3   OH223254   2.969   2.560   5.038
 7790TIP3    H123255   3.017   2.477   5.014
 7790TIP3    H223256   3.029   2.625   4.994
 7791TIP3   OH223257   3.106   2.346   4.940
 7791TIP3    H123258   3.104   2.266   4.884
 7791TIP3    H223259   3.144   2.310   5.023
 7792TIP3   OH223260   3.493   2.426   5.706
 7792TIP3    H123261   3.485   2.350   5.644
 7792TIP3    H223262   3.478   2.502   5.645
 7793TIP3   OH223263   2.792   1.825   4.962
 7793TIP3    H123264   2.712   1.874   4.935
 7793TIP3    H223265   2.841   1.818   4.878
 7794TIP3   OH223266   2.739   1.606   4.677
 7794TIP3    H123267   2.814   1.627   4.738
 7794TIP3    H223268   2.786   1.540   4.623
 7795TIP3   OH223269   3.689   2.060   5.549
 7795TIP3    H123270   3.608   2.115   5.553
 7795TIP3    H223271   3.720   2.084   5.459
 7796TIP3   OH223272   3.361   1.942   5.848
 7796TIP3    H123273   3.371   2.024   5.900
 7796TIP3    H223274   3.304   1.972   5.775
 7797TIP3   OH223275   2.363   1.899   5.352
 7797TIP3    H123276   2.323   1.843   5.283
 7797TIP3    H223277   2.442   1.847   5.378
 7798TIP3   OH223278   2.494   2.310   5.500
 7798TIP3    H123279   2.475   2.269   5.414
 7798TIP3    H223280   2.585   2.277   5.518
 7799TIP3   OH223281   2.511   1.870   5.707
 7799TIP3    H123282   2.535   1.852   5.614
 7799TIP3    H223283   2.548   1.960   5.721
 7800TIP3   OH223284   3.027   2.509   5.482
 7800TIP3    H123285   3.012   2.590   5.534
 7800TIP3    H223286   3.012   2.437   5.546
 7801TIP3   OH223287   2.639   2.424   6.032
 7801TIP3    H123288   2.580   2.489   6.076
 7801TIP3    H223289   2.573   2.374   5.980
 7802TIP3   OH223290   2.400   1.977   6.136
 7802TIP3    H123291   2.404   2.066   6.175
 7802TIP3    H223292   2.303   1.962   6.141
 7803TIP3   OH223293   2.714   2.445   5.034
 7803TIP3    H123294   2.796   2.494   5.053
 7803TIP3    H223295   2.655   2.513   5.000
 7804TIP3   OH223296   2.435   2.595   6.115
 7804TIP3    H123297   2.400   2.594   6.024
 7804TIP3    H223298   2.356   2.575   6.169
 7805TIP3   OH223299   3.490   1.004   4.806
 7805TIP3    H123300   3.409   1.030   4.855
 7805TIP3    H223301   3.506   1.086   4.754
 7806TIP3   OH223302   2.232   1.743   5.157
 7806TIP3    H123303   2.168   1.789   5.098
 7806TIP3    H223304   2.188   1.657   5.167
 7807TIP3   OH223305   3.286   2.373   4.356
 7807TIP3    H123306   3.300   2.469   4.342
 7807TIP3    H223307   3.376   2.337   4.340
 7808TIP3   OH223308   2.014   2.125   6.062
 7808TIP3    H123309   1.946   2.106   5.995
 7808TIP3    H223310   2.049   2.036   6.083
 7809TIP3   OH223311   1.867   2.320   5.694
 7809TIP3    H123312   1.964   2.316   5.687
 7809TIP3    H223313   1.855   2.399   5.749
 7810TIP3   OH223314   3.732   2.770   5.750
 7810TIP3    H123315   3.731   2.673   5.764
 7810TIP3    H223316   3.649   2.795   5.796
 7811TIP3   OH223317   2.839   2.555   5.886
 7811TIP3    H123318   2.839   2.649   5.917
 7811TIP3    H223319   2.768   2.517   5.942
 7812TIP3   OH223320   2.589   2.697   4.831
 7812TIP3    H123321   2.549   2.662   4.750
 7812TIP3    H223322   2.585   2.793   4.809
 7813TIP3   OH223323   2.036   2.537   5.220
 7813TIP3    H123324   2.083   2.527   5.306
 7813TIP3    H223325   1.978   2.458   5.223
 7814TIP3   OH223326   2.800   2.582   4.476
 7814TIP3    H123327   2.864   2.516   4.442
 7814TIP3    H223328   2.832   2.596   4.568
 7815TIP3   OH223329   2.845   2.634   4.746
 7815TIP3    H123330   2.760   2.650   4.793
 7815TIP3    H223331   2.899   2.594   4.817
 7816TIP3   OH223332   3.622   1.901   6.029
 7816TIP3    H123333   3.547   1.914   5.971
 7816TIP3    H223334   3.640   1.805   6.017
 7817TIP3   OH223335   2.221   2.307   6.051
 7817TIP3    H123336   2.268   2.294   6.135
 7817TIP3    H223337   2.145   2.246   6.059
 7818TIP3   OH223338   2.618   1.135   5.833
 7818TIP3    H123339   2.529   1.103   5.809
 7818TIP3    H223340   2.594   1.217   5.880
 7819TIP3   OH223341   3.151   1.250   6.031
 7819TIP3    H123342   3.221   1.220   6.092
 7819TIP3    H223343   3.068   1.225   6.077
 7820TIP3   OH223344   3.383   1.674   5.941
 7820TIP3    H123345   3.342   1.673   6.030
 7820TIP3    H223346   3.370   1.765   5.911
 7821TIP3   OH223347   2.767   1.182   4.803
 7821TIP3    H123348   2.735   1.182   4.895
 7821TIP3    H223349   2.727   1.099   4.772
 7822TIP3   OH223350   2.553   1.651   5.855
 7822TIP3    H123351   2.495   1.666   5.933
 7822TIP3    H223352   2.532   1.730   5.800
 7823TIP3   OH223353   2.434   1.534   5.368
 7823TIP3    H123354   2.340   1.509   5.383
 7823TIP3    H223355   2.447   1.495   5.278
 7824TIP3   OH223356   2.923   1.622   5.092
 7824TIP3    H123357   2.867   1.695   5.060
 7824TIP3    H223358   2.976   1.609   5.010
 7825TIP3   OH223359   3.057   1.849   6.192
 7825TIP3    H123360   3.077   1.848   6.287
 7825TIP3    H223361   3.145   1.877   6.161
 7826TIP3   OH223362   3.078   1.651   5.335
 7826TIP3    H123363   3.027   1.688   5.260
 7826TIP3    H223364   3.111   1.570   5.291
 7827TIP3   OH223365   2.379   1.681   6.065
 7827TIP3    H123366   2.363   1.747   6.134
 7827TIP3    H223367   2.357   1.597   6.111
 7828TIP3   OH223368   2.418   1.154   4.773
 7828TIP3    H123369   2.412   1.150   4.870
 7828TIP3    H223370   2.338   1.206   4.752
 7829TIP3   OH223371   1.960   1.201   5.643
 7829TIP3    H123372   2.038   1.231   5.695
 7829TIP3    H223373   1.998   1.167   5.561
 7830TIP3   OH223374   1.938   1.183   5.162
 7830TIP3    H123375   1.981   1.222   5.084
 7830TIP3    H223376   1.875   1.254   5.184
 7831TIP3   OH223377   3.062   1.881   5.766
 7831TIP3    H123378   3.104   1.819   5.701
 7831TIP3    H223379   3.120   1.869   5.842
 7832TIP3   OH223380   2.761   1.356   5.430
 7832TIP3    H123381   2.677   1.354   5.480
 7832TIP3    H223382   2.827   1.357   5.501
 7833TIP3   OH223383   2.195   1.413   5.438
 7833TIP3    H123384   2.100   1.421   5.411
 7833TIP3    H223385   2.216   1.321   5.413
 7834TIP3   OH223386   2.467   1.410   5.125
 7834TIP3    H123387   2.561   1.425   5.102
 7834TIP3    H223388   2.420   1.433   5.042
 7835TIP3   OH223389   3.253   1.433   5.634
 7835TIP3    H123390   3.213   1.444   5.723
 7835TIP3    H223391   3.190   1.371   5.594
 7836TIP3   OH223392   2.306   1.441   4.905
 7836TIP3    H123393   2.230   1.400   4.859
 7836TIP3    H223394   2.357   1.476   4.829
 7837TIP3   OH223395   3.421   3.122   5.849
 7837TIP3    H123396   3.421   3.145   5.755
 7837TIP3    H223397   3.501   3.169   5.881
 7838TIP3   OH223398   2.382   2.228   6.271
 7838TIP3    H123399   2.459   2.263   6.321
 7838TIP3    H223400   2.315   2.229   6.342
 7839TIP3   OH223401   2.848   1.679   5.520
 7839TIP3    H123402   2.916   1.656   5.454
 7839TIP3    H223403   2.874   1.625   5.595
 7840TIP3   OH223404   2.372   1.172   5.405
 7840TIP3    H123405   2.335   1.092   5.449
 7840TIP3    H223406   2.413   1.136   5.326
 7841TIP3   OH223407   2.817   1.578   5.833
 7841TIP3    H123408   2.723   1.606   5.822
 7841TIP3    H223409   2.867   1.655   5.804
 7842TIP3   OH223410   2.555   1.973   4.911
 7842TIP3    H123411   2.483   1.907   4.902
 7842TIP3    H223412   2.541   2.006   5.003
 7843TIP3   OH223413   3.458   2.208   5.542
 7843TIP3    H123414   3.484   2.257   5.460
 7843TIP3    H223415   3.372   2.168   5.515
 7844TIP3   OH223416   3.018   1.299   4.777
 7844TIP3    H123417   2.921   1.286   4.782
 7844TIP3    H223418   3.025   1.398   4.781
 7845TIP3   OH223419   2.951   2.285   5.917
 7845TIP3    H123420   2.986   2.286   6.007
 7845TIP3    H223421   2.917   2.375   5.907
 7846TIP3   OH223422   2.253   1.997   5.590
 7846TIP3    H123423   2.287   1.968   5.503
 7846TIP3    H223424   2.282   1.926   5.648
 7847TIP3   OH223425   2.687   2.119   4.719
 7847TIP3    H123426   2.648   2.208   4.738
 7847TIP3    H223427   2.644   2.065   4.788
 7848TIP3   OH223428   2.134   1.906   6.196
 7848TIP3    H123429   2.144   1.898   6.293
 7848TIP3    H223430   2.057   1.849   6.180
 7849TIP3   OH223431   2.848   2.029   6.228
 7849TIP3    H123432   2.781   1.999   6.163
 7849TIP3    H223433   2.932   2.027   6.179
 7850TIP3   OH223434   3.117   2.541   5.810
 7850TIP3    H123435   3.020   2.550   5.817
 7850TIP3    H223436   3.146   2.599   5.884
 7851TIP3   OH223437   3.538   1.622   4.707
 7851TIP3    H123438   3.478   1.575   4.644
 7851TIP3    H223439   3.528   1.712   4.671
 7852TIP3   OH223440   3.744   2.477   5.795
 7852TIP3    H123441   3.646   2.473   5.785
 7852TIP3    H223442   3.770   2.449   5.704
 7853TIP3   OH223443   3.227   2.439   4.620
 7853TIP3    H123444   3.200   2.367   4.678
 7853TIP3    H223445   3.236   2.395   4.533
 7854TIP3   OH223446   3.222   2.067   5.474
 7854TIP3    H123447   3.127   2.047   5.472
 7854TIP3    H223448   3.257   1.992   5.421
 7855TIP3   OH223449   2.350   2.298   5.214
 7855TIP3    H123450   2.353   2.379   5.160
 7855TIP3    H223451   2.254   2.283   5.220
 7856TIP3   OH223452   1.914   1.603   4.916
 7856TIP3    H123453   1.959   1.687   4.936
 7856TIP3    H223454   1.835   1.609   4.975
 7857TIP3   OH223455   2.487   2.064   5.158
 7857TIP3    H123456   2.455   2.154   5.175
 7857TIP3    H223457   2.450   2.015   5.234
 7858TIP3   OH223458   2.619   2.642   5.681
 7858TIP3    H123459   2.658   2.715   5.629
 7858TIP3    H223460   2.697   2.610   5.730
 7859TIP3   OH223461   2.269   2.537   5.065
 7859TIP3    H123462   2.183   2.544   5.111
 7859TIP3    H223463   2.300   2.630   5.069
 7860TIP3   OH223464   3.007   2.278   5.641
 7860TIP3    H123465   3.003   2.273   5.739
 7860TIP3    H223466   3.088   2.228   5.621
 7861TIP3   OH223467   3.255   2.811   5.690
 7861TIP3    H123468   3.175   2.757   5.679
 7861TIP3    H223469   3.243   2.877   5.618
 7862TIP3   OH223470   3.323   2.648   4.343
 7862TIP3    H123471   3.364   2.723   4.296
 7862TIP3    H223472   3.242   2.692   4.374
 7863TIP3   OH223473   2.339   1.423   6.209
 7863TIP3    H123474   2.243   1.429   6.221
 7863TIP3    H223475   2.363   1.358   6.278
 7864TIP3   OH223476   3.150   2.125   4.769
 7864TIP3    H123477   3.121   2.036   4.792
 7864TIP3    H223478   3.242   2.108   4.739
 7865TIP3   OH223479   2.059   2.506   5.840
 7865TIP3    H123480   2.110   2.430   5.871
 7865TIP3    H223481   2.084   2.574   5.904
 7866TIP3   OH223482   2.342   2.157   4.524
 7866TIP3    H123483   2.361   2.066   4.493
 7866TIP3    H223484   2.325   2.142   4.619
 7867TIP3   OH223485   2.294   2.155   4.796
 7867TIP3    H123486   2.367   2.126   4.852
 7867TIP3    H223487   2.299   2.253   4.804
 7868TIP3   OH223488   2.031   1.849   4.998
 7868TIP3    H123489   1.964   1.893   5.054
 7868TIP3    H223490   2.045   1.918   4.930
 7869TIP3   OH223491   3.165   1.489   5.887
 7869TIP3    H123492   3.245   1.532   5.921
 7869TIP3    H223493   3.157   1.409   5.943
 7870TIP3   OH223494   3.067   1.236   5.048
 7870TIP3    H123495   3.045   1.265   4.957
 7870TIP3    H223496   3.100   1.319   5.088
 7871TIP3   OH223497   2.556   2.355   4.740
 7871TIP3    H123498   2.470   2.382   4.778
 7871TIP3    H223499   2.579   2.436   4.692
 7872TIP3   OH223500   2.753   1.412   5.154
 7872TIP3    H123501   2.816   1.484   5.131
 7872TIP3    H223502   2.757   1.413   5.252
 7873TIP3   OH223503   2.903   1.152   5.272
 7873TIP3    H123504   2.881   1.235   5.318
 7873TIP3    H223505   2.957   1.185   5.197
 7874TIP3   OH223506   2.300   2.430   4.810
 7874TIP3    H123507   2.270   2.500   4.748
 7874TIP3    H223508   2.285   2.472   4.897
 7875TIP3   OH223509   2.405   1.140   5.050
 7875TIP3    H123510   2.402   1.232   5.083
 7875TIP3    H223511   2.501   1.123   5.058
 7876TIP3   OH223512   3.653   1.637   5.946
 7876TIP3    H123513   3.556   1.628   5.946
 7876TIP3    H223514   3.675   1.602   5.859
 7877TIP3   OH223515   3.304   1.834   5.341
 7877TIP3    H123516   3.233   1.767   5.339
 7877TIP3    H223517   3.380   1.783   5.377
 7878TIP3   OH223518   2.021   2.060   4.805
 7878TIP3    H123519   2.089   2.129   4.814
 7878TIP3    H223520   2.064   2.004   4.737
 7879TIP3   OH223521   1.968   1.333   4.934
 7879TIP3    H123522   1.963   1.431   4.931
 7879TIP3    H223523   1.883   1.308   4.896
 7880TIP3   OH223524   3.277   2.785   5.284
 7880TIP3    H123525   3.234   2.831   5.208
 7880TIP3    H223526   3.371   2.803   5.263
 7881TIP3   OH223527   2.355   1.053   5.810
 7881TIP3    H123528   2.322   1.021   5.724
 7881TIP3    H223529   2.342   0.974   5.867
 7882TIP3   OH223530   1.895   2.276   5.193
 7882TIP3    H123531   1.820   2.304   5.248
 7882TIP3    H223532   1.869   2.313   5.106
 7883TIP3   OH223533   2.048   2.813   6.261
 7883TIP3    H123534   2.133   2.813   6.309
 7883TIP3    H223535   2.026   2.718   6.262
 7884TIP3   OH223536   2.531   2.780   6.305
 7884TIP3    H123537   2.625   2.763   6.315
 7884TIP3    H223538   2.508   2.721   6.231
 7885TIP3   OH223539   2.520   2.340   4.431
 7885TIP3    H123540   2.444   2.288   4.468
 7885TIP3    H223541   2.592   2.286   4.466
 7886TIP3   OH223542   3.170   2.683   6.040
 7886TIP3    H123543   3.164   2.613   6.108
 7886TIP3    H223544   3.247   2.735   6.069
 7887TIP3   OH223545   2.959   2.399   4.342
 7887TIP3    H123546   2.984   2.314   4.379
 7887TIP3    H223547   3.027   2.408   4.274
 7888TIP3   OH223548   2.180   2.220   6.460
 7888TIP3    H123549   2.195   2.124   6.465
 7888TIP3    H223550   2.091   2.224   6.420
 7889TIP3   OH223551   2.158   1.874   4.657
 7889TIP3    H123552   2.212   1.838   4.729
 7889TIP3    H223553   2.224   1.878   4.585
 7890TIP3   OH223554   2.791   2.309   6.235
 7890TIP3    H123555   2.745   2.327   6.151
 7890TIP3    H223556   2.816   2.215   6.228
 7891TIP3   OH223557   2.646   2.078   4.445
 7891TIP3    H123558   2.667   2.095   4.540
 7891TIP3    H223559   2.651   1.979   4.448
 7892TIP3   OH223560   3.277   2.311   5.839
 7892TIP3    H123561   3.354   2.354   5.796
 7892TIP3    H223562   3.210   2.382   5.828
 7893TIP3   OH223563   2.298   1.957   6.445
 7893TIP3    H123564   2.359   1.883   6.437
 7893TIP3    H223565   2.320   1.991   6.534
 7894TIP3   OH223566   2.362   1.773   4.878
 7894TIP3    H123567   2.337   1.732   4.962
 7894TIP3    H223568   2.400   1.698   4.828
 7895TIP3   OH223569   2.668   1.844   6.113
 7895TIP3    H123570   2.579   1.879   6.135
 7895TIP3    H223571   2.665   1.857   6.017
 7896TIP3   OH223572   2.467   1.567   4.720
 7896TIP3    H123573   2.443   1.571   4.625
 7896TIP3    H223574   2.564   1.578   4.714
 7897TIP3   OH223575   3.141   2.218   6.231
 7897TIP3    H123576   3.230   2.231   6.198
 7897TIP3    H223577   3.157   2.173   6.315
 7898TIP3   OH223578   3.304   1.911   4.369
 7898TIP3    H123579   3.254   1.857   4.305
 7898TIP3    H223580   3.257   1.995   4.365
 7899TIP3   OH223581   2.765   1.404   6.040
 7899TIP3    H123582   2.787   1.453   5.959
 7899TIP3    H223583   2.669   1.389   6.029
 7900TIP3   OH223584   2.822   1.939   5.910
 7900TIP3    H123585   2.891   1.951   5.842
 7900TIP3    H223586   2.754   2.001   5.875
 7901TIP3   OH223587   3.372   1.915   6.295
 7901TIP3    H123588   3.425   1.835   6.305
 7901TIP3    H223589   3.438   1.978   6.261
 7902TIP3   OH223590   3.409   2.163   6.022
 7902TIP3    H123591   3.353   2.222   5.966
 7902TIP3    H223592   3.498   2.187   5.986
 7903TIP3   OH223593   2.644   1.728   6.441
 7903TIP3    H123594   2.572   1.668   6.470
 7903TIP3    H223595   2.624   1.741   6.348
 7904TIP3   OH223596   2.893   1.175   6.111
 7904TIP3    H123597   2.846   1.257   6.085
 7904TIP3    H223598   2.824   1.107   6.096
 7905TIP3   OH223599   3.266   1.630   6.183
 7905TIP3    H123600   3.203   1.592   6.244
 7905TIP3    H223601   3.351   1.604   6.226
 7906TIP3   OH223602   3.481   1.565   6.330
 7906TIP3    H123603   3.502   1.471   6.350
 7906TIP3    H223604   3.486   1.607   6.418
 7907TIP3   OH223605   2.476   1.520   6.508
 7907TIP3    H123606   2.476   1.427   6.475
 7907TIP3    H223607   2.501   1.504   6.602
 7908TIP3   OH223608   2.996   1.201   6.369
 7908TIP3    H123609   3.059   1.126   6.363
 7908TIP3    H223610   2.951   1.190   6.283
 7909TIP3   OH223611   3.040   1.401   6.579
 7909TIP3    H123612   3.040   1.331   6.509
 7909TIP3    H223613   2.967   1.459   6.545
 7910TIP3   OH223614   2.270   2.637   4.622
 7910TIP3    H123615   2.367   2.632   4.610
 7910TIP3    H223616   2.244   2.677   4.537
 7911TIP3   OH223617   1.752   2.011   4.839
 7911TIP3    H123618   1.847   2.033   4.826
 7911TIP3    H223619   1.746   1.923   4.797
 7912TIP3   OH223620   1.667   2.625   5.251
 7912TIP3    H123621   1.598   2.563   5.217
 7912TIP3    H223622   1.711   2.569   5.318
 7913TIP3   OH223623   1.801   2.479   5.439
 7913TIP3    H123624   1.789   2.403   5.499
 7913TIP3    H223625   1.852   2.539   5.497
 7914TIP3   OH223626   3.529   2.876   5.239
 7914TIP3    H123627   3.556   2.910   5.326
 7914TIP3    H223628   3.590   2.921   5.179
 7915TIP3   OH223629   3.559   2.897   5.521
 7915TIP3    H123630   3.517   2.809   5.516
 7915TIP3    H223631   3.635   2.876   5.578
 7916TIP3   OH223632   3.604   2.573   6.093
 7916TIP3    H123633   3.532   2.582   6.158
 7916TIP3    H223634   3.646   2.661   6.098
 7917TIP3   OH223635   3.423   2.084   4.711
 7917TIP3    H123636   3.493   2.148   4.686
 7917TIP3    H223637   3.463   2.045   4.792
 7918TIP3   OH223638   3.554   1.958   4.914
 7918TIP3    H123639   3.491   1.907   4.971
 7918TIP3    H223640   3.615   1.995   4.980
 7919TIP3   OH223641   3.602   2.344   5.351
 7919TIP3    H123642   3.655   2.281   5.299
 7919TIP3    H223643   3.593   2.419   5.289
 7920TIP3   OH223644   3.436   2.645   5.547
 7920TIP3    H123645   3.365   2.689   5.597
 7920TIP3    H223646   3.386   2.597   5.477
 7921TIP3   OH223647   3.489   1.860   4.563
 7921TIP3    H123648   3.420   1.868   4.494
 7921TIP3    H223649   3.462   1.934   4.621
 7922TIP3   OH223650   3.379   1.534   4.507
 7922TIP3    H123651   3.304   1.593   4.495
 7922TIP3    H223652   3.339   1.446   4.502
 7923TIP3   OH223653   3.396   1.804   5.069
 7923TIP3    H123654   3.374   1.710   5.055
 7923TIP3    H223655   3.350   1.824   5.153
 7924TIP3   OH223656   1.990   1.880   5.811
 7924TIP3    H123657   1.987   1.852   5.717
 7924TIP3    H223658   2.088   1.883   5.826
 7925TIP3   OH223659   3.650   2.233   5.919
 7925TIP3    H123660   3.725   2.169   5.912
 7925TIP3    H223661   3.680   2.305   5.861
 7926TIP3   OH223662   3.836   2.040   5.940
 7926TIP3    H123663   3.764   1.988   5.981
 7926TIP3    H223664   3.911   1.979   5.952
 7927TIP3   OH223665   3.297   1.272   4.494
 7927TIP3    H123666   3.373   1.245   4.550
 7927TIP3    H223667   3.223   1.218   4.528
 7928TIP3   OH223668   3.366   1.528   4.992
 7928TIP3    H123669   3.415   1.443   4.987
 7928TIP3    H223670   3.372   1.560   4.901
 7929TIP3   OH223671   3.521   1.700   5.454
 7929TIP3    H123672   3.606   1.726   5.411
 7929TIP3    H223673   3.537   1.737   5.543
 7930TIP3   OH223674   3.590   1.844   5.689
 7930TIP3    H123675   3.511   1.880   5.733
 7930TIP3    H223676   3.623   1.923   5.640
 7931TIP3   OH223677   2.209   1.572   6.489
 7931TIP3    H123678   2.306   1.562   6.488
 7931TIP3    H223679   2.181   1.487   6.528
 7932TIP3   OH223680   4.036   1.430   6.242
 7932TIP3    H123681   4.098   1.366   6.201
 7932TIP3    H223682   4.015   1.489   6.168
 7933TIP3   OH223683   3.479   1.273   4.990
 7933TIP3    H123684   3.522   1.259   5.077
 7933TIP3    H223685   3.413   1.202   4.990
 7934TIP3   OH223686   2.171   1.261   5.814
 7934TIP3    H123687   2.233   1.187   5.825
 7934TIP3    H223688   2.231   1.337   5.811
 7935TIP3   OH223689   1.975   1.536   5.893
 7935TIP3    H123690   2.021   1.528   5.807
 7935TIP3    H223691   1.996   1.626   5.918
 7936TIP3   OH223692   3.913   1.577   6.048
 7936TIP3    H123693   3.826   1.613   6.072
 7936TIP3    H223694   3.886   1.503   5.990
 7937TIP3   OH223695   3.546   1.213   4.624
 7937TIP3    H123696   3.590   1.141   4.575
 7937TIP3    H223697   3.613   1.284   4.622
 7938TIP3   OH223698   1.954   1.043   5.393
 7938TIP3    H123699   1.860   1.038   5.417
 7938TIP3    H223700   1.952   1.099   5.312
 7939TIP3   OH223701   3.114   2.739   4.896
 7939TIP3    H123702   3.166   2.724   4.814
 7939TIP3    H223703   3.165   2.809   4.940
 7940TIP3   OH223704   2.175   1.118   6.206
 7940TIP3    H123705   2.124   1.114   6.289
 7940TIP3    H223706   2.108   1.158   6.146
 7941TIP3   OH223707   2.216   2.541   6.283
 7941TIP3    H123708   2.122   2.518   6.266
 7941TIP3    H223709   2.222   2.529   6.378
 7942TIP3   OH223710   2.393   2.576   5.830
 7942TIP3    H123711   2.343   2.651   5.792
 7942TIP3    H223712   2.478   2.592   5.784
 7943TIP3   OH223713   2.838   2.822   5.965
 7943TIP3    H123714   2.879   2.824   6.055
 7943TIP3    H223715   2.904   2.874   5.914
 7944TIP3   OH223716   3.017   2.974   5.825
 7944TIP3    H123717   3.089   2.924   5.784
 7944TIP3    H223718   3.068   3.032   5.887
 7945TIP3   OH223719   3.811   1.337   5.927
 7945TIP3    H123720   3.720   1.331   5.893
 7945TIP3    H223721   3.843   1.245   5.914
 7946TIP3   OH223722   2.070   2.837   5.852
 7946TIP3    H123723   1.980   2.870   5.829
 7946TIP3    H223724   2.078   2.869   5.942
 7947TIP3   OH223725   2.306   2.814   5.711
 7947TIP3    H123726   2.220   2.827   5.756
 7947TIP3    H223727   2.285   2.847   5.621
 7948TIP3   OH223728   2.731   2.843   5.509
 7948TIP3    H123729   2.665   2.865   5.440
 7948TIP3    H223730   2.744   2.931   5.551
 7949TIP3   OH223731   2.999   2.783   5.560
 7949TIP3    H123732   2.905   2.799   5.540
 7949TIP3    H223733   3.042   2.858   5.517
 7950TIP3   OH223734   3.209   2.976   5.476
 7950TIP3    H123735   3.193   3.060   5.428
 7950TIP3    H223736   3.233   2.916   5.402
 7951TIP3   OH223737   1.982   2.631   5.598
 7951TIP3    H123738   2.007   2.605   5.689
 7951TIP3    H223739   2.053   2.587   5.547
 7952TIP3   OH223740   2.174   2.501   5.454
 7952TIP3    H123741   2.189   2.417   5.503
 7952TIP3    H223742   2.264   2.538   5.450
 7953TIP3   OH223743   2.440   2.597   5.457
 7953TIP3    H123744   2.471   2.506   5.443
 7953TIP3    H223745   2.483   2.618   5.541
 7954TIP3   OH223746   3.016   1.259   5.556
 7954TIP3    H123747   2.971   1.186   5.601
 7954TIP3    H223748   3.082   1.212   5.501
 7955TIP3   OH223749   3.538   1.124   5.446
 7955TIP3    H123750   3.579   1.180   5.375
 7955TIP3    H223751   3.447   1.157   5.446
 7956TIP3   OH223752   3.634   1.232   5.215
 7956TIP3    H123753   3.708   1.181   5.174
 7956TIP3    H223754   3.667   1.324   5.200
 7957TIP3   OH223755   2.266   0.961   5.563
 7957TIP3    H123756   2.173   0.929   5.561
 7957TIP3    H223757   2.314   0.876   5.559
 7958TIP3   OH223758   2.057   0.830   5.212
 7958TIP3    H123759   2.082   0.887   5.137
 7958TIP3    H223760   2.022   0.895   5.276
 7959TIP3   OH223761   2.717   0.991   5.439
 7959TIP3    H123762   2.772   1.046   5.381
 7959TIP3    H223763   2.727   1.035   5.524
 7960TIP3   OH223764   3.255   1.144   5.436
 7960TIP3    H123765   3.249   1.124   5.342
 7960TIP3    H223766   3.241   1.057   5.479
 7961TIP3   OH223767   3.283   1.071   4.980
 7961TIP3    H123768   3.201   1.124   4.989
 7961TIP3    H223769   3.266   0.999   5.042
 7962TIP3   OH223770   1.770   2.399   4.988
 7962TIP3    H123771   1.685   2.365   4.954
 7962TIP3    H223772   1.756   2.494   4.975
 7963TIP3   OH223773   2.168   0.990   4.974
 7963TIP3    H123774   2.216   0.928   4.916
 7963TIP3    H223775   2.241   1.044   5.010
 7964TIP3   OH223776   2.683   1.162   5.071
 7964TIP3    H123777   2.744   1.111   5.126
 7964TIP3    H223778   2.706   1.254   5.099
 7965TIP3   OH223779   2.537   2.583   4.571
 7965TIP3    H123780   2.624   2.616   4.539
 7965TIP3    H223781   2.525   2.508   4.508
 7966TIP3   OH223782   3.260   2.706   4.663
 7966TIP3    H123783   3.252   2.609   4.650
 7966TIP3    H223784   3.214   2.739   4.583
 7967TIP3   OH223785   2.476   1.245   6.457
 7967TIP3    H123786   2.441   1.173   6.512
 7967TIP3    H223787   2.570   1.244   6.482
 7968TIP3   OH223788   2.729   1.244   6.578
 7968TIP3    H123789   2.805   1.206   6.531
 7968TIP3    H223790   2.709   1.173   6.643
 7969TIP3   OH223791   1.849   2.439   4.630
 7969TIP3    H123792   1.841   2.449   4.726
 7969TIP3    H223793   1.933   2.390   4.620
 7970TIP3   OH223794   3.546   1.299   6.362
 7970TIP3    H123795   3.567   1.266   6.452
 7970TIP3    H223796   3.634   1.295   6.318
 7971TIP3   OH223797   3.486   2.853   5.851
 7971TIP3    H123798   3.407   2.821   5.804
 7971TIP3    H223799   3.467   2.949   5.855
 7972TIP3   OH223800   4.751   2.227   4.622
 7972TIP3    H123801   4.721   2.317   4.596
 7972TIP3    H223802   4.677   2.175   4.586
 7973TIP3   OH223803   4.763   2.231   5.003
 7973TIP3    H123804   4.778   2.180   5.085
 7973TIP3    H223805   4.718   2.164   4.948
 7974TIP3   OH223806   4.051   2.121   5.364
 7974TIP3    H123807   4.082   2.054   5.428
 7974TIP3    H223808   4.128   2.179   5.359
 7975TIP3   OH223809   4.996   2.529   4.674
 7975TIP3    H123810   4.971   2.461   4.737
 7975TIP3    H223811   5.020   2.605   4.730
 7976TIP3   OH223812   4.020   2.530   5.090
 7976TIP3    H123813   4.012   2.432   5.092
 7976TIP3    H223814   4.117   2.539   5.086
 7977TIP3   OH223815   3.729   1.736   4.878
 7977TIP3    H123816   3.679   1.818   4.891
 7977TIP3    H223817   3.658   1.679   4.843
 7978TIP3   OH223818   3.791   2.023   5.048
 7978TIP3    H123819   3.838   1.945   5.084
 7978TIP3    H223820   3.845   2.045   4.971
 7979TIP3   OH223821   4.641   2.989   4.695
 7979TIP3    H123822   4.689   2.917   4.649
 7979TIP3    H223823   4.639   2.956   4.786
 7980TIP3   OH223824   4.547   2.452   5.047
 7980TIP3    H123825   4.583   2.377   4.996
 7980TIP3    H223826   4.628   2.503   5.063
 7981TIP3   OH223827   5.561   1.772   5.044
 7981TIP3    H123828   5.591   1.853   5.089
 7981TIP3    H223829   5.587   1.790   4.952
 7982TIP3   OH223830   4.961   1.956   5.081
 7982TIP3    H123831   5.002   1.870   5.102
 7982TIP3    H223832   4.931   1.939   4.989
 7983TIP3   OH223833   4.299   1.612   5.045
 7983TIP3    H123834   4.278   1.684   4.983
 7983TIP3    H223835   4.251   1.538   5.001
 7984TIP3   OH223836   4.993   1.703   4.668
 7984TIP3    H123837   5.066   1.686   4.732
 7984TIP3    H223838   5.043   1.737   4.593
 7985TIP3   OH223839   3.933   1.813   5.153
 7985TIP3    H123840   4.016   1.793   5.200
 7985TIP3    H223841   3.944   1.758   5.073
 7986TIP3   OH223842   4.375   2.012   4.943
 7986TIP3    H123843   4.468   1.985   4.958
 7986TIP3    H223844   4.335   1.928   4.912
 7987TIP3   OH223845   5.636   1.977   5.215
 7987TIP3    H123846   5.551   2.024   5.200
 7987TIP3    H223847   5.655   2.002   5.307
 7988TIP3   OH223848   4.296   1.594   5.479
 7988TIP3    H123849   4.236   1.631   5.412
 7988TIP3    H223850   4.245   1.612   5.560
 7989TIP3   OH223851   4.643   2.445   4.491
 7989TIP3    H123852   4.603   2.423   4.406
 7989TIP3    H223853   4.600   2.531   4.511
 7990TIP3   OH223854   4.401   2.370   5.276
 7990TIP3    H123855   4.337   2.434   5.315
 7990TIP3    H223856   4.442   2.424   5.206
 7991TIP3   OH223857   5.204   1.704   4.838
 7991TIP3    H123858   5.196   1.654   4.921
 7991TIP3    H223859   5.261   1.779   4.865
 7992TIP3   OH223860   4.167   1.710   5.264
 7992TIP3    H123861   4.228   1.783   5.286
 7992TIP3    H223862   4.216   1.669   5.189
 7993TIP3   OH223863   4.228   2.562   5.371
 7993TIP3    H123864   4.203   2.649   5.333
 7993TIP3    H223865   4.150   2.548   5.429
 7994TIP3   OH223866   3.629   2.254   4.608
 7994TIP3    H123867   3.583   2.280   4.527
 7994TIP3    H223868   3.657   2.340   4.645
 7995TIP3   OH223869   5.062   2.760   4.853
 7995TIP3    H123870   4.970   2.762   4.889
 7995TIP3    H223871   5.065   2.846   4.808
 7996TIP3   OH223872   5.355   1.671   5.210
 7996TIP3    H123873   5.267   1.701   5.181
 7996TIP3    H223874   5.414   1.703   5.139
 7997TIP3   OH223875   4.653   1.315   5.192
 7997TIP3    H123876   4.642   1.220   5.210
 7997TIP3    H223877   4.575   1.352   5.239
 7998TIP3   OH223878   4.769   2.817   4.525
 7998TIP3    H123879   4.818   2.735   4.500
 7998TIP3    H223880   4.827   2.883   4.482
 7999TIP3   OH223881   4.907   2.603   4.425
 7999TIP3    H123882   4.876   2.522   4.382
 7999TIP3    H223883   4.945   2.568   4.508
 8000TIP3   OH223884   4.584   2.079   4.449
 8000TIP3    H123885   4.503   2.128   4.426
 8000TIP3    H223886   4.629   2.073   4.363
 8001TIP3   OH223887   4.541   1.861   4.167
 8001TIP3    H123888   4.611   1.910   4.214
 8001TIP3    H223889   4.597   1.796   4.119
 8002TIP3   OH223890   5.462   2.327   5.023
 8002TIP3    H123891   5.437   2.419   5.019
 8002TIP3    H223892   5.510   2.321   4.938
 8003TIP3   OH223893   4.928   2.159   4.422
 8003TIP3    H123894   4.875   2.185   4.501
 8003TIP3    H223895   5.012   2.132   4.465
 8004TIP3   OH223896   5.165   2.219   5.308
 8004TIP3    H123897   5.164   2.285   5.381
 8004TIP3    H223898   5.069   2.207   5.291
 8005TIP3   OH223899   4.162   2.157   4.837
 8005TIP3    H123900   4.120   2.099   4.769
 8005TIP3    H223901   4.239   2.103   4.864
 8006TIP3   OH223902   4.290   2.570   4.985
 8006TIP3    H123903   4.269   2.525   4.902
 8006TIP3    H223904   4.380   2.536   5.004
 8007TIP3   OH223905   4.301   2.127   5.192
 8007TIP3    H123906   4.332   2.109   5.101
 8007TIP3    H223907   4.342   2.214   5.212
 8008TIP3   OH223908   4.819   2.765   4.970
 8008TIP3    H123909   4.810   2.851   5.016
 8008TIP3    H223910   4.816   2.701   5.043
 8009TIP3   OH223911   4.435   2.685   5.513
 8009TIP3    H123912   4.377   2.748   5.562
 8009TIP3    H223913   4.367   2.632   5.466
 8010TIP3   OH223914   4.771   2.017   4.247
 8010TIP3    H123915   4.830   2.075   4.299
 8010TIP3    H223916   4.796   2.041   4.154
 8011TIP3   OH223917   4.190   2.243   5.615
 8011TIP3    H123918   4.195   2.329   5.661
 8011TIP3    H223919   4.094   2.224   5.624
 8012TIP3   OH223920   4.514   2.697   4.523
 8012TIP3    H123921   4.591   2.753   4.541
 8012TIP3    H223922   4.452   2.760   4.484
 8013TIP3   OH223923   4.230   2.854   5.602
 8013TIP3    H123924   4.195   2.850   5.511
 8013TIP3    H223925   4.151   2.833   5.656
 8014TIP3   OH223926   5.287   1.259   4.295
 8014TIP3    H123927   5.205   1.279   4.346
 8014TIP3    H223928   5.299   1.341   4.244
 8015TIP3   OH223929   4.028   2.000   4.643
 8015TIP3    H123930   3.963   2.045   4.585
 8015TIP3    H223931   3.986   1.914   4.656
 8016TIP3   OH223932   5.085   2.626   3.844
 8016TIP3    H123933   5.093   2.723   3.829
 8016TIP3    H223934   5.177   2.596   3.830
 8017TIP3   OH223935   3.809   2.384   5.549
 8017TIP3    H123936   3.746   2.361   5.479
 8017TIP3    H223937   3.847   2.297   5.574
 8018TIP3   OH223938   3.664   2.575   5.184
 8018TIP3    H123939   3.759   2.570   5.172
 8018TIP3    H223940   3.655   2.656   5.237
 8019TIP3   OH223941   5.538   3.030   5.233
 8019TIP3    H123942   5.535   2.935   5.255
 8019TIP3    H223943   5.452   3.059   5.273
 8020TIP3   OH223944   4.635   2.814   5.372
 8020TIP3    H123945   4.635   2.906   5.405
 8020TIP3    H223946   4.564   2.774   5.428
 8021TIP3   OH223947   4.393   2.943   4.324
 8021TIP3    H123948   4.348   2.923   4.240
 8021TIP3    H223949   4.361   3.033   4.345
 8022TIP3   OH223950   3.832   2.793   4.707
 8022TIP3    H123951   3.880   2.783   4.792
 8022TIP3    H223952   3.775   2.714   4.709
 8023TIP3   OH223953   4.596   2.844   3.965
 8023TIP3    H123954   4.655   2.774   3.928
 8023TIP3    H223955   4.631   2.852   4.056
 8024TIP3   OH223956   4.646   2.892   4.235
 8024TIP3    H123957   4.558   2.901   4.278
 8024TIP3    H223958   4.697   2.851   4.306
 8025TIP3   OH223959   5.421   2.158   5.514
 8025TIP3    H123960   5.339   2.168   5.464
 8025TIP3    H223961   5.437   2.061   5.507
 8026TIP3   OH223962   4.015   2.566   5.539
 8026TIP3    H123963   4.065   2.550   5.622
 8026TIP3    H223964   3.941   2.503   5.547
 8027TIP3   OH223965   4.414   1.390   5.321
 8027TIP3    H123966   4.324   1.360   5.296
 8027TIP3    H223967   4.390   1.473   5.367
 8028TIP3   OH223968   4.947   1.505   5.515
 8028TIP3    H123969   5.015   1.480   5.580
 8028TIP3    H223970   4.863   1.485   5.562
 8029TIP3   OH223971   5.190   1.939   5.437
 8029TIP3    H123972   5.143   1.927   5.523
 8029TIP3    H223973   5.147   2.019   5.402
 8030TIP3   OH223974   4.847   2.067   3.991
 8030TIP3    H123975   4.814   2.039   3.904
 8030TIP3    H223976   4.928   2.113   3.966
 8031TIP3   OH223977   4.559   1.440   4.292
 8031TIP3    H123978   4.527   1.438   4.384
 8031TIP3    H223979   4.521   1.356   4.259
 8032TIP3   OH223980   4.345   1.904   5.340
 8032TIP3    H123981   4.297   1.926   5.422
 8032TIP3    H223982   4.330   1.985   5.287
 8033TIP3   OH223983   4.229   1.792   4.854
 8033TIP3    H123984   4.136   1.766   4.871
 8033TIP3    H223985   4.243   1.751   4.766
 8034TIP3   OH223986   4.721   1.879   4.582
 8034TIP3    H123987   4.667   1.949   4.540
 8034TIP3    H223988   4.775   1.848   4.507
 8035TIP3   OH223989   4.891   2.151   5.660
 8035TIP3    H123990   4.875   2.081   5.728
 8035TIP3    H223991   4.978   2.184   5.688
 8036TIP3   OH223992   4.880   1.910   4.819
 8036TIP3    H123993   4.819   1.935   4.747
 8036TIP3    H223994   4.913   1.826   4.780
 8037TIP3   OH223995   4.163   1.935   5.550
 8037TIP3    H123996   4.195   1.997   5.617
 8037TIP3    H223997   4.154   1.853   5.602
 8038TIP3   OH223998   4.215   1.412   4.259
 8038TIP3    H123999   4.207   1.409   4.356
 8038TIP3    H224000   4.135   1.463   4.235
 8039TIP3   OH224001   3.760   1.453   5.132
 8039TIP3    H124002   3.835   1.488   5.185
 8039TIP3    H224003   3.800   1.427   5.049
 8040TIP3   OH224004   3.733   1.436   4.648
 8040TIP3    H124005   3.778   1.476   4.570
 8040TIP3    H224006   3.673   1.510   4.672
 8041TIP3   OH224007   4.899   2.157   5.249
 8041TIP3    H124008   4.926   2.083   5.190
 8041TIP3    H224009   4.864   2.105   5.325
 8042TIP3   OH224010   4.556   1.617   4.917
 8042TIP3    H124011   4.474   1.613   4.969
 8042TIP3    H224012   4.624   1.611   4.986
 8043TIP3   OH224013   3.991   1.670   4.924
 8043TIP3    H124014   3.897   1.678   4.897
 8043TIP3    H224015   4.014   1.578   4.899
 8044TIP3   OH224016   4.262   1.666   4.612
 8044TIP3    H124017   4.356   1.681   4.591
 8044TIP3    H224018   4.215   1.690   4.529
 8045TIP3   OH224019   5.048   1.692   5.116
 8045TIP3    H124020   5.015   1.701   5.209
 8045TIP3    H224021   4.984   1.628   5.080
 8046TIP3   OH224022   4.100   1.699   4.391
 8046TIP3    H124023   4.028   1.655   4.343
 8046TIP3    H224024   4.152   1.735   4.316
 8047TIP3   OH224025   5.214   3.384   5.341
 8047TIP3    H124026   5.216   3.396   5.245
 8047TIP3    H224027   5.297   3.426   5.369
 8048TIP3   OH224028   4.176   2.488   5.759
 8048TIP3    H124029   4.256   2.518   5.806
 8048TIP3    H224030   4.112   2.489   5.833
 8049TIP3   OH224031   4.642   1.945   5.017
 8049TIP3    H124032   4.710   1.900   4.965
 8049TIP3    H224033   4.648   1.900   5.103
 8050TIP3   OH224034   4.164   1.430   4.891
 8050TIP3    H124035   4.131   1.349   4.936
 8050TIP3    H224036   4.216   1.393   4.818
 8051TIP3   OH224037   4.617   1.839   5.301
 8051TIP3    H124038   4.527   1.874   5.317
 8051TIP3    H224039   4.674   1.898   5.354
 8052TIP3   OH224040   4.353   2.230   4.398
 8052TIP3    H124041   4.281   2.164   4.387
 8052TIP3    H224042   4.336   2.263   4.489
 8053TIP3   OH224043   4.812   1.541   4.261
 8053TIP3    H124044   4.715   1.526   4.267
 8053TIP3    H224045   4.821   1.637   4.282
 8054TIP3   OH224046   4.754   2.542   5.391
 8054TIP3    H124047   4.786   2.521   5.480
 8054TIP3    H224048   4.720   2.633   5.403
 8055TIP3   OH224049   4.881   1.789   4.364
 8055TIP3    H124050   4.978   1.794   4.377
 8055TIP3    H224051   4.863   1.867   4.308
 8056TIP3   OH224052   4.047   2.253   5.075
 8056TIP3    H124053   4.084   2.223   4.990
 8056TIP3    H224054   4.082   2.187   5.136
 8057TIP3   OH224055   4.499   2.379   4.219
 8057TIP3    H124056   4.452   2.465   4.226
 8057TIP3    H224057   4.444   2.323   4.278
 8058TIP3   OH224058   3.925   2.174   5.688
 8058TIP3    H124059   3.950   2.160   5.781
 8058TIP3    H224060   3.858   2.104   5.675
 8059TIP3   OH224061   4.653   2.286   5.708
 8059TIP3    H124062   4.598   2.225   5.656
 8059TIP3    H224063   4.742   2.258   5.680
 8060TIP3   OH224064   4.915   2.827   5.276
 8060TIP3    H124065   4.827   2.819   5.317
 8060TIP3    H224066   4.972   2.831   5.357
 8061TIP3   OH224067   5.324   1.878   4.200
 8061TIP3    H124068   5.261   1.833   4.138
 8061TIP3    H224069   5.321   1.967   4.157
 8062TIP3   OH224070   5.532   2.732   5.283
 8062TIP3    H124071   5.438   2.755   5.280
 8062TIP3    H224072   5.553   2.708   5.190
 8063TIP3   OH224073   5.022   2.698   4.107
 8063TIP3    H124074   4.999   2.626   4.167
 8063TIP3    H224075   5.036   2.652   4.022
 8064TIP3   OH224076   5.029   2.322   4.975
 8064TIP3    H124077   4.935   2.293   4.975
 8064TIP3    H224078   5.065   2.249   4.920
 8065TIP3   OH224079   4.145   2.553   4.698
 8065TIP3    H124080   4.147   2.635   4.645
 8065TIP3    H224081   4.050   2.539   4.707
 8066TIP3   OH224082   3.705   1.861   4.394
 8066TIP3    H124083   3.754   1.942   4.417
 8066TIP3    H224084   3.631   1.865   4.459
 8067TIP3   OH224085   4.288   2.322   4.645
 8067TIP3    H124086   4.251   2.411   4.661
 8067TIP3    H224087   4.248   2.271   4.719
 8068TIP3   OH224088   4.416   2.898   5.168
 8068TIP3    H124089   4.456   2.971   5.118
 8068TIP3    H224090   4.492   2.866   5.219
 8069TIP3   OH224091   4.066   2.794   4.552
 8069TIP3    H124092   3.980   2.801   4.597
 8069TIP3    H224093   4.097   2.887   4.555
 8070TIP3   OH224094   4.839   2.522   5.132
 8070TIP3    H124095   4.808   2.542   5.223
 8070TIP3    H224096   4.825   2.426   5.128
 8071TIP3   OH224097   4.777   2.425   4.010
 8071TIP3    H124098   4.830   2.401   4.089
 8071TIP3    H224099   4.689   2.398   4.039
 8072TIP3   OH224100   5.044   3.074   5.184
 8072TIP3    H124101   4.975   3.005   5.181
 8072TIP3    H224102   5.027   3.127   5.104
 8073TIP3   OH224103   5.118   2.901   3.829
 8073TIP3    H124104   5.157   2.973   3.776
 8073TIP3    H224105   5.038   2.948   3.862
 8074TIP3   OH224106   4.140   1.677   5.696
 8074TIP3    H124107   4.044   1.680   5.711
 8074TIP3    H224108   4.169   1.618   5.768
 8075TIP3   OH224109   4.937   2.362   4.229
 8075TIP3    H124110   4.928   2.293   4.297
 8075TIP3    H224111   5.034   2.359   4.214
 8076TIP3   OH224112   3.854   2.763   5.328
 8076TIP3    H124113   3.906   2.687   5.358
 8076TIP3    H224114   3.883   2.831   5.390
 8077TIP3   OH224115   4.144   2.407   4.008
 8077TIP3    H124116   4.159   2.315   3.978
 8077TIP3    H224117   4.126   2.394   4.103
 8078TIP3   OH224118   4.090   2.411   4.281
 8078TIP3    H124119   4.161   2.384   4.341
 8078TIP3    H224120   4.095   2.509   4.288
 8079TIP3   OH224121   3.827   2.104   4.483
 8079TIP3    H124122   3.761   2.148   4.541
 8079TIP3    H224123   3.841   2.174   4.417
 8080TIP3   OH224124   4.975   1.740   5.376
 8080TIP3    H124125   5.051   1.777   5.423
 8080TIP3    H224126   4.957   1.659   5.428
 8081TIP3   OH224127   4.853   1.494   4.540
 8081TIP3    H124128   4.839   1.517   4.446
 8081TIP3    H224129   4.893   1.576   4.575
 8082TIP3   OH224130   4.355   2.609   4.231
 8082TIP3    H124131   4.269   2.638   4.265
 8082TIP3    H224132   4.373   2.679   4.166
 8083TIP3   OH224133   4.545   1.672   4.643
 8083TIP3    H124134   4.610   1.743   4.625
 8083TIP3    H224135   4.549   1.665   4.741
 8084TIP3   OH224136   4.814   1.992   5.448
 8084TIP3    H124137   4.832   2.047   5.528
 8084TIP3    H224138   4.866   1.912   5.468
 8085TIP3   OH224139   4.690   1.401   4.747
 8085TIP3    H124140   4.683   1.478   4.807
 8085TIP3    H224141   4.749   1.437   4.677
 8086TIP3   OH224142   4.098   2.684   4.297
 8086TIP3    H124143   4.068   2.754   4.234
 8086TIP3    H224144   4.082   2.728   4.383
 8087TIP3   OH224145   4.199   1.396   4.536
 8087TIP3    H124146   4.197   1.487   4.571
 8087TIP3    H224147   4.296   1.378   4.544
 8088TIP3   OH224148   5.455   1.890   5.430
 8088TIP3    H124149   5.357   1.891   5.439
 8088TIP3    H224150   5.464   1.847   5.344
 8089TIP3   OH224151   5.103   2.095   4.828
 8089TIP3    H124152   5.029   2.031   4.832
 8089TIP3    H224153   5.176   2.043   4.869
 8090TIP3   OH224154   3.817   2.316   4.291
 8090TIP3    H124155   3.882   2.388   4.299
 8090TIP3    H224156   3.863   2.262   4.223
 8091TIP3   OH224157   3.763   1.591   4.422
 8091TIP3    H124158   3.761   1.688   4.417
 8091TIP3    H224159   3.675   1.568   4.391
 8092TIP3   OH224160   5.074   3.035   4.768
 8092TIP3    H124161   5.031   3.084   4.694
 8092TIP3    H224162   5.167   3.058   4.750
 8093TIP3   OH224163   4.149   1.310   5.298
 8093TIP3    H124164   4.118   1.277   5.211
 8093TIP3    H224165   4.138   1.231   5.355
 8094TIP3   OH224166   3.691   2.533   4.680
 8094TIP3    H124167   3.616   2.560   4.734
 8094TIP3    H224168   3.666   2.570   4.593
 8095TIP3   OH224169   3.844   3.069   5.749
 8095TIP3    H124170   3.930   3.069   5.796
 8095TIP3    H224171   3.825   2.974   5.748
 8096TIP3   OH224172   4.327   3.038   5.791
 8096TIP3    H124173   4.420   3.017   5.804
 8096TIP3    H224174   4.304   2.978   5.717
 8097TIP3   OH224175   4.308   2.611   3.923
 8097TIP3    H124176   4.252   2.539   3.961
 8097TIP3    H224177   4.383   2.559   3.889
 8098TIP3   OH224178   4.744   2.652   3.833
 8098TIP3    H124179   4.790   2.589   3.890
 8098TIP3    H224180   4.800   2.653   3.753
 8099TIP3   OH224181   3.975   2.476   5.949
 8099TIP3    H124182   3.993   2.380   5.954
 8099TIP3    H224183   3.887   2.477   5.906
 8100TIP3   OH224184   3.952   2.128   4.141
 8100TIP3    H124185   4.006   2.094   4.214
 8100TIP3    H224186   4.019   2.132   4.070
 8101TIP3   OH224187   4.581   2.560   5.723
 8101TIP3    H124188   4.543   2.574   5.634
 8101TIP3    H224189   4.617   2.469   5.717
 8102TIP3   OH224190   4.460   2.325   3.949
 8102TIP3    H124191   4.463   2.338   4.046
 8102TIP3    H224192   4.460   2.227   3.945
 8103TIP3   OH224193   4.093   2.205   5.931
 8103TIP3    H124194   4.171   2.153   5.911
 8103TIP3    H224195   4.117   2.241   6.019
 8104TIP3   OH224196   4.162   2.030   4.365
 8104TIP3    H124197   4.134   1.988   4.448
 8104TIP3    H224198   4.196   1.954   4.314
 8105TIP3   OH224199   4.426   2.091   5.591
 8105TIP3    H124200   4.352   2.155   5.597
 8105TIP3    H224201   4.476   2.126   5.514
 8106TIP3   OH224202   4.261   1.823   4.206
 8106TIP3    H124203   4.234   1.824   4.112
 8106TIP3    H224204   4.358   1.830   4.197
 8107TIP3   OH224205   4.948   2.464   5.700
 8107TIP3    H124206   4.997   2.546   5.711
 8107TIP3    H224207   4.947   2.427   5.790
 8108TIP3   OH224208   5.083   2.156   3.868
 8108TIP3    H124209   5.063   2.108   3.785
 8108TIP3    H224210   5.052   2.246   3.842
 8109TIP3   OH224211   4.551   1.882   5.721
 8109TIP3    H124212   4.553   1.802   5.665
 8109TIP3    H224213   4.508   1.948   5.662
 8110TIP3   OH224214   4.555   1.669   5.524
 8110TIP3    H124215   4.582   1.709   5.439
 8110TIP3    H224216   4.461   1.646   5.507
 8111TIP3   OH224217   4.580   2.203   5.399
 8111TIP3    H124218   4.663   2.212   5.352
 8111TIP3    H224219   4.524   2.273   5.358
 8112TIP3   OH224220   5.164   2.173   5.783
 8112TIP3    H124221   5.216   2.093   5.799
 8112TIP3    H224222   5.232   2.237   5.759
 8113TIP3   OH224223   5.200   2.423   5.488
 8113TIP3    H124224   5.151   2.506   5.499
 8113TIP3    H224225   5.288   2.452   5.456
 8114TIP3   OH224226   4.426   1.998   5.947
 8114TIP3    H124227   4.359   1.928   5.962
 8114TIP3    H224228   4.465   1.970   5.862
 8115TIP3   OH224229   4.687   1.433   5.591
 8115TIP3    H124230   4.639   1.516   5.570
 8115TIP3    H224231   4.617   1.366   5.580
 8116TIP3   OH224232   4.815   1.937   5.809
 8116TIP3    H124233   4.808   1.928   5.906
 8116TIP3    H224234   4.724   1.912   5.784
 8117TIP3   OH224235   5.052   1.877   5.660
 8117TIP3    H124236   4.977   1.887   5.722
 8117TIP3    H224237   5.125   1.853   5.720
 8118TIP3   OH224238   5.280   1.825   5.813
 8118TIP3    H124239   5.293   1.731   5.835
 8118TIP3    H224240   5.275   1.868   5.902
 8119TIP3   OH224241   4.268   1.776   6.001
 8119TIP3    H124242   4.279   1.686   5.967
 8119TIP3    H224243   4.305   1.765   6.092
 8120TIP3   OH224244   4.782   1.443   5.849
 8120TIP3    H124245   4.850   1.373   5.845
 8120TIP3    H224246   4.743   1.436   5.760
 8121TIP3   OH224247   4.846   1.657   6.009
 8121TIP3    H124248   4.824   1.587   5.945
 8121TIP3    H224249   4.769   1.717   6.002
 8122TIP3   OH224250   4.068   2.887   4.109
 8122TIP3    H124251   4.164   2.883   4.090
 8122TIP3    H224252   4.037   2.935   4.030
 8123TIP3   OH224253   3.548   2.269   4.324
 8123TIP3    H124254   3.643   2.291   4.313
 8123TIP3    H224255   3.544   2.180   4.283
 8124TIP3   OH224256   3.462   2.880   4.737
 8124TIP3    H124257   3.394   2.818   4.704
 8124TIP3    H224258   3.506   2.824   4.805
 8125TIP3   OH224259   3.598   2.735   4.926
 8125TIP3    H124260   3.586   2.659   4.986
 8125TIP3    H224261   3.649   2.795   4.983
 8126TIP3   OH224262   5.323   3.134   4.724
 8126TIP3    H124263   5.351   3.161   4.813
 8126TIP3    H224264   5.389   3.178   4.668
 8127TIP3   OH224265   5.359   3.155   5.002
 8127TIP3    H124266   5.312   3.068   5.004
 8127TIP3    H224267   5.427   3.136   5.068
 8128TIP3   OH224268   5.403   2.825   5.574
 8128TIP3    H124269   5.306   2.838   5.571
 8128TIP3    H224270   5.434   2.917   5.589
 8129TIP3   OH224271   5.217   2.344   4.201
 8129TIP3    H124272   5.286   2.407   4.172
 8129TIP3    H224273   5.260   2.303   4.279
 8130TIP3   OH224274   5.344   2.211   4.404
 8130TIP3    H124275   5.280   2.168   4.464
 8130TIP3    H224276   5.411   2.247   4.465
 8131TIP3   OH224277   5.399   2.590   4.854
 8131TIP3    H124278   5.447   2.531   4.794
 8131TIP3    H224279   5.383   2.667   4.797
 8132TIP3   OH224280   5.236   2.909   5.034
 8132TIP3    H124281   5.170   2.939   5.098
 8132TIP3    H224282   5.184   2.853   4.974
 8133TIP3   OH224283   5.283   2.118   4.052
 8133TIP3    H124284   5.212   2.120   3.985
 8133TIP3    H224285   5.257   2.195   4.107
 8134TIP3   OH224286   5.153   1.792   4.008
 8134TIP3    H124287   5.115   1.830   3.928
 8134TIP3    H224288   5.128   1.697   3.997
 8135TIP3   OH224289   5.158   2.066   4.553
 8135TIP3    H124290   5.168   1.969   4.547
 8135TIP3    H224291   5.147   2.080   4.650
 8136TIP3   OH224292   3.786   2.139   5.300
 8136TIP3    H124293   3.784   2.109   5.206
 8136TIP3    H224294   3.884   2.141   5.315
 8137TIP3   OH224295   5.442   2.493   5.390
 8137TIP3    H124296   5.514   2.425   5.392
 8137TIP3    H224297   5.488   2.570   5.352
 8138TIP3   OH224298   5.629   2.301   5.423
 8138TIP3    H124299   5.558   2.248   5.466
 8138TIP3    H224300   5.706   2.241   5.438
 8139TIP3   OH224301   5.098   1.526   3.995
 8139TIP3    H124302   5.173   1.493   4.048
 8139TIP3    H224303   5.025   1.465   4.018
 8140TIP3   OH224304   5.156   1.783   4.447
 8140TIP3    H124305   5.197   1.694   4.462
 8140TIP3    H224306   5.214   1.815   4.376
 8141TIP3   OH224307   5.317   1.959   4.938
 8141TIP3    H124308   5.404   1.986   4.898
 8141TIP3    H224309   5.332   1.991   5.029
 8142TIP3   OH224310   5.387   2.102   5.171
 8142TIP3    H124311   5.309   2.136   5.220
 8142TIP3    H224312   5.415   2.182   5.122
 8143TIP3   OH224313   4.001   1.826   5.968
 8143TIP3    H124314   4.099   1.822   5.972
 8143TIP3    H224315   3.979   1.742   6.012
 8144TIP3   OH224316   5.836   1.688   5.729
 8144TIP3    H124317   5.895   1.624   5.685
 8144TIP3    H224318   5.810   1.747   5.655
 8145TIP3   OH224319   5.263   1.532   4.485
 8145TIP3    H124320   5.312   1.515   4.568
 8145TIP3    H224321   5.204   1.455   4.482
 8146TIP3   OH224322   3.965   1.519   5.306
 8146TIP3    H124323   4.028   1.444   5.315
 8146TIP3    H224324   4.026   1.594   5.299
 8147TIP3   OH224325   3.768   1.792   5.379
 8147TIP3    H124326   3.815   1.783   5.293
 8147TIP3    H224327   3.797   1.880   5.405
 8148TIP3   OH224328   5.711   1.833   5.536
 8148TIP3    H124329   5.626   1.872   5.564
 8148TIP3    H224330   5.680   1.762   5.478
 8149TIP3   OH224331   5.347   1.467   4.117
 8149TIP3    H124332   5.386   1.395   4.063
 8149TIP3    H224333   5.413   1.538   4.108
 8150TIP3   OH224334   3.750   1.293   4.875
 8150TIP3    H124335   3.657   1.295   4.904
 8150TIP3    H224336   3.748   1.353   4.798
 8151TIP3   OH224337   4.908   2.999   4.383
 8151TIP3    H124338   4.960   2.983   4.301
 8151TIP3    H224339   4.964   3.064   4.429
 8152TIP3   OH224340   3.970   1.375   5.692
 8152TIP3    H124341   3.921   1.371   5.775
 8152TIP3    H224342   3.903   1.414   5.632
 8153TIP3   OH224343   4.010   2.802   5.769
 8153TIP3    H124344   3.918   2.775   5.754
 8153TIP3    H224345   4.022   2.785   5.863
 8154TIP3   OH224346   4.188   2.833   5.316
 8154TIP3    H124347   4.140   2.909   5.278
 8154TIP3    H224348   4.274   2.847   5.272
 8155TIP3   OH224349   4.636   3.081   5.455
 8155TIP3    H124350   4.680   3.077   5.543
 8155TIP3    H224351   4.702   3.130   5.403
 8156TIP3   OH224352   4.816   3.230   5.310
 8156TIP3    H124353   4.889   3.177   5.273
 8156TIP3    H224354   4.866   3.287   5.372
 8157TIP3   OH224355   5.608   1.595   5.412
 8157TIP3    H124356   5.515   1.588   5.382
 8157TIP3    H224357   5.638   1.502   5.400
 8158TIP3   OH224358   3.866   3.093   5.339
 8158TIP3    H124359   3.777   3.127   5.316
 8158TIP3    H224360   3.875   3.126   5.429
 8159TIP3   OH224361   4.102   3.071   5.197
 8159TIP3    H124362   4.016   3.084   5.243
 8159TIP3    H224363   4.081   3.104   5.107
 8160TIP3   OH224364   4.526   3.102   4.995
 8160TIP3    H124365   4.457   3.123   4.930
 8160TIP3    H224366   4.540   3.188   5.038
 8161TIP3   OH224367   4.793   3.037   5.035
 8161TIP3    H124368   4.699   3.058   5.022
 8161TIP3    H224369   4.837   3.118   5.005
 8162TIP3   OH224370   5.002   3.232   4.960
 8162TIP3    H124371   4.990   3.317   4.912
 8162TIP3    H224372   5.029   3.172   4.888
 8163TIP3   OH224373   3.777   2.887   5.085
 8163TIP3    H124374   3.804   2.861   5.176
 8163TIP3    H224375   3.849   2.843   5.034
 8164TIP3   OH224376   3.970   2.758   4.941
 8164TIP3    H124377   3.985   2.673   4.989
 8164TIP3    H224378   4.061   2.795   4.937
 8165TIP3   OH224379   4.236   2.854   4.944
 8165TIP3    H124380   4.267   2.762   4.932
 8165TIP3    H224381   4.280   2.875   5.028
 8166TIP3   OH224382   4.810   1.509   5.030
 8166TIP3    H124383   4.768   1.439   5.084
 8166TIP3    H224384   4.883   1.460   4.986
 8167TIP3   OH224385   5.337   1.390   4.938
 8167TIP3    H124386   5.373   1.441   4.863
 8167TIP3    H224387   5.241   1.407   4.931
 8168TIP3   OH224388   5.431   1.490   4.701
 8168TIP3    H124389   5.504   1.438   4.660
 8168TIP3    H224390   5.464   1.581   4.686
 8169TIP3   OH224391   4.061   1.218   5.049
 8169TIP3    H124392   3.969   1.185   5.048
 8169TIP3    H224393   4.111   1.133   5.046
 8170TIP3   OH224394   3.845   1.087   4.696
 8170TIP3    H124395   3.877   1.144   4.624
 8170TIP3    H224396   3.817   1.153   4.762
 8171TIP3   OH224397   4.503   1.251   4.929
 8171TIP3    H124398   4.563   1.300   4.870
 8171TIP3    H224399   4.527   1.287   5.015
 8172TIP3   OH224400   5.054   1.397   4.913
 8172TIP3    H124401   5.049   1.361   4.824
 8172TIP3    H224402   5.039   1.315   4.968
 8173TIP3   OH224403   5.082   1.318   4.475
 8173TIP3    H124404   4.994   1.360   4.484
 8173TIP3    H224405   5.067   1.233   4.522
 8174TIP3   OH224406   3.567   2.656   4.475
 8174TIP3    H124407   3.482   2.622   4.441
 8174TIP3    H224408   3.552   2.751   4.463
 8175TIP3   OH224409   3.963   1.246   4.460
 8175TIP3    H124410   4.012   1.185   4.402
 8175TIP3    H224411   4.036   1.301   4.496
 8176TIP3   OH224412   4.477   1.421   4.558
 8176TIP3    H124413   4.537   1.375   4.619
 8176TIP3    H224414   4.498   1.514   4.583
 8177TIP3   OH224415   4.336   2.848   4.058
 8177TIP3    H124416   4.425   2.870   4.022
 8177TIP3    H224417   4.314   2.772   3.999
 8178TIP3   OH224418   5.054   2.965   4.151
 8178TIP3    H124419   5.046   2.867   4.137
 8178TIP3    H224420   5.011   2.998   4.070
 8179TIP3   OH224421   4.269   1.497   5.938
 8179TIP3    H124422   4.237   1.427   5.998
 8179TIP3    H224423   4.363   1.499   5.964
 8180TIP3   OH224424   4.516   1.495   6.057
 8180TIP3    H124425   4.603   1.471   6.020
 8180TIP3    H224426   4.505   1.425   6.125
 8181TIP3   OH224427   3.641   2.685   4.116
 8181TIP3    H124428   3.640   2.707   4.210
 8181TIP3    H224429   3.729   2.643   4.104
 8182TIP3   OH224430   5.342   1.555   5.847
 8182TIP3    H124431   5.361   1.526   5.938
 8182TIP3    H224432   5.430   1.552   5.805
 8183TIP3   OH224433   5.296   3.114   5.316
 8183TIP3    H124434   5.211   3.068   5.307
 8183TIP3    H224435   5.265   3.201   5.347
 8184TIP3   OH224436   6.548   2.481   4.106
 8184TIP3    H124437   6.520   2.572   4.086
 8184TIP3    H224438   6.471   2.432   4.071
 8185TIP3   OH224439   6.545   2.482   4.486
 8185TIP3    H124440   6.577   2.452   4.573
 8185TIP3    H224441   6.505   2.401   4.450
 8186TIP3   OH224442   5.847   2.378   4.855
 8186TIP3    H124443   5.880   2.312   4.918
 8186TIP3    H224444   5.926   2.432   4.841
 8187TIP3   OH224445   6.789   2.783   4.167
 8187TIP3    H124446   6.778   2.713   4.233
 8187TIP3    H224447   6.819   2.858   4.221
 8188TIP3   OH224448   5.817   2.785   4.577
 8188TIP3    H124449   5.809   2.687   4.579
 8188TIP3    H224450   5.914   2.794   4.571
 8189TIP3   OH224451   5.523   1.990   4.363
 8189TIP3    H124452   5.475   2.074   4.374
 8189TIP3    H224453   5.454   1.935   4.323
 8190TIP3   OH224454   5.583   2.276   4.531
 8190TIP3    H124455   5.633   2.200   4.569
 8190TIP3    H224456   5.643   2.307   4.462
 8191TIP3   OH224457   6.438   3.245   4.183
 8191TIP3    H124458   6.485   3.174   4.134
 8191TIP3    H224459   6.435   3.208   4.272
 8192TIP3   OH224460   6.346   2.707   4.534
 8192TIP3    H124461   6.384   2.630   4.488
 8192TIP3    H224462   6.429   2.752   4.558
 8193TIP3   OH224463   7.357   2.028   4.530
 8193TIP3    H124464   7.387   2.110   4.575
 8193TIP3    H224465   7.381   2.047   4.438
 8194TIP3   OH224466   6.756   2.209   4.568
 8194TIP3    H124467   6.800   2.124   4.588
 8194TIP3    H224468   6.727   2.194   4.476
 8195TIP3   OH224469   6.094   1.868   4.533
 8195TIP3    H124470   6.075   1.941   4.470
 8195TIP3    H224471   6.047   1.795   4.488
 8196TIP3   OH224472   6.789   1.959   4.155
 8196TIP3    H124473   6.862   1.944   4.220
 8196TIP3    H224474   6.840   1.994   4.080
 8197TIP3   OH224475   5.729   2.070   4.639
 8197TIP3    H124476   5.813   2.050   4.685
 8197TIP3    H224477   5.741   2.015   4.559
 8198TIP3   OH224478   6.170   2.268   4.432
 8198TIP3    H124479   6.264   2.243   4.445
 8198TIP3    H224480   6.131   2.184   4.400
 8199TIP3   OH224481   7.431   2.234   4.701
 8199TIP3    H124482   7.348   2.282   4.683
 8199TIP3    H224483   7.447   2.259   4.793
 8200TIP3   OH224484   6.092   1.850   4.966
 8200TIP3    H124485   6.032   1.888   4.898
 8200TIP3    H224486   6.041   1.869   5.047
 8201TIP3   OH224487   6.439   2.701   3.976
 8201TIP3    H124488   6.399   2.680   3.891
 8201TIP3    H224489   6.396   2.786   3.998
 8202TIP3   OH224490   6.198   2.626   4.762
 8202TIP3    H124491   6.135   2.692   4.799
 8202TIP3    H224492   6.242   2.678   4.691
 8203TIP3   OH224493   7.000   1.961   4.326
 8203TIP3    H124494   6.995   1.911   4.408
 8203TIP3    H224495   7.056   2.037   4.351
 8204TIP3   OH224496   5.962   1.967   4.751
 8204TIP3    H124497   6.024   2.040   4.773
 8204TIP3    H224498   6.011   1.926   4.676
 8205TIP3   OH224499   6.025   2.819   4.858
 8205TIP3    H124500   6.000   2.906   4.819
 8205TIP3    H224501   5.947   2.805   4.916
 8206TIP3   OH224502   5.422   2.510   4.096
 8206TIP3    H124503   5.382   2.535   4.011
 8206TIP3    H224504   5.452   2.596   4.131
 8207TIP3   OH224505   6.861   3.025   4.336
 8207TIP3    H124506   6.770   3.017   4.374
 8207TIP3    H224507   6.854   3.111   4.290
 8208TIP3   OH224508   7.151   1.931   4.696
 8208TIP3    H124509   7.063   1.961   4.666
 8208TIP3    H224510   7.210   1.961   4.624
 8209TIP3   OH224511   6.448   1.583   4.672
 8209TIP3    H124512   6.443   1.488   4.689
 8209TIP3    H224513   6.371   1.616   4.723
 8210TIP3   OH224514   6.563   3.074   4.009
 8210TIP3    H124515   6.613   2.991   3.988
 8210TIP3    H224516   6.622   3.139   3.967
 8211TIP3   OH224517   6.704   2.859   3.915
 8211TIP3    H124518   6.672   2.778   3.873
 8211TIP3    H224519   6.740   2.823   3.999
 8212TIP3   OH224520   7.087   2.940   4.679
 8212TIP3    H124521   7.077   2.863   4.620
 8212TIP3    H224522   7.071   3.015   4.617
 8213TIP3   OH224523   6.378   2.334   3.935
 8213TIP3    H124524   6.298   2.384   3.911
 8213TIP3    H224525   6.426   2.330   3.850
 8214TIP3   OH224526   6.337   2.117   3.655
 8214TIP3    H124527   6.407   2.167   3.701
 8214TIP3    H224528   6.393   2.053   3.606
 8215TIP3   OH224529   7.282   2.575   4.523
 8215TIP3    H124530   7.200   2.628   4.528
 8215TIP3    H224531   7.312   2.598   4.432
 8216TIP3   OH224532   6.725   2.416   3.908
 8216TIP3    H124533   6.671   2.441   3.986
 8216TIP3    H224534   6.809   2.389   3.951
 8217TIP3   OH224535   6.961   2.455   4.819
 8217TIP3    H124536   6.959   2.539   4.869
 8217TIP3    H224537   6.875   2.461   4.772
 8218TIP3   OH224538   5.958   2.414   4.325
 8218TIP3    H124539   5.916   2.356   4.257
 8218TIP3    H224540   6.035   2.361   4.353
 8219TIP3   OH224541   6.087   2.824   4.473
 8219TIP3    H124542   6.068   2.781   4.388
 8219TIP3    H224543   6.178   2.792   4.492
 8220TIP3   OH224544   6.092   2.386   4.678
 8220TIP3    H124545   6.127   2.364   4.589
 8220TIP3    H224546   6.137   2.470   4.699
 8221TIP3   OH224547   6.618   3.023   4.455
 8221TIP3    H124548   6.606   3.102   4.510
 8221TIP3    H224549   6.606   2.949   4.518
 8222TIP3   OH224550   6.232   2.942   5.001
 8222TIP3    H124551   6.173   3.004   5.049
 8222TIP3    H224552   6.165   2.888   4.954
 8223TIP3   OH224553   6.567   2.274   3.734
 8223TIP3    H124554   6.626   2.332   3.786
 8223TIP3    H224555   6.592   2.298   3.642
 8224TIP3   OH224556   5.988   2.499   5.102
 8224TIP3    H124557   5.992   2.585   5.149
 8224TIP3    H224558   5.892   2.481   5.108
 8225TIP3   OH224559   6.308   2.955   4.010
 8225TIP3    H124560   6.388   3.007   4.027
 8225TIP3    H224561   6.248   3.019   3.970
 8226TIP3   OH224562   6.027   3.111   5.089
 8226TIP3    H124563   5.991   3.107   4.998
 8226TIP3    H224564   5.948   3.089   5.143
 8227TIP3   OH224565   7.083   1.515   3.781
 8227TIP3    H124566   7.002   1.535   3.832
 8227TIP3    H224567   7.095   1.598   3.731
 8228TIP3   OH224568   5.823   2.257   4.131
 8228TIP3    H124569   5.759   2.302   4.072
 8228TIP3    H224570   5.784   2.169   4.140
 8229TIP3   OH224571   6.881   2.883   3.330
 8229TIP3    H124572   6.889   2.979   3.316
 8229TIP3    H224573   6.973   2.853   3.317
 8230TIP3   OH224574   5.603   2.641   5.040
 8230TIP3    H124575   5.547   2.619   4.963
 8230TIP3    H224576   5.646   2.555   5.062
 8231TIP3   OH224577   5.460   2.829   4.675
 8231TIP3    H124578   5.555   2.825   4.660
 8231TIP3    H224579   5.451   2.911   4.726
 8232TIP3   OH224580   7.324   3.283   4.724
 8232TIP3    H124581   7.323   3.186   4.737
 8232TIP3    H224582   7.241   3.308   4.769
 8233TIP3   OH224583   6.430   3.072   4.858
 8233TIP3    H124584   6.430   3.164   4.891
 8233TIP3    H224585   6.360   3.032   4.913
 8234TIP3   OH224586   6.188   3.199   3.811
 8234TIP3    H124587   6.145   3.179   3.726
 8234TIP3    H224588   6.158   3.289   3.831
 8235TIP3   OH224589   5.628   3.050   4.194
 8235TIP3    H124590   5.676   3.039   4.279
 8235TIP3    H224591   5.571   2.971   4.197
 8236TIP3   OH224592   6.392   3.100   3.452
 8236TIP3    H124593   6.451   3.030   3.415
 8236TIP3    H224594   6.427   3.109   3.543
 8237TIP3   OH224595   6.442   3.149   3.722
 8237TIP3    H124596   6.354   3.157   3.766
 8237TIP3    H224597   6.494   3.107   3.793
 8238TIP3   OH224598   7.215   2.416   4.999
 8238TIP3    H124599   7.135   2.429   4.946
 8238TIP3    H224600   7.230   2.320   4.988
 8239TIP3   OH224601   5.811   2.822   5.026
 8239TIP3    H124602   5.862   2.807   5.108
 8239TIP3    H224603   5.736   2.761   5.037
 8240TIP3   OH224604   6.210   1.645   4.809
 8240TIP3    H124605   6.120   1.616   4.784
 8240TIP3    H224606   6.188   1.729   4.853
 8241TIP3   OH224607   6.745   1.761   5.001
 8241TIP3    H124608   6.815   1.733   5.064
 8241TIP3    H224609   6.662   1.740   5.050
 8242TIP3   OH224610   6.983   2.190   4.920
 8242TIP3    H124611   6.935   2.187   5.006
 8242TIP3    H224612   6.959   2.278   4.886
 8243TIP3   OH224613   6.643   2.323   3.478
 8243TIP3    H124614   6.610   2.296   3.390
 8243TIP3    H224615   6.725   2.370   3.453
 8244TIP3   OH224616   6.355   1.697   3.779
 8244TIP3    H124617   6.323   1.694   3.871
 8244TIP3    H224618   6.318   1.612   3.746
 8245TIP3   OH224619   6.140   2.162   4.826
 8245TIP3    H124620   6.093   2.185   4.909
 8245TIP3    H224621   6.125   2.243   4.773
 8246TIP3   OH224622   6.026   2.048   4.341
 8246TIP3    H124623   5.933   2.022   4.358
 8246TIP3    H224624   6.040   2.008   4.253
 8247TIP3   OH224625   6.516   2.134   4.068
 8247TIP3    H124626   6.463   2.205   4.026
 8247TIP3    H224627   6.571   2.104   3.993
 8248TIP3   OH224628   6.690   2.413   5.155
 8248TIP3    H124629   6.668   2.340   5.217
 8248TIP3    H224630   6.784   2.427   5.177
 8249TIP3   OH224631   6.673   2.163   4.308
 8249TIP3    H124632   6.615   2.193   4.236
 8249TIP3    H224633   6.706   2.081   4.266
 8250TIP3   OH224634   5.959   2.192   5.038
 8250TIP3    H124635   5.994   2.253   5.104
 8250TIP3    H224636   5.950   2.110   5.089
 8251TIP3   OH224637   6.011   1.668   3.746
 8251TIP3    H124638   6.003   1.666   3.843
 8251TIP3    H224639   5.931   1.719   3.722
 8252TIP3   OH224640   5.553   1.715   4.618
 8252TIP3    H124641   5.631   1.745   4.670
 8252TIP3    H224642   5.592   1.682   4.535
 8253TIP3   OH224643   5.528   1.694   4.137
 8253TIP3    H124644   5.572   1.733   4.058
 8253TIP3    H224645   5.467   1.767   4.158
 8254TIP3   OH224646   6.682   2.410   4.731
 8254TIP3    H124647   6.716   2.337   4.673
 8254TIP3    H224648   6.655   2.358   4.810
 8255TIP3   OH224649   6.351   1.871   4.403
 8255TIP3    H124650   6.270   1.869   4.458
 8255TIP3    H224651   6.421   1.871   4.471
 8256TIP3   OH224652   5.787   1.925   4.412
 8256TIP3    H124653   5.692   1.932   4.384
 8256TIP3    H224654   5.811   1.835   4.387
 8257TIP3   OH224655   6.057   1.923   4.099
 8257TIP3    H124656   6.152   1.938   4.079
 8257TIP3    H224657   6.012   1.947   4.015
 8258TIP3   OH224658   6.845   1.947   4.605
 8258TIP3    H124659   6.810   1.958   4.696
 8258TIP3    H224660   6.780   1.886   4.567
 8259TIP3   OH224661   5.896   1.956   3.877
 8259TIP3    H124662   5.826   1.911   3.828
 8259TIP3    H224663   5.949   1.992   3.803
 8260TIP3   OH224664   7.014   3.635   4.823
 8260TIP3    H124665   7.013   3.658   4.728
 8260TIP3    H224666   7.093   3.683   4.854
 8261TIP3   OH224667   5.973   2.744   5.244
 8261TIP3    H124668   6.052   2.775   5.293
 8261TIP3    H224669   5.907   2.745   5.317
 8262TIP3   OH224670   6.437   2.197   4.498
 8262TIP3    H124671   6.510   2.160   4.447
 8262TIP3    H224672   6.450   2.156   4.586
 8263TIP3   OH224673   5.960   1.687   4.376
 8263TIP3    H124674   5.928   1.606   4.420
 8263TIP3    H224675   6.010   1.652   4.302
 8264TIP3   OH224676   6.413   2.092   4.793
 8264TIP3    H124677   6.324   2.132   4.805
 8264TIP3    H224678   6.471   2.153   4.842
 8265TIP3   OH224679   6.148   2.487   3.883
 8265TIP3    H124680   6.076   2.421   3.873
 8265TIP3    H224681   6.132   2.520   3.975
 8266TIP3   OH224682   7.051   2.723   4.515
 8266TIP3    H124683   7.076   2.771   4.433
 8266TIP3    H224684   6.965   2.682   4.490
 8267TIP3   OH224685   6.608   1.798   3.748
 8267TIP3    H124686   6.511   1.783   3.754
 8267TIP3    H224687   6.618   1.893   3.769
 8268TIP3   OH224688   6.547   2.802   4.883
 8268TIP3    H124689   6.573   2.782   4.973
 8268TIP3    H224690   6.511   2.892   4.890
 8269TIP3   OH224691   6.677   2.046   3.850
 8269TIP3    H124692   6.774   2.051   3.865
 8269TIP3    H224693   6.660   2.124   3.795
 8270TIP3   OH224694   5.839   2.505   4.562
 8270TIP3    H124695   5.878   2.480   4.475
 8270TIP3    H224696   5.886   2.445   4.621
 8271TIP3   OH224697   6.295   2.636   3.705
 8271TIP3    H124698   6.248   2.722   3.713
 8271TIP3    H224699   6.241   2.580   3.765
 8272TIP3   OH224700   5.720   2.429   5.175
 8272TIP3    H124701   5.755   2.428   5.267
 8272TIP3    H224702   5.662   2.352   5.177
 8273TIP3   OH224703   6.447   2.542   5.194
 8273TIP3    H124704   6.391   2.484   5.141
 8273TIP3    H224705   6.536   2.510   5.168
 8274TIP3   OH224706   6.709   3.063   4.777
 8274TIP3    H124707   6.613   3.063   4.789
 8274TIP3    H224708   6.737   3.115   4.856
 8275TIP3   OH224709   7.120   2.134   3.686
 8275TIP3    H124710   7.057   2.089   3.625
 8275TIP3    H224711   7.117   2.223   3.644
 8276TIP3   OH224712   7.337   2.992   4.768
 8276TIP3    H124713   7.239   2.987   4.759
 8276TIP3    H224714   7.363   2.963   4.678
 8277TIP3   OH224715   6.818   2.955   3.594
 8277TIP3    H124716   6.796   2.883   3.655
 8277TIP3    H224717   6.832   2.909   3.509
 8278TIP3   OH224718   6.815   2.584   4.434
 8278TIP3    H124719   6.722   2.558   4.446
 8278TIP3    H224720   6.850   2.505   4.389
 8279TIP3   OH224721   5.942   2.811   4.187
 8279TIP3    H124722   5.946   2.892   4.133
 8279TIP3    H224723   5.847   2.796   4.192
 8280TIP3   OH224724   5.505   2.116   3.888
 8280TIP3    H124725   5.552   2.200   3.908
 8280TIP3    H224726   5.428   2.123   3.949
 8281TIP3   OH224727   6.082   2.578   4.131
 8281TIP3    H124728   6.048   2.667   4.149
 8281TIP3    H224729   6.045   2.528   4.206
 8282TIP3   OH224730   6.211   3.155   4.655
 8282TIP3    H124731   6.253   3.227   4.604
 8282TIP3    H224732   6.288   3.121   4.704
 8283TIP3   OH224733   5.862   3.051   4.039
 8283TIP3    H124734   5.776   3.058   4.084
 8283TIP3    H224735   5.893   3.144   4.041
 8284TIP3   OH224736   6.601   2.791   4.613
 8284TIP3    H124737   6.592   2.788   4.711
 8284TIP3    H224738   6.681   2.738   4.599
 8285TIP3   OH224739   6.573   2.682   3.497
 8285TIP3    H124740   6.627   2.658   3.575
 8285TIP3    H224741   6.485   2.655   3.527
 8286TIP3   OH224742   6.849   3.325   4.665
 8286TIP3    H124743   6.770   3.267   4.657
 8286TIP3    H224744   6.834   3.389   4.592
 8287TIP3   OH224745   6.914   3.158   3.316
 8287TIP3    H124746   6.953   3.230   3.264
 8287TIP3    H224747   6.834   3.204   3.348
 8288TIP3   OH224748   5.936   1.934   5.182
 8288TIP3    H124749   5.840   1.940   5.199
 8288TIP3    H224750   5.965   1.876   5.255
 8289TIP3   OH224751   6.734   2.618   3.715
 8289TIP3    H124752   6.724   2.550   3.784
 8289TIP3    H224753   6.830   2.615   3.701
 8290TIP3   OH224754   5.651   3.020   4.814
 8290TIP3    H124755   5.704   2.944   4.843
 8290TIP3    H224756   5.676   3.086   4.879
 8291TIP3   OH224757   5.940   2.664   3.496
 8291TIP3    H124758   5.955   2.572   3.465
 8291TIP3    H224759   5.922   2.649   3.591
 8292TIP3   OH224760   5.885   2.667   3.769
 8292TIP3    H124761   5.959   2.640   3.826
 8292TIP3    H224762   5.891   2.765   3.775
 8293TIP3   OH224763   5.622   2.361   3.971
 8293TIP3    H124764   5.557   2.407   4.028
 8293TIP3    H224765   5.638   2.431   3.904
 8294TIP3   OH224766   6.768   1.999   4.864
 8294TIP3    H124767   6.850   2.036   4.901
 8294TIP3    H224768   6.756   1.917   4.917
 8295TIP3   OH224769   6.648   1.751   4.027
 8295TIP3    H124770   6.635   1.774   3.933
 8295TIP3    H224771   6.689   1.833   4.063
 8296TIP3   OH224772   6.151   2.865   3.718
 8296TIP3    H124773   6.065   2.895   3.752
 8296TIP3    H224774   6.169   2.935   3.653
 8297TIP3   OH224775   6.339   1.929   4.130
 8297TIP3    H124776   6.405   1.999   4.111
 8297TIP3    H224777   6.346   1.922   4.227
 8298TIP3   OH224778   6.609   2.247   4.939
 8298TIP3    H124779   6.630   2.301   5.018
 8298TIP3    H224780   6.665   2.169   4.952
 8299TIP3   OH224781   6.485   1.657   4.233
 8299TIP3    H124782   6.480   1.732   4.294
 8299TIP3    H224783   6.545   1.693   4.164
 8300TIP3   OH224784   5.893   2.941   3.783
 8300TIP3    H124785   5.864   3.011   3.720
 8300TIP3    H224786   5.878   2.985   3.869
 8301TIP3   OH224787   5.995   1.653   4.024
 8301TIP3    H124788   5.994   1.745   4.057
 8301TIP3    H224789   6.092   1.635   4.031
 8302TIP3   OH224790   7.250   2.149   4.918
 8302TIP3    H124791   7.152   2.146   4.925
 8302TIP3    H224792   7.261   2.106   4.832
 8303TIP3   OH224793   6.900   2.343   4.307
 8303TIP3    H124794   6.825   2.282   4.319
 8303TIP3    H224795   6.973   2.296   4.355
 8304TIP3   OH224796   5.612   2.573   3.777
 8304TIP3    H124797   5.679   2.643   3.786
 8304TIP3    H224798   5.658   2.517   3.710
 8305TIP3   OH224799   5.558   1.846   3.912
 8305TIP3    H124800   5.557   1.944   3.905
 8305TIP3    H224801   5.477   1.822   3.865
 8306TIP3   OH224802   6.869   3.297   4.257
 8306TIP3    H124803   6.827   3.344   4.182
 8306TIP3    H224804   6.963   3.316   4.237
 8307TIP3   OH224805   5.944   1.568   4.784
 8307TIP3    H124806   5.913   1.536   4.697
 8307TIP3    H224807   5.932   1.490   4.841
 8308TIP3   OH224808   5.487   2.787   4.167
 8308TIP3    H124809   5.411   2.818   4.219
 8308TIP3    H224810   5.464   2.825   4.079
 8309TIP3   OH224811   5.640   3.326   5.234
 8309TIP3    H124812   5.725   3.324   5.282
 8309TIP3    H224813   5.616   3.232   5.235
 8310TIP3   OH224814   6.124   3.295   5.277
 8310TIP3    H124815   6.217   3.271   5.288
 8310TIP3    H224816   6.099   3.235   5.204
 8311TIP3   OH224817   6.104   2.868   3.410
 8311TIP3    H124818   6.049   2.796   3.448
 8311TIP3    H224819   6.179   2.816   3.375
 8312TIP3   OH224820   6.761   3.198   5.013
 8312TIP3    H124821   6.753   3.127   5.081
 8312TIP3    H224822   6.839   3.247   5.044
 8313TIP3   OH224823   6.540   2.909   3.319
 8313TIP3    H124824   6.586   2.845   3.377
 8313TIP3    H224825   6.597   2.909   3.240
 8314TIP3   OH224826   5.772   2.734   5.433
 8314TIP3    H124827   5.787   2.639   5.446
 8314TIP3    H224828   5.680   2.735   5.398
 8315TIP3   OH224829   5.748   2.385   3.629
 8315TIP3    H124830   5.803   2.350   3.701
 8315TIP3    H224831   5.814   2.389   3.557
 8316TIP3   OH224832   6.381   2.817   5.209
 8316TIP3    H124833   6.339   2.832   5.122
 8316TIP3    H224834   6.412   2.724   5.203
 8317TIP3   OH224835   6.255   2.581   3.436
 8317TIP3    H124836   6.259   2.595   3.533
 8317TIP3    H224837   6.256   2.483   3.431
 8318TIP3   OH224838   6.872   2.825   4.815
 8318TIP3    H124839   6.946   2.870   4.770
 8318TIP3    H224840   6.801   2.891   4.802
 8319TIP3   OH224841   5.889   2.461   5.415
 8319TIP3    H124842   5.966   2.406   5.399
 8319TIP3    H224843   5.910   2.497   5.504
 8320TIP3   OH224844   5.957   2.287   3.851
 8320TIP3    H124845   5.932   2.243   3.934
 8320TIP3    H224846   5.993   2.212   3.799
 8321TIP3   OH224847   6.222   2.348   5.076
 8321TIP3    H124848   6.149   2.412   5.083
 8321TIP3    H224849   6.273   2.383   4.999
 8322TIP3   OH224850   6.057   2.080   3.693
 8322TIP3    H124851   6.030   2.081   3.599
 8322TIP3    H224852   6.154   2.087   3.685
 8323TIP3   OH224853   6.741   2.753   5.213
 8323TIP3    H124854   6.824   2.732   5.167
 8323TIP3    H224855   6.740   2.687   5.284
 8324TIP3   OH224856   6.880   2.413   3.354
 8324TIP3    H124857   6.858   2.365   3.272
 8324TIP3    H224858   6.848   2.503   3.329
 8325TIP3   OH224859   6.347   2.138   5.207
 8325TIP3    H124860   6.349   2.058   5.151
 8325TIP3    H224861   6.305   2.204   5.148
 8326TIP3   OH224862   6.351   1.924   5.013
 8326TIP3    H124863   6.379   1.967   4.929
 8326TIP3    H224864   6.257   1.903   4.993
 8327TIP3   OH224865   6.379   2.461   4.886
 8327TIP3    H124866   6.462   2.468   4.838
 8327TIP3    H224867   6.324   2.530   4.842
 8328TIP3   OH224868   6.962   2.429   5.268
 8328TIP3    H124869   7.009   2.345   5.278
 8328TIP3    H224870   7.031   2.487   5.233
 8329TIP3   OH224871   7.002   2.681   5.003
 8329TIP3    H124872   6.944   2.735   4.943
 8329TIP3    H224873   7.090   2.701   4.962
 8330TIP3   OH224874   6.224   2.254   5.433
 8330TIP3    H124875   6.156   2.186   5.449
 8330TIP3    H224876   6.261   2.225   5.348
 8331TIP3   OH224877   6.484   1.690   5.080
 8331TIP3    H124878   6.436   1.773   5.057
 8331TIP3    H224879   6.414   1.623   5.068
 8332TIP3   OH224880   6.609   2.196   5.296
 8332TIP3    H124881   6.601   2.184   5.392
 8332TIP3    H224882   6.519   2.170   5.268
 8333TIP3   OH224883   6.850   2.144   5.151
 8333TIP3    H124884   6.773   2.144   5.212
 8333TIP3    H224885   6.922   2.112   5.208
 8334TIP3   OH224886   7.078   2.084   5.302
 8334TIP3    H124887   7.090   1.989   5.320
 8334TIP3    H224888   7.073   2.123   5.392
 8335TIP3   OH224889   6.064   2.033   5.487
 8335TIP3    H124890   6.075   1.942   5.453
 8335TIP3    H224891   6.100   2.022   5.578
 8336TIP3   OH224892   6.576   1.699   5.338
 8336TIP3    H124893   6.647   1.632   5.333
 8336TIP3    H224894   6.539   1.693   5.248
 8337TIP3   OH224895   6.642   1.914   5.497
 8337TIP3    H124896   6.620   1.843   5.432
 8337TIP3    H224897   6.565   1.974   5.489
 8338TIP3   OH224898   5.864   3.144   3.597
 8338TIP3    H124899   5.960   3.140   3.577
 8338TIP3    H224900   5.834   3.191   3.517
 8339TIP3   OH224901   5.344   2.524   3.814
 8339TIP3    H124902   5.439   2.547   3.800
 8339TIP3    H224903   5.339   2.436   3.772
 8340TIP3   OH224904   5.257   3.138   4.226
 8340TIP3    H124905   5.190   3.075   4.191
 8340TIP3    H224906   5.302   3.081   4.292
 8341TIP3   OH224907   5.394   2.991   4.413
 8341TIP3    H124908   5.383   2.916   4.473
 8341TIP3    H224909   5.444   3.052   4.470
 8342TIP3   OH224910   7.120   3.391   4.212
 8342TIP3    H124911   7.149   3.424   4.299
 8342TIP3    H224912   7.184   3.433   4.152
 8343TIP3   OH224913   7.151   3.410   4.495
 8343TIP3    H124914   7.109   3.322   4.490
 8343TIP3    H224915   7.227   3.389   4.551
 8344TIP3   OH224916   7.197   3.086   5.067
 8344TIP3    H124917   7.124   3.094   5.132
 8344TIP3    H224918   7.238   3.175   5.072
 8345TIP3   OH224919   7.013   2.600   3.688
 8345TIP3    H124920   7.083   2.663   3.660
 8345TIP3    H224921   7.056   2.560   3.767
 8346TIP3   OH224922   7.141   2.467   3.891
 8346TIP3    H124923   7.076   2.424   3.950
 8346TIP3    H224924   7.206   2.505   3.953
 8347TIP3   OH224925   7.194   2.857   4.323
 8347TIP3    H124926   7.249   2.794   4.273
 8347TIP3    H224927   7.187   2.932   4.261
 8348TIP3   OH224928   7.028   3.159   4.519
 8348TIP3    H124929   6.957   3.200   4.571
 8348TIP3    H224930   6.977   3.110   4.450
 8349TIP3   OH224931   7.079   2.374   3.539
 8349TIP3    H124932   7.008   2.377   3.472
 8349TIP3    H224933   7.053   2.451   3.594
 8350TIP3   OH224934   6.949   2.048   3.494
 8350TIP3    H124935   6.910   2.086   3.415
 8350TIP3    H224936   6.924   1.954   3.484
 8351TIP3   OH224937   6.955   2.322   4.038
 8351TIP3    H124938   6.964   2.225   4.033
 8351TIP3    H224939   6.942   2.337   4.134
 8352TIP3   OH224940   5.585   2.390   4.785
 8352TIP3    H124941   5.583   2.364   4.690
 8352TIP3    H224942   5.682   2.396   4.801
 8353TIP3   OH224943   7.244   2.747   4.894
 8353TIP3    H124944   7.317   2.681   4.886
 8353TIP3    H224945   7.273   2.817   4.834
 8354TIP3   OH224946   7.430   2.554   4.914
 8354TIP3    H124947   7.356   2.503   4.952
 8354TIP3    H224948   7.503   2.490   4.927
 8355TIP3   OH224949   6.894   1.783   3.482
 8355TIP3    H124950   6.970   1.750   3.534
 8355TIP3    H224951   6.822   1.722   3.505
 8356TIP3   OH224952   6.951   2.039   3.934
 8356TIP3    H124953   6.992   1.950   3.949
 8356TIP3    H224954   7.010   2.072   3.863
 8357TIP3   OH224955   7.114   2.215   4.427
 8357TIP3    H124956   7.200   2.241   4.387
 8357TIP3    H224957   7.127   2.250   4.517
 8358TIP3   OH224958   7.181   2.357   4.661
 8358TIP3    H124959   7.103   2.391   4.709
 8358TIP3    H224960   7.214   2.437   4.615
 8359TIP3   OH224961   5.797   2.085   5.455
 8359TIP3    H124962   5.895   2.081   5.460
 8359TIP3    H224963   5.773   2.002   5.500
 8360TIP3   OH224964   7.635   1.948   5.217
 8360TIP3    H124965   7.692   1.881   5.173
 8360TIP3    H224966   7.607   2.003   5.141
 8361TIP3   OH224967   7.060   1.789   3.971
 8361TIP3    H124968   7.109   1.772   4.054
 8361TIP3    H224969   7.000   1.711   3.969
 8362TIP3   OH224970   5.760   1.776   4.793
 8362TIP3    H124971   5.823   1.702   4.802
 8362TIP3    H224972   5.823   1.851   4.785
 8363TIP3   OH224973   5.564   2.052   4.861
 8363TIP3    H124974   5.610   2.035   4.777
 8363TIP3    H224975   5.606   2.134   4.888
 8364TIP3   OH224976   7.505   2.088   5.024
 8364TIP3    H124977   7.418   2.126   5.043
 8364TIP3    H224978   7.479   2.016   4.964
 8365TIP3   OH224979   7.143   1.724   3.603
 8365TIP3    H124980   7.182   1.652   3.550
 8365TIP3    H224981   7.210   1.795   3.595
 8366TIP3   OH224982   5.546   1.555   4.367
 8366TIP3    H124983   5.452   1.551   4.389
 8366TIP3    H224984   5.546   1.611   4.287
 8367TIP3   OH224985   6.704   3.256   3.870
 8367TIP3    H124986   6.756   3.239   3.788
 8367TIP3    H224987   6.760   3.321   3.915
 8368TIP3   OH224988   5.765   1.629   5.177
 8368TIP3    H124989   5.718   1.627   5.262
 8368TIP3    H224990   5.699   1.671   5.119
 8369TIP3   OH224991   5.811   3.059   5.258
 8369TIP3    H124992   5.718   3.036   5.240
 8369TIP3    H224993   5.818   3.039   5.352
 8370TIP3   OH224994   5.984   3.090   4.803
 8370TIP3    H124995   5.936   3.166   4.765
 8370TIP3    H224996   6.070   3.104   4.759
 8371TIP3   OH224997   6.430   3.338   4.941
 8371TIP3    H124998   6.472   3.337   5.030
 8371TIP3    H224999   6.497   3.387   4.889
 8372TIP3   OH225000   6.609   3.488   4.798
 8372TIP3    H125001   6.681   3.436   4.758
 8372TIP3    H225002   6.661   3.545   4.859
 8373TIP3   OH225003   7.404   1.849   4.900
 8373TIP3    H125004   7.311   1.841   4.869
 8373TIP3    H225005   7.435   1.757   4.888
 8374TIP3   OH225006   5.662   3.351   4.824
 8374TIP3    H125007   5.572   3.386   4.803
 8374TIP3    H225008   5.668   3.376   4.917
 8375TIP3   OH225009   5.898   3.328   4.684
 8375TIP3    H125010   5.812   3.341   4.729
 8375TIP3    H225011   5.878   3.360   4.594
 8376TIP3   OH225012   6.324   3.357   4.482
 8376TIP3    H125013   6.255   3.378   4.416
 8376TIP3    H225014   6.337   3.444   4.525
 8377TIP3   OH225015   6.592   3.297   4.534
 8377TIP3    H125016   6.498   3.313   4.513
 8377TIP3    H225017   6.635   3.372   4.491
 8378TIP3   OH225018   6.799   3.488   4.449
 8378TIP3    H125019   6.786   3.573   4.401
 8378TIP3    H225020   6.826   3.428   4.376
 8379TIP3   OH225021   5.573   3.143   4.572
 8379TIP3    H125022   5.600   3.117   4.663
 8379TIP3    H225023   5.645   3.100   4.521
 8380TIP3   OH225024   5.766   3.014   4.428
 8380TIP3    H125025   5.782   2.930   4.476
 8380TIP3    H225026   5.857   3.051   4.424
 8381TIP3   OH225027   6.032   3.110   4.431
 8381TIP3    H125028   6.064   3.019   4.417
 8381TIP3    H225029   6.076   3.131   4.515
 8382TIP3   OH225030   6.608   1.768   4.514
 8382TIP3    H125031   6.565   1.699   4.567
 8382TIP3    H225032   6.682   1.719   4.472
 8383TIP3   OH225033   7.131   1.647   4.424
 8383TIP3    H125034   7.169   1.698   4.348
 8383TIP3    H225035   7.036   1.666   4.416
 8384TIP3   OH225036   7.227   1.747   4.188
 8384TIP3    H125037   7.300   1.695   4.148
 8384TIP3    H225038   7.261   1.838   4.172
 8385TIP3   OH225039   5.855   1.476   4.536
 8385TIP3    H125040   5.763   1.443   4.535
 8385TIP3    H225041   5.905   1.392   4.530
 8386TIP3   OH225042   5.646   1.343   4.184
 8386TIP3    H125043   5.675   1.399   4.110
 8386TIP3    H225044   5.615   1.408   4.249
 8387TIP3   OH225045   6.301   1.508   4.417
 8387TIP3    H125046   6.358   1.555   4.354
 8387TIP3    H225047   6.324   1.552   4.500
 8388TIP3   OH225048   6.846   1.652   4.401
 8388TIP3    H125049   6.848   1.615   4.311
 8388TIP3    H225050   6.833   1.570   4.455
 8389TIP3   OH225051   6.878   1.575   3.961
 8389TIP3    H125052   6.790   1.616   3.971
 8389TIP3    H225053   6.863   1.490   4.008
 8390TIP3   OH225054   5.360   2.913   3.964
 8390TIP3    H125055   5.276   2.880   3.929
 8390TIP3    H225056   5.349   3.008   3.946
 8391TIP3   OH225057   5.760   1.503   3.948
 8391TIP3    H125058   5.809   1.441   3.890
 8391TIP3    H225059   5.833   1.557   3.984
 8392TIP3   OH225060   6.272   1.678   4.046
 8392TIP3    H125061   6.335   1.632   4.104
 8392TIP3    H225062   6.294   1.771   4.070
 8393TIP3   OH225063   6.132   3.105   3.545
 8393TIP3    H125064   6.221   3.126   3.509
 8393TIP3    H225065   6.111   3.029   3.486
 8394TIP3   OH225066   6.850   3.221   3.638
 8394TIP3    H125067   6.842   3.123   3.624
 8394TIP3    H225068   6.807   3.254   3.557
 8395TIP3   OH225069   6.066   1.752   5.423
 8395TIP3    H125070   6.032   1.684   5.484
 8395TIP3    H225071   6.160   1.755   5.450
 8396TIP3   OH225072   6.313   1.751   5.544
 8396TIP3    H125073   6.399   1.728   5.505
 8396TIP3    H225074   6.302   1.681   5.611
 8397TIP3   OH225075   5.437   2.941   3.602
 8397TIP3    H125076   5.439   2.966   3.696
 8397TIP3    H225077   5.526   2.899   3.590
 8398TIP3   OH225078   7.138   1.814   5.333
 8398TIP3    H125079   7.158   1.782   5.423
 8398TIP3    H225080   7.226   1.808   5.290
 8399TIP3   OH225081   7.078   3.366   4.826
 8399TIP3    H125082   6.999   3.334   4.778
 8399TIP3    H225083   7.059   3.462   4.828
 8400TIP3   OH225084   8.344   2.738   3.592
 8400TIP3    H125085   8.316   2.829   3.572
 8400TIP3    H225086   8.267   2.689   3.559
 8401TIP3   OH225087   8.342   2.738   3.973
 8401TIP3    H125088   8.374   2.708   4.060
 8401TIP3    H225089   8.301   2.658   3.937
 8402TIP3   OH225090   7.642   2.634   4.339
 8402TIP3    H125091   7.674   2.567   4.402
 8402TIP3    H225092   7.721   2.690   4.329
 8403TIP3   OH225093   8.588   3.039   3.653
 8403TIP3    H125094   8.572   2.970   3.719
 8403TIP3    H225095   8.613   3.115   3.709
 8404TIP3   OH225096   7.613   3.042   4.064
 8404TIP3    H125097   7.605   2.945   4.066
 8404TIP3    H225098   7.710   3.051   4.058
 8405TIP3   OH225099   7.320   2.248   3.849
 8405TIP3    H125100   7.271   2.331   3.862
 8405TIP3    H225101   7.250   2.192   3.811
 8406TIP3   OH225102   7.380   2.534   4.018
 8406TIP3    H125103   7.429   2.457   4.056
 8406TIP3    H225104   7.440   2.562   3.948
 8407TIP3   OH225105   8.233   3.501   3.669
 8407TIP3    H125106   8.281   3.430   3.622
 8407TIP3    H225107   8.230   3.466   3.759
 8408TIP3   OH225108   8.142   2.963   4.021
 8408TIP3    H125109   8.180   2.887   3.974
 8408TIP3    H225110   8.226   3.008   4.045
 8409TIP3   OH225111   9.087   2.307   4.030
 8409TIP3    H125112   9.150   2.360   4.083
 8409TIP3    H225113   9.132   2.309   3.944
 8410TIP3   OH225114   8.553   2.467   4.054
 8410TIP3    H125115   8.596   2.382   4.074
 8410TIP3    H225116   8.523   2.451   3.962
 8411TIP3   OH225117   7.891   2.125   4.019
 8411TIP3    H125118   7.871   2.197   3.957
 8411TIP3    H225119   7.843   2.051   3.975
 8412TIP3   OH225120   8.586   2.215   3.642
 8412TIP3    H125121   8.659   2.200   3.707
 8412TIP3    H225122   8.637   2.252   3.568
 8413TIP3   OH225123   7.525   2.327   4.126
 8413TIP3    H125124   7.609   2.306   4.173
 8413TIP3    H225125   7.537   2.271   4.046
 8414TIP3   OH225126   7.967   2.525   3.918
 8414TIP3    H125127   8.060   2.499   3.932
 8414TIP3    H225128   7.927   2.441   3.886
 8415TIP3   OH225129   9.223   2.488   4.186
 8415TIP3    H125130   9.140   2.540   4.183
 8415TIP3    H225131   9.266   2.523   4.267
 8416TIP3   OH225132   7.889   2.108   4.453
 8416TIP3    H125133   7.829   2.145   4.385
 8416TIP3    H225134   7.837   2.126   4.534
 8417TIP3   OH225135   8.236   2.959   3.463
 8417TIP3    H125136   8.194   2.937   3.379
 8417TIP3    H225137   8.193   3.044   3.484
 8418TIP3   OH225138   7.995   2.883   4.249
 8418TIP3    H125139   7.931   2.948   4.287
 8418TIP3    H225140   8.038   2.935   4.178
 8419TIP3   OH225141   8.799   2.216   3.813
 8419TIP3    H125142   8.789   2.168   3.897
 8419TIP3    H225143   8.852   2.293   3.840
 8420TIP3   OH225144   7.759   2.223   4.238
 8420TIP3    H125145   7.821   2.296   4.260
 8420TIP3    H225146   7.808   2.182   4.163
 8421TIP3   OH225147   7.822   3.076   4.345
 8421TIP3    H125148   7.797   3.162   4.306
 8421TIP3    H225149   7.743   3.061   4.403
 8422TIP3   OH225150   7.219   2.767   3.582
 8422TIP3    H125151   7.177   2.792   3.498
 8422TIP3    H225152   7.248   2.853   3.618
 8423TIP3   OH225153   8.658   3.281   3.821
 8423TIP3    H125154   8.568   3.273   3.861
 8423TIP3    H225155   8.650   3.368   3.776
 8424TIP3   OH225156   8.926   2.175   4.197
 8424TIP3    H125157   8.839   2.206   4.168
 8424TIP3    H225158   8.985   2.216   4.130
 8425TIP3   OH225159   8.246   1.828   4.166
 8425TIP3    H125160   8.234   1.732   4.184
 8425TIP3    H225161   8.168   1.865   4.213
 8426TIP3   OH225162   8.360   3.329   3.497
 8426TIP3    H125163   8.410   3.248   3.475
 8426TIP3    H225164   8.419   3.396   3.455
 8427TIP3   OH225165   8.502   3.115   3.401
 8427TIP3    H125166   8.466   3.035   3.360
 8427TIP3    H225167   8.537   3.079   3.486
 8428TIP3   OH225168   8.882   3.196   4.165
 8428TIP3    H125169   8.869   3.119   4.105
 8428TIP3    H225170   8.863   3.271   4.104
 8429TIP3   OH225171   8.175   2.590   3.422
 8429TIP3    H125172   8.094   2.640   3.399
 8429TIP3    H225173   8.222   2.587   3.337
 8430TIP3   OH225174   8.134   2.374   3.140
 8430TIP3    H125175   8.202   2.423   3.188
 8430TIP3    H225176   8.190   2.310   3.092
 8431TIP3   OH225177   9.077   2.832   4.011
 8431TIP3    H125178   8.993   2.884   4.015
 8431TIP3    H225179   9.105   2.850   3.920
 8432TIP3   OH225180   8.521   2.672   3.395
 8432TIP3    H125181   8.467   2.698   3.473
 8432TIP3    H225182   8.604   2.644   3.439
 8433TIP3   OH225183   8.757   2.712   4.305
 8433TIP3    H125184   8.754   2.795   4.356
 8433TIP3    H225185   8.670   2.717   4.260
 8434TIP3   OH225186   7.754   2.671   3.811
 8434TIP3    H125187   7.713   2.612   3.744
 8434TIP3    H225188   7.831   2.617   3.839
 8435TIP3   OH225189   7.884   3.081   3.960
 8435TIP3    H125190   7.864   3.037   3.876
 8435TIP3    H225191   7.974   3.049   3.978
 8436TIP3   OH225192   7.890   2.641   4.165
 8436TIP3    H125193   7.924   2.621   4.075
 8436TIP3    H225194   7.934   2.727   4.185
 8437TIP3   OH225195   8.417   3.279   3.942
 8437TIP3    H125196   8.402   3.359   3.995
 8437TIP3    H225197   8.403   3.206   4.005
 8438TIP3   OH225198   8.028   3.198   4.489
 8438TIP3    H125199   7.969   3.261   4.536
 8438TIP3    H225200   7.962   3.145   4.440
 8439TIP3   OH225201   8.363   2.529   3.221
 8439TIP3    H125202   8.423   2.588   3.273
 8439TIP3    H225203   8.389   2.555   3.128
 8440TIP3   OH225204   7.783   2.755   4.590
 8440TIP3    H125205   7.787   2.842   4.635
 8440TIP3    H225206   7.687   2.736   4.597
 8441TIP3   OH225207   8.105   3.211   3.496
 8441TIP3    H125208   8.184   3.265   3.515
 8441TIP3    H225209   8.044   3.275   3.457
 8442TIP3   OH225210   7.823   3.367   4.575
 8442TIP3    H125211   7.788   3.364   4.484
 8442TIP3    H225212   7.743   3.346   4.629
 8443TIP3   OH225213   8.888   1.788   3.296
 8443TIP3    H125214   8.799   1.803   3.332
 8443TIP3    H225215   8.892   1.854   3.224
 8444TIP3   OH225216   7.620   2.513   3.617
 8444TIP3    H125217   7.555   2.558   3.559
 8444TIP3    H225218   7.580   2.426   3.628
 8445TIP3   OH225219   8.675   3.140   2.815
 8445TIP3    H125220   8.683   3.237   2.803
 8445TIP3    H225221   8.769   3.113   2.802
 8446TIP3   OH225222   7.402   2.897   4.523
 8446TIP3    H125223   7.338   2.873   4.453
 8446TIP3    H225224   7.439   2.810   4.548
 8447TIP3   OH225225   7.256   3.089   4.157
 8447TIP3    H125226   7.352   3.082   4.146
 8447TIP3    H225227   7.249   3.169   4.211
 8448TIP3   OH225228   9.117   3.544   4.208
 8448TIP3    H125229   9.118   3.448   4.221
 8448TIP3    H225230   9.035   3.567   4.256
 8449TIP3   OH225231   8.227   3.328   4.345
 8449TIP3    H125232   8.226   3.420   4.378
 8449TIP3    H225233   8.156   3.288   4.400
 8450TIP3   OH225234   7.985   3.456   3.298
 8450TIP3    H125235   7.941   3.437   3.213
 8450TIP3    H225236   7.954   3.546   3.319
 8451TIP3   OH225237   7.424   3.306   3.681
 8451TIP3    H125238   7.473   3.296   3.766
 8451TIP3    H225239   7.367   3.227   3.684
 8452TIP3   OH225240   8.189   3.357   2.938
 8452TIP3    H125241   8.247   3.287   2.902
 8452TIP3    H225242   8.223   3.366   3.030
 8453TIP3   OH225243   8.238   3.405   3.209
 8453TIP3    H125244   8.150   3.414   3.252
 8453TIP3    H225245   8.290   3.364   3.280
 8454TIP3   OH225246   9.019   2.677   4.478
 8454TIP3    H125247   8.936   2.687   4.430
 8454TIP3    H225248   9.034   2.581   4.471
 8455TIP3   OH225249   7.607   3.080   4.513
 8455TIP3    H125250   7.657   3.063   4.595
 8455TIP3    H225251   7.533   3.016   4.520
 8456TIP3   OH225252   8.006   1.903   4.294
 8456TIP3    H125253   7.916   1.872   4.270
 8456TIP3    H225254   7.982   1.986   4.340
 8457TIP3   OH225255   8.539   2.019   4.489
 8457TIP3    H125256   8.608   1.991   4.554
 8457TIP3    H225257   8.456   1.998   4.536
 8458TIP3   OH225258   8.775   2.447   4.405
 8458TIP3    H125259   8.730   2.444   4.492
 8458TIP3    H225260   8.754   2.536   4.372
 8459TIP3   OH225261   8.437   2.580   2.964
 8459TIP3    H125262   8.406   2.552   2.876
 8459TIP3    H225263   8.520   2.626   2.941
 8460TIP3   OH225264   8.153   1.953   3.266
 8460TIP3    H125265   8.120   1.951   3.358
 8460TIP3    H225266   8.113   1.869   3.233
 8461TIP3   OH225267   7.938   2.418   4.313
 8461TIP3    H125268   7.888   2.439   4.395
 8461TIP3    H225269   7.922   2.499   4.260
 8462TIP3   OH225270   7.822   2.305   3.828
 8462TIP3    H125271   7.729   2.278   3.845
 8462TIP3    H225272   7.835   2.264   3.739
 8463TIP3   OH225273   8.312   2.391   3.554
 8463TIP3    H125274   8.259   2.462   3.513
 8463TIP3    H225275   8.367   2.362   3.479
 8464TIP3   OH225276   8.487   2.670   4.643
 8464TIP3    H125277   8.465   2.597   4.704
 8464TIP3    H225278   8.581   2.684   4.663
 8465TIP3   OH225279   8.469   2.419   3.795
 8465TIP3    H125280   8.410   2.449   3.723
 8465TIP3    H225281   8.502   2.337   3.753
 8466TIP3   OH225282   7.756   2.448   4.523
 8466TIP3    H125283   7.785   2.511   4.591
 8466TIP3    H225284   7.745   2.366   4.574
 8467TIP3   OH225285   7.808   1.925   3.233
 8467TIP3    H125286   7.799   1.922   3.330
 8467TIP3    H225287   7.728   1.975   3.208
 8468TIP3   OH225288   7.349   1.972   4.103
 8468TIP3    H125289   7.426   2.002   4.156
 8468TIP3    H225290   7.389   1.937   4.022
 8469TIP3   OH225291   7.325   1.951   3.623
 8469TIP3    H125292   7.369   1.990   3.545
 8469TIP3    H225293   7.263   2.024   3.645
 8470TIP3   OH225294   8.479   2.667   4.218
 8470TIP3    H125295   8.512   2.595   4.160
 8470TIP3    H225296   8.451   2.614   4.296
 8471TIP3   OH225297   8.148   2.128   3.890
 8471TIP3    H125298   8.066   2.125   3.943
 8471TIP3    H225299   8.217   2.126   3.958
 8472TIP3   OH225300   7.583   2.182   3.898
 8472TIP3    H125301   7.489   2.189   3.871
 8472TIP3    H225302   7.607   2.091   3.874
 8473TIP3   OH225303   7.854   2.179   3.585
 8473TIP3    H125304   7.948   2.195   3.565
 8473TIP3    H225305   7.808   2.203   3.502
 8474TIP3   OH225306   8.638   2.204   4.091
 8474TIP3    H125307   8.603   2.215   4.182
 8474TIP3    H225308   8.574   2.141   4.054
 8475TIP3   OH225309   7.693   2.213   3.365
 8475TIP3    H125310   7.621   2.168   3.317
 8475TIP3    H225311   7.745   2.248   3.290
 8476TIP3   OH225312   8.810   3.891   4.309
 8476TIP3    H125313   8.809   3.916   4.215
 8476TIP3    H225314   8.888   3.941   4.341
 8477TIP3   OH225315   7.768   3.001   4.732
 8477TIP3    H125316   7.848   3.032   4.779
 8477TIP3    H225317   7.703   3.001   4.806
 8478TIP3   OH225318   8.233   2.455   3.986
 8478TIP3    H125319   8.305   2.415   3.935
 8478TIP3    H225320   8.244   2.413   4.074
 8479TIP3   OH225321   7.756   1.943   3.864
 8479TIP3    H125322   7.723   1.863   3.910
 8479TIP3    H225323   7.808   1.906   3.792
 8480TIP3   OH225324   8.209   2.349   4.278
 8480TIP3    H125325   8.120   2.387   4.291
 8480TIP3    H225326   8.267   2.410   4.328
 8481TIP3   OH225327   7.945   2.743   3.371
 8481TIP3    H125328   7.873   2.678   3.360
 8481TIP3    H225329   7.928   2.776   3.462
 8482TIP3   OH225330   8.845   2.978   4.001
 8482TIP3    H125331   8.867   3.025   3.917
 8482TIP3    H225332   8.759   2.936   3.979
 8483TIP3   OH225333   8.404   2.056   3.232
 8483TIP3    H125334   8.307   2.040   3.241
 8483TIP3    H225335   8.415   2.150   3.256
 8484TIP3   OH225336   8.344   3.060   4.369
 8484TIP3    H125337   8.368   3.039   4.460
 8484TIP3    H225338   8.307   3.149   4.376
 8485TIP3   OH225339   8.475   2.302   3.336
 8485TIP3    H125340   8.572   2.308   3.350
 8485TIP3    H225341   8.456   2.381   3.281
 8486TIP3   OH225342   7.637   2.764   4.048
 8486TIP3    H125343   7.676   2.737   3.962
 8486TIP3    H225344   7.678   2.701   4.109
 8487TIP3   OH225345   8.091   2.892   3.191
 8487TIP3    H125346   8.044   2.978   3.199
 8487TIP3    H225347   8.037   2.836   3.251
 8488TIP3   OH225348   7.517   2.686   4.661
 8488TIP3    H125349   7.539   2.672   4.755
 8488TIP3    H225350   7.449   2.618   4.646
 8489TIP3   OH225351   8.243   2.798   4.682
 8489TIP3    H125352   8.185   2.740   4.629
 8489TIP3    H225353   8.332   2.766   4.654
 8490TIP3   OH225354   8.506   3.319   4.265
 8490TIP3    H125355   8.410   3.319   4.276
 8490TIP3    H225356   8.534   3.371   4.343
 8491TIP3   OH225357   8.910   2.383   3.184
 8491TIP3    H125358   8.851   2.337   3.120
 8491TIP3    H225359   8.931   2.460   3.128
 8492TIP3   OH225360   9.133   3.240   4.247
 8492TIP3    H125361   9.035   3.240   4.242
 8492TIP3    H225362   9.154   3.208   4.157
 8493TIP3   OH225363   8.613   3.211   3.080
 8493TIP3    H125364   8.593   3.140   3.142
 8493TIP3    H225365   8.629   3.164   2.996
 8494TIP3   OH225366   8.611   2.841   3.922
 8494TIP3    H125367   8.518   2.816   3.935
 8494TIP3    H225368   8.645   2.762   3.875
 8495TIP3   OH225369   7.738   3.067   3.672
 8495TIP3    H125370   7.741   3.149   3.619
 8495TIP3    H225371   7.643   3.053   3.680
 8496TIP3   OH225372   7.301   2.373   3.375
 8496TIP3    H125373   7.348   2.456   3.396
 8496TIP3    H225374   7.224   2.379   3.436
 8497TIP3   OH225375   7.879   2.834   3.617
 8497TIP3    H125376   7.843   2.924   3.635
 8497TIP3    H225377   7.842   2.784   3.692
 8498TIP3   OH225378   8.007   3.412   4.142
 8498TIP3    H125379   8.048   3.485   4.091
 8498TIP3    H225380   8.085   3.378   4.191
 8499TIP3   OH225381   7.659   3.307   3.525
 8499TIP3    H125382   7.572   3.315   3.571
 8499TIP3    H225383   7.690   3.400   3.528
 8500TIP3   OH225384   8.397   3.047   4.100
 8500TIP3    H125385   8.388   3.045   4.198
 8500TIP3    H225386   8.477   2.993   4.087
 8501TIP3   OH225387   8.370   2.937   2.982
 8501TIP3    H125388   8.423   2.914   3.062
 8501TIP3    H225389   8.282   2.912   3.013
 8502TIP3   OH225390   8.646   3.580   4.150
 8502TIP3    H125391   8.566   3.524   4.142
 8502TIP3    H225392   8.630   3.645   4.079
 8503TIP3   OH225393   8.709   3.416   2.803
 8503TIP3    H125394   8.745   3.488   2.749
 8503TIP3    H225395   8.629   3.460   2.837
 8504TIP3   OH225396   7.731   2.192   4.670
 8504TIP3    H125397   7.634   2.195   4.682
 8504TIP3    H225398   7.758   2.129   4.739
 8505TIP3   OH225399   8.528   2.874   3.201
 8505TIP3    H125400   8.519   2.806   3.271
 8505TIP3    H225401   8.625   2.872   3.186
 8506TIP3   OH225402   7.445   3.276   4.302
 8506TIP3    H125403   7.498   3.200   4.332
 8506TIP3    H225404   7.476   3.345   4.362
 8507TIP3   OH225405   7.737   2.920   2.982
 8507TIP3    H125406   7.751   2.828   2.953
 8507TIP3    H225407   7.718   2.907   3.077
 8508TIP3   OH225408   7.682   2.924   3.255
 8508TIP3    H125409   7.754   2.897   3.314
 8508TIP3    H225410   7.687   3.022   3.262
 8509TIP3   OH225411   7.418   2.618   3.458
 8509TIP3    H125412   7.353   2.663   3.515
 8509TIP3    H225413   7.434   2.688   3.391
 8510TIP3   OH225414   8.564   2.256   4.350
 8510TIP3    H125415   8.646   2.294   4.386
 8510TIP3    H225416   8.552   2.175   4.404
 8511TIP3   OH225417   8.445   2.008   3.513
 8511TIP3    H125418   8.431   2.032   3.420
 8511TIP3    H225419   8.485   2.090   3.550
 8512TIP3   OH225420   7.947   3.122   3.203
 8512TIP3    H125421   7.861   3.151   3.239
 8512TIP3    H225422   7.965   3.194   3.141
 8513TIP3   OH225423   8.137   2.185   3.616
 8513TIP3    H125424   8.202   2.256   3.599
 8513TIP3    H225425   8.142   2.178   3.714
 8514TIP3   OH225426   8.405   2.504   4.426
 8514TIP3    H125427   8.426   2.558   4.505
 8514TIP3    H225428   8.462   2.426   4.438
 8515TIP3   OH225429   8.282   1.914   3.720
 8515TIP3    H125430   8.276   1.989   3.781
 8515TIP3    H225431   8.341   1.950   3.651
 8516TIP3   OH225432   7.690   3.197   3.270
 8516TIP3    H125433   7.661   3.267   3.207
 8516TIP3    H225434   7.674   3.242   3.357
 8517TIP3   OH225435   7.792   1.910   3.509
 8517TIP3    H125436   7.789   2.001   3.545
 8517TIP3    H225437   7.888   1.892   3.517
 8518TIP3   OH225438   9.043   2.406   4.406
 8518TIP3    H125439   8.945   2.401   4.408
 8518TIP3    H225440   9.061   2.378   4.316
 8519TIP3   OH225441   8.688   2.605   3.790
 8519TIP3    H125442   8.616   2.542   3.804
 8519TIP3    H225443   8.763   2.561   3.838
 8520TIP3   OH225444   7.409   2.829   3.264
 8520TIP3    H125445   7.474   2.901   3.273
 8520TIP3    H225446   7.454   2.774   3.197
 8521TIP3   OH225447   7.355   2.103   3.397
 8521TIP3    H125448   7.352   2.201   3.392
 8521TIP3    H225449   7.273   2.078   3.354
 8522TIP3   OH225450   8.666   3.553   3.743
 8522TIP3    H125451   8.623   3.600   3.668
 8522TIP3    H225452   8.760   3.573   3.723
 8523TIP3   OH225453   7.741   1.824   4.271
 8523TIP3    H125454   7.710   1.790   4.185
 8523TIP3    H225455   7.731   1.745   4.328
 8524TIP3   OH225456   7.283   3.043   3.653
 8524TIP3    H125457   7.208   3.074   3.707
 8524TIP3    H225458   7.260   3.082   3.566
 8525TIP3   OH225459   7.436   3.582   4.724
 8525TIP3    H125460   7.523   3.581   4.770
 8525TIP3    H225461   7.416   3.487   4.721
 8526TIP3   OH225462   7.919   3.549   4.767
 8526TIP3    H125463   8.014   3.530   4.775
 8526TIP3    H225464   7.895   3.491   4.692
 8527TIP3   OH225465   7.900   3.124   2.896
 8527TIP3    H125466   7.844   3.053   2.935
 8527TIP3    H225467   7.975   3.071   2.863
 8528TIP3   OH225468   8.558   3.454   4.500
 8528TIP3    H125469   8.549   3.384   4.568
 8528TIP3    H225470   8.635   3.504   4.530
 8529TIP3   OH225471   8.336   3.165   2.806
 8529TIP3    H125472   8.382   3.102   2.865
 8529TIP3    H225473   8.393   3.166   2.727
 8530TIP3   OH225474   7.567   2.989   4.923
 8530TIP3    H125475   7.585   2.893   4.926
 8530TIP3    H225476   7.479   2.991   4.880
 8531TIP3   OH225477   7.544   2.641   3.115
 8531TIP3    H125478   7.599   2.607   3.188
 8531TIP3    H225479   7.612   2.645   3.044
 8532TIP3   OH225480   8.175   3.073   4.696
 8532TIP3    H125481   8.134   3.089   4.609
 8532TIP3    H225482   8.207   2.981   4.689
 8533TIP3   OH225483   8.052   2.838   2.922
 8533TIP3    H125484   8.055   2.852   3.019
 8533TIP3    H225485   8.052   2.740   2.918
 8534TIP3   OH225486   8.668   3.081   4.302
 8534TIP3    H125487   8.742   3.128   4.258
 8534TIP3    H225488   8.596   3.146   4.290
 8535TIP3   OH225489   7.685   2.722   4.904
 8535TIP3    H125490   7.761   2.666   4.883
 8535TIP3    H225491   7.710   2.755   4.993
 8536TIP3   OH225492   7.753   2.543   3.338
 8536TIP3    H125493   7.727   2.501   3.422
 8536TIP3    H225494   7.789   2.468   3.287
 8537TIP3   OH225495   8.021   2.607   4.566
 8537TIP3    H125496   7.944   2.669   4.570
 8537TIP3    H225497   8.069   2.641   4.487
 8538TIP3   OH225498   7.853   2.337   3.179
 8538TIP3    H125499   7.826   2.338   3.085
 8538TIP3    H225500   7.950   2.344   3.171
 8539TIP3   OH225501   8.538   3.009   4.700
 8539TIP3    H125502   8.620   2.989   4.653
 8539TIP3    H225503   8.537   2.942   4.770
 8540TIP3   OH225504   8.676   2.670   2.839
 8540TIP3    H125505   8.652   2.621   2.758
 8540TIP3    H225506   8.643   2.759   2.815
 8541TIP3   OH225507   8.144   2.395   4.694
 8541TIP3    H125508   8.145   2.315   4.638
 8541TIP3    H225509   8.101   2.461   4.635
 8542TIP3   OH225510   8.147   2.182   4.500
 8542TIP3    H125511   8.175   2.223   4.415
 8542TIP3    H225512   8.054   2.159   4.481
 8543TIP3   OH225513   8.176   2.719   4.373
 8543TIP3    H125514   8.258   2.725   4.323
 8543TIP3    H225515   8.120   2.786   4.329
 8544TIP3   OH225516   8.759   2.687   4.756
 8544TIP3    H125517   8.807   2.602   4.763
 8544TIP3    H225518   8.829   2.746   4.723
 8545TIP3   OH225519   8.798   2.938   4.490
 8545TIP3    H125520   8.741   2.991   4.430
 8545TIP3    H225521   8.886   2.956   4.449
 8546TIP3   OH225522   8.022   2.510   4.923
 8546TIP3    H125523   7.953   2.441   4.936
 8546TIP3    H225524   8.058   2.484   4.835
 8547TIP3   OH225525   8.280   1.947   4.567
 8547TIP3    H125526   8.232   2.030   4.544
 8547TIP3    H225527   8.210   1.880   4.554
 8548TIP3   OH225528   8.406   2.452   4.783
 8548TIP3    H125529   8.395   2.441   4.879
 8548TIP3    H225530   8.315   2.427   4.753
 8549TIP3   OH225531   8.646   2.402   4.638
 8549TIP3    H125532   8.570   2.401   4.699
 8549TIP3    H225533   8.719   2.370   4.695
 8550TIP3   OH225534   8.873   2.340   4.791
 8550TIP3    H125535   8.885   2.245   4.809
 8550TIP3    H225536   8.869   2.380   4.881
 8551TIP3   OH225537   7.862   2.290   4.975
 8551TIP3    H125538   7.869   2.199   4.939
 8551TIP3    H225539   7.897   2.276   5.065
 8552TIP3   OH225540   8.374   1.956   4.824
 8552TIP3    H125541   8.442   1.886   4.818
 8552TIP3    H225542   8.334   1.950   4.735
 8553TIP3   OH225543   8.439   2.170   4.984
 8553TIP3    H125544   8.417   2.100   4.919
 8553TIP3    H225545   8.362   2.230   4.976
 8554TIP3   OH225546   7.660   3.400   3.083
 8554TIP3    H125547   7.756   3.397   3.064
 8554TIP3    H225548   7.630   3.448   3.004
 8555TIP3   OH225549   7.140   2.781   3.300
 8555TIP3    H125550   7.235   2.803   3.286
 8555TIP3    H225551   7.135   2.692   3.258
 8556TIP3   OH225552   7.053   3.394   3.713
 8556TIP3    H125553   6.986   3.331   3.678
 8556TIP3    H225554   7.098   3.337   3.779
 8557TIP3   OH225555   7.190   3.247   3.900
 8557TIP3    H125556   7.180   3.172   3.960
 8557TIP3    H225557   7.241   3.308   3.956
 8558TIP3   OH225558   8.919   3.643   3.699
 8558TIP3    H125559   8.944   3.680   3.786
 8558TIP3    H225560   8.978   3.691   3.639
 8559TIP3   OH225561   8.946   3.667   3.983
 8559TIP3    H125562   8.906   3.578   3.978
 8559TIP3    H225563   9.023   3.646   4.038
 8560TIP3   OH225564   8.994   3.343   4.552
 8560TIP3    H125565   8.921   3.350   4.617
 8560TIP3    H225566   9.034   3.432   4.558
 8561TIP3   OH225567   8.803   2.858   3.172
 8561TIP3    H125568   8.873   2.924   3.149
 8561TIP3    H225569   8.845   2.815   3.250
 8562TIP3   OH225570   8.923   2.721   3.373
 8562TIP3    H125571   8.857   2.677   3.432
 8562TIP3    H225572   8.984   2.762   3.438
 8563TIP3   OH225573   8.989   3.108   3.805
 8563TIP3    H125574   9.035   3.057   3.737
 8563TIP3    H225575   8.976   3.193   3.759
 8564TIP3   OH225576   8.823   3.414   4.006
 8564TIP3    H125577   8.754   3.459   4.058
 8564TIP3    H225578   8.770   3.368   3.937
 8565TIP3   OH225579   8.881   2.638   3.018
 8565TIP3    H125580   8.804   2.635   2.957
 8565TIP3    H225581   8.852   2.709   3.078
 8566TIP3   OH225582   8.735   2.304   2.991
 8566TIP3    H125583   8.718   2.345   2.905
 8566TIP3    H225584   8.713   2.210   2.972
 8567TIP3   OH225585   8.749   2.577   3.524
 8567TIP3    H125586   8.759   2.480   3.520
 8567TIP3    H225587   8.735   2.592   3.620
 8568TIP3   OH225588   7.378   2.654   4.271
 8568TIP3    H125589   7.377   2.623   4.178
 8568TIP3    H225590   7.475   2.655   4.288
 8569TIP3   OH225591   9.041   3.002   4.380
 8569TIP3    H125592   9.116   2.939   4.372
 8569TIP3    H225593   9.068   3.075   4.322
 8570TIP3   OH225594   9.238   2.818   4.403
 8570TIP3    H125595   9.159   2.770   4.437
 8570TIP3    H225596   9.303   2.745   4.411
 8571TIP3   OH225597   8.687   2.037   2.966
 8571TIP3    H125598   8.762   2.004   3.020
 8571TIP3    H225599   8.613   1.980   2.991
 8572TIP3   OH225600   8.750   2.297   3.419
 8572TIP3    H125601   8.791   2.209   3.435
 8572TIP3    H225602   8.805   2.330   3.346
 8573TIP3   OH225603   8.900   2.488   3.906
 8573TIP3    H125604   8.984   2.519   3.866
 8573TIP3    H225605   8.921   2.498   4.001
 8574TIP3   OH225606   8.978   2.615   4.153
 8574TIP3    H125607   8.897   2.648   4.198
 8574TIP3    H225608   9.007   2.694   4.104
 8575TIP3   OH225609   7.594   2.340   4.947
 8575TIP3    H125610   7.692   2.333   4.947
 8575TIP3    H225611   7.571   2.255   4.988
 8576TIP3   OH225612   8.856   2.045   3.465
 8576TIP3    H125613   8.892   2.030   3.554
 8576TIP3    H225614   8.794   1.970   3.458
 8577TIP3   OH225615   7.557   2.032   4.278
 8577TIP3    H125616   7.619   1.957   4.288
 8577TIP3    H225617   7.619   2.107   4.272
 8578TIP3   OH225618   7.360   2.306   4.350
 8578TIP3    H125619   7.409   2.298   4.266
 8578TIP3    H225620   7.391   2.393   4.381
 8579TIP3   OH225621   9.288   2.333   4.526
 8579TIP3    H125622   9.209   2.386   4.548
 8579TIP3    H225623   9.250   2.275   4.457
 8580TIP3   OH225624   8.936   1.966   3.081
 8580TIP3    H125625   8.981   1.882   3.059
 8580TIP3    H225626   8.989   2.028   3.026
 8581TIP3   OH225627   7.343   1.811   3.853
 8581TIP3    H125628   7.248   1.808   3.876
 8581TIP3    H225629   7.342   1.868   3.773
 8582TIP3   OH225630   8.501   3.511   3.357
 8582TIP3    H125631   8.553   3.496   3.275
 8582TIP3    H225632   8.554   3.579   3.402
 8583TIP3   OH225633   7.563   1.892   4.667
 8583TIP3    H125634   7.512   1.883   4.749
 8583TIP3    H225635   7.496   1.928   4.606
 8584TIP3   OH225636   7.603   3.316   4.743
 8584TIP3    H125637   7.511   3.287   4.726
 8584TIP3    H225638   7.612   3.298   4.837
 8585TIP3   OH225639   7.780   3.347   4.290
 8585TIP3    H125640   7.733   3.423   4.251
 8585TIP3    H225641   7.866   3.361   4.246
 8586TIP3   OH225642   8.227   3.594   4.428
 8586TIP3    H125643   8.269   3.594   4.516
 8586TIP3    H225644   8.293   3.644   4.376
 8587TIP3   OH225645   8.406   3.744   4.286
 8587TIP3    H125646   8.478   3.693   4.245
 8587TIP3    H225647   8.456   3.802   4.346
 8588TIP3   OH225648   9.190   2.107   4.391
 8588TIP3    H125649   9.104   2.111   4.347
 8588TIP3    H225650   9.225   2.022   4.361
 8589TIP3   OH225651   7.458   3.605   4.313
 8589TIP3    H125652   7.369   3.640   4.289
 8589TIP3    H225653   7.467   3.641   4.402
 8590TIP3   OH225654   7.694   3.583   4.170
 8590TIP3    H125655   7.608   3.597   4.216
 8590TIP3    H225656   7.674   3.617   4.081
 8591TIP3   OH225657   8.120   3.613   3.969
 8591TIP3    H125658   8.051   3.635   3.903
 8591TIP3    H225659   8.133   3.701   4.012
 8592TIP3   OH225660   8.388   3.553   4.019
 8592TIP3    H125661   8.294   3.570   4.000
 8592TIP3    H225662   8.431   3.630   3.978
 8593TIP3   OH225663   8.596   3.745   3.936
 8593TIP3    H125664   8.582   3.830   3.889
 8593TIP3    H225665   8.621   3.686   3.862
 8594TIP3   OH225666   7.368   3.399   4.059
 8594TIP3    H125667   7.396   3.374   4.150
 8594TIP3    H225668   7.441   3.356   4.008
 8595TIP3   OH225669   7.562   3.271   3.915
 8595TIP3    H125670   7.578   3.187   3.963
 8595TIP3    H225671   7.653   3.308   3.911
 8596TIP3   OH225672   7.828   3.366   3.917
 8596TIP3    H125673   7.860   3.275   3.905
 8596TIP3    H225674   7.872   3.388   4.002
 8597TIP3   OH225675   8.403   2.022   4.002
 8597TIP3    H125676   8.361   1.952   4.056
 8597TIP3    H225677   8.477   1.974   3.960
 8598TIP3   OH225678   8.928   1.907   3.931
 8598TIP3    H125679   8.961   1.957   3.852
 8598TIP3    H225680   8.832   1.919   3.922
 8599TIP3   OH225681   9.017   2.000   3.692
 8599TIP3    H125682   9.101   1.956   3.669
 8599TIP3    H225683   9.042   2.094   3.680
 8600TIP3   OH225684   7.654   1.731   4.023
 8600TIP3    H125685   7.562   1.697   4.023
 8600TIP3    H225686   7.703   1.646   4.020
 8601TIP3   OH225687   7.440   1.600   3.670
 8601TIP3    H125688   7.470   1.657   3.597
 8601TIP3    H225689   7.410   1.665   3.736
 8602TIP3   OH225690   8.096   1.764   3.902
 8602TIP3    H125691   8.155   1.815   3.844
 8602TIP3    H225692   8.118   1.800   3.989
 8603TIP3   OH225693   8.642   1.910   3.889
 8603TIP3    H125694   8.650   1.873   3.800
 8603TIP3    H225695   8.630   1.828   3.943
 8604TIP3   OH225696   8.666   1.836   3.452
 8604TIP3    H125697   8.579   1.879   3.466
 8604TIP3    H225698   8.652   1.750   3.497
 8605TIP3   OH225699   7.157   3.170   3.451
 8605TIP3    H125700   7.072   3.137   3.415
 8605TIP3    H225701   7.146   3.265   3.433
 8606TIP3   OH225702   7.556   1.760   3.434
 8606TIP3    H125703   7.605   1.698   3.377
 8606TIP3    H225704   7.629   1.814   3.470
 8607TIP3   OH225705   8.070   1.934   3.532
 8607TIP3    H125706   8.129   1.888   3.593
 8607TIP3    H225707   8.090   2.027   3.557
 8608TIP3   OH225708   7.929   3.361   3.032
 8608TIP3    H125709   8.017   3.383   2.996
 8608TIP3    H225710   7.907   3.285   2.973
 8609TIP3   OH225711   8.648   3.478   3.124
 8609TIP3    H125712   8.638   3.380   3.110
 8609TIP3    H225713   8.603   3.512   3.044
 8610TIP3   OH225714   7.861   2.013   4.914
 8610TIP3    H125715   7.828   1.941   4.971
 8610TIP3    H225716   7.956   2.013   4.939
 8611TIP3   OH225717   8.110   2.010   5.032
 8611TIP3    H125718   8.194   1.985   4.991
 8611TIP3    H225719   8.098   1.938   5.098
 8612TIP3   OH225720   7.233   3.197   3.089
 8612TIP3    H125721   7.234   3.223   3.182
 8612TIP3    H225722   7.322   3.156   3.078
 8613TIP3   OH225723   8.932   2.070   4.821
 8613TIP3    H125724   8.955   2.039   4.912
 8613TIP3    H225725   9.019   2.067   4.777
 8614TIP3   OH225726   8.873   3.623   4.314
 8614TIP3    H125727   8.794   3.591   4.265
 8614TIP3    H225728   8.855   3.719   4.316
 8615TIP3   OH225729   9.094   2.502   3.354
 8615TIP3    H125730   9.032   2.577   3.353
 8615TIP3    H225731   9.044   2.437   3.300
 8616TIP3   OH225732   9.149   2.794   3.508
 8616TIP3    H125733   9.191   2.714   3.543
 8616TIP3    H225734   9.189   2.796   3.419
 8617TIP3   OH225735   9.006   3.030   3.093
 8617TIP3    H125736   8.990   3.036   2.998
 8617TIP3    H225737   9.039   3.119   3.114
 8618TIP3   OH225738   9.195   3.138   3.998
 8618TIP3    H125739   9.123   3.109   3.938
 8618TIP3    H225740   9.229   3.054   4.035
 8619TIP3   OH225741   9.056   3.346   3.649
 8619TIP3    H125742   9.152   3.353   3.640
 8619TIP3    H225743   9.036   3.428   3.695
 8620TIP3   OH225744   9.191   3.567   3.186
 8620TIP3    H125745   9.246   3.561   3.267
 8620TIP3    H225746   9.142   3.483   3.191
 8621TIP3   OH225747   9.342   3.361   4.020
 8621TIP3    H125748   9.373   3.341   4.110
 8621TIP3    H225749   9.279   3.287   4.005
 8622TIP3   OH225750   9.115   2.241   3.619
 8622TIP3    H125751   9.178   2.291   3.671
 8622TIP3    H225752   9.124   2.280   3.531
 8623TIP3   OH225753   9.298   2.934   4.150
 8623TIP3    H125754   9.317   2.905   4.241
 8623TIP3    H225755   9.229   2.870   4.124
 8624TIP3   OH225756   9.078   2.699   2.837
 8624TIP3    H125757   9.152   2.694   2.901
 8624TIP3    H225758   9.002   2.677   2.895
 8625TIP3   OH225759   9.240   3.536   3.793
 8625TIP3    H125760   9.279   3.465   3.847
 8625TIP3    H225761   9.267   3.615   3.842
 8626TIP3   OH225762   9.074   3.298   3.142
 8626TIP3    H125763   8.996   3.325   3.191
 8626TIP3    H225764   9.056   3.340   3.055
 8627TIP3   OH225765   9.229   3.833   4.210
 8627TIP3    H125766   9.318   3.822   4.247
 8627TIP3    H225767   9.201   3.740   4.205
 8628TIP3   OH225768   9.362   3.271   4.397
 8628TIP3    H125769   9.390   3.186   4.434
 8628TIP3    H225770   9.277   3.249   4.353
 8629TIP3   OH225771   8.934   3.045   2.777
 8629TIP3    H125772   9.030   3.036   2.788
 8629TIP3    H225773   8.916   2.961   2.730
 8630TIP3   OH225774   8.849   3.651   3.200
 8630TIP3    H125775   8.782   3.588   3.166
 8630TIP3    H225776   8.895   3.594   3.266
 8631TIP3   OH225777   8.981   3.502   3.390
 8631TIP3    H125778   8.970   3.429   3.453
 8631TIP3    H225779   9.035   3.563   3.443
 8632TIP3   OH225780   9.201   2.900   3.758
 8632TIP3    H125781   9.174   2.873   3.668
 8632TIP3    H225782   9.283   2.949   3.740
 8633TIP3   OH225783   9.375   2.584   4.413
 8633TIP3    H125784   9.466   2.618   4.425
 8633TIP3    H225785   9.372   2.510   4.475
 8634TIP3   OH225786   9.146   2.581   3.808
 8634TIP3    H125787   9.213   2.511   3.813
 8634TIP3    H225788   9.191   2.658   3.844
 8635TIP3   OH225789   9.103   2.116   3.323
 8635TIP3    H125790   9.008   2.101   3.335
 8635TIP3    H225791   9.107   2.140   3.229
 8636TIP3   OH225792   9.396   3.577   4.249
 8636TIP3    H125793   9.311   3.546   4.213
 8636TIP3    H225794   9.396   3.540   4.338
 8637TIP3   OH225795   9.245   3.854   3.805
 8637TIP3    H125796   9.159   3.893   3.777
 8637TIP3    H225797   9.262   3.905   3.885
 8638TIP3   OH225798   9.494   3.839   3.668
 8638TIP3    H125799   9.403   3.847   3.703
 8638TIP3    H225800   9.484   3.875   3.577
 8639TIP3   OH225801   9.166   3.653   3.542
 8639TIP3    H125802   9.193   3.634   3.634
 8639TIP3    H225803   9.245   3.619   3.494
 8640TIP3   OH225804   9.373   3.542   3.391
 8640TIP3    H125805   9.397   3.448   3.392
 8640TIP3    H225806   9.461   3.584   3.400
 8641TIP3   OH225807   8.954   3.424   2.935
 8641TIP3    H125808   8.867   3.394   2.901
 8641TIP3    H225809   8.944   3.520   2.924
 8642TIP3   OH225810   9.053   3.470   2.588
 8642TIP3    H125811   9.017   3.493   2.675
 8642TIP3    H225812   9.108   3.393   2.609
 8643TIP3   OH225813   0.798   3.528   5.278
 8643TIP3    H125814   0.770   3.620   5.261
 8643TIP3    H225815   0.718   3.479   5.253
 8644TIP3   OH225816   0.800   3.523   5.660
 8644TIP3    H125817   0.827   3.497   5.749
 8644TIP3    H225818   0.752   3.444   5.630
 8645TIP3   OH225819   0.095   3.421   6.019
 8645TIP3    H125820   0.120   3.353   6.083
 8645TIP3    H225821   0.167   3.484   6.029
 8646TIP3   OH225822   1.041   3.827   5.342
 8646TIP3    H125823   1.023   3.760   5.409
 8646TIP3    H225824   1.064   3.904   5.396
 8647TIP3   OH225825   0.074   3.831   5.754
 8647TIP3    H125826   0.060   3.734   5.758
 8647TIP3    H225827   0.171   3.834   5.752
 8648TIP3   OH225828  -0.265   3.032   5.538
 8648TIP3    H125829  -0.274   3.124   5.567
 8648TIP3    H225830  -0.281   2.983   5.619
 8649TIP3   OH225831  -0.161   3.321   5.706
 8649TIP3    H125832  -0.111   3.247   5.747
 8649TIP3    H225833  -0.102   3.349   5.635
 8650TIP3   OH225834   0.683   4.288   5.360
 8650TIP3    H125835   0.734   4.219   5.312
 8650TIP3    H225836   0.681   4.254   5.449
 8651TIP3   OH225837   0.595   3.751   5.709
 8651TIP3    H125838   0.632   3.675   5.661
 8651TIP3    H225839   0.679   3.795   5.734
 8652TIP3   OH225840   1.607   3.073   5.708
 8652TIP3    H125841   1.635   3.155   5.754
 8652TIP3    H225842   1.625   3.096   5.615
 8653TIP3   OH225843   1.011   3.255   5.743
 8653TIP3    H125844   1.049   3.167   5.763
 8653TIP3    H225845   0.976   3.240   5.653
 8654TIP3   OH225846   0.346   2.913   5.708
 8654TIP3    H125847   0.322   2.986   5.647
 8654TIP3    H225848   0.296   2.839   5.667
 8655TIP3   OH225849   1.037   3.002   5.332
 8655TIP3    H125850   1.110   2.986   5.397
 8655TIP3    H225851   1.089   3.039   5.258
 8656TIP3   OH225852  -0.020   3.113   5.808
 8656TIP3    H125853   0.055   3.095   5.868
 8656TIP3    H225854  -0.000   3.053   5.734
 8657TIP3   OH225855   0.421   3.314   5.601
 8657TIP3    H125856   0.512   3.286   5.621
 8657TIP3    H225857   0.379   3.229   5.574
 8658TIP3   OH225858   1.680   3.281   5.876
 8658TIP3    H125859   1.595   3.327   5.859
 8658TIP3    H225860   1.691   3.299   5.971
 8659TIP3   OH225861   0.341   2.895   6.143
 8659TIP3    H125862   0.281   2.933   6.075
 8659TIP3    H225863   0.290   2.915   6.224
 8660TIP3   OH225864   0.700   3.756   5.144
 8660TIP3    H125865   0.643   3.726   5.072
 8660TIP3    H225866   0.651   3.837   5.171
 8661TIP3   OH225867   0.449   3.670   5.940
 8661TIP3    H125868   0.384   3.733   5.978
 8661TIP3    H225869   0.488   3.724   5.868
 8662TIP3   OH225870   1.251   3.005   5.502
 8662TIP3    H125871   1.235   2.957   5.584
 8662TIP3    H225872   1.302   3.082   5.532
 8663TIP3   OH225873   0.212   3.011   5.929
 8663TIP3    H125874   0.272   3.085   5.950
 8663TIP3    H225875   0.261   2.970   5.854
 8664TIP3   OH225876   0.278   3.862   6.033
 8664TIP3    H125877   0.253   3.949   5.996
 8664TIP3    H225878   0.200   3.848   6.091
 8665TIP3   OH225879  -0.279   3.573   5.220
 8665TIP3    H125880  -0.364   3.605   5.186
 8665TIP3    H225881  -0.265   3.633   5.296
 8666TIP3   OH225882   1.112   4.069   5.510
 8666TIP3    H125883   1.023   4.061   5.552
 8666TIP3    H225884   1.102   4.156   5.466
 8667TIP3   OH225885   1.400   2.974   5.875
 8667TIP3    H125886   1.312   3.002   5.847
 8667TIP3    H225887   1.457   3.004   5.801
 8668TIP3   OH225888   0.700   2.617   5.857
 8668TIP3    H125889   0.686   2.522   5.874
 8668TIP3    H225890   0.621   2.654   5.903
 8669TIP3   OH225891   0.818   4.115   5.191
 8669TIP3    H125892   0.869   4.035   5.165
 8669TIP3    H225893   0.874   4.184   5.149
 8670TIP3   OH225894   0.961   3.893   5.084
 8670TIP3    H125895   0.889   3.829   5.073
 8670TIP3    H225896   0.996   3.867   5.172
 8671TIP3   OH225897   1.338   3.985   5.855
 8671TIP3    H125898   1.324   3.907   5.797
 8671TIP3    H225899   1.317   4.059   5.794
 8672TIP3   OH225900   0.626   3.376   5.111
 8672TIP3    H125901   0.544   3.426   5.093
 8672TIP3    H225902   0.669   3.376   5.025
 8673TIP3   OH225903   0.585   3.164   4.828
 8673TIP3    H125904   0.653   3.210   4.881
 8673TIP3    H225905   0.640   3.097   4.782
 8674TIP3   OH225906   1.532   3.622   5.699
 8674TIP3    H125907   1.448   3.672   5.707
 8674TIP3    H225908   1.559   3.645   5.608
 8675TIP3   OH225909   0.976   3.460   5.084
 8675TIP3    H125910   0.918   3.486   5.161
 8675TIP3    H225911   1.057   3.434   5.132
 8676TIP3   OH225912   1.210   3.501   5.994
 8676TIP3    H125913   1.206   3.584   6.044
 8676TIP3    H225914   1.123   3.503   5.950
 8677TIP3   OH225915   0.208   3.458   5.498
 8677TIP3    H125916   0.166   3.400   5.432
 8677TIP3    H225917   0.285   3.405   5.527
 8678TIP3   OH225918   0.341   3.873   5.646
 8678TIP3    H125919   0.317   3.824   5.566
 8678TIP3    H225920   0.431   3.838   5.665
 8679TIP3   OH225921   0.356   3.425   5.855
 8679TIP3    H125922   0.380   3.414   5.761
 8679TIP3    H225923   0.389   3.515   5.876
 8680TIP3   OH225924   0.873   4.066   5.633
 8680TIP3    H125925   0.854   4.146   5.684
 8680TIP3    H225926   0.855   3.994   5.697
 8681TIP3   OH225927   0.481   3.984   6.179
 8681TIP3    H125928   0.422   4.049   6.224
 8681TIP3    H225929   0.414   3.933   6.129
 8682TIP3   OH225930   0.820   3.315   4.910
 8682TIP3    H125931   0.875   3.376   4.965
 8682TIP3    H225932   0.848   3.339   4.820
 8683TIP3   OH225933   0.245   3.545   6.272
 8683TIP3    H125934   0.246   3.634   6.315
 8683TIP3    H225935   0.150   3.522   6.287
 8684TIP3   OH225936   0.558   3.998   5.180
 8684TIP3    H125937   0.629   4.058   5.209
 8684TIP3    H225938   0.495   4.059   5.139
 8685TIP3   OH225939   0.281   4.157   6.266
 8685TIP3    H125940   0.243   4.150   6.176
 8685TIP3    H225941   0.208   4.120   6.321
 8686TIP3   OH225942   1.331   2.560   4.958
 8686TIP3    H125943   1.249   2.576   5.010
 8686TIP3    H225944   1.340   2.644   4.910
 8687TIP3   OH225945   0.078   3.298   5.306
 8687TIP3    H125946   0.015   3.342   5.245
 8687TIP3    H225947   0.031   3.216   5.325
 8688TIP3   OH225948   1.126   3.929   4.499
 8688TIP3    H125949   1.129   4.027   4.494
 8688TIP3    H225950   1.220   3.907   4.488
 8689TIP3   OH225951  -0.142   3.699   6.206
 8689TIP3    H125952  -0.195   3.660   6.135
 8689TIP3    H225953  -0.112   3.618   6.252
 8690TIP3   OH225954   1.575   4.329   5.899
 8690TIP3    H125955   1.573   4.233   5.914
 8690TIP3    H225956   1.492   4.355   5.945
 8691TIP3   OH225957   0.680   4.114   6.036
 8691TIP3    H125958   0.679   4.207   6.067
 8691TIP3    H225959   0.608   4.075   6.090
 8692TIP3   OH225960   0.437   4.207   4.988
 8692TIP3    H125961   0.389   4.210   4.903
 8692TIP3    H225962   0.430   4.301   5.017
 8693TIP3   OH225963  -0.083   4.077   5.339
 8693TIP3    H125964  -0.066   4.057   5.434
 8693TIP3    H225965  -0.172   4.042   5.322
 8694TIP3   OH225966   0.641   4.147   4.628
 8694TIP3    H125967   0.700   4.076   4.595
 8694TIP3    H225968   0.672   4.157   4.721
 8695TIP3   OH225969   0.692   4.189   4.897
 8695TIP3    H125970   0.602   4.196   4.936
 8695TIP3    H225971   0.742   4.159   4.975
 8696TIP3   OH225972   1.466   3.463   6.173
 8696TIP3    H125973   1.382   3.475   6.126
 8696TIP3    H225974   1.479   3.366   6.164
 8697TIP3   OH225975   0.068   3.871   6.200
 8697TIP3    H125976   0.110   3.864   6.288
 8697TIP3    H225977  -0.006   3.806   6.208
 8698TIP3   OH225978   0.460   2.692   5.984
 8698TIP3    H125979   0.371   2.659   5.960
 8698TIP3    H225980   0.434   2.774   6.030
 8699TIP3   OH225981   0.991   2.807   6.179
 8699TIP3    H125982   1.058   2.780   6.245
 8699TIP3    H225983   0.907   2.786   6.225
 8700TIP3   OH225984   1.235   3.238   6.100
 8700TIP3    H125985   1.185   3.232   6.184
 8700TIP3    H225986   1.206   3.323   6.064
 8701TIP3   OH225987   0.907   3.359   4.652
 8701TIP3    H125988   0.861   3.335   4.569
 8701TIP3    H225989   0.933   3.450   4.636
 8702TIP3   OH225990   0.607   2.740   4.956
 8702TIP3    H125991   0.573   2.739   5.048
 8702TIP3    H225992   0.566   2.657   4.923
 8703TIP3   OH225993   0.394   3.204   6.005
 8703TIP3    H125994   0.340   3.225   6.084
 8703TIP3    H225995   0.378   3.286   5.951
 8704TIP3   OH225996   0.274   3.092   5.517
 8704TIP3    H125997   0.180   3.068   5.534
 8704TIP3    H225998   0.287   3.051   5.429
 8705TIP3   OH225999   0.765   3.180   5.246
 8705TIP3    H126000   0.710   3.251   5.205
 8705TIP3    H226001   0.817   3.149   5.169
 8706TIP3   OH226002   0.939   3.458   6.331
 8706TIP3    H126003   0.915   3.385   6.393
 8706TIP3    H226004   1.033   3.472   6.355
 8707TIP3   OH226005   0.924   3.208   5.484
 8707TIP3    H126006   0.862   3.238   5.415
 8707TIP3    H226007   0.954   3.125   5.443
 8708TIP3   OH226008   0.216   3.237   6.211
 8708TIP3    H126009   0.219   3.304   6.281
 8708TIP3    H226010   0.197   3.155   6.261
 8709TIP3   OH226011   0.261   2.715   4.922
 8709TIP3    H126012   0.253   2.710   5.019
 8709TIP3    H226013   0.180   2.763   4.899
 8710TIP3   OH226014  -0.198   2.781   5.757
 8710TIP3    H126015  -0.141   2.800   5.835
 8710TIP3    H226016  -0.156   2.702   5.722
 8711TIP3   OH226017  -0.209   2.766   5.327
 8711TIP3    H126018  -0.175   2.787   5.238
 8711TIP3    H226019  -0.263   2.844   5.345
 8712TIP3   OH226020   0.936   3.455   5.908
 8712TIP3    H126021   0.967   3.382   5.850
 8712TIP3    H226022   0.905   3.404   5.985
 8713TIP3   OH226023   0.601   2.915   5.580
 8713TIP3    H126024   0.517   2.913   5.630
 8713TIP3    H226025   0.666   2.916   5.651
 8714TIP3   OH226026   0.033   2.968   5.578
 8714TIP3    H126027  -0.060   2.961   5.550
 8714TIP3    H226028   0.065   2.877   5.567
 8715TIP3   OH226029   0.307   2.966   5.275
 8715TIP3    H126030   0.400   2.984   5.253
 8715TIP3    H226031   0.258   2.991   5.193
 8716TIP3   OH226032   1.093   2.989   5.778
 8716TIP3    H126033   1.061   3.002   5.870
 8716TIP3    H226034   1.025   2.928   5.744
 8717TIP3   OH226035   0.145   3.000   5.055
 8717TIP3    H126036   0.073   2.955   5.007
 8717TIP3    H226037   0.197   3.035   4.979
 8718TIP3   OH226038   1.263   4.677   5.999
 8718TIP3    H126039   1.258   4.704   5.905
 8718TIP3    H226040   1.335   4.734   6.032
 8719TIP3   OH226041   0.229   3.783   6.421
 8719TIP3    H126042   0.306   3.820   6.469
 8719TIP3    H226043   0.160   3.794   6.490
 8720TIP3   OH226044   0.686   3.244   5.678
 8720TIP3    H126045   0.756   3.199   5.630
 8720TIP3    H226046   0.691   3.203   5.767
 8721TIP3   OH226047   0.208   2.731   5.556
 8721TIP3    H126048   0.173   2.652   5.602
 8721TIP3    H226049   0.258   2.692   5.483
 8722TIP3   OH226050   0.662   3.140   5.964
 8722TIP3    H126051   0.571   3.174   5.980
 8722TIP3    H226052   0.717   3.201   6.018
 8723TIP3   OH226053   0.401   3.530   5.062
 8723TIP3    H126054   0.327   3.466   5.050
 8723TIP3    H226055   0.381   3.564   5.153
 8724TIP3   OH226056   1.299   3.765   5.692
 8724TIP3    H126057   1.321   3.815   5.610
 8724TIP3    H226058   1.212   3.725   5.669
 8725TIP3   OH226059   0.855   2.846   4.916
 8725TIP3    H126060   0.759   2.826   4.931
 8725TIP3    H226061   0.864   2.939   4.947
 8726TIP3   OH226062   0.803   3.852   6.058
 8726TIP3    H126063   0.814   3.825   6.150
 8726TIP3    H226064   0.758   3.938   6.066
 8727TIP3   OH226065   0.926   3.088   5.026
 8727TIP3    H126066   1.022   3.096   5.044
 8727TIP3    H226067   0.906   3.169   4.976
 8728TIP3   OH226068   0.097   3.556   5.738
 8728TIP3    H126069   0.134   3.521   5.655
 8728TIP3    H226070   0.118   3.487   5.803
 8729TIP3   OH226071   0.543   3.680   4.882
 8729TIP3    H126072   0.496   3.766   4.887
 8729TIP3    H226073   0.488   3.625   4.942
 8730TIP3   OH226074  -0.004   3.470   6.351
 8730TIP3    H126075   0.002   3.463   6.448
 8730TIP3    H226076  -0.095   3.438   6.333
 8731TIP3   OH226077   0.694   3.586   6.372
 8731TIP3    H126078   0.633   3.528   6.324
 8731TIP3    H226079   0.781   3.553   6.341
 8732TIP3   OH226080   0.960   4.108   5.952
 8732TIP3    H126081   0.863   4.105   5.965
 8732TIP3    H226082   0.987   4.159   6.032
 8733TIP3   OH226083   1.371   3.175   4.859
 8733TIP3    H126084   1.308   3.131   4.798
 8733TIP3    H226085   1.363   3.266   4.824
 8734TIP3   OH226086   1.587   4.038   5.944
 8734TIP3    H126087   1.489   4.033   5.937
 8734TIP3    H226088   1.611   4.007   5.853
 8735TIP3   OH226089   1.079   3.997   4.773
 8735TIP3    H126090   1.038   3.940   4.841
 8735TIP3    H226091   1.074   3.945   4.692
 8736TIP3   OH226092   1.065   3.628   5.610
 8736TIP3    H126093   0.971   3.603   5.624
 8736TIP3    H226094   1.098   3.548   5.565
 8737TIP3   OH226095   0.193   3.854   5.355
 8737TIP3    H126096   0.198   3.937   5.304
 8737TIP3    H226097   0.099   3.851   5.377
 8738TIP3   OH226098  -0.248   3.164   5.071
 8738TIP3    H126099  -0.182   3.236   5.078
 8738TIP3    H226100  -0.316   3.200   5.131
 8739TIP3   OH226101   0.334   3.623   5.307
 8739TIP3    H126102   0.296   3.712   5.323
 8739TIP3    H226103   0.295   3.573   5.381
 8740TIP3   OH226104   0.460   4.202   5.829
 8740TIP3    H126105   0.501   4.275   5.778
 8740TIP3    H226106   0.537   4.169   5.880
 8741TIP3   OH226107   0.146   4.099   5.203
 8741TIP3    H126108   0.058   4.101   5.249
 8741TIP3    H226109   0.169   4.194   5.206
 8742TIP3   OH226110   0.850   3.833   5.790
 8742TIP3    H126111   0.840   3.835   5.888
 8742TIP3    H226112   0.930   3.780   5.780
 8743TIP3   OH226113   0.821   3.719   4.668
 8743TIP3    H126114   0.871   3.698   4.750
 8743TIP3    H226115   0.730   3.703   4.698
 8744TIP3   OH226116   1.099   4.367   5.839
 8744TIP3    H126117   1.020   4.311   5.834
 8744TIP3    H226118   1.082   4.432   5.768
 8745TIP3   OH226119   1.162   4.204   4.492
 8745TIP3    H126120   1.198   4.279   4.441
 8745TIP3    H226121   1.082   4.248   4.528
 8746TIP3   OH226122   0.192   2.975   6.365
 8746TIP3    H126123   0.098   2.984   6.387
 8746TIP3    H226124   0.220   2.910   6.432
 8747TIP3   OH226125   0.982   3.646   4.877
 8747TIP3    H126126   0.969   3.593   4.958
 8747TIP3    H226127   1.079   3.659   4.880
 8748TIP3   OH226128  -0.067   4.086   5.982
 8748TIP3    H126129  -0.041   3.994   5.994
 8748TIP3    H226130  -0.068   4.116   6.074
 8749TIP3   OH226131   0.193   3.706   4.670
 8749TIP3    H126132   0.202   3.612   4.643
 8749TIP3    H226133   0.175   3.697   4.766
 8750TIP3   OH226134   0.141   3.712   4.942
 8750TIP3    H126135   0.204   3.688   5.011
 8750TIP3    H226136   0.140   3.810   4.948
 8751TIP3   OH226137  -0.106   3.394   5.126
 8751TIP3    H126138  -0.172   3.446   5.178
 8751TIP3    H226139  -0.089   3.462   5.058
 8752TIP3   OH226140   1.022   3.040   6.037
 8752TIP3    H126141   1.098   3.080   6.083
 8752TIP3    H226142   1.003   2.961   6.091
 8753TIP3   OH226143   0.900   2.795   5.202
 8753TIP3    H126144   0.884   2.821   5.110
 8753TIP3    H226145   0.938   2.876   5.240
 8754TIP3   OH226146   0.400   3.909   4.888
 8754TIP3    H126147   0.316   3.935   4.930
 8754TIP3    H226148   0.420   3.990   4.840
 8755TIP3   OH226149   0.592   2.972   5.307
 8755TIP3    H126150   0.655   3.045   5.291
 8755TIP3    H226151   0.593   2.966   5.405
 8756TIP3   OH226152   0.859   3.293   6.114
 8756TIP3    H126153   0.874   3.349   6.193
 8756TIP3    H226154   0.913   3.215   6.134
 8757TIP3   OH226155   0.735   2.703   5.412
 8757TIP3    H126156   0.724   2.780   5.470
 8757TIP3    H226157   0.794   2.739   5.342
 8758TIP3   OH226158   0.140   3.982   4.956
 8758TIP3    H126159   0.112   4.054   4.895
 8758TIP3    H226160   0.138   4.029   5.042
 8759TIP3   OH226161   0.246   2.697   5.198
 8759TIP3    H126162   0.242   2.788   5.235
 8759TIP3    H226163   0.342   2.680   5.207
 8760TIP3   OH226164   1.500   3.192   6.092
 8760TIP3    H126165   1.403   3.193   6.104
 8760TIP3    H226166   1.505   3.147   6.006
 8761TIP3   OH226167   1.150   3.386   5.481
 8761TIP3    H126168   1.073   3.329   5.496
 8761TIP3    H226169   1.220   3.339   5.532
 8762TIP3   OH226170  -0.127   3.622   4.947
 8762TIP3    H126171  -0.059   3.690   4.959
 8762TIP3    H226172  -0.085   3.568   4.877
 8763TIP3   OH226173  -0.193   2.892   5.085
 8763TIP3    H126174  -0.197   2.990   5.088
 8763TIP3    H226175  -0.270   2.869   5.032
 8764TIP3   OH226176   1.119   4.340   5.434
 8764TIP3    H126177   1.075   4.387   5.359
 8764TIP3    H226178   1.213   4.358   5.411
 8765TIP3   OH226179   0.199   2.607   5.961
 8765TIP3    H126180   0.162   2.577   5.875
 8765TIP3    H226181   0.182   2.529   6.019
 8766TIP3   OH226182  -0.246   3.797   5.374
 8766TIP3    H126183  -0.333   3.840   5.370
 8766TIP3    H226184  -0.205   3.835   5.295
 8767TIP3   OH226185   0.369   4.346   6.454
 8767TIP3    H126186   0.462   4.322   6.466
 8767TIP3    H226187   0.343   4.283   6.383
 8768TIP3   OH226188   0.352   3.911   4.582
 8768TIP3    H126189   0.293   3.844   4.625
 8768TIP3    H226190   0.426   3.854   4.556
 8769TIP3   OH226191   1.015   4.239   6.186
 8769TIP3    H126192   1.003   4.171   6.256
 8769TIP3    H226193   1.088   4.293   6.222
 8770TIP3   OH226194   0.789   3.953   4.497
 8770TIP3    H126195   0.834   3.888   4.554
 8770TIP3    H226196   0.846   3.956   4.418
 8771TIP3   OH226197   0.038   3.761   6.620
 8771TIP3    H126198   0.070   3.669   6.615
 8771TIP3    H226199  -0.057   3.746   6.602
 8772TIP3   OH226200   0.002   3.428   4.803
 8772TIP3    H126201   0.055   3.395   4.878
 8772TIP3    H226202   0.070   3.433   4.733
 8773TIP3   OH226203   0.631   3.862   6.384
 8773TIP3    H126204   0.584   3.877   6.299
 8773TIP3    H226205   0.659   3.768   6.377
 8774TIP3   OH226206   0.512   3.628   4.612
 8774TIP3    H126207   0.506   3.643   4.708
 8774TIP3    H226208   0.505   3.531   4.608
 8775TIP3   OH226209   1.122   3.867   5.991
 8775TIP3    H126210   1.192   3.919   5.948
 8775TIP3    H226211   1.046   3.929   5.983
 8776TIP3   OH226212   0.127   3.494   6.610
 8776TIP3    H126213   0.206   3.451   6.576
 8776TIP3    H226214   0.159   3.530   6.695
 8777TIP3   OH226215   0.209   3.332   5.029
 8777TIP3    H126216   0.177   3.293   5.112
 8777TIP3    H226217   0.241   3.253   4.980
 8778TIP3   OH226218   0.481   3.400   6.261
 8778TIP3    H126219   0.399   3.454   6.261
 8778TIP3    H226220   0.524   3.431   6.177
 8779TIP3   OH226221   0.305   3.123   4.869
 8779TIP3    H126222   0.277   3.126   4.775
 8779TIP3    H226223   0.402   3.133   4.860
 8780TIP3   OH226224   0.990   3.798   6.391
 8780TIP3    H126225   1.071   3.775   6.344
 8780TIP3    H226226   0.987   3.731   6.461
 8781TIP3   OH226227   1.196   3.483   4.461
 8781TIP3    H126228   1.125   3.420   4.436
 8781TIP3    H226229   1.135   3.559   4.484
 8782TIP3   OH226230   0.599   3.184   6.383
 8782TIP3    H126231   0.595   3.105   6.327
 8782TIP3    H226232   0.554   3.251   6.327
 8783TIP3   OH226233   0.600   2.970   6.188
 8783TIP3    H126234   0.625   3.012   6.103
 8783TIP3    H226235   0.506   2.947   6.171
 8784TIP3   OH226236   0.631   3.508   6.061
 8784TIP3    H126237   0.711   3.517   6.007
 8784TIP3    H226238   0.571   3.573   6.020
 8785TIP3   OH226239   1.210   3.474   6.445
 8785TIP3    H126240   1.258   3.391   6.456
 8785TIP3    H226241   1.279   3.533   6.411
 8786TIP3   OH226242   1.251   3.725   6.180
 8786TIP3    H126243   1.192   3.778   6.121
 8786TIP3    H226244   1.338   3.746   6.138
 8787TIP3   OH226245   0.475   3.298   6.613
 8787TIP3    H126246   0.407   3.229   6.626
 8787TIP3    H226247   0.509   3.275   6.524
 8788TIP3   OH226248   0.732   2.735   6.255
 8788TIP3    H126249   0.684   2.817   6.233
 8788TIP3    H226250   0.662   2.668   6.244
 8789TIP3   OH226251   0.859   3.240   6.472
 8789TIP3    H126252   0.846   3.229   6.568
 8789TIP3    H226253   0.769   3.215   6.442
 8790TIP3   OH226254   1.097   3.185   6.326
 8790TIP3    H126255   1.021   3.189   6.387
 8790TIP3    H226256   1.169   3.155   6.385
 8791TIP3   OH226257   1.330   3.129   6.479
 8791TIP3    H126258   1.340   3.033   6.498
 8791TIP3    H226259   1.323   3.168   6.568
 8792TIP3   OH226260   0.314   3.080   6.665
 8792TIP3    H126261   0.321   2.990   6.628
 8792TIP3    H226262   0.351   3.065   6.755
 8793TIP3   OH226263   0.827   2.744   6.513
 8793TIP3    H126264   0.894   2.674   6.507
 8793TIP3    H226265   0.786   2.738   6.424
 8794TIP3   OH226266   0.892   2.959   6.673
 8794TIP3    H126267   0.869   2.888   6.608
 8794TIP3    H226268   0.815   3.019   6.666
 8795TIP3   OH226269   0.110   4.183   4.769
 8795TIP3    H126270   0.206   4.185   4.754
 8795TIP3    H226271   0.081   4.235   4.692
 8796TIP3   OH226272  -0.395   3.588   4.928
 8796TIP3    H126273  -0.302   3.598   4.958
 8796TIP3    H226274  -0.401   3.490   4.920
 8797TIP3   OH226275   1.377   4.424   5.389
 8797TIP3    H126276   1.393   4.462   5.477
 8797TIP3    H226277   1.420   4.489   5.331
 8798TIP3   OH226278   1.403   4.452   5.669
 8798TIP3    H126279   1.356   4.366   5.666
 8798TIP3    H226280   1.471   4.431   5.734
 8799TIP3   OH226281   1.447   4.130   6.244
 8799TIP3    H126282   1.373   4.137   6.307
 8799TIP3    H226283   1.486   4.219   6.248
 8800TIP3   OH226284   1.268   3.642   4.862
 8800TIP3    H126285   1.335   3.711   4.846
 8800TIP3    H226286   1.303   3.603   4.945
 8801TIP3   OH226287   1.389   3.511   5.068
 8801TIP3    H126288   1.324   3.468   5.127
 8801TIP3    H226289   1.452   3.550   5.132
 8802TIP3   OH226290   1.445   3.903   5.503
 8802TIP3    H126291   1.498   3.841   5.449
 8802TIP3    H226292   1.431   3.977   5.440
 8803TIP3   OH226293   1.276   4.203   5.695
 8803TIP3    H126294   1.206   4.247   5.748
 8803TIP3    H226295   1.224   4.156   5.627
 8804TIP3   OH226296   1.329   3.419   4.717
 8804TIP3    H126297   1.260   3.424   4.649
 8804TIP3    H226298   1.302   3.492   4.776
 8805TIP3   OH226299   1.203   3.093   4.661
 8805TIP3    H126300   1.143   3.124   4.592
 8805TIP3    H226301   1.181   2.997   4.661
 8806TIP3   OH226302   1.207   3.365   5.214
 8806TIP3    H126303   1.210   3.268   5.212
 8806TIP3    H226304   1.191   3.383   5.310
 8807TIP3   OH226305  -0.167   3.482   5.939
 8807TIP3    H126306  -0.171   3.429   5.856
 8807TIP3    H226307  -0.077   3.461   5.970
 8808TIP3   OH226308   1.493   3.792   6.071
 8808TIP3    H126309   1.566   3.727   6.062
 8808TIP3    H226310   1.519   3.862   6.010
 8809TIP3   OH226311   1.682   3.600   6.087
 8809TIP3    H126312   1.606   3.551   6.126
 8809TIP3    H226313   1.753   3.534   6.102
 8810TIP3   OH226314   1.142   2.829   4.657
 8810TIP3    H126315   1.216   2.794   4.712
 8810TIP3    H226316   1.068   2.770   4.680
 8811TIP3   OH226317   1.199   3.082   5.111
 8811TIP3    H126318   1.239   2.993   5.128
 8811TIP3    H226319   1.260   3.114   5.042
 8812TIP3   OH226320   1.363   3.257   5.604
 8812TIP3    H126321   1.449   3.285   5.566
 8812TIP3    H226322   1.373   3.294   5.694
 8813TIP3   OH226323   1.429   3.401   5.836
 8813TIP3    H126324   1.352   3.434   5.887
 8813TIP3    H226325   1.461   3.484   5.793
 8814TIP3   OH226326   0.041   3.109   6.643
 8814TIP3    H126327   0.136   3.126   6.628
 8814TIP3    H226328   0.046   3.039   6.708
 8815TIP3   OH226329   1.882   2.992   6.393
 8815TIP3    H126330   1.940   2.926   6.349
 8815TIP3    H226331   1.855   3.049   6.317
 8816TIP3   OH226332   1.310   2.833   5.146
 8816TIP3    H126333   1.357   2.817   5.231
 8816TIP3    H226334   1.249   2.756   5.145
 8817TIP3   OH226335   0.007   2.809   5.948
 8817TIP3    H126336   0.075   2.742   5.968
 8817TIP3    H226337   0.056   2.891   5.963
 8818TIP3   OH226338  -0.147   3.107   6.064
 8818TIP3    H126339  -0.133   3.091   5.970
 8818TIP3    H226340  -0.190   3.193   6.064
 8819TIP3   OH226341   1.755   3.134   6.199
 8819TIP3    H126342   1.668   3.172   6.222
 8819TIP3    H226343   1.726   3.062   6.140
 8820TIP3   OH226344   1.390   2.770   4.778
 8820TIP3    H126345   1.429   2.694   4.728
 8820TIP3    H226346   1.460   2.837   4.770
 8821TIP3   OH226347  -0.210   2.583   5.523
 8821TIP3    H126348  -0.292   2.613   5.562
 8821TIP3    H226349  -0.198   2.650   5.451
 8822TIP3   OH226350   0.965   4.287   5.048
 8822TIP3    H126351   1.016   4.286   4.964
 8822TIP3    H226352   0.993   4.371   5.088
 8823TIP3   OH226353   0.013   2.686   6.371
 8823TIP3    H126354  -0.052   2.672   6.441
 8823TIP3    H226355  -0.044   2.720   6.300
 8824TIP3   OH226356   0.086   4.067   6.437
 8824TIP3    H126357   0.002   4.115   6.422
 8824TIP3    H226358   0.085   4.060   6.534
 8825TIP3   OH226359   0.242   4.131   5.984
 8825TIP3    H126360   0.182   4.198   5.946
 8825TIP3    H226361   0.323   4.153   5.934
 8826TIP3   OH226362   0.679   4.380   6.115
 8826TIP3    H126363   0.720   4.380   6.205
 8826TIP3    H226364   0.745   4.432   6.065
 8827TIP3   OH226365   0.858   4.532   5.975
 8827TIP3    H126366   0.930   4.481   5.936
 8827TIP3    H226367   0.908   4.590   6.037
 8828TIP3   OH226368   1.653   2.895   6.076
 8828TIP3    H126369   1.560   2.890   6.045
 8828TIP3    H226370   1.682   2.802   6.064
 8829TIP3   OH226371   0.143   4.373   5.866
 8829TIP3    H126372   0.057   4.379   5.909
 8829TIP3    H226373   0.124   4.408   5.777
 8830TIP3   OH226374   0.573   4.401   5.659
 8830TIP3    H126375   0.511   4.422   5.587
 8830TIP3    H226376   0.585   4.490   5.700
 8831TIP3   OH226377   0.841   4.341   5.708
 8831TIP3    H126378   0.745   4.356   5.691
 8831TIP3    H226379   0.879   4.420   5.666
 8832TIP3   OH226380   1.054   4.535   5.626
 8832TIP3    H126381   1.035   4.619   5.579
 8832TIP3    H226382   1.073   4.474   5.551
 8833TIP3   OH226383  -0.132   4.210   5.737
 8833TIP3    H126384  -0.110   4.170   5.824
 8833TIP3    H226385  -0.077   4.151   5.680
 8834TIP3   OH226386   0.022   4.042   5.591
 8834TIP3    H126387   0.034   3.962   5.649
 8834TIP3    H226388   0.112   4.080   5.592
 8835TIP3   OH226389   0.283   4.154   5.608
 8835TIP3    H126390   0.314   4.063   5.595
 8835TIP3    H226391   0.327   4.174   5.693
 8836TIP3   OH226392   0.859   2.811   5.696
 8836TIP3    H126393   0.813   2.743   5.749
 8836TIP3    H226394   0.927   2.759   5.651
 8837TIP3   OH226395   1.383   2.690   5.599
 8837TIP3    H126396   1.417   2.744   5.525
 8837TIP3    H226397   1.286   2.707   5.594
 8838TIP3   OH226398   1.477   2.794   5.363
 8838TIP3    H126399   1.550   2.742   5.324
 8838TIP3    H226400   1.509   2.886   5.349
 8839TIP3   OH226401   0.105   2.519   5.711
 8839TIP3    H126402   0.014   2.482   5.709
 8839TIP3    H226403   0.156   2.435   5.709
 8840TIP3   OH226404  -0.094   2.383   5.369
 8840TIP3    H126405  -0.081   2.439   5.291
 8840TIP3    H226406  -0.134   2.447   5.431
 8841TIP3   OH226407   0.549   2.552   5.590
 8841TIP3    H126408   0.610   2.603   5.535
 8841TIP3    H226409   0.565   2.588   5.678
 8842TIP3   OH226410   1.102   2.697   5.575
 8842TIP3    H126411   1.092   2.659   5.487
 8842TIP3    H226412   1.086   2.617   5.632
 8843TIP3   OH226413   1.126   2.620   5.138
 8843TIP3    H126414   1.039   2.662   5.150
 8843TIP3    H226415   1.112   2.535   5.185
 8844TIP3   OH226416   0.009   2.553   5.117
 8844TIP3    H126417   0.058   2.487   5.065
 8844TIP3    H226418   0.082   2.603   5.159
 8845TIP3   OH226419   0.523   2.723   5.220
 8845TIP3    H126420   0.580   2.675   5.283
 8845TIP3    H226421   0.543   2.815   5.247
 8846TIP3   OH226422   0.379   4.149   4.717
 8846TIP3    H126423   0.467   4.173   4.681
 8846TIP3    H226424   0.358   4.072   4.660
 8847TIP3   OH226425   1.106   4.268   4.810
 8847TIP3    H126426   1.096   4.170   4.799
 8847TIP3    H226427   1.054   4.301   4.735
 8848TIP3   OH226428   0.312   2.803   6.604
 8848TIP3    H126429   0.278   2.728   6.658
 8848TIP3    H226430   0.406   2.801   6.631
 8849TIP3   OH226431   0.562   2.796   6.724
 8849TIP3    H126432   0.647   2.772   6.682
 8849TIP3    H226433   0.549   2.722   6.786
 8850TIP3   OH226434  -0.299   3.991   4.820
 8850TIP3    H126435  -0.281   4.084   4.839
 8850TIP3    H226436  -0.214   3.956   4.786
 8851TIP3   OH226437   1.386   2.857   6.510
 8851TIP3    H126438   1.406   2.827   6.602
 8851TIP3    H226439   1.475   2.853   6.468
 8852TIP3   OH226440   1.330   4.410   5.999
 8852TIP3    H126441   1.249   4.377   5.955
 8852TIP3    H226442   1.308   4.506   6.005
 8853TIP3   OH226443   2.589   3.786   4.764
 8853TIP3    H126444   2.566   3.876   4.735
 8853TIP3    H226445   2.506   3.757   4.805
 8854TIP3   OH226446   2.583   3.780   5.153
 8854TIP3    H126447   2.623   3.754   5.238
 8854TIP3    H226448   2.550   3.695   5.121
 8855TIP3   OH226449   1.893   3.677   5.511
 8855TIP3    H126450   1.921   3.609   5.576
 8855TIP3    H226451   1.968   3.737   5.515
 8856TIP3   OH226452   2.829   4.083   4.830
 8856TIP3    H126453   2.831   4.015   4.898
 8856TIP3    H226454   2.859   4.162   4.879
 8857TIP3   OH226455   1.866   4.088   5.239
 8857TIP3    H126456   1.851   3.991   5.244
 8857TIP3    H226457   1.963   4.091   5.235
 8858TIP3   OH226458   1.572   3.297   5.021
 8858TIP3    H126459   1.520   3.377   5.040
 8858TIP3    H226460   1.501   3.235   4.997
 8859TIP3   OH226461   1.629   3.578   5.194
 8859TIP3    H126462   1.676   3.502   5.235
 8859TIP3    H226463   1.693   3.606   5.127
 8860TIP3   OH226464   2.472   4.546   4.840
 8860TIP3    H126465   2.527   4.473   4.805
 8860TIP3    H226466   2.476   4.533   4.936
 8861TIP3   OH226467   2.392   4.008   5.196
 8861TIP3    H126468   2.428   3.928   5.155
 8861TIP3    H226469   2.476   4.053   5.217
 8862TIP3   OH226470   3.402   3.329   5.195
 8862TIP3    H126471   3.432   3.411   5.239
 8862TIP3    H226472   3.423   3.348   5.102
 8863TIP3   OH226473   2.804   3.513   5.233
 8863TIP3    H126474   2.845   3.426   5.251
 8863TIP3    H226475   2.770   3.498   5.143
 8864TIP3   OH226476   2.131   3.170   5.200
 8864TIP3    H126477   2.119   3.242   5.134
 8864TIP3    H226478   2.087   3.096   5.154
 8865TIP3   OH226479   2.836   3.278   4.843
 8865TIP3    H126480   2.919   3.254   4.889
 8865TIP3    H226481   2.859   3.263   4.750
 8866TIP3   OH226482   1.775   3.373   5.301
 8866TIP3    H126483   1.856   3.352   5.351
 8866TIP3    H226484   1.787   3.314   5.223
 8867TIP3   OH226485   2.217   3.570   5.090
 8867TIP3    H126486   2.310   3.544   5.108
 8867TIP3    H226487   2.179   3.485   5.062
 8868TIP3   OH226488   3.477   3.535   5.365
 8868TIP3    H126489   3.393   3.583   5.347
 8868TIP3    H226490   3.493   3.561   5.457
 8869TIP3   OH226491   2.138   3.153   5.630
 8869TIP3    H126492   2.076   3.189   5.563
 8869TIP3    H226493   2.086   3.169   5.712
 8870TIP3   OH226494   2.476   4.005   4.642
 8870TIP3    H126495   2.450   4.000   4.550
 8870TIP3    H226496   2.441   4.094   4.667
 8871TIP3   OH226497   2.245   3.928   5.425
 8871TIP3    H126498   2.177   3.989   5.461
 8871TIP3    H226499   2.284   3.980   5.353
 8872TIP3   OH226500   3.061   3.256   4.991
 8872TIP3    H126501   3.041   3.210   5.073
 8872TIP3    H226502   3.107   3.336   5.022
 8873TIP3   OH226503   2.005   3.270   5.418
 8873TIP3    H126504   2.069   3.341   5.439
 8873TIP3    H226505   2.053   3.227   5.343
 8874TIP3   OH226506   2.065   4.115   5.518
 8874TIP3    H126507   2.035   4.202   5.483
 8874TIP3    H226508   1.989   4.097   5.578
 8875TIP3   OH226509   1.473   3.816   4.758
 8875TIP3    H126510   1.414   3.855   4.692
 8875TIP3    H226511   1.504   3.898   4.803
 8876TIP3   OH226512   2.892   4.309   4.979
 8876TIP3    H126513   2.809   4.318   5.031
 8876TIP3    H226514   2.909   4.403   4.957
 8877TIP3   OH226515   3.196   3.230   5.362
 8877TIP3    H126516   3.108   3.257   5.331
 8877TIP3    H226517   3.254   3.259   5.289
 8878TIP3   OH226518   2.492   2.870   5.340
 8878TIP3    H126519   2.481   2.775   5.361
 8878TIP3    H226520   2.415   2.908   5.388
 8879TIP3   OH226521   2.608   4.372   4.673
 8879TIP3    H126522   2.660   4.292   4.651
 8879TIP3    H226523   2.667   4.440   4.633
 8880TIP3   OH226524   2.748   4.156   4.578
 8880TIP3    H126525   2.727   4.072   4.535
 8880TIP3    H226526   2.784   4.125   4.664
 8881TIP3   OH226527   3.324   3.875   5.185
 8881TIP3    H126528   3.244   3.931   5.193
 8881TIP3    H226529   3.356   3.901   5.096
 8882TIP3   OH226530   2.783   3.738   4.580
 8882TIP3    H126531   2.719   3.737   4.657
 8882TIP3    H226532   2.862   3.685   4.625
 8883TIP3   OH226533   3.003   3.757   5.481
 8883TIP3    H126534   2.988   3.838   5.532
 8883TIP3    H226535   2.920   3.753   5.430
 8884TIP3   OH226536   2.004   3.712   4.986
 8884TIP3    H126537   1.969   3.653   4.916
 8884TIP3    H226538   2.082   3.661   5.018
 8885TIP3   OH226539   2.139   4.130   5.136
 8885TIP3    H126540   2.112   4.084   5.055
 8885TIP3    H226541   2.228   4.092   5.153
 8886TIP3   OH226542   2.143   3.685   5.339
 8886TIP3    H126543   2.177   3.665   5.250
 8886TIP3    H226544   2.185   3.771   5.361
 8887TIP3   OH226545   2.667   4.331   5.133
 8887TIP3    H126546   2.620   4.394   5.189
 8887TIP3    H226547   2.653   4.246   5.179
 8888TIP3   OH226548   2.253   4.243   5.669
 8888TIP3    H126549   2.218   4.223   5.756
 8888TIP3    H226550   2.197   4.186   5.612
 8889TIP3   OH226551   2.702   3.565   4.412
 8889TIP3    H126552   2.731   3.628   4.455
 8889TIP3    H226553   2.697   3.609   4.310
 8890TIP3   OH226554   2.029   3.804   5.760
 8890TIP3    H126555   2.033   3.887   5.812
 8890TIP3    H226556   1.935   3.780   5.775
 8891TIP3   OH226557   2.354   4.257   4.669
 8891TIP3    H126558   2.433   4.309   4.689
 8891TIP3    H226559   2.293   4.325   4.637
 8892TIP3   OH226560   3.124   2.817   4.446
 8892TIP3    H126561   3.043   2.837   4.498
 8892TIP3    H226562   3.136   2.902   4.398
 8893TIP3   OH226563   1.879   3.555   4.771
 8893TIP3    H126564   1.802   3.600   4.730
 8893TIP3    H226565   1.836   3.482   4.817
 8894TIP3   OH226566   2.926   4.183   3.994
 8894TIP3    H126567   2.934   4.280   3.979
 8894TIP3    H226568   3.018   4.154   3.981
 8895TIP3   OH226569   1.651   3.941   5.698
 8895TIP3    H126570   1.582   3.919   5.632
 8895TIP3    H226571   1.685   3.853   5.724
 8896TIP3   OH226572   1.503   4.135   5.332
 8896TIP3    H126573   1.600   4.139   5.329
 8896TIP3    H226574   1.481   4.216   5.380
 8897TIP3   OH226575   2.233   4.499   4.476
 8897TIP3    H126576   2.190   4.485   4.390
 8897TIP3    H226577   2.205   4.590   4.499
 8898TIP3   OH226578   1.674   4.349   4.856
 8898TIP3    H126579   1.720   4.340   4.941
 8898TIP3    H226580   1.603   4.285   4.868
 8899TIP3   OH226581   2.437   4.399   4.115
 8899TIP3    H126582   2.498   4.331   4.078
 8899TIP3    H226583   2.473   4.411   4.206
 8900TIP3   OH226584   2.486   4.448   4.385
 8900TIP3    H126585   2.399   4.459   4.430
 8900TIP3    H226586   2.541   4.416   4.458
 8901TIP3   OH226587   3.251   3.720   5.654
 8901TIP3    H126588   3.173   3.715   5.598
 8901TIP3    H226589   3.278   3.626   5.655
 8902TIP3   OH226590   1.856   4.122   5.689
 8902TIP3    H126591   1.902   4.108   5.774
 8902TIP3    H226592   1.781   4.059   5.696
 8903TIP3   OH226593   2.254   2.948   5.472
 8903TIP3    H126594   2.165   2.917   5.447
 8903TIP3    H226595   2.230   3.030   5.518
 8904TIP3   OH226596   2.788   3.064   5.666
 8904TIP3    H126597   2.856   3.037   5.731
 8904TIP3    H226598   2.704   3.043   5.712
 8905TIP3   OH226599   3.029   3.492   5.586
 8905TIP3    H126600   2.981   3.487   5.671
 8905TIP3    H226601   3.000   3.578   5.550
 8906TIP3   OH226602   2.678   3.638   4.138
 8906TIP3    H126603   2.656   3.592   4.053
 8906TIP3    H226604   2.767   3.666   4.122
 8907TIP3   OH226605   2.371   3.015   4.450
 8907TIP3    H126606   2.427   3.006   4.531
 8907TIP3    H226607   2.352   2.922   4.431
 8908TIP3   OH226608   2.186   3.464   5.491
 8908TIP3    H126609   2.135   3.484   5.573
 8908TIP3    H226610   2.169   3.544   5.438
 8909TIP3   OH226611   2.067   3.350   5.001
 8909TIP3    H126612   1.977   3.318   5.023
 8909TIP3    H226613   2.086   3.299   4.920
 8910TIP3   OH226614   2.591   3.465   4.731
 8910TIP3    H126615   2.507   3.485   4.687
 8910TIP3    H226616   2.638   3.414   4.663
 8911TIP3   OH226617   2.737   3.715   5.820
 8911TIP3    H126618   2.713   3.642   5.880
 8911TIP3    H226619   2.831   3.727   5.842
 8912TIP3   OH226620   2.713   3.474   4.978
 8912TIP3    H126621   2.661   3.495   4.897
 8912TIP3    H226622   2.755   3.392   4.941
 8913TIP3   OH226623   2.005   3.493   5.700
 8913TIP3    H126624   2.029   3.553   5.771
 8913TIP3    H226625   1.992   3.409   5.749
 8914TIP3   OH226626   1.599   3.020   5.274
 8914TIP3    H126627   1.674   3.046   5.331
 8914TIP3    H226628   1.641   2.976   5.199
 8915TIP3   OH226629   1.573   2.995   4.793
 8915TIP3    H126630   1.629   3.038   4.726
 8915TIP3    H226631   1.512   3.068   4.818
 8916TIP3   OH226632   2.728   3.713   5.394
 8916TIP3    H126633   2.761   3.640   5.336
 8916TIP3    H226634   2.701   3.661   5.472
 8917TIP3   OH226635   2.383   3.180   5.067
 8917TIP3    H126636   2.314   3.170   5.135
 8917TIP3    H226637   2.465   3.163   5.117
 8918TIP3   OH226638   1.834   3.227   5.070
 8918TIP3    H126639   1.738   3.232   5.048
 8918TIP3    H226640   1.855   3.133   5.054
 8919TIP3   OH226641   2.104   3.214   4.757
 8919TIP3    H126642   2.203   3.223   4.765
 8919TIP3    H226643   2.084   3.286   4.696
 8920TIP3   OH226644   2.889   3.248   5.269
 8920TIP3    H126645   2.851   3.259   5.360
 8920TIP3    H226646   2.825   3.186   5.230
 8921TIP3   OH226647   1.922   3.290   4.504
 8921TIP3    H126648   1.844   3.242   4.537
 8921TIP3    H226649   1.985   3.217   4.494
 8922TIP3   OH226650   2.021   4.050   5.910
 8922TIP3    H126651   2.098   4.074   5.965
 8922TIP3    H226652   1.952   4.045   5.978
 8923TIP3   OH226653   2.481   3.504   5.165
 8923TIP3    H126654   2.547   3.460   5.109
 8923TIP3    H226655   2.491   3.456   5.249
 8924TIP3   OH226656   2.003   2.987   5.041
 8924TIP3    H126657   1.969   2.908   5.089
 8924TIP3    H226658   2.070   2.946   4.984
 8925TIP3   OH226659   2.457   3.396   5.453
 8925TIP3    H126660   2.367   3.432   5.469
 8925TIP3    H226661   2.515   3.455   5.505
 8926TIP3   OH226662   3.091   4.023   5.190
 8926TIP3    H126663   3.122   4.079   5.116
 8926TIP3    H226664   3.009   3.984   5.154
 8927TIP3   OH226665   2.637   3.126   4.372
 8927TIP3    H126666   2.576   3.084   4.435
 8927TIP3    H226667   2.679   3.191   4.432
 8928TIP3   OH226668   2.611   4.112   5.548
 8928TIP3    H126669   2.626   4.070   5.634
 8928TIP3    H226670   2.565   4.193   5.573
 8929TIP3   OH226671   2.734   3.334   4.518
 8929TIP3    H126672   2.828   3.343   4.542
 8929TIP3    H226673   2.722   3.409   4.458
 8930TIP3   OH226674   1.887   3.809   5.225
 8930TIP3    H126675   1.927   3.778   5.142
 8930TIP3    H226676   1.922   3.746   5.290
 8931TIP3   OH226677   2.300   3.915   4.372
 8931TIP3    H126678   2.303   4.013   4.362
 8931TIP3    H226679   2.256   3.913   4.458
 8932TIP3   OH226680   1.768   3.728   5.836
 8932TIP3    H126681   1.786   3.714   5.931
 8932TIP3    H226682   1.697   3.663   5.820
 8933TIP3   OH226683   2.493   3.842   5.857
 8933TIP3    H126684   2.434   3.781   5.809
 8933TIP3    H226685   2.581   3.807   5.830
 8934TIP3   OH226686   3.166   3.435   4.348
 8934TIP3    H126687   3.100   3.390   4.290
 8934TIP3    H226688   3.162   3.523   4.307
 8935TIP3   OH226689   2.856   4.257   4.255
 8935TIP3    H126690   2.846   4.185   4.319
 8935TIP3    H226691   2.878   4.210   4.172
 8936TIP3   OH226692   2.855   3.884   5.099
 8936TIP3    H126693   2.763   3.853   5.106
 8936TIP3    H226694   2.896   3.808   5.054
 8937TIP3   OH226695   1.984   4.111   4.845
 8937TIP3    H126696   1.986   4.195   4.795
 8937TIP3    H226697   1.889   4.103   4.863
 8938TIP3   OH226698   1.545   3.429   4.555
 8938TIP3    H126699   1.595   3.508   4.582
 8938TIP3    H226700   1.471   3.429   4.621
 8939TIP3   OH226701   2.130   3.881   4.796
 8939TIP3    H126702   2.095   3.970   4.814
 8939TIP3    H226703   2.094   3.830   4.871
 8940TIP3   OH226704   1.908   4.349   4.701
 8940TIP3    H126705   1.822   4.358   4.746
 8940TIP3    H226706   1.940   4.442   4.704
 8941TIP3   OH226707   2.650   4.094   5.276
 8941TIP3    H126708   2.640   4.086   5.374
 8941TIP3    H226709   2.721   4.030   5.257
 8942TIP3   OH226710   2.622   3.979   4.160
 8942TIP3    H126711   2.677   3.954   4.237
 8942TIP3    H226712   2.534   3.960   4.195
 8943TIP3   OH226713   2.958   4.458   3.980
 8943TIP3    H126714   2.997   4.529   3.926
 8943TIP3    H226715   2.879   4.506   4.012
 8944TIP3   OH226716   1.979   3.236   5.845
 8944TIP3    H126717   1.883   3.241   5.861
 8944TIP3    H226718   2.007   3.176   5.917
 8945TIP3   OH226719   2.776   3.915   4.380
 8945TIP3    H126720   2.771   3.852   4.450
 8945TIP3    H226721   2.875   3.916   4.364
 8946TIP3   OH226722   1.707   4.321   5.475
 8946TIP3    H126723   1.745   4.243   5.517
 8946TIP3    H226724   1.713   4.386   5.546
 8947TIP3   OH226725   1.994   3.964   4.160
 8947TIP3    H126726   1.991   3.874   4.127
 8947TIP3    H226727   1.969   3.957   4.254
 8948TIP3   OH226728   1.950   3.964   4.432
 8948TIP3    H126729   1.980   3.951   4.523
 8948TIP3    H226730   1.940   4.062   4.432
 8949TIP3   OH226731   1.665   3.667   4.633
 8949TIP3    H126732   1.603   3.712   4.694
 8949TIP3    H226733   1.680   3.739   4.569
 8950TIP3   OH226734   2.811   3.303   5.530
 8950TIP3    H126735   2.895   3.336   5.566
 8950TIP3    H226736   2.798   3.220   5.580
 8951TIP3   OH226737   2.201   4.165   4.373
 8951TIP3    H126738   2.117   4.192   4.415
 8951TIP3    H226739   2.219   4.243   4.319
 8952TIP3   OH226740   2.368   3.255   4.799
 8952TIP3    H126741   2.458   3.238   4.765
 8952TIP3    H226742   2.379   3.225   4.891
 8953TIP3   OH226743   2.655   3.551   5.601
 8953TIP3    H126744   2.676   3.600   5.682
 8953TIP3    H226745   2.708   3.470   5.611
 8954TIP3   OH226746   1.937   4.236   4.446
 8954TIP3    H126747   1.911   4.307   4.383
 8954TIP3    H226748   1.924   4.282   4.532
 8955TIP3   OH226749   2.036   2.955   4.680
 8955TIP3    H126750   2.053   3.042   4.720
 8955TIP3    H226751   2.122   2.912   4.690
 8956TIP3   OH226752   3.296   3.451   5.582
 8956TIP3    H126753   3.198   3.449   5.590
 8956TIP3    H226754   3.307   3.409   5.496
 8957TIP3   OH226755   2.944   3.647   4.972
 8957TIP3    H126756   2.869   3.585   4.980
 8957TIP3    H226757   3.017   3.597   5.017
 8958TIP3   OH226758   1.657   3.878   4.446
 8958TIP3    H126759   1.710   3.959   4.447
 8958TIP3    H226760   1.704   3.827   4.376
 8959TIP3   OH226761   1.624   3.164   4.565
 8959TIP3    H126762   1.590   3.255   4.571
 8959TIP3    H226763   1.545   3.113   4.540
 8960TIP3   OH226764   2.917   4.593   4.921
 8960TIP3    H126765   2.876   4.641   4.846
 8960TIP3    H226766   3.011   4.612   4.905
 8961TIP3   OH226767   1.990   2.868   5.448
 8961TIP3    H126768   1.959   2.834   5.362
 8961TIP3    H226769   1.980   2.789   5.506
 8962TIP3   OH226770   1.526   4.078   4.829
 8962TIP3    H126771   1.461   4.115   4.891
 8962TIP3    H226772   1.501   4.125   4.746
 8963TIP3   OH226773   1.685   4.624   5.895
 8963TIP3    H126774   1.768   4.620   5.947
 8963TIP3    H226775   1.658   4.531   5.896
 8964TIP3   OH226776   2.175   4.594   5.945
 8964TIP3    H126777   2.263   4.596   5.986
 8964TIP3    H226778   2.149   4.503   5.959
 8965TIP3   OH226779   2.150   4.172   4.069
 8965TIP3    H126780   2.097   4.099   4.108
 8965TIP3    H226781   2.224   4.124   4.028
 8966TIP3   OH226782   2.584   4.208   3.981
 8966TIP3    H126783   2.641   4.154   4.038
 8966TIP3    H226784   2.638   4.214   3.899
 8967TIP3   OH226785   1.818   4.035   6.096
 8967TIP3    H126786   1.833   3.939   6.105
 8967TIP3    H226787   1.729   4.037   6.057
 8968TIP3   OH226788   1.799   3.697   4.299
 8968TIP3    H126789   1.853   3.655   4.367
 8968TIP3    H226790   1.849   3.684   4.217
 8969TIP3   OH226791   2.418   4.107   5.868
 8969TIP3    H126792   2.395   4.113   5.774
 8969TIP3    H226793   2.458   4.017   5.873
 8970TIP3   OH226794   2.296   3.877   4.100
 8970TIP3    H126795   2.299   3.902   4.194
 8970TIP3    H226796   2.308   3.781   4.104
 8971TIP3   OH226797   2.929   4.118   5.480
 8971TIP3    H126798   2.964   4.145   5.394
 8971TIP3    H226799   2.842   4.160   5.484
 8972TIP3   OH226800   1.939   3.769   6.079
 8972TIP3    H126801   2.007   3.703   6.066
 8972TIP3    H226802   1.960   3.801   6.169
 8973TIP3   OH226803   2.026   3.557   4.502
 8973TIP3    H126804   2.007   3.578   4.596
 8973TIP3    H226805   1.985   3.467   4.502
 8974TIP3   OH226806   2.270   3.654   5.744
 8974TIP3    H126807   2.192   3.713   5.747
 8974TIP3    H226808   2.318   3.687   5.665
 8975TIP3   OH226809   2.786   4.054   5.874
 8975TIP3    H126810   2.871   4.035   5.834
 8975TIP3    H226811   2.783   3.989   5.947
 8976TIP3   OH226812   2.920   3.712   4.020
 8976TIP3    H126813   2.902   3.665   3.936
 8976TIP3    H226814   2.890   3.802   3.994
 8977TIP3   OH226815   2.393   3.440   5.870
 8977TIP3    H126816   2.393   3.359   5.815
 8977TIP3    H226817   2.349   3.505   5.812
 8978TIP3   OH226818   2.396   3.227   5.676
 8978TIP3    H126819   2.424   3.266   5.590
 8978TIP3    H226820   2.303   3.203   5.658
 8979TIP3   OH226821   2.426   3.766   5.551
 8979TIP3    H126822   2.505   3.762   5.497
 8979TIP3    H226823   2.369   3.830   5.503
 8980TIP3   OH226824   3.007   3.731   5.930
 8980TIP3    H126825   3.050   3.646   5.946
 8980TIP3    H226826   3.081   3.785   5.901
 8981TIP3   OH226827   3.056   3.984   5.674
 8981TIP3    H126828   3.005   4.041   5.611
 8981TIP3    H226829   3.133   3.960   5.620
 8982TIP3   OH226830   2.270   3.556   6.097
 8982TIP3    H126831   2.201   3.487   6.113
 8982TIP3    H226832   2.306   3.526   6.011
 8983TIP3   OH226833   2.528   2.992   5.742
 8983TIP3    H126834   2.480   3.074   5.720
 8983TIP3    H226835   2.458   2.924   5.731
 8984TIP3   OH226836   2.653   3.499   5.959
 8984TIP3    H126837   2.645   3.485   6.055
 8984TIP3    H226838   2.563   3.471   5.931
 8985TIP3   OH226839   2.894   3.446   5.815
 8985TIP3    H126840   2.818   3.445   5.876
 8985TIP3    H226841   2.967   3.413   5.872
 8986TIP3   OH226842   3.122   3.384   5.965
 8986TIP3    H126843   3.135   3.289   5.985
 8986TIP3    H226844   3.118   3.425   6.054
 8987TIP3   OH226845   2.112   3.334   6.151
 8987TIP3    H126846   2.118   3.243   6.117
 8987TIP3    H226847   2.147   3.321   6.242
 8988TIP3   OH226848   2.624   3.001   6.000
 8988TIP3    H126849   2.691   2.931   5.994
 8988TIP3    H226850   2.583   2.994   5.911
 8989TIP3   OH226851   2.689   3.216   6.158
 8989TIP3    H126852   2.666   3.145   6.095
 8989TIP3    H226853   2.611   3.275   6.152
 8990TIP3   OH226854   1.908   4.435   4.256
 8990TIP3    H126855   2.004   4.440   4.240
 8990TIP3    H226856   1.876   4.490   4.182
 8991TIP3   OH226857   1.389   3.836   4.471
 8991TIP3    H126858   1.482   3.869   4.465
 8991TIP3    H226859   1.404   3.742   4.486
 8992TIP3   OH226860   1.310   4.436   4.884
 8992TIP3    H126861   1.237   4.379   4.852
 8992TIP3    H226862   1.348   4.379   4.955
 8993TIP3   OH226863   1.446   4.288   5.073
 8993TIP3    H126864   1.423   4.218   5.137
 8993TIP3    H226865   1.489   4.352   5.132
 8994TIP3   OH226866   3.174   4.689   4.881
 8994TIP3    H126867   3.188   4.749   4.956
 8994TIP3    H226868   3.208   4.742   4.808
 8995TIP3   OH226869   3.056   3.902   4.351
 8995TIP3    H126870   3.127   3.964   4.324
 8995TIP3    H226871   3.098   3.861   4.430
 8996TIP3   OH226872   3.184   3.769   4.554
 8996TIP3    H126873   3.121   3.724   4.614
 8996TIP3    H226874   3.251   3.806   4.617
 8997TIP3   OH226875   3.230   4.150   4.986
 8997TIP3    H126876   3.291   4.091   4.938
 8997TIP3    H226877   3.218   4.224   4.924
 8998TIP3   OH226878   3.124   3.676   4.201
 8998TIP3    H126879   3.051   3.679   4.136
 8998TIP3    H226880   3.098   3.752   4.258
 8999TIP3   OH226881   2.991   3.350   4.158
 8999TIP3    H126882   2.957   3.386   4.076
 8999TIP3    H226883   2.965   3.255   4.149
 9000TIP3   OH226884   3.002   3.619   4.702
 9000TIP3    H126885   3.002   3.522   4.698
 9000TIP3    H226886   2.986   3.636   4.797
 9001TIP3   OH226887   1.628   3.697   5.447
 9001TIP3    H126888   1.626   3.667   5.353
 9001TIP3    H226889   1.725   3.698   5.464
 9002TIP3   OH226890   3.466   3.873   5.590
 9002TIP3    H126891   3.389   3.817   5.614
 9002TIP3    H226892   3.539   3.808   5.597
 9003TIP3   OH226893   2.943   3.081   4.140
 9003TIP3    H126894   3.020   3.056   4.194
 9003TIP3    H226895   2.872   3.026   4.177
 9004TIP3   OH226896   2.998   3.338   4.590
 9004TIP3    H126897   3.036   3.248   4.608
 9004TIP3    H226898   3.058   3.369   4.521
 9005TIP3   OH226899   3.158   3.516   5.091
 9005TIP3    H126900   3.244   3.542   5.050
 9005TIP3    H226901   3.173   3.551   5.181
 9006TIP3   OH226902   3.227   3.658   5.325
 9006TIP3    H126903   3.148   3.693   5.370
 9006TIP3    H226904   3.259   3.737   5.277
 9007TIP3   OH226905   1.845   3.386   6.123
 9007TIP3    H126906   1.943   3.378   6.126
 9007TIP3    H226907   1.819   3.301   6.164
 9008TIP3   OH226908   3.676   3.247   5.880
 9008TIP3    H126909   3.736   3.182   5.837
 9008TIP3    H226910   3.652   3.305   5.804
 9009TIP3   OH226911   3.106   3.087   4.633
 9009TIP3    H126912   3.152   3.072   4.718
 9009TIP3    H226913   3.040   3.014   4.634
 9010TIP3   OH226914   1.806   3.075   5.448
 9010TIP3    H126915   1.868   3.001   5.463
 9010TIP3    H226916   1.867   3.151   5.449
 9011TIP3   OH226917   1.609   3.350   5.527
 9011TIP3    H126918   1.659   3.345   5.443
 9011TIP3    H226919   1.637   3.436   5.560
 9012TIP3   OH226920   3.551   3.392   5.685
 9012TIP3    H126921   3.463   3.428   5.706
 9012TIP3    H226922   3.525   3.318   5.627
 9013TIP3   OH226923   3.187   3.028   4.263
 9013TIP3    H126924   3.229   2.953   4.216
 9013TIP3    H226925   3.256   3.096   4.260
 9014TIP3   OH226926   1.591   2.857   5.028
 9014TIP3    H126927   1.497   2.850   5.055
 9014TIP3    H226928   1.585   2.912   4.947
 9015TIP3   OH226929   2.748   4.556   4.533
 9015TIP3    H126930   2.802   4.542   4.452
 9015TIP3    H226931   2.800   4.622   4.580
 9016TIP3   OH226932   1.811   2.934   5.842
 9016TIP3    H126933   1.762   2.927   5.925
 9016TIP3    H226934   1.744   2.972   5.783
 9017TIP3   OH226935   1.855   4.362   5.935
 9017TIP3    H126936   1.767   4.335   5.904
 9017TIP3    H226937   1.852   4.336   6.028
 9018TIP3   OH226938   2.036   4.389   5.455
 9018TIP3    H126939   1.969   4.453   5.424
 9018TIP3    H226940   2.092   4.383   5.377
 9019TIP3   OH226941   3.448   3.152   5.563
 9019TIP3    H126942   3.357   3.146   5.530
 9019TIP3    H226943   3.479   3.059   5.551
 9020TIP3   OH226944   1.711   4.652   5.492
 9020TIP3    H126945   1.622   4.682   5.463
 9020TIP3    H226946   1.709   4.685   5.582
 9021TIP3   OH226947   1.943   4.625   5.346
 9021TIP3    H126948   1.858   4.640   5.393
 9021TIP3    H226949   1.921   4.663   5.258
 9022TIP3   OH226950   2.379   4.665   5.119
 9022TIP3    H126951   2.302   4.687   5.065
 9022TIP3    H226952   2.366   4.721   5.196
 9023TIP3   OH226953   2.847   4.804   5.105
 9023TIP3    H126954   2.835   4.886   5.053
 9023TIP3    H226955   2.867   4.737   5.037
 9024TIP3   OH226956   1.621   4.447   5.233
 9024TIP3    H126957   1.644   4.420   5.324
 9024TIP3    H226958   1.691   4.399   5.183
 9025TIP3   OH226959   1.809   4.312   5.089
 9025TIP3    H126960   1.825   4.229   5.140
 9025TIP3    H226961   1.899   4.349   5.082
 9026TIP3   OH226962   2.070   4.408   5.084
 9026TIP3    H126963   2.108   4.318   5.077
 9026TIP3    H226964   2.121   4.447   5.154
 9027TIP3   OH226965   2.652   3.073   5.190
 9027TIP3    H126966   2.610   2.998   5.237
 9027TIP3    H226967   2.714   3.028   5.130
 9028TIP3   OH226968   3.179   2.947   5.088
 9028TIP3    H126969   3.214   3.000   5.013
 9028TIP3    H226970   3.083   2.963   5.080
 9029TIP3   OH226971   3.273   3.047   4.851
 9029TIP3    H126972   3.346   2.997   4.809
 9029TIP3    H226973   3.304   3.140   4.836
 9030TIP3   OH226974   1.902   2.776   5.198
 9030TIP3    H126975   1.811   2.741   5.200
 9030TIP3    H226976   1.953   2.692   5.196
 9031TIP3   OH226977   1.685   2.645   4.847
 9031TIP3    H126978   1.717   2.704   4.777
 9031TIP3    H226979   1.658   2.708   4.916
 9032TIP3   OH226980   2.332   2.813   5.084
 9032TIP3    H126981   2.390   2.857   5.020
 9032TIP3    H226982   2.370   2.843   5.168
 9033TIP3   OH226983   2.899   2.956   5.064
 9033TIP3    H126984   2.881   2.927   4.974
 9033TIP3    H226985   2.880   2.874   5.116
 9034TIP3   OH226986   2.914   2.880   4.626
 9034TIP3    H126987   2.822   2.915   4.633
 9034TIP3    H226988   2.902   2.795   4.673
 9035TIP3   OH226989   1.408   4.212   4.624
 9035TIP3    H126990   1.320   4.184   4.592
 9035TIP3    H226991   1.398   4.308   4.615
 9036TIP3   OH226992   1.806   2.812   4.605
 9036TIP3    H126993   1.852   2.741   4.558
 9036TIP3    H226994   1.882   2.863   4.642
 9037TIP3   OH226995   2.179   4.405   4.211
 9037TIP3    H126996   2.266   4.429   4.174
 9037TIP3    H226997   2.156   4.332   4.149
 9038TIP3   OH226998   2.895   4.522   4.301
 9038TIP3    H126999   2.884   4.426   4.286
 9038TIP3    H227000   2.852   4.558   4.220
 9039TIP3   OH227001   2.110   3.057   6.090
 9039TIP3    H127002   2.076   2.987   6.147
 9039TIP3    H227003   2.205   3.058   6.116
 9040TIP3   OH227004   2.358   3.053   6.209
 9040TIP3    H127005   2.444   3.027   6.171
 9040TIP3    H227006   2.345   2.983   6.276
 9041TIP3   OH227007   1.476   4.231   4.267
 9041TIP3    H127008   1.472   4.273   4.354
 9041TIP3    H227009   1.570   4.200   4.262
 9042TIP3   OH227010   3.183   3.114   5.997
 9042TIP3    H127011   3.203   3.083   6.088
 9042TIP3    H227012   3.271   3.110   5.955
 9043TIP3   OH227013   4.390   4.043   4.253
 9043TIP3    H127014   4.360   4.134   4.234
 9043TIP3    H227015   4.313   3.992   4.221
 9044TIP3   OH227016   4.385   4.039   4.637
 9044TIP3    H127017   4.417   4.009   4.724
 9044TIP3    H227018   4.345   3.957   4.603
 9045TIP3   OH227019   3.689   3.932   4.997
 9045TIP3    H127020   3.719   3.866   5.062
 9045TIP3    H227021   3.758   3.999   5.006
 9046TIP3   OH227022   4.628   4.345   4.312
 9046TIP3    H127023   4.621   4.273   4.376
 9046TIP3    H227024   4.655   4.419   4.371
 9047TIP3   OH227025   3.663   4.346   4.727
 9047TIP3    H127026   3.649   4.249   4.730
 9047TIP3    H227027   3.760   4.350   4.719
 9048TIP3   OH227028   3.366   3.550   4.512
 9048TIP3    H127029   3.316   3.633   4.525
 9048TIP3    H227030   3.296   3.493   4.477
 9049TIP3   OH227031   3.425   3.835   4.681
 9049TIP3    H127032   3.473   3.758   4.720
 9049TIP3    H227033   3.485   3.861   4.610
 9050TIP3   OH227034   4.266   4.804   4.327
 9050TIP3    H127035   4.324   4.730   4.303
 9050TIP3    H227036   4.261   4.799   4.424
 9051TIP3   OH227037   4.189   4.261   4.668
 9051TIP3    H127038   4.231   4.182   4.630
 9051TIP3    H227039   4.268   4.307   4.702
 9052TIP3   OH227040   5.198   3.586   4.681
 9052TIP3    H127041   5.227   3.668   4.725
 9052TIP3    H227042   5.221   3.606   4.588
 9053TIP3   OH227043   4.599   3.769   4.717
 9053TIP3    H127044   4.642   3.683   4.738
 9053TIP3    H227045   4.568   3.752   4.626
 9054TIP3   OH227046   3.935   3.426   4.683
 9054TIP3    H127047   3.915   3.499   4.620
 9054TIP3    H227048   3.888   3.352   4.639
 9055TIP3   OH227049   4.630   3.517   4.305
 9055TIP3    H127050   4.702   3.501   4.370
 9055TIP3    H227051   4.681   3.552   4.230
 9056TIP3   OH227052   3.570   3.629   4.789
 9056TIP3    H127053   3.653   3.608   4.837
 9056TIP3    H227054   3.582   3.572   4.710
 9057TIP3   OH227055   4.011   3.825   4.583
 9057TIP3    H127056   4.104   3.800   4.596
 9057TIP3    H227057   3.971   3.742   4.551
 9058TIP3   OH227058   5.273   3.793   4.850
 9058TIP3    H127059   5.190   3.841   4.831
 9058TIP3    H227060   5.282   3.811   4.945
 9059TIP3   OH227061   3.934   3.409   5.116
 9059TIP3    H127062   3.873   3.446   5.049
 9059TIP3    H227063   3.882   3.427   5.198
 9060TIP3   OH227064   4.295   4.274   4.119
 9060TIP3    H127065   4.246   4.237   4.044
 9060TIP3    H227066   4.239   4.352   4.141
 9061TIP3   OH227067   4.841   3.519   4.476
 9061TIP3    H127068   4.834   3.468   4.558
 9061TIP3    H227069   4.896   3.595   4.503
 9062TIP3   OH227070   3.804   3.525   4.901
 9062TIP3    H127071   3.866   3.598   4.923
 9062TIP3    H227072   3.852   3.483   4.827
 9063TIP3   OH227073   3.263   4.068   4.246
 9063TIP3    H127074   3.223   4.094   4.161
 9063TIP3    H227075   3.293   4.154   4.282
 9064TIP3   OH227076   4.684   4.568   4.459
 9064TIP3    H127077   4.609   4.575   4.522
 9064TIP3    H227078   4.701   4.663   4.443
 9065TIP3   OH227079   4.992   3.487   4.848
 9065TIP3    H127080   4.905   3.517   4.818
 9065TIP3    H227081   5.051   3.518   4.776
 9066TIP3   OH227082   4.290   3.129   4.829
 9066TIP3    H127083   4.279   3.034   4.847
 9066TIP3    H227084   4.212   3.166   4.876
 9067TIP3   OH227085   4.410   4.634   4.162
 9067TIP3    H127086   4.452   4.546   4.156
 9067TIP3    H227087   4.477   4.693   4.123
 9068TIP3   OH227088   4.573   4.416   4.060
 9068TIP3    H127089   4.522   4.343   4.018
 9068TIP3    H227090   4.585   4.375   4.150
 9069TIP3   OH227091   4.221   3.894   4.085
 9069TIP3    H127092   4.138   3.941   4.061
 9069TIP3    H227093   4.266   3.887   3.999
 9070TIP3   OH227094   4.179   3.675   3.804
 9070TIP3    H127095   4.248   3.724   3.851
 9070TIP3    H227096   4.234   3.610   3.756
 9071TIP3   OH227097   5.131   4.135   4.674
 9071TIP3    H127098   5.047   4.186   4.686
 9071TIP3    H227099   5.154   4.161   4.582
 9072TIP3   OH227100   4.567   3.974   4.057
 9072TIP3    H127101   4.512   3.997   4.136
 9072TIP3    H227102   4.650   3.945   4.102
 9073TIP3   OH227103   4.803   4.012   4.969
 9073TIP3    H127104   4.805   4.097   5.016
 9073TIP3    H227105   4.717   4.019   4.923
 9074TIP3   OH227106   3.800   3.972   4.474
 9074TIP3    H127107   3.757   3.914   4.407
 9074TIP3    H227108   3.876   3.917   4.503
 9075TIP3   OH227109   3.932   4.386   4.624
 9075TIP3    H127110   3.912   4.340   4.541
 9075TIP3    H227111   4.019   4.347   4.647
 9076TIP3   OH227112   3.945   3.948   4.825
 9076TIP3    H127113   3.970   3.916   4.736
 9076TIP3    H227114   3.993   4.031   4.832
 9077TIP3   OH227115   4.469   4.590   4.626
 9077TIP3    H127116   4.420   4.649   4.684
 9077TIP3    H227117   4.454   4.503   4.669
 9078TIP3   OH227118   4.408   3.831   3.884
 9078TIP3    H127119   4.468   3.890   3.936
 9078TIP3    H227120   4.434   3.856   3.791
 9079TIP3   OH227121   3.826   4.056   5.246
 9079TIP3    H127122   3.833   4.141   5.295
 9079TIP3    H227123   3.730   4.039   5.259
 9080TIP3   OH227124   4.152   4.513   4.153
 9080TIP3    H127125   4.214   4.577   4.191
 9080TIP3    H227126   4.083   4.569   4.117
 9081TIP3   OH227127   4.924   3.073   3.932
 9081TIP3    H127128   4.842   3.092   3.983
 9081TIP3    H227129   4.935   3.156   3.881
 9082TIP3   OH227130   3.665   3.815   4.280
 9082TIP3    H127131   3.599   3.858   4.222
 9082TIP3    H227132   3.625   3.728   4.293
 9083TIP3   OH227133   4.720   4.442   3.481
 9083TIP3    H127134   4.726   4.539   3.471
 9083TIP3    H227135   4.813   4.414   3.471
 9084TIP3   OH227136   3.433   4.197   5.194
 9084TIP3    H127137   3.377   4.167   5.121
 9084TIP3    H227138   3.485   4.119   5.219
 9085TIP3   OH227139   3.300   4.396   4.809
 9085TIP3    H127140   3.393   4.376   4.825
 9085TIP3    H227141   3.277   4.460   4.878
 9086TIP3   OH227142   4.034   4.760   3.957
 9086TIP3    H127143   3.985   4.740   3.875
 9086TIP3    H227144   4.001   4.849   3.981
 9087TIP3   OH227145   3.469   4.607   4.344
 9087TIP3    H127146   3.517   4.596   4.429
 9087TIP3    H227147   3.410   4.529   4.347
 9088TIP3   OH227148   4.232   4.656   3.605
 9088TIP3    H127149   4.290   4.589   3.562
 9088TIP3    H227150   4.271   4.660   3.695
 9089TIP3   OH227151   4.287   4.696   3.884
 9089TIP3    H127152   4.193   4.718   3.908
 9089TIP3    H227153   4.311   4.645   3.963
 9090TIP3   OH227154   5.065   3.980   5.144
 9090TIP3    H127155   4.982   3.994   5.097
 9090TIP3    H227156   5.076   3.883   5.135
 9091TIP3   OH227157   4.051   3.205   4.958
 9091TIP3    H127158   3.961   3.174   4.933
 9091TIP3    H227159   4.026   3.287   5.004
 9092TIP3   OH227160   4.585   3.321   5.153
 9092TIP3    H127161   4.654   3.293   5.217
 9092TIP3    H227162   4.501   3.299   5.200
 9093TIP3   OH227163   4.825   3.748   5.071
 9093TIP3    H127164   4.777   3.745   5.157
 9093TIP3    H227165   4.802   3.837   5.037
 9094TIP3   OH227166   4.484   3.881   3.628
 9094TIP3    H127167   4.450   3.853   3.541
 9094TIP3    H227168   4.566   3.928   3.601
 9095TIP3   OH227169   4.196   3.255   3.929
 9095TIP3    H127170   4.165   3.252   4.021
 9095TIP3    H227171   4.159   3.170   3.897
 9096TIP3   OH227172   3.982   3.722   4.976
 9096TIP3    H127173   3.930   3.740   5.058
 9096TIP3    H227174   3.967   3.805   4.925
 9097TIP3   OH227175   3.866   3.607   4.491
 9097TIP3    H127176   3.774   3.579   4.508
 9097TIP3    H227177   3.880   3.566   4.403
 9098TIP3   OH227178   4.357   3.693   4.219
 9098TIP3    H127179   4.304   3.764   4.176
 9098TIP3    H227180   4.412   3.662   4.144
 9099TIP3   OH227181   4.531   3.970   5.304
 9099TIP3    H127182   4.510   3.897   5.367
 9099TIP3    H227183   4.625   3.986   5.327
 9100TIP3   OH227184   4.515   3.721   4.458
 9100TIP3    H127185   4.455   3.749   4.386
 9100TIP3    H227186   4.549   3.638   4.417
 9101TIP3   OH227187   3.804   3.749   5.187
 9101TIP3    H127188   3.820   3.814   5.257
 9101TIP3    H227189   3.791   3.667   5.238
 9102TIP3   OH227190   3.852   3.226   3.896
 9102TIP3    H127191   3.845   3.223   3.993
 9102TIP3    H227192   3.772   3.277   3.873
 9103TIP3   OH227193   3.395   3.273   4.765
 9103TIP3    H127194   3.471   3.303   4.819
 9103TIP3    H227195   3.437   3.236   4.686
 9104TIP3   OH227196   3.369   3.252   4.286
 9104TIP3    H127197   3.414   3.291   4.208
 9104TIP3    H227198   3.308   3.324   4.308
 9105TIP3   OH227199   4.520   3.969   4.880
 9105TIP3    H127200   4.556   3.897   4.822
 9105TIP3    H227201   4.497   3.916   4.959
 9106TIP3   OH227202   4.193   3.431   4.553
 9106TIP3    H127203   4.111   3.427   4.607
 9106TIP3    H227204   4.262   3.426   4.622
 9107TIP3   OH227205   3.629   3.484   4.561
 9107TIP3    H127206   3.534   3.490   4.535
 9107TIP3    H227207   3.652   3.392   4.538
 9108TIP3   OH227208   3.898   3.481   4.249
 9108TIP3    H127209   3.993   3.495   4.229
 9108TIP3    H227210   3.853   3.504   4.165
 9109TIP3   OH227211   4.685   3.505   4.755
 9109TIP3    H127212   4.650   3.516   4.846
 9109TIP3    H227213   4.621   3.442   4.718
 9110TIP3   OH227214   3.737   3.515   4.028
 9110TIP3    H127215   3.665   3.469   3.979
 9110TIP3    H227216   3.789   3.550   3.953
 9111TIP3   OH227217   4.861   5.260   4.976
 9111TIP3    H127218   4.876   5.207   4.897
 9111TIP3    H227219   4.944   5.254   5.024
 9112TIP3   OH227220   3.833   4.288   5.398
 9112TIP3    H127221   3.903   4.326   5.454
 9112TIP3    H227222   3.754   4.315   5.447
 9113TIP3   OH227223   4.278   3.757   4.650
 9113TIP3    H127224   4.349   3.715   4.599
 9113TIP3    H227225   4.286   3.715   4.737
 9114TIP3   OH227226   3.801   3.244   4.528
 9114TIP3    H127227   3.767   3.164   4.574
 9114TIP3    H227228   3.854   3.206   4.457
 9115TIP3   OH227229   4.253   3.652   4.939
 9115TIP3    H127230   4.163   3.688   4.954
 9115TIP3    H227231   4.310   3.711   4.992
 9116TIP3   OH227232   3.990   4.044   4.035
 9116TIP3    H127233   3.917   3.979   4.023
 9116TIP3    H227234   3.972   4.077   4.126
 9117TIP3   OH227235   4.893   4.269   4.669
 9117TIP3    H127236   4.918   4.330   4.596
 9117TIP3    H227237   4.805   4.238   4.640
 9118TIP3   OH227238   4.449   3.357   3.897
 9118TIP3    H127239   4.352   3.340   3.904
 9118TIP3    H227240   4.458   3.451   3.920
 9119TIP3   OH227241   4.421   4.356   5.042
 9119TIP3    H127242   4.444   4.322   5.130
 9119TIP3    H227243   4.407   4.450   5.060
 9120TIP3   OH227244   4.518   3.603   4.001
 9120TIP3    H127245   4.615   3.608   4.015
 9120TIP3    H227246   4.501   3.681   3.945
 9121TIP3   OH227247   3.683   4.068   4.712
 9121TIP3    H127248   3.722   4.037   4.628
 9121TIP3    H227249   3.717   4.003   4.776
 9122TIP3   OH227250   4.137   4.194   3.858
 9122TIP3    H127251   4.089   4.280   3.864
 9122TIP3    H227252   4.081   4.138   3.916
 9123TIP3   OH227253   3.565   3.983   5.324
 9123TIP3    H127254   3.581   3.975   5.420
 9123TIP3    H227255   3.490   3.923   5.311
 9124TIP3   OH227256   4.288   4.093   5.346
 9124TIP3    H127257   4.227   4.030   5.305
 9124TIP3    H227258   4.376   4.059   5.317
 9125TIP3   OH227259   4.961   3.692   3.837
 9125TIP3    H127260   4.898   3.647   3.776
 9125TIP3    H227261   4.958   3.781   3.794
 9126TIP3   OH227262   4.649   4.144   4.582
 9126TIP3    H127263   4.558   4.112   4.594
 9126TIP3    H227264   4.690   4.065   4.540
 9127TIP3   OH227265   3.782   4.369   4.335
 9127TIP3    H127266   3.784   4.451   4.283
 9127TIP3    H227267   3.688   4.353   4.343
 9128TIP3   OH227268   3.346   3.674   4.037
 9128TIP3    H127269   3.393   3.757   4.058
 9128TIP3    H227270   3.270   3.680   4.099
 9129TIP3   OH227271   3.925   4.137   4.282
 9129TIP3    H127272   3.888   4.226   4.300
 9129TIP3    H227273   3.888   4.086   4.356
 9130TIP3   OH227274   3.705   4.608   4.190
 9130TIP3    H127275   3.618   4.616   4.234
 9130TIP3    H227276   3.736   4.701   4.192
 9131TIP3   OH227277   4.446   4.349   4.765
 9131TIP3    H127278   4.440   4.338   4.862
 9131TIP3    H227279   4.520   4.290   4.743
 9132TIP3   OH227280   4.413   4.237   3.648
 9132TIP3    H127281   4.465   4.215   3.729
 9132TIP3    H227282   4.324   4.210   3.676
 9133TIP3   OH227283   4.758   4.717   3.470
 9133TIP3    H127284   4.800   4.784   3.412
 9133TIP3    H227285   4.669   4.759   3.467
 9134TIP3   OH227286   3.776   3.492   5.333
 9134TIP3    H127287   3.680   3.496   5.347
 9134TIP3    H227288   3.804   3.432   5.404
 9135TIP3   OH227289   4.573   4.182   3.874
 9135TIP3    H127290   4.564   4.109   3.937
 9135TIP3    H227291   4.668   4.175   3.851
 9136TIP3   OH227292   3.783   4.220   3.646
 9136TIP3    H127293   3.796   4.129   3.616
 9136TIP3    H227294   3.762   4.207   3.740
 9137TIP3   OH227295   3.727   4.225   3.919
 9137TIP3    H127296   3.798   4.199   3.978
 9137TIP3    H227297   3.731   4.323   3.925
 9138TIP3   OH227298   3.463   3.919   4.121
 9138TIP3    H127299   3.397   3.964   4.178
 9138TIP3    H227300   3.478   3.989   4.054
 9139TIP3   OH227301   4.608   3.558   5.015
 9139TIP3    H127302   4.690   3.595   5.052
 9139TIP3    H227303   4.595   3.477   5.067
 9140TIP3   OH227304   4.489   3.309   4.177
 9140TIP3    H127305   4.477   3.332   4.083
 9140TIP3    H227306   4.530   3.391   4.213
 9141TIP3   OH227307   3.994   4.425   3.869
 9141TIP3    H127308   3.906   4.452   3.902
 9141TIP3    H227309   4.008   4.491   3.800
 9142TIP3   OH227310   4.181   3.487   4.280
 9142TIP3    H127311   4.247   3.557   4.263
 9142TIP3    H227312   4.186   3.479   4.378
 9143TIP3   OH227313   4.448   3.809   5.089
 9143TIP3    H127314   4.472   3.859   5.169
 9143TIP3    H227315   4.502   3.729   5.099
 9144TIP3   OH227316   4.327   3.215   4.384
 9144TIP3    H127317   4.322   3.291   4.445
 9144TIP3    H227318   4.386   3.251   4.314
 9145TIP3   OH227319   3.735   4.498   3.934
 9145TIP3    H127320   3.706   4.567   3.870
 9145TIP3    H227321   3.719   4.543   4.020
 9146TIP3   OH227322   3.837   3.211   4.172
 9146TIP3    H127323   3.834   3.301   4.209
 9146TIP3    H227324   3.933   3.192   4.181
 9147TIP3   OH227325   5.092   3.708   5.067
 9147TIP3    H127326   4.994   3.707   5.077
 9147TIP3    H227327   5.100   3.662   4.982
 9148TIP3   OH227328   4.741   3.901   4.457
 9148TIP3    H127329   4.667   3.840   4.469
 9148TIP3    H227330   4.814   3.855   4.505
 9149TIP3   OH227331   3.453   4.131   3.928
 9149TIP3    H127332   3.517   4.203   3.935
 9149TIP3    H227333   3.499   4.076   3.860
 9150TIP3   OH227334   3.401   3.405   4.060
 9150TIP3    H127335   3.399   3.502   4.055
 9150TIP3    H227336   3.317   3.381   4.019
 9151TIP3   OH227337   4.713   4.838   4.395
 9151TIP3    H127338   4.672   4.891   4.323
 9151TIP3    H227339   4.807   4.867   4.387
 9152TIP3   OH227340   3.786   3.124   4.935
 9152TIP3    H127341   3.754   3.091   4.848
 9152TIP3    H227342   3.776   3.046   4.992
 9153TIP3   OH227343   3.327   4.343   4.316
 9153TIP3    H127344   3.254   4.375   4.371
 9153TIP3    H227345   3.303   4.383   4.230
 9154TIP3   OH227346   3.946   4.425   3.561
 9154TIP3    H127347   3.890   4.352   3.597
 9154TIP3    H227348   4.020   4.375   3.523
 9155TIP3   OH227349   4.381   4.468   3.470
 9155TIP3    H127350   4.434   4.405   3.522
 9155TIP3    H227351   4.433   4.475   3.387
 9156TIP3   OH227352   3.612   4.281   5.587
 9156TIP3    H127353   3.647   4.190   5.581
 9156TIP3    H227354   3.541   4.279   5.523
 9157TIP3   OH227355   3.588   3.942   3.779
 9157TIP3    H127356   3.644   3.908   3.851
 9157TIP3    H227357   3.655   3.947   3.707
 9158TIP3   OH227358   4.209   4.359   5.344
 9158TIP3    H127359   4.189   4.337   5.253
 9158TIP3    H227360   4.257   4.278   5.371
 9159TIP3   OH227361   4.098   4.139   3.587
 9159TIP3    H127362   4.100   4.152   3.684
 9159TIP3    H227363   4.098   4.041   3.583
 9160TIP3   OH227364   4.718   4.371   4.964
 9160TIP3    H127365   4.774   4.411   4.897
 9160TIP3    H227366   4.641   4.429   4.969
 9161TIP3   OH227367   3.731   4.021   5.570
 9161TIP3    H127368   3.808   3.968   5.547
 9161TIP3    H227369   3.757   4.055   5.658
 9162TIP3   OH227370   3.799   3.845   4.002
 9162TIP3    H127371   3.772   3.802   4.085
 9162TIP3    H227372   3.834   3.769   3.950
 9163TIP3   OH227373   4.074   3.917   5.228
 9163TIP3    H127374   3.991   3.970   5.235
 9163TIP3    H227375   4.109   3.949   5.142
 9164TIP3   OH227376   3.898   3.638   3.843
 9164TIP3    H127377   3.871   3.639   3.749
 9164TIP3    H227378   3.995   3.645   3.834
 9165TIP3   OH227379   4.578   4.304   5.357
 9165TIP3    H127380   4.667   4.296   5.320
 9165TIP3    H227381   4.581   4.242   5.432
 9166TIP3   OH227382   4.721   3.970   3.505
 9166TIP3    H127383   4.700   3.923   3.422
 9166TIP3    H227384   4.690   4.060   3.480
 9167TIP3   OH227385   4.188   3.697   5.357
 9167TIP3    H127386   4.189   3.617   5.302
 9167TIP3    H227387   4.147   3.763   5.298
 9168TIP3   OH227388   4.192   3.484   5.162
 9168TIP3    H127389   4.219   3.523   5.077
 9168TIP3    H227390   4.098   3.460   5.145
 9169TIP3   OH227391   4.208   4.033   5.014
 9169TIP3    H127392   4.297   4.010   4.984
 9169TIP3    H227393   4.201   4.126   4.990
 9170TIP3   OH227394   4.803   3.988   5.418
 9170TIP3    H127395   4.850   3.904   5.429
 9170TIP3    H227396   4.873   4.044   5.381
 9171TIP3   OH227397   4.854   4.237   5.153
 9171TIP3    H127398   4.795   4.290   5.095
 9171TIP3    H227399   4.940   4.259   5.111
 9172TIP3   OH227400   4.065   3.811   5.585
 9172TIP3    H127401   3.997   3.743   5.599
 9172TIP3    H227402   4.102   3.783   5.499
 9173TIP3   OH227403   4.325   3.248   5.228
 9173TIP3    H127404   4.276   3.331   5.207
 9173TIP3    H227405   4.254   3.181   5.218
 9174TIP3   OH227406   4.450   3.754   5.447
 9174TIP3    H127407   4.441   3.741   5.543
 9174TIP3    H227408   4.360   3.727   5.419
 9175TIP3   OH227409   4.691   3.702   5.301
 9175TIP3    H127410   4.615   3.701   5.363
 9175TIP3    H227411   4.764   3.670   5.358
 9176TIP3   OH227412   4.922   3.643   5.451
 9176TIP3    H127413   4.934   3.547   5.470
 9176TIP3    H227414   4.917   3.682   5.541
 9177TIP3   OH227415   3.904   3.591   5.638
 9177TIP3    H127416   3.912   3.501   5.603
 9177TIP3    H227417   3.941   3.579   5.728
 9178TIP3   OH227418   4.420   3.258   5.486
 9178TIP3    H127419   4.488   3.188   5.483
 9178TIP3    H227420   4.380   3.250   5.397
 9179TIP3   OH227421   4.485   3.473   5.645
 9179TIP3    H127422   4.462   3.401   5.581
 9179TIP3    H227423   4.406   3.531   5.639
 9180TIP3   OH227424   3.704   4.699   3.747
 9180TIP3    H127425   3.800   4.698   3.727
 9180TIP3    H227426   3.673   4.748   3.669
 9181TIP3   OH227427   3.185   4.082   3.964
 9181TIP3    H127428   3.280   4.105   3.950
 9181TIP3    H227429   3.180   3.993   3.922
 9182TIP3   OH227430   3.099   4.694   4.377
 9182TIP3    H127431   3.031   4.632   4.341
 9182TIP3    H227432   3.143   4.636   4.443
 9183TIP3   OH227433   3.234   4.546   4.564
 9183TIP3    H127434   3.228   4.471   4.626
 9183TIP3    H227435   3.285   4.609   4.618
 9184TIP3   OH227436   4.964   4.946   4.369
 9184TIP3    H127437   4.980   5.012   4.438
 9184TIP3    H227438   5.010   4.987   4.294
 9185TIP3   OH227439   4.853   4.164   3.843
 9185TIP3    H127440   4.927   4.219   3.809
 9185TIP3    H227441   4.897   4.119   3.919
 9186TIP3   OH227442   4.981   4.028   4.042
 9186TIP3    H127443   4.918   3.982   4.102
 9186TIP3    H227444   5.049   4.061   4.104
 9187TIP3   OH227445   5.025   4.410   4.470
 9187TIP3    H127446   5.090   4.349   4.430
 9187TIP3    H227447   5.021   4.483   4.407
 9188TIP3   OH227448   4.920   3.935   3.690
 9188TIP3    H127449   4.849   3.936   3.622
 9188TIP3    H227450   4.890   4.010   3.745
 9189TIP3   OH227451   4.790   3.607   3.644
 9189TIP3    H127452   4.751   3.644   3.564
 9189TIP3    H227453   4.765   3.512   3.635
 9190TIP3   OH227454   4.797   3.879   4.187
 9190TIP3    H127455   4.805   3.783   4.182
 9190TIP3    H227456   4.784   3.894   4.284
 9191TIP3   OH227457   3.423   3.955   4.934
 9191TIP3    H127458   3.422   3.924   4.841
 9191TIP3    H227459   3.520   3.955   4.951
 9192TIP3   OH227460   5.087   4.315   5.034
 9192TIP3    H127461   5.162   4.253   5.041
 9192TIP3    H227462   5.133   4.397   5.061
 9193TIP3   OH227463   5.284   4.120   5.069
 9193TIP3    H127464   5.204   4.074   5.101
 9193TIP3    H227465   5.349   4.047   5.080
 9194TIP3   OH227466   4.735   3.341   3.632
 9194TIP3    H127467   4.811   3.309   3.684
 9194TIP3    H227468   4.663   3.280   3.656
 9195TIP3   OH227469   4.792   3.597   4.083
 9195TIP3    H127470   4.833   3.508   4.100
 9195TIP3    H227471   4.851   3.629   4.013
 9196TIP3   OH227472   4.954   3.773   4.577
 9196TIP3    H127473   5.041   3.798   4.538
 9196TIP3    H227474   4.967   3.809   4.667
 9197TIP3   OH227475   5.023   3.916   4.810
 9197TIP3    H127476   4.945   3.950   4.860
 9197TIP3    H227477   5.056   3.998   4.767
 9198TIP3   OH227478   3.634   3.648   5.609
 9198TIP3    H127479   3.732   3.641   5.609
 9198TIP3    H227480   3.612   3.562   5.651
 9199TIP3   OH227481   5.475   3.507   5.366
 9199TIP3    H127482   5.532   3.439   5.325
 9199TIP3    H227483   5.448   3.561   5.289
 9200TIP3   OH227484   4.901   3.347   4.122
 9200TIP3    H127485   4.950   3.330   4.205
 9200TIP3    H227486   4.841   3.269   4.120
 9201TIP3   OH227487   3.602   3.333   4.940
 9201TIP3    H127488   3.664   3.258   4.951
 9201TIP3    H227489   3.663   3.408   4.935
 9202TIP3   OH227490   3.405   3.607   5.014
 9202TIP3    H127491   3.454   3.600   4.930
 9202TIP3    H227492   3.434   3.694   5.045
 9203TIP3   OH227493   5.346   3.647   5.171
 9203TIP3    H127494   5.257   3.683   5.186
 9203TIP3    H227495   5.323   3.571   5.114
 9204TIP3   OH227496   4.983   3.282   3.753
 9204TIP3    H127497   5.023   3.209   3.701
 9204TIP3    H227498   5.051   3.352   3.745
 9205TIP3   OH227499   3.387   3.110   4.515
 9205TIP3    H127500   3.294   3.108   4.542
 9205TIP3    H227501   3.384   3.168   4.436
 9206TIP3   OH227502   4.601   4.773   4.006
 9206TIP3    H127503   4.561   4.819   3.931
 9206TIP3    H227504   4.610   4.850   4.067
 9207TIP3   OH227505   3.607   3.191   5.329
 9207TIP3    H127506   3.557   3.185   5.412
 9207TIP3    H227507   3.540   3.228   5.269
 9208TIP3   OH227508   5.246   3.407   5.051
 9208TIP3    H127509   5.153   3.399   5.021
 9208TIP3    H227510   5.276   3.314   5.039
 9209TIP3   OH227511   3.751   4.921   4.810
 9209TIP3    H127512   3.667   4.937   4.854
 9209TIP3    H227513   3.730   4.947   4.718
 9210TIP3   OH227514   4.182   4.920   4.596
 9210TIP3    H127515   4.097   4.947   4.557
 9210TIP3    H227516   4.200   4.991   4.659
 9211TIP3   OH227517   4.685   5.052   4.575
 9211TIP3    H127518   4.646   5.133   4.536
 9211TIP3    H227519   4.668   4.984   4.507
 9212TIP3   OH227520   3.416   4.706   4.714
 9212TIP3    H127521   3.434   4.680   4.805
 9212TIP3    H227522   3.486   4.658   4.665
 9213TIP3   OH227523   3.606   4.571   4.578
 9213TIP3    H127524   3.624   4.485   4.623
 9213TIP3    H227525   3.697   4.606   4.569
 9214TIP3   OH227526   3.868   4.667   4.576
 9214TIP3    H127527   3.905   4.576   4.572
 9214TIP3    H227528   3.909   4.700   4.657
 9215TIP3   OH227529   4.447   3.323   4.666
 9215TIP3    H127530   4.405   3.253   4.720
 9215TIP3    H227531   4.520   3.275   4.623
 9216TIP3   OH227532   4.974   3.203   4.575
 9216TIP3    H127533   5.010   3.255   4.500
 9216TIP3    H227534   4.878   3.222   4.568
 9217TIP3   OH227535   5.068   3.305   4.338
 9217TIP3    H127536   5.141   3.253   4.298
 9217TIP3    H227537   5.102   3.397   4.323
 9218TIP3   OH227538   3.698   3.032   4.686
 9218TIP3    H127539   3.606   2.998   4.686
 9218TIP3    H227540   3.748   2.947   4.683
 9219TIP3   OH227541   3.479   2.902   4.331
 9219TIP3    H127542   3.513   2.960   4.260
 9219TIP3    H227543   3.454   2.967   4.400
 9220TIP3   OH227544   4.140   3.067   4.565
 9220TIP3    H127545   4.200   3.115   4.507
 9220TIP3    H227546   4.164   3.101   4.652
 9221TIP3   OH227547   4.689   3.211   4.550
 9221TIP3    H127548   4.687   3.174   4.461
 9221TIP3    H227549   4.675   3.130   4.605
 9222TIP3   OH227550   4.719   3.133   4.112
 9222TIP3    H127551   4.631   3.174   4.122
 9222TIP3    H227552   4.704   3.048   4.159
 9223TIP3   OH227553   3.201   4.472   4.115
 9223TIP3    H127554   3.116   4.440   4.079
 9223TIP3    H227555   3.191   4.567   4.097
 9224TIP3   OH227556   3.601   3.063   4.096
 9224TIP3    H127557   3.650   2.999   4.041
 9224TIP3    H227558   3.674   3.116   4.133
 9225TIP3   OH227559   4.114   3.236   4.195
 9225TIP3    H127560   4.174   3.189   4.256
 9225TIP3    H227561   4.135   3.328   4.221
 9226TIP3   OH227562   3.973   4.662   3.695
 9226TIP3    H127563   4.060   4.685   3.657
 9226TIP3    H227564   3.950   4.587   3.636
 9227TIP3   OH227565   3.906   3.313   5.576
 9227TIP3    H127566   3.873   3.242   5.635
 9227TIP3    H227567   4.001   3.314   5.602
 9228TIP3   OH227568   4.154   3.310   5.695
 9228TIP3    H127569   4.240   3.284   5.657
 9228TIP3    H227570   4.142   3.240   5.763
 9229TIP3   OH227571   3.277   4.496   3.753
 9229TIP3    H127572   3.279   4.527   3.844
 9229TIP3    H227573   3.366   4.456   3.741
 9230TIP3   OH227574   4.978   3.372   5.487
 9230TIP3    H127575   5.002   3.337   5.575
 9230TIP3    H227576   5.065   3.369   5.441
 9231TIP3   OH227577   6.184   4.294   3.745
 9231TIP3    H127578   6.157   4.386   3.725
 9231TIP3    H227579   6.108   4.246   3.708
 9232TIP3   OH227580   6.177   4.298   4.126
 9232TIP3    H127581   6.212   4.263   4.210
 9232TIP3    H227582   6.142   4.218   4.084
 9233TIP3   OH227583   5.482   4.189   4.484
 9233TIP3    H127584   5.512   4.127   4.553
 9233TIP3    H227585   5.563   4.238   4.464
 9234TIP3   OH227586   6.424   4.597   3.802
 9234TIP3    H127587   6.421   4.530   3.871
 9234TIP3    H227588   6.453   4.676   3.852
 9235TIP3   OH227589   5.464   4.603   4.219
 9235TIP3    H127590   5.448   4.506   4.221
 9235TIP3    H227591   5.559   4.603   4.194
 9236TIP3   OH227592   5.161   3.807   4.000
 9236TIP3    H127593   5.110   3.889   4.011
 9236TIP3    H227594   5.092   3.749   3.962
 9237TIP3   OH227595   5.222   4.091   4.166
 9237TIP3    H127596   5.269   4.014   4.207
 9237TIP3    H227597   5.282   4.115   4.095
 9238TIP3   OH227598   6.064   5.058   3.814
 9238TIP3    H127599   6.119   4.985   3.782
 9238TIP3    H227600   6.065   5.048   3.910
 9239TIP3   OH227601   5.985   4.524   4.170
 9239TIP3    H127602   6.019   4.443   4.127
 9239TIP3    H227603   6.071   4.567   4.189
 9240TIP3   OH227604   6.993   3.842   4.168
 9240TIP3    H127605   7.023   3.923   4.213
 9240TIP3    H227606   7.019   3.862   4.076
 9241TIP3   OH227607   6.392   4.026   4.206
 9241TIP3    H127608   6.437   3.942   4.226
 9241TIP3    H227609   6.364   4.009   4.114
 9242TIP3   OH227610   5.730   3.683   4.170
 9242TIP3    H127611   5.712   3.755   4.106
 9242TIP3    H227612   5.684   3.609   4.126
 9243TIP3   OH227613   6.426   3.774   3.792
 9243TIP3    H127614   6.498   3.758   3.857
 9243TIP3    H227615   6.477   3.809   3.717
 9244TIP3   OH227616   5.367   3.886   4.276
 9244TIP3    H127617   5.449   3.864   4.323
 9244TIP3    H227618   5.378   3.829   4.197
 9245TIP3   OH227619   5.807   4.082   4.070
 9245TIP3    H127620   5.901   4.057   4.082
 9245TIP3    H227621   5.768   3.999   4.037
 9246TIP3   OH227622   7.067   4.046   4.341
 9246TIP3    H127623   6.985   4.096   4.322
 9246TIP3    H227624   7.091   4.080   4.429
 9247TIP3   OH227625   5.730   3.666   4.603
 9247TIP3    H127626   5.669   3.701   4.535
 9247TIP3    H227627   5.678   3.682   4.684
 9248TIP3   OH227628   6.073   4.513   3.616
 9248TIP3    H127629   6.039   4.495   3.528
 9248TIP3    H227630   6.034   4.601   3.635
 9249TIP3   OH227631   5.837   4.429   4.396
 9249TIP3    H127632   5.775   4.489   4.443
 9249TIP3    H227633   5.884   4.490   4.337
 9250TIP3   OH227634   6.637   3.776   3.963
 9250TIP3    H127635   6.634   3.724   4.044
 9250TIP3    H227636   6.693   3.851   3.988
 9251TIP3   OH227637   5.600   3.781   4.388
 9251TIP3    H127638   5.664   3.853   4.410
 9251TIP3    H227639   5.647   3.739   4.313
 9252TIP3   OH227640   5.638   4.582   4.506
 9252TIP3    H127641   5.593   4.632   4.437
 9252TIP3    H227642   5.576   4.591   4.580
 9253TIP3   OH227643   5.057   4.324   3.732
 9253TIP3    H127644   5.020   4.346   3.645
 9253TIP3    H227645   5.089   4.411   3.764
 9254TIP3   OH227646   6.484   4.821   3.955
 9254TIP3    H127647   6.401   4.832   4.007
 9254TIP3    H227648   6.501   4.913   3.928
 9255TIP3   OH227649   6.789   3.740   4.334
 9255TIP3    H127650   6.702   3.773   4.304
 9255TIP3    H227651   6.849   3.773   4.263
 9256TIP3   OH227652   6.086   3.385   4.315
 9256TIP3    H127653   6.076   3.290   4.334
 9256TIP3    H227654   6.008   3.422   4.363
 9257TIP3   OH227655   6.199   4.885   3.645
 9257TIP3    H127656   6.251   4.804   3.624
 9257TIP3    H227657   6.258   4.953   3.606
 9258TIP3   OH227658   6.340   4.671   3.551
 9258TIP3    H127659   6.316   4.588   3.507
 9258TIP3    H227660   6.376   4.638   3.636
 9259TIP3   OH227661   6.015   4.149   3.572
 9259TIP3    H127662   5.935   4.199   3.546
 9259TIP3    H227663   6.064   4.144   3.487
 9260TIP3   OH227664   5.974   3.932   3.291
 9260TIP3    H127665   6.044   3.981   3.338
 9260TIP3    H227666   6.029   3.867   3.243
 9261TIP3   OH227667   6.917   4.385   4.158
 9261TIP3    H127668   6.838   4.443   4.167
 9261TIP3    H227669   6.949   4.413   4.070
 9262TIP3   OH227670   6.361   4.230   3.546
 9262TIP3    H127671   6.309   4.255   3.625
 9262TIP3    H227672   6.446   4.203   3.588
 9263TIP3   OH227673   6.600   4.268   4.457
 9263TIP3    H127674   6.599   4.351   4.508
 9263TIP3    H227675   6.515   4.276   4.409
 9264TIP3   OH227676   5.596   4.229   3.961
 9264TIP3    H127677   5.553   4.170   3.895
 9264TIP3    H227678   5.672   4.174   3.990
 9265TIP3   OH227679   5.726   4.634   4.115
 9265TIP3    H127680   5.707   4.596   4.028
 9265TIP3    H227681   5.817   4.601   4.131
 9266TIP3   OH227682   5.728   4.195   4.315
 9266TIP3    H127683   5.761   4.172   4.225
 9266TIP3    H227684   5.774   4.280   4.332
 9267TIP3   OH227685   6.256   4.847   4.107
 9267TIP3    H127686   6.233   4.914   4.172
 9267TIP3    H227687   6.245   4.764   4.157
 9268TIP3   OH227688   6.203   4.089   3.371
 9268TIP3    H127689   6.263   4.146   3.423
 9268TIP3    H227690   6.229   4.113   3.279
 9269TIP3   OH227691   5.944   4.772   3.644
 9269TIP3    H127692   6.028   4.819   3.664
 9269TIP3    H227693   5.886   4.844   3.617
 9270TIP3   OH227694   6.720   3.330   3.418
 9270TIP3    H127695   6.639   3.349   3.470
 9270TIP3    H227696   6.732   3.413   3.368
 9271TIP3   OH227697   5.460   4.072   3.770
 9271TIP3    H127698   5.395   4.114   3.710
 9271TIP3    H227699   5.424   3.983   3.778
 9272TIP3   OH227700   6.518   4.697   2.968
 9272TIP3    H127701   6.527   4.794   2.953
 9272TIP3    H227702   6.611   4.667   2.954
 9273TIP3   OH227703   5.263   4.449   4.647
 9273TIP3    H127704   5.177   4.422   4.614
 9273TIP3    H227705   5.289   4.378   4.707
 9274TIP3   OH227706   5.095   4.654   4.289
 9274TIP3    H127707   5.187   4.632   4.308
 9274TIP3    H227708   5.074   4.719   4.358
 9275TIP3   OH227709   5.817   5.014   3.443
 9275TIP3    H127710   5.766   5.016   3.361
 9275TIP3    H227711   5.800   5.104   3.478
 9276TIP3   OH227712   5.266   4.862   3.830
 9276TIP3    H127713   5.316   4.854   3.914
 9276TIP3    H227714   5.204   4.789   3.839
 9277TIP3   OH227715   6.012   4.903   3.097
 9277TIP3    H127716   6.076   4.841   3.057
 9277TIP3    H227717   6.054   4.921   3.183
 9278TIP3   OH227718   6.076   4.963   3.361
 9278TIP3    H127719   5.993   4.970   3.412
 9278TIP3    H227720   6.138   4.929   3.429
 9279TIP3   OH227721   6.847   4.226   4.640
 9279TIP3    H127722   6.772   4.239   4.580
 9279TIP3    H227723   6.866   4.131   4.628
 9280TIP3   OH227724   5.847   3.461   4.444
 9280TIP3    H127725   5.757   3.430   4.420
 9280TIP3    H227726   5.822   3.544   4.491
 9281TIP3   OH227727   6.381   3.577   4.640
 9281TIP3    H127728   6.450   3.549   4.703
 9281TIP3    H227729   6.298   3.555   4.686
 9282TIP3   OH227730   6.618   4.002   4.555
 9282TIP3    H127731   6.573   4.001   4.643
 9282TIP3    H227732   6.598   4.092   4.522
 9283TIP3   OH227733   6.279   4.138   3.115
 9283TIP3    H127734   6.247   4.110   3.027
 9283TIP3    H227735   6.362   4.184   3.090
 9284TIP3   OH227736   5.992   3.512   3.416
 9284TIP3    H127737   5.961   3.509   3.508
 9284TIP3    H227738   5.955   3.427   3.383
 9285TIP3   OH227739   5.780   3.976   4.466
 9285TIP3    H127740   5.729   3.997   4.547
 9285TIP3    H227741   5.761   4.055   4.410
 9286TIP3   OH227742   5.662   3.863   3.978
 9286TIP3    H127743   5.570   3.835   3.995
 9286TIP3    H227744   5.677   3.823   3.890
 9287TIP3   OH227745   6.153   3.949   3.705
 9287TIP3    H127746   6.100   4.020   3.663
 9287TIP3    H227747   6.208   3.919   3.630
 9288TIP3   OH227748   6.326   4.233   4.795
 9288TIP3    H127749   6.304   4.158   4.855
 9288TIP3    H227750   6.421   4.243   4.815
 9289TIP3   OH227751   6.310   3.978   3.945
 9289TIP3    H127752   6.252   4.007   3.872
 9289TIP3    H227753   6.344   3.895   3.904
 9290TIP3   OH227754   5.598   4.007   4.677
 9290TIP3    H127755   5.598   4.056   4.760
 9290TIP3    H227756   5.583   3.916   4.710
 9291TIP3   OH227757   5.648   3.483   3.383
 9291TIP3    H127758   5.641   3.479   3.480
 9291TIP3    H227759   5.568   3.533   3.359
 9292TIP3   OH227760   5.190   3.530   4.253
 9292TIP3    H127761   5.267   3.559   4.306
 9292TIP3    H227762   5.230   3.493   4.173
 9293TIP3   OH227763   5.165   3.509   3.774
 9293TIP3    H127764   5.210   3.547   3.695
 9293TIP3    H227765   5.104   3.581   3.795
 9294TIP3   OH227766   6.315   4.226   4.369
 9294TIP3    H127767   6.351   4.155   4.311
 9294TIP3    H227768   6.293   4.172   4.448
 9295TIP3   OH227769   5.989   3.689   4.040
 9295TIP3    H127770   5.908   3.683   4.095
 9295TIP3    H227771   6.059   3.682   4.107
 9296TIP3   OH227772   5.424   3.740   4.048
 9296TIP3    H127773   5.330   3.745   4.021
 9296TIP3    H227774   5.449   3.648   4.025
 9297TIP3   OH227775   5.694   3.739   3.736
 9297TIP3    H127776   5.789   3.751   3.716
 9297TIP3    H227777   5.650   3.761   3.651
 9298TIP3   OH227778   6.481   3.763   4.243
 9298TIP3    H127779   6.444   3.773   4.334
 9298TIP3    H227780   6.419   3.700   4.204
 9299TIP3   OH227781   5.532   3.773   3.515
 9299TIP3    H127782   5.462   3.726   3.466
 9299TIP3    H227783   5.586   3.807   3.440
 9300TIP3   OH227784   6.074   4.013   4.137
 9300TIP3    H127785   6.145   3.973   4.084
 9300TIP3    H227786   6.086   3.969   4.223
 9301TIP3   OH227787   5.597   3.501   4.014
 9301TIP3    H127788   5.564   3.421   4.060
 9301TIP3    H227789   5.650   3.464   3.943
 9302TIP3   OH227790   6.051   3.906   4.427
 9302TIP3    H127791   5.961   3.943   4.442
 9302TIP3    H227792   6.109   3.966   4.478
 9303TIP3   OH227793   5.782   4.303   3.519
 9303TIP3    H127794   5.713   4.234   3.511
 9303TIP3    H227795   5.768   4.334   3.611
 9304TIP3   OH227796   6.686   4.536   4.161
 9304TIP3    H127797   6.715   4.593   4.087
 9304TIP3    H227798   6.602   4.500   4.127
 9305TIP3   OH227799   6.245   3.613   3.384
 9305TIP3    H127800   6.148   3.598   3.391
 9305TIP3    H227801   6.255   3.708   3.407
 9306TIP3   OH227802   6.314   3.860   3.487
 9306TIP3    H127803   6.411   3.865   3.502
 9306TIP3    H227804   6.298   3.939   3.432
 9307TIP3   OH227805   5.479   4.325   4.196
 9307TIP3    H127806   5.517   4.295   4.112
 9307TIP3    H227807   5.513   4.259   4.258
 9308TIP3   OH227808   5.934   4.447   3.342
 9308TIP3    H127809   5.885   4.532   3.352
 9308TIP3    H227810   5.881   4.390   3.402
 9309TIP3   OH227811   5.359   4.226   4.821
 9309TIP3    H127812   5.339   4.208   4.915
 9309TIP3    H227813   5.285   4.181   4.778
 9310TIP3   OH227814   6.070   4.342   4.838
 9310TIP3    H127815   6.031   4.296   4.763
 9310TIP3    H227816   6.165   4.333   4.814
 9311TIP3   OH227817   6.757   3.949   3.324
 9311TIP3    H127818   6.694   3.904   3.262
 9311TIP3    H227819   6.754   4.038   3.281
 9312TIP3   OH227820   6.978   4.788   4.413
 9312TIP3    H127821   6.884   4.803   4.400
 9312TIP3    H227822   7.008   4.763   4.322
 9313TIP3   OH227823   6.449   4.769   3.229
 9313TIP3    H127824   6.436   4.697   3.292
 9313TIP3    H227825   6.469   4.724   3.145
 9314TIP3   OH227826   6.444   4.400   4.075
 9314TIP3    H127827   6.353   4.367   4.080
 9314TIP3    H227828   6.487   4.324   4.029
 9315TIP3   OH227829   5.580   4.626   3.827
 9315TIP3    H127830   5.586   4.708   3.774
 9315TIP3    H227831   5.485   4.612   3.831
 9316TIP3   OH227832   5.142   3.930   3.525
 9316TIP3    H127833   5.189   4.013   3.546
 9316TIP3    H227834   5.065   3.937   3.586
 9317TIP3   OH227835   5.718   4.392   3.767
 9317TIP3    H127836   5.685   4.481   3.788
 9317TIP3    H227837   5.683   4.341   3.842
 9318TIP3   OH227838   5.499   4.864   3.673
 9318TIP3    H127839   5.414   4.874   3.721
 9318TIP3    H227840   5.533   4.956   3.679
 9319TIP3   OH227841   6.250   4.602   4.250
 9319TIP3    H127842   6.262   4.573   4.341
 9319TIP3    H227843   6.320   4.552   4.205
 9320TIP3   OH227844   6.209   4.496   3.135
 9320TIP3    H127845   6.266   4.473   3.212
 9320TIP3    H227846   6.123   4.467   3.168
 9321TIP3   OH227847   6.551   4.972   2.953
 9321TIP3    H127848   6.592   5.044   2.901
 9321TIP3    H227849   6.471   5.020   2.984
 9322TIP3   OH227850   5.570   3.749   4.818
 9322TIP3    H127851   5.474   3.752   4.833
 9322TIP3    H227852   5.598   3.687   4.887
 9323TIP3   OH227853   6.370   4.433   3.353
 9323TIP3    H127854   6.362   4.364   3.421
 9323TIP3    H227855   6.467   4.430   3.338
 9324TIP3   OH227856   5.569   4.479   3.137
 9324TIP3    H127857   5.588   4.391   3.099
 9324TIP3    H227858   5.558   4.458   3.231
 9325TIP3   OH227859   5.520   4.487   3.413
 9325TIP3    H127860   5.595   4.449   3.462
 9325TIP3    H227861   5.540   4.582   3.417
 9326TIP3   OH227862   5.259   4.175   3.608
 9326TIP3    H127863   5.193   4.220   3.665
 9326TIP3    H227864   5.275   4.245   3.541
 9327TIP3   OH227865   6.402   3.816   4.503
 9327TIP3    H127866   6.486   3.853   4.536
 9327TIP3    H227867   6.392   3.734   4.555
 9328TIP3   OH227868   6.285   3.566   3.664
 9328TIP3    H127869   6.273   3.589   3.570
 9328TIP3    H227870   6.326   3.648   3.700
 9329TIP3   OH227871   5.785   4.671   3.355
 9329TIP3    H127872   5.706   4.717   3.391
 9329TIP3    H227873   5.826   4.740   3.302
 9330TIP3   OH227874   5.976   3.744   3.767
 9330TIP3    H127875   6.043   3.813   3.748
 9330TIP3    H227876   5.983   3.736   3.865
 9331TIP3   OH227877   6.245   4.062   4.578
 9331TIP3    H127878   6.269   4.114   4.657
 9331TIP3    H227879   6.302   3.984   4.586
 9332TIP3   OH227880   6.123   3.472   3.870
 9332TIP3    H127881   6.120   3.547   3.932
 9332TIP3    H227882   6.182   3.508   3.800
 9333TIP3   OH227883   5.535   4.769   3.421
 9333TIP3    H127884   5.468   4.826   3.382
 9333TIP3    H227885   5.529   4.796   3.515
 9334TIP3   OH227886   5.633   3.468   3.659
 9334TIP3    H127887   5.631   3.558   3.696
 9334TIP3    H227888   5.729   3.449   3.667
 9335TIP3   OH227889   6.886   3.962   4.558
 9335TIP3    H127890   6.788   3.957   4.561
 9335TIP3    H227891   6.903   3.928   4.469
 9336TIP3   OH227892   6.537   4.159   3.946
 9336TIP3    H127893   6.464   4.096   3.956
 9336TIP3    H227894   6.611   4.113   3.992
 9337TIP3   OH227895   5.254   4.390   3.414
 9337TIP3    H127896   5.330   4.450   3.425
 9337TIP3    H227897   5.292   4.330   3.347
 9338TIP3   OH227898   5.195   3.661   3.548
 9338TIP3    H127899   5.193   3.758   3.542
 9338TIP3    H227900   5.115   3.635   3.503
 9339TIP3   OH227901   6.517   5.092   3.896
 9339TIP3    H127902   6.465   5.149   3.836
 9339TIP3    H227903   6.607   5.126   3.877
 9340TIP3   OH227904   5.582   3.382   4.422
 9340TIP3    H127905   5.551   3.348   4.335
 9340TIP3    H227906   5.572   3.303   4.479
 9341TIP3   OH227907   5.125   4.595   3.805
 9341TIP3    H127908   5.051   4.644   3.843
 9341TIP3    H227909   5.124   4.630   3.714
 9342TIP3   OH227910   5.743   4.674   3.053
 9342TIP3    H127911   5.692   4.597   3.088
 9342TIP3    H227912   5.821   4.628   3.015
 9343TIP3   OH227913   6.174   4.726   2.957
 9343TIP3    H127914   6.224   4.666   3.015
 9343TIP3    H227915   6.230   4.729   2.877
 9344TIP3   OH227916   5.386   4.202   3.268
 9344TIP3    H127917   5.440   4.161   3.337
 9344TIP3    H227918   5.451   4.203   3.194
 9345TIP3   OH227919   5.884   4.395   3.075
 9345TIP3    H127920   5.897   4.406   3.171
 9345TIP3    H227921   5.891   4.297   3.068
 9346TIP3   OH227922   6.508   4.639   4.448
 9346TIP3    H127923   6.569   4.656   4.374
 9346TIP3    H227924   6.454   4.719   4.449
 9347TIP3   OH227925   5.594   4.101   3.489
 9347TIP3    H127926   5.570   4.056   3.571
 9347TIP3    H227927   5.630   4.027   3.436
 9348TIP3   OH227928   5.865   4.163   4.709
 9348TIP3    H127929   5.792   4.222   4.688
 9348TIP3    H227930   5.927   4.184   4.635
 9349TIP3   OH227931   5.694   3.896   3.330
 9349TIP3    H127932   5.668   3.895   3.235
 9349TIP3    H227933   5.792   3.901   3.322
 9350TIP3   OH227934   6.385   4.569   4.856
 9350TIP3    H127935   6.466   4.548   4.807
 9350TIP3    H227936   6.384   4.500   4.924
 9351TIP3   OH227937   6.515   4.227   2.992
 9351TIP3    H127938   6.495   4.180   2.909
 9351TIP3    H227939   6.485   4.317   2.966
 9352TIP3   OH227940   5.982   3.952   4.849
 9352TIP3    H127941   5.987   3.870   4.795
 9352TIP3    H227942   5.942   4.015   4.786
 9353TIP3   OH227943   5.988   3.742   4.652
 9353TIP3    H127944   6.017   3.779   4.566
 9353TIP3    H227945   5.895   3.717   4.632
 9354TIP3   OH227946   6.023   4.275   4.527
 9354TIP3    H127947   6.103   4.272   4.473
 9354TIP3    H227948   5.969   4.344   4.482
 9355TIP3   OH227949   6.599   4.245   4.906
 9355TIP3    H127950   6.645   4.160   4.914
 9355TIP3    H227951   6.670   4.301   4.870
 9356TIP3   OH227952   6.640   4.495   4.638
 9356TIP3    H127953   6.585   4.551   4.578
 9356TIP3    H227954   6.729   4.513   4.600
 9357TIP3   OH227955   5.843   4.090   5.055
 9357TIP3    H127956   5.784   4.016   5.078
 9357TIP3    H227957   5.893   4.050   4.980
 9358TIP3   OH227958   6.121   3.505   4.716
 9358TIP3    H127959   6.072   3.587   4.694
 9358TIP3    H227960   6.051   3.437   4.704
 9359TIP3   OH227961   6.246   4.012   4.933
 9359TIP3    H127962   6.240   3.999   5.029
 9359TIP3    H227963   6.156   3.984   4.907
 9360TIP3   OH227964   6.487   3.962   4.788
 9360TIP3    H127965   6.412   3.959   4.850
 9360TIP3    H227966   6.561   3.928   4.844
 9361TIP3   OH227967   6.712   3.897   4.940
 9361TIP3    H127968   6.727   3.802   4.958
 9361TIP3    H227969   6.710   3.937   5.030
 9362TIP3   OH227970   5.710   3.852   5.125
 9362TIP3    H127971   5.713   3.762   5.088
 9362TIP3    H227972   5.744   3.834   5.215
 9363TIP3   OH227973   6.216   3.515   4.973
 9363TIP3    H127974   6.284   3.445   4.969
 9363TIP3    H227975   6.176   3.507   4.884
 9364TIP3   OH227976   6.281   3.728   5.133
 9364TIP3    H127977   6.259   3.657   5.069
 9364TIP3    H227978   6.204   3.787   5.124
 9365TIP3   OH227979   4.985   4.337   3.456
 9365TIP3    H127980   5.079   4.359   3.436
 9365TIP3    H227981   4.975   4.250   3.412
 9366TIP3   OH227982   4.897   4.951   3.866
 9366TIP3    H127983   4.841   4.895   3.810
 9366TIP3    H227984   4.934   4.888   3.931
 9367TIP3   OH227985   5.023   4.794   4.054
 9367TIP3    H127986   5.037   4.726   4.123
 9367TIP3    H227987   5.074   4.867   4.095
 9368TIP3   OH227988   6.767   5.203   3.860
 9368TIP3    H127989   6.798   5.259   3.932
 9368TIP3    H227990   6.811   5.241   3.783
 9369TIP3   OH227991   6.843   4.907   4.706
 9369TIP3    H127992   6.770   4.918   4.770
 9369TIP3    H227993   6.865   4.998   4.681
 9370TIP3   OH227994   6.650   4.415   3.325
 9370TIP3    H127995   6.719   4.478   3.296
 9370TIP3    H227996   6.693   4.374   3.403
 9371TIP3   OH227997   6.777   4.282   3.527
 9371TIP3    H127998   6.714   4.239   3.589
 9371TIP3    H227999   6.845   4.319   3.588
 9372TIP3   OH228000   6.825   4.667   3.959
 9372TIP3    H128001   6.882   4.605   3.910
 9372TIP3    H228002   6.819   4.742   3.896
 9373TIP3   OH228003   6.716   4.189   3.176
 9373TIP3    H128004   6.644   4.192   3.109
 9373TIP3    H228005   6.691   4.265   3.231
 9374TIP3   OH228006   6.585   3.863   3.132
 9374TIP3    H128007   6.548   3.901   3.052
 9374TIP3    H228008   6.561   3.768   3.121
 9375TIP3   OH228009   6.591   4.137   3.675
 9375TIP3    H128010   6.602   4.040   3.671
 9375TIP3    H228011   6.580   4.152   3.771
 9376TIP3   OH228012   5.216   4.214   4.418
 9376TIP3    H128013   5.219   4.181   4.326
 9376TIP3    H228014   5.312   4.217   4.439
 9377TIP3   OH228015   6.880   4.562   4.529
 9377TIP3    H128016   6.950   4.492   4.526
 9377TIP3    H228017   6.925   4.635   4.482
 9378TIP3   OH228018   7.061   4.368   4.557
 9378TIP3    H128019   6.991   4.311   4.595
 9378TIP3    H228020   7.139   4.310   4.565
 9379TIP3   OH228021   6.531   3.597   3.118
 9379TIP3    H128022   6.608   3.566   3.170
 9379TIP3    H228023   6.460   3.536   3.143
 9380TIP3   OH228024   6.588   3.853   3.570
 9380TIP3    H128025   6.629   3.764   3.586
 9380TIP3    H228026   6.647   3.886   3.500
 9381TIP3   OH228027   6.751   4.030   4.064
 9381TIP3    H128028   6.837   4.055   4.024
 9381TIP3    H228029   6.765   4.065   4.154
 9382TIP3   OH228030   6.819   4.170   4.299
 9382TIP3    H128031   6.741   4.207   4.345
 9382TIP3    H228032   6.852   4.250   4.251
 9383TIP3   OH228033   5.440   3.899   5.101
 9383TIP3    H128034   5.537   3.889   5.099
 9383TIP3    H228035   5.413   3.813   5.138
 9384TIP3   OH228036   7.270   3.761   4.855
 9384TIP3    H128037   7.329   3.695   4.811
 9384TIP3    H228038   7.243   3.817   4.779
 9385TIP3   OH228039   6.697   3.603   3.609
 9385TIP3    H128040   6.747   3.586   3.692
 9385TIP3    H228041   6.638   3.525   3.607
 9386TIP3   OH228042   5.398   3.590   4.428
 9386TIP3    H128043   5.459   3.514   4.438
 9386TIP3    H228044   5.460   3.664   4.422
 9387TIP3   OH228045   5.201   3.864   4.501
 9387TIP3    H128046   5.251   3.857   4.417
 9387TIP3    H228047   5.229   3.951   4.532
 9388TIP3   OH228048   7.142   3.902   4.662
 9388TIP3    H128049   7.054   3.941   4.679
 9388TIP3    H228050   7.116   3.830   4.601
 9389TIP3   OH228051   6.779   3.539   3.239
 9389TIP3    H128052   6.820   3.466   3.188
 9389TIP3    H228053   6.847   3.609   3.233
 9390TIP3   OH228054   5.184   3.370   4.004
 9390TIP3    H128055   5.089   3.365   4.027
 9390TIP3    H228056   5.182   3.426   3.923
 9391TIP3   OH228057   6.336   5.071   3.505
 9391TIP3    H128058   6.393   5.057   3.426
 9391TIP3    H228059   6.391   5.132   3.557
 9392TIP3   OH228060   5.405   3.451   4.817
 9392TIP3    H128061   5.353   3.439   4.899
 9392TIP3    H228062   5.336   3.486   4.757
 9393TIP3   OH228063   7.040   3.665   4.537
 9393TIP3    H128064   6.949   3.659   4.504
 9393TIP3    H228065   7.071   3.572   4.524
 9394TIP3   OH228066   5.295   5.167   4.449
 9394TIP3    H128067   5.208   5.203   4.421
 9394TIP3    H228068   5.284   5.177   4.544
 9395TIP3   OH228069   5.532   5.162   4.311
 9395TIP3    H128070   5.443   5.168   4.351
 9395TIP3    H228071   5.514   5.192   4.220
 9396TIP3   OH228072   5.968   5.173   4.085
 9396TIP3    H128073   5.892   5.214   4.042
 9396TIP3    H228074   5.995   5.240   4.150
 9397TIP3   OH228075   5.206   4.960   4.200
 9397TIP3    H128076   5.242   4.965   4.290
 9397TIP3    H228077   5.278   4.912   4.154
 9398TIP3   OH228078   5.400   4.825   4.064
 9398TIP3    H128079   5.420   4.742   4.113
 9398TIP3    H228080   5.491   4.864   4.058
 9399TIP3   OH228081   5.660   4.922   4.063
 9399TIP3    H128082   5.704   4.836   4.055
 9399TIP3    H228083   5.708   4.961   4.137
 9400TIP3   OH228084   6.242   3.579   4.151
 9400TIP3    H128085   6.202   3.509   4.206
 9400TIP3    H228086   6.317   3.533   4.110
 9401TIP3   OH228087   6.769   3.461   4.062
 9401TIP3    H128088   6.806   3.512   3.987
 9401TIP3    H228089   6.674   3.479   4.054
 9402TIP3   OH228090   6.864   3.561   3.826
 9402TIP3    H128091   6.936   3.509   3.785
 9402TIP3    H228092   6.898   3.652   3.810
 9403TIP3   OH228093   5.494   3.289   4.173
 9403TIP3    H128094   5.403   3.255   4.173
 9403TIP3    H228095   5.545   3.205   4.170
 9404TIP3   OH228096   5.280   3.158   3.820
 9404TIP3    H128097   5.311   3.215   3.747
 9404TIP3    H228098   5.252   3.223   3.886
 9405TIP3   OH228099   5.935   3.324   4.053
 9405TIP3    H128100   5.996   3.371   3.993
 9405TIP3    H228101   5.963   3.357   4.139
 9406TIP3   OH228102   6.484   3.468   4.038
 9406TIP3    H128103   6.485   3.431   3.948
 9406TIP3    H228104   6.471   3.386   4.092
 9407TIP3   OH228105   6.515   3.389   3.599
 9407TIP3    H128106   6.427   3.430   3.608
 9407TIP3    H228107   6.501   3.304   3.646
 9408TIP3   OH228108   4.988   4.739   3.617
 9408TIP3    H128109   4.907   4.706   3.572
 9408TIP3    H228110   4.989   4.829   3.579
 9409TIP3   OH228111   5.397   3.319   3.584
 9409TIP3    H128112   5.446   3.255   3.528
 9409TIP3    H228113   5.471   3.372   3.620
 9410TIP3   OH228114   5.910   3.493   3.682
 9410TIP3    H128115   5.970   3.445   3.742
 9410TIP3    H228116   5.932   3.585   3.708
 9411TIP3   OH228117   5.732   4.925   3.131
 9411TIP3    H128118   5.821   4.967   3.129
 9411TIP3    H228119   5.763   4.832   3.115
 9412TIP3   OH228120   6.486   5.035   3.275
 9412TIP3    H128121   6.477   4.938   3.260
 9412TIP3    H228122   6.445   5.070   3.193
 9413TIP3   OH228123   5.701   3.574   5.067
 9413TIP3    H128124   5.669   3.500   5.121
 9413TIP3    H228125   5.797   3.572   5.091
 9414TIP3   OH228126   5.951   3.569   5.184
 9414TIP3    H128127   6.035   3.541   5.144
 9414TIP3    H228128   5.938   3.498   5.250
 9415TIP3   OH228129   5.077   4.760   3.244
 9415TIP3    H128130   5.055   4.802   3.329
 9415TIP3    H228131   5.156   4.708   3.264
 9416TIP3   OH228132   6.775   3.628   4.971
 9416TIP3    H128133   6.796   3.596   5.061
 9416TIP3    H228134   6.863   3.623   4.928
 9417TIP3   OH228135   7.982   4.552   3.229
 9417TIP3    H128136   7.954   4.644   3.210
 9417TIP3    H228137   7.904   4.504   3.197
 9418TIP3   OH228138   7.980   4.551   3.608
 9418TIP3    H128139   8.011   4.524   3.697
 9418TIP3    H228140   7.938   4.471   3.576
 9419TIP3   OH228141   7.280   4.447   3.974
 9419TIP3    H128142   7.311   4.382   4.039
 9419TIP3    H228143   7.355   4.508   3.972
 9420TIP3   OH228144   8.223   4.854   3.291
 9420TIP3    H128145   8.210   4.785   3.358
 9420TIP3    H228146   8.250   4.930   3.345
 9421TIP3   OH228147   7.251   4.856   3.697
 9421TIP3    H128148   7.241   4.759   3.702
 9421TIP3    H228149   7.348   4.864   3.693
 9422TIP3   OH228150   6.957   4.061   3.486
 9422TIP3    H128151   6.910   4.145   3.499
 9422TIP3    H228152   6.886   4.007   3.447
 9423TIP3   OH228153   7.016   4.347   3.654
 9423TIP3    H128154   7.066   4.272   3.693
 9423TIP3    H228155   7.079   4.380   3.589
 9424TIP3   OH228156   7.868   5.318   3.301
 9424TIP3    H128157   7.918   5.243   3.264
 9424TIP3    H228158   7.861   5.295   3.395
 9425TIP3   OH228159   7.779   4.777   3.657
 9425TIP3    H128160   7.819   4.701   3.611
 9425TIP3    H228161   7.861   4.823   3.683
 9426TIP3   OH228162   8.789   4.099   3.654
 9426TIP3    H128163   8.819   4.181   3.699
 9426TIP3    H228164   8.814   4.118   3.562
 9427TIP3   OH228165   8.191   4.280   3.692
 9427TIP3    H128166   8.234   4.195   3.711
 9427TIP3    H228167   8.161   4.265   3.600
 9428TIP3   OH228168   7.528   3.939   3.657
 9428TIP3    H128169   7.508   4.012   3.594
 9428TIP3    H228170   7.480   3.866   3.612
 9429TIP3   OH228171   8.222   4.029   3.279
 9429TIP3    H128172   8.295   4.014   3.344
 9429TIP3    H228173   8.273   4.066   3.204
 9430TIP3   OH228174   7.162   4.142   3.763
 9430TIP3    H128175   7.245   4.122   3.810
 9430TIP3    H228176   7.175   4.086   3.683
 9431TIP3   OH228177   7.604   4.340   3.553
 9431TIP3    H128178   7.698   4.314   3.568
 9431TIP3    H228179   7.565   4.255   3.523
 9432TIP3   OH228180   8.863   4.304   3.827
 9432TIP3    H128181   8.780   4.353   3.809
 9432TIP3    H228182   8.883   4.334   3.917
 9433TIP3   OH228183   7.525   3.922   4.090
 9433TIP3    H128184   7.466   3.960   4.022
 9433TIP3    H228185   7.474   3.941   4.171
 9434TIP3   OH228186   7.875   4.774   3.099
 9434TIP3    H128187   7.831   4.752   3.015
 9434TIP3    H228188   7.831   4.859   3.121
 9435TIP3   OH228189   7.627   4.700   3.890
 9435TIP3    H128190   7.564   4.765   3.929
 9435TIP3    H228191   7.671   4.754   3.821
 9436TIP3   OH228192   8.434   4.032   3.450
 9436TIP3    H128193   8.425   3.984   3.533
 9436TIP3    H228194   8.489   4.108   3.476
 9437TIP3   OH228195   7.396   4.038   3.875
 9437TIP3    H128196   7.457   4.111   3.897
 9437TIP3    H228197   7.445   3.997   3.800
 9438TIP3   OH228198   7.445   4.892   3.992
 9438TIP3    H128199   7.415   4.975   3.951
 9438TIP3    H228200   7.378   4.882   4.061
 9439TIP3   OH228201   6.855   4.581   3.220
 9439TIP3    H128202   6.816   4.608   3.135
 9439TIP3    H228203   6.886   4.667   3.256
 9440TIP3   OH228204   8.295   5.096   3.458
 9440TIP3    H128205   8.206   5.087   3.500
 9440TIP3    H228206   8.286   5.183   3.415
 9441TIP3   OH228207   8.585   3.997   3.821
 9441TIP3    H128208   8.498   4.029   3.793
 9441TIP3    H228209   8.644   4.030   3.750
 9442TIP3   OH228210   7.883   3.642   3.803
 9442TIP3    H128211   7.871   3.547   3.821
 9442TIP3    H228212   7.805   3.679   3.850
 9443TIP3   OH228213   7.999   5.142   3.134
 9443TIP3    H128214   8.049   5.061   3.111
 9443TIP3    H228215   8.056   5.210   3.092
 9444TIP3   OH228216   8.141   4.928   3.037
 9444TIP3    H128217   8.100   4.849   3.000
 9444TIP3    H228218   8.176   4.894   3.123
 9445TIP3   OH228219   8.521   5.012   3.802
 9445TIP3    H128220   8.510   4.934   3.744
 9445TIP3    H228221   8.503   5.086   3.741
 9446TIP3   OH228222   7.811   4.403   3.058
 9446TIP3    H128223   7.731   4.455   3.036
 9446TIP3    H228224   7.859   4.402   2.974
 9447TIP3   OH228225   7.771   4.189   2.777
 9447TIP3    H128226   7.839   4.238   2.826
 9447TIP3    H228227   7.827   4.124   2.729
 9448TIP3   OH228228   8.716   4.646   3.646
 9448TIP3    H128229   8.633   4.699   3.653
 9448TIP3    H228230   8.745   4.670   3.556
 9449TIP3   OH228231   8.159   4.486   3.032
 9449TIP3    H128232   8.104   4.512   3.110
 9449TIP3    H228233   8.242   4.460   3.076
 9450TIP3   OH228234   8.395   4.526   3.942
 9450TIP3    H128235   8.392   4.610   3.992
 9450TIP3    H228236   8.308   4.531   3.897
 9451TIP3   OH228237   7.391   4.485   3.448
 9451TIP3    H128238   7.351   4.427   3.380
 9451TIP3    H228239   7.469   4.432   3.476
 9452TIP3   OH228240   7.522   4.896   3.597
 9452TIP3    H128241   7.503   4.852   3.513
 9452TIP3    H228242   7.612   4.863   3.617
 9453TIP3   OH228243   7.529   4.457   3.801
 9453TIP3    H128244   7.564   4.438   3.711
 9453TIP3    H228245   7.571   4.543   3.823
 9454TIP3   OH228246   8.056   5.092   3.580
 9454TIP3    H128247   8.037   5.173   3.632
 9454TIP3    H228248   8.038   5.020   3.644
 9455TIP3   OH228249   7.649   5.028   4.132
 9455TIP3    H128250   7.595   5.109   4.147
 9455TIP3    H228251   7.582   4.973   4.087
 9456TIP3   OH228252   8.001   4.344   2.858
 9456TIP3    H128253   8.060   4.403   2.910
 9456TIP3    H228254   8.026   4.369   2.765
 9457TIP3   OH228255   7.419   4.566   4.220
 9457TIP3    H128256   7.427   4.653   4.265
 9457TIP3    H228257   7.323   4.550   4.233
 9458TIP3   OH228258   7.743   5.025   3.131
 9458TIP3    H128259   7.821   5.079   3.153
 9458TIP3    H228260   7.681   5.091   3.096
 9459TIP3   OH228261   8.516   3.586   2.905
 9459TIP3    H128262   8.434   3.606   2.957
 9459TIP3    H228263   8.528   3.670   2.856
 9460TIP3   OH228264   7.258   4.327   3.253
 9460TIP3    H128265   7.193   4.372   3.195
 9460TIP3    H228266   7.216   4.241   3.265
 9461TIP3   OH228267   8.314   4.953   2.453
 9461TIP3    H128268   8.322   5.050   2.440
 9461TIP3    H228269   8.407   4.924   2.441
 9462TIP3   OH228270   7.022   4.708   4.164
 9462TIP3    H128271   6.972   4.681   4.085
 9462TIP3    H228272   7.078   4.631   4.183
 9463TIP3   OH228273   6.892   4.902   3.794
 9463TIP3    H128274   6.988   4.894   3.792
 9463TIP3    H228275   6.877   4.985   3.840
 9464TIP3   OH228276   8.757   5.354   3.847
 9464TIP3    H128277   8.756   5.258   3.861
 9464TIP3    H228278   8.674   5.379   3.893
 9465TIP3   OH228279   7.877   5.133   4.000
 9465TIP3    H128280   7.868   5.230   4.013
 9465TIP3    H228281   7.791   5.105   4.037
 9466TIP3   OH228282   7.622   5.270   2.935
 9466TIP3    H128283   7.578   5.253   2.850
 9466TIP3    H228284   7.592   5.360   2.957
 9467TIP3   OH228285   7.060   5.120   3.318
 9467TIP3    H128286   7.111   5.110   3.401
 9467TIP3    H228287   7.003   5.042   3.323
 9468TIP3   OH228288   7.826   5.171   2.575
 9468TIP3    H128289   7.885   5.101   2.539
 9468TIP3    H228290   7.860   5.180   2.667
 9469TIP3   OH228291   7.875   5.220   2.846
 9469TIP3    H128292   7.787   5.229   2.889
 9469TIP3    H228293   7.926   5.179   2.918
 9470TIP3   OH228294   8.649   4.487   4.123
 9470TIP3    H128295   8.568   4.500   4.071
 9470TIP3    H228296   8.663   4.391   4.113
 9471TIP3   OH228297   7.643   3.717   3.932
 9471TIP3    H128298   7.553   3.687   3.907
 9471TIP3    H228299   7.620   3.801   3.977
 9472TIP3   OH228300   8.177   3.833   4.127
 9472TIP3    H128301   8.245   3.806   4.192
 9472TIP3    H228302   8.093   3.813   4.173
 9473TIP3   OH228303   8.417   4.262   4.044
 9473TIP3    H128304   8.369   4.258   4.130
 9473TIP3    H228305   8.392   4.350   4.009
 9474TIP3   OH228306   8.075   4.393   2.601
 9474TIP3    H128307   8.044   4.366   2.512
 9474TIP3    H228308   8.156   4.441   2.577
 9475TIP3   OH228309   7.789   3.768   2.903
 9475TIP3    H128310   7.757   3.766   2.995
 9475TIP3    H228311   7.751   3.683   2.871
 9476TIP3   OH228312   7.574   4.233   3.950
 9476TIP3    H128313   7.525   4.255   4.032
 9476TIP3    H228314   7.559   4.314   3.897
 9477TIP3   OH228315   7.459   4.119   3.465
 9477TIP3    H128316   7.366   4.093   3.482
 9477TIP3    H228317   7.473   4.078   3.376
 9478TIP3   OH228318   7.949   4.205   3.192
 9478TIP3    H128319   7.896   4.276   3.151
 9478TIP3    H228320   8.004   4.176   3.116
 9479TIP3   OH228321   8.124   4.484   4.278
 9479TIP3    H128322   8.102   4.411   4.341
 9479TIP3    H228323   8.218   4.499   4.301
 9480TIP3   OH228324   8.107   4.234   3.432
 9480TIP3    H128325   8.048   4.265   3.361
 9480TIP3    H228326   8.139   4.152   3.390
 9481TIP3   OH228327   7.393   4.263   4.160
 9481TIP3    H128328   7.418   4.329   4.226
 9481TIP3    H228329   7.384   4.182   4.215
 9482TIP3   OH228330   7.444   3.739   2.870
 9482TIP3    H128331   7.437   3.736   2.967
 9482TIP3    H228332   7.365   3.791   2.846
 9483TIP3   OH228333   6.987   3.785   3.741
 9483TIP3    H128334   7.062   3.817   3.794
 9483TIP3    H228335   7.028   3.752   3.660
 9484TIP3   OH228336   6.961   3.765   3.260
 9484TIP3    H128337   7.006   3.804   3.182
 9484TIP3    H228338   6.901   3.839   3.282
 9485TIP3   OH228339   8.116   4.481   3.855
 9485TIP3    H128340   8.149   4.408   3.797
 9485TIP3    H228341   8.088   4.429   3.933
 9486TIP3   OH228342   7.785   3.941   3.527
 9486TIP3    H128343   7.703   3.939   3.580
 9486TIP3    H228344   7.854   3.942   3.595
 9487TIP3   OH228345   7.220   3.997   3.535
 9487TIP3    H128346   7.126   4.003   3.508
 9487TIP3    H228347   7.245   3.906   3.511
 9488TIP3   OH228348   7.491   3.993   3.222
 9488TIP3    H128349   7.585   4.009   3.203
 9488TIP3    H228350   7.445   4.018   3.139
 9489TIP3   OH228351   8.278   4.017   3.727
 9489TIP3    H128352   8.244   4.029   3.819
 9489TIP3    H228353   8.212   3.956   3.691
 9490TIP3   OH228354   7.329   4.027   3.001
 9490TIP3    H128355   7.258   3.982   2.952
 9490TIP3    H228356   7.382   4.063   2.927
 9491TIP3   OH228357   8.448   5.706   3.947
 9491TIP3    H128358   8.446   5.728   3.852
 9491TIP3    H228359   8.526   5.755   3.978
 9492TIP3   OH228360   7.412   4.794   4.371
 9492TIP3    H128361   7.487   4.833   4.420
 9492TIP3    H228362   7.345   4.788   4.439
 9493TIP3   OH228363   7.870   4.268   3.623
 9493TIP3    H128364   7.943   4.230   3.572
 9493TIP3    H228365   7.881   4.228   3.711
 9494TIP3   OH228366   7.392   3.758   3.501
 9494TIP3    H128367   7.360   3.677   3.546
 9494TIP3    H228368   7.446   3.721   3.429
 9495TIP3   OH228369   7.846   4.164   3.917
 9495TIP3    H128370   7.757   4.202   3.929
 9495TIP3    H228371   7.904   4.225   3.966
 9496TIP3   OH228372   7.583   4.557   3.007
 9496TIP3    H128373   7.510   4.492   2.997
 9496TIP3    H228374   7.566   4.591   3.099
 9497TIP3   OH228375   8.484   4.793   3.639
 9497TIP3    H128376   8.508   4.842   3.557
 9497TIP3    H228377   8.398   4.753   3.615
 9498TIP3   OH228378   8.041   3.870   2.869
 9498TIP3    H128379   7.944   3.855   2.878
 9498TIP3    H228380   8.052   3.964   2.893
 9499TIP3   OH228381   7.982   4.875   4.007
 9499TIP3    H128382   8.002   4.858   4.100
 9499TIP3    H228383   7.945   4.966   4.011
 9500TIP3   OH228384   8.111   4.116   2.973
 9500TIP3    H128385   8.207   4.122   2.989
 9500TIP3    H228386   8.093   4.196   2.919
 9501TIP3   OH228387   7.272   4.575   3.685
 9501TIP3    H128388   7.313   4.549   3.601
 9501TIP3    H228389   7.316   4.516   3.748
 9502TIP3   OH228390   7.728   4.706   2.828
 9502TIP3    H128391   7.681   4.793   2.835
 9502TIP3    H228392   7.674   4.651   2.889
 9503TIP3   OH228393   7.158   4.502   4.296
 9503TIP3    H128394   7.187   4.493   4.389
 9503TIP3    H228395   7.089   4.434   4.290
 9504TIP3   OH228396   7.880   4.611   4.320
 9504TIP3    H128397   7.822   4.555   4.266
 9504TIP3    H228398   7.968   4.581   4.291
 9505TIP3   OH228399   8.144   5.133   3.902
 9505TIP3    H128400   8.048   5.131   3.917
 9505TIP3    H228401   8.172   5.186   3.980
 9506TIP3   OH228402   8.554   4.205   2.810
 9506TIP3    H128403   8.491   4.160   2.749
 9506TIP3    H228404   8.551   4.294   2.768
 9507TIP3   OH228405   8.771   5.064   3.891
 9507TIP3    H128406   8.673   5.058   3.883
 9507TIP3    H228407   8.796   5.034   3.801
 9508TIP3   OH228408   8.253   5.026   2.718
 9508TIP3    H128409   8.228   4.956   2.780
 9508TIP3    H228410   8.265   4.978   2.634
 9509TIP3   OH228411   8.249   4.655   3.558
 9509TIP3    H128412   8.156   4.630   3.571
 9509TIP3    H228413   8.283   4.575   3.512
 9510TIP3   OH228414   7.375   4.881   3.308
 9510TIP3    H128415   7.379   4.963   3.257
 9510TIP3    H228416   7.280   4.869   3.317
 9511TIP3   OH228417   6.938   4.187   3.011
 9511TIP3    H128418   6.986   4.270   3.032
 9511TIP3    H228419   6.862   4.194   3.073
 9512TIP3   OH228420   7.515   4.648   3.254
 9512TIP3    H128421   7.481   4.738   3.271
 9512TIP3    H228422   7.479   4.599   3.330
 9513TIP3   OH228423   7.296   5.121   3.162
 9513TIP3    H128424   7.210   5.130   3.207
 9513TIP3    H228425   7.328   5.214   3.166
 9514TIP3   OH228426   8.033   4.860   3.738
 9514TIP3    H128427   8.023   4.861   3.836
 9514TIP3    H228428   8.115   4.810   3.727
 9515TIP3   OH228429   8.007   4.752   2.620
 9515TIP3    H128430   8.060   4.728   2.699
 9515TIP3    H228431   7.918   4.727   2.651
 9516TIP3   OH228432   8.283   5.394   3.789
 9516TIP3    H128433   8.204   5.337   3.782
 9516TIP3    H228434   8.266   5.459   3.716
 9517TIP3   OH228435   8.347   5.229   2.440
 9517TIP3    H128436   8.384   5.301   2.386
 9517TIP3    H228437   8.267   5.274   2.473
 9518TIP3   OH228438   7.369   4.005   4.308
 9518TIP3    H128439   7.273   4.009   4.321
 9518TIP3    H228440   7.397   3.944   4.378
 9519TIP3   OH228441   8.167   4.686   2.836
 9519TIP3    H128442   8.157   4.620   2.908
 9519TIP3    H228443   8.264   4.686   2.824
 9520TIP3   OH228444   7.374   4.734   2.619
 9520TIP3    H128445   7.389   4.642   2.590
 9520TIP3    H228446   7.356   4.721   2.714
 9521TIP3   OH228447   7.319   4.738   2.893
 9521TIP3    H128448   7.391   4.712   2.952
 9521TIP3    H228449   7.323   4.836   2.899
 9522TIP3   OH228450   7.055   4.432   3.095
 9522TIP3    H128451   6.990   4.478   3.152
 9522TIP3    H228452   7.071   4.502   3.028
 9523TIP3   OH228453   8.203   4.069   3.986
 9523TIP3    H128454   8.283   4.108   4.026
 9523TIP3    H228455   8.189   3.989   4.040
 9524TIP3   OH228456   8.083   3.822   3.150
 9524TIP3    H128457   8.070   3.846   3.057
 9524TIP3    H228458   8.123   3.903   3.187
 9525TIP3   OH228459   7.584   4.936   2.840
 9525TIP3    H128460   7.498   4.965   2.876
 9525TIP3    H228461   7.603   5.009   2.779
 9526TIP3   OH228462   7.773   3.999   3.254
 9526TIP3    H128463   7.838   4.070   3.235
 9526TIP3    H228464   7.779   3.992   3.351
 9527TIP3   OH228465   8.042   4.319   4.063
 9527TIP3    H128466   8.062   4.374   4.141
 9527TIP3    H228467   8.099   4.241   4.077
 9528TIP3   OH228468   7.919   3.728   3.357
 9528TIP3    H128469   7.913   3.804   3.418
 9528TIP3    H228470   7.979   3.765   3.288
 9529TIP3   OH228471   7.326   5.011   2.907
 9529TIP3    H128472   7.298   5.081   2.844
 9529TIP3    H228473   7.312   5.056   2.994
 9530TIP3   OH228474   7.429   3.724   3.146
 9530TIP3    H128475   7.427   3.815   3.182
 9530TIP3    H228476   7.525   3.706   3.155
 9531TIP3   OH228477   8.684   4.219   4.043
 9531TIP3    H128478   8.585   4.217   4.049
 9531TIP3    H228479   8.696   4.183   3.955
 9532TIP3   OH228480   8.334   4.413   3.430
 9532TIP3    H128481   8.258   4.354   3.443
 9532TIP3    H228482   8.406   4.367   3.479
 9533TIP3   OH228483   7.045   4.644   2.901
 9533TIP3    H128484   7.111   4.716   2.910
 9533TIP3    H228485   7.091   4.589   2.834
 9534TIP3   OH228486   6.992   3.917   3.034
 9534TIP3    H128487   6.991   4.015   3.029
 9534TIP3    H228488   6.909   3.894   2.991
 9535TIP3   OH228489   8.302   5.369   3.381
 9535TIP3    H128490   8.259   5.415   3.306
 9535TIP3    H228491   8.396   5.387   3.360
 9536TIP3   OH228492   7.378   3.638   3.909
 9536TIP3    H128493   7.347   3.605   3.822
 9536TIP3    H228494   7.368   3.559   3.965
 9537TIP3   OH228495   6.919   4.856   3.291
 9537TIP3    H128496   6.844   4.888   3.343
 9537TIP3    H228497   6.899   4.895   3.203
 9538TIP3   OH228498   7.561   5.360   4.382
 9538TIP3    H128499   7.648   5.320   4.387
 9538TIP3    H228500   7.527   5.325   4.297
 9539TIP3   OH228501   7.537   4.939   2.532
 9539TIP3    H128502   7.481   4.867   2.572
 9539TIP3    H228503   7.612   4.886   2.500
 9540TIP3   OH228504   8.199   5.269   4.135
 9540TIP3    H128505   8.188   5.198   4.203
 9540TIP3    H228506   8.274   5.320   4.170
 9541TIP3   OH228507   7.974   4.979   2.443
 9541TIP3    H128508   8.019   4.916   2.501
 9541TIP3    H228509   8.031   4.980   2.364
 9542TIP3   OH228510   7.181   4.455   2.753
 9542TIP3    H128511   7.237   4.422   2.825
 9542TIP3    H228512   7.248   4.460   2.681
 9543TIP3   OH228513   7.812   4.892   4.332
 9543TIP3    H128514   7.766   4.911   4.248
 9543TIP3    H228515   7.841   4.799   4.322
 9544TIP3   OH228516   7.689   4.652   2.559
 9544TIP3    H128517   7.692   4.666   2.656
 9544TIP3    H228518   7.689   4.554   2.555
 9545TIP3   OH228519   8.305   4.895   3.938
 9545TIP3    H128520   8.378   4.943   3.895
 9545TIP3    H228521   8.233   4.959   3.929
 9546TIP3   OH228522   7.328   4.508   4.536
 9546TIP3    H128523   7.419   4.476   4.525
 9546TIP3    H228524   7.336   4.563   4.616
 9547TIP3   OH228525   7.389   4.358   2.975
 9547TIP3    H128526   7.365   4.316   3.059
 9547TIP3    H228527   7.425   4.282   2.924
 9548TIP3   OH228528   7.658   4.421   4.203
 9548TIP3    H128529   7.581   4.482   4.207
 9548TIP3    H228530   7.706   4.455   4.123
 9549TIP3   OH228531   7.490   4.151   2.817
 9549TIP3    H128532   7.463   4.153   2.723
 9549TIP3    H228533   7.588   4.158   2.808
 9550TIP3   OH228534   8.173   4.823   4.337
 9550TIP3    H128535   8.256   4.804   4.290
 9550TIP3    H228536   8.174   4.756   4.408
 9551TIP3   OH228537   8.313   4.483   2.478
 9551TIP3    H128538   8.292   4.436   2.395
 9551TIP3    H228539   8.281   4.574   2.453
 9552TIP3   OH228540   7.781   4.210   4.331
 9552TIP3    H128541   7.782   4.131   4.275
 9552TIP3    H228542   7.738   4.277   4.273
 9553TIP3   OH228543   7.785   3.996   4.137
 9553TIP3    H128544   7.812   4.038   4.053
 9553TIP3    H228545   7.691   3.974   4.118
 9554TIP3   OH228546   7.811   4.533   4.008
 9554TIP3    H128547   7.895   4.543   3.960
 9554TIP3    H228548   7.756   4.602   3.967
 9555TIP3   OH228549   8.396   4.500   4.393
 9555TIP3    H128550   8.445   4.417   4.401
 9555TIP3    H228551   8.463   4.560   4.358
 9556TIP3   OH228552   8.436   4.752   4.127
 9556TIP3    H128553   8.377   4.805   4.068
 9556TIP3    H228554   8.523   4.772   4.086
 9557TIP3   OH228555   7.658   4.324   4.561
 9557TIP3    H128556   7.590   4.255   4.572
 9557TIP3    H228557   7.694   4.301   4.473
 9558TIP3   OH228558   7.917   3.761   4.203
 9558TIP3    H128559   7.869   3.844   4.180
 9558TIP3    H228560   7.847   3.694   4.191
 9559TIP3   OH228561   8.043   4.266   4.420
 9559TIP3    H128562   8.033   4.255   4.516
 9559TIP3    H228563   7.953   4.241   4.390
 9560TIP3   OH228564   8.282   4.213   4.273
 9560TIP3    H128565   8.206   4.216   4.335
 9560TIP3    H228566   8.355   4.183   4.332
 9561TIP3   OH228567   8.510   4.154   4.427
 9561TIP3    H128568   8.523   4.059   4.446
 9561TIP3    H228569   8.507   4.194   4.517
 9562TIP3   OH228570   7.497   4.104   4.613
 9562TIP3    H128571   7.506   4.015   4.576
 9562TIP3    H228572   7.534   4.091   4.703
 9563TIP3   OH228573   8.011   3.770   4.461
 9563TIP3    H128574   8.079   3.701   4.455
 9563TIP3    H228575   7.972   3.764   4.371
 9564TIP3   OH228576   8.076   3.984   4.621
 9564TIP3    H128577   8.054   3.914   4.556
 9564TIP3    H228578   7.999   4.045   4.613
 9565TIP3   OH228579   7.297   5.213   2.719
 9565TIP3    H128580   7.393   5.211   2.701
 9565TIP3    H228581   7.267   5.262   2.641
 9566TIP3   OH228582   6.777   4.595   2.938
 9566TIP3    H128583   6.872   4.618   2.924
 9566TIP3    H228584   6.773   4.507   2.895
 9567TIP3   OH228585   6.689   5.208   3.350
 9567TIP3    H128586   6.623   5.145   3.315
 9567TIP3    H228587   6.735   5.151   3.416
 9568TIP3   OH228588   6.826   5.061   3.536
 9568TIP3    H128589   6.818   4.984   3.596
 9568TIP3    H228590   6.882   5.120   3.590
 9569TIP3   OH228591   8.554   5.462   3.335
 9569TIP3    H128592   8.581   5.492   3.424
 9569TIP3    H228593   8.619   5.506   3.278
 9570TIP3   OH228594   8.587   5.481   3.617
 9570TIP3    H128595   8.541   5.394   3.614
 9570TIP3    H228596   8.660   5.457   3.677
 9571TIP3   OH228597   8.631   5.157   4.191
 9571TIP3    H128598   8.558   5.165   4.255
 9571TIP3    H228599   8.672   5.246   4.196
 9572TIP3   OH228600   8.447   4.670   2.812
 9572TIP3    H128601   8.516   4.734   2.784
 9572TIP3    H228602   8.489   4.630   2.891
 9573TIP3   OH228603   8.575   4.538   3.015
 9573TIP3    H128604   8.509   4.495   3.074
 9573TIP3    H228605   8.639   4.577   3.078
 9574TIP3   OH228606   8.628   4.929   3.447
 9574TIP3    H128607   8.682   4.866   3.396
 9574TIP3    H228608   8.618   5.003   3.385
 9575TIP3   OH228609   8.460   5.230   3.642
 9575TIP3    H128610   8.390   5.272   3.695
 9575TIP3    H228611   8.409   5.182   3.574
 9576TIP3   OH228612   8.513   4.445   2.662
 9576TIP3    H128613   8.441   4.448   2.595
 9576TIP3    H228614   8.487   4.521   2.718
 9577TIP3   OH228615   8.383   4.119   2.618
 9577TIP3    H128616   8.344   4.158   2.539
 9577TIP3    H228617   8.357   4.024   2.607
 9578TIP3   OH228618   8.389   4.393   3.161
 9578TIP3    H128619   8.398   4.297   3.158
 9578TIP3    H228620   8.376   4.409   3.257
 9579TIP3   OH228621   7.016   4.469   3.908
 9579TIP3    H128622   7.015   4.439   3.815
 9579TIP3    H228623   7.113   4.470   3.925
 9580TIP3   OH228624   8.678   4.818   4.018
 9580TIP3    H128625   8.750   4.753   4.009
 9580TIP3    H228626   8.705   4.889   3.957
 9581TIP3   OH228627   8.864   4.626   4.037
 9581TIP3    H128628   8.789   4.575   4.076
 9581TIP3    H228629   8.936   4.561   4.050
 9582TIP3   OH228630   8.327   3.853   2.605
 9582TIP3    H128631   8.403   3.822   2.658
 9582TIP3    H228632   8.255   3.793   2.630
 9583TIP3   OH228633   8.384   4.109   3.057
 9583TIP3    H128634   8.426   4.021   3.073
 9583TIP3    H228635   8.443   4.143   2.987
 9584TIP3   OH228636   8.547   4.285   3.551
 9584TIP3    H128637   8.633   4.311   3.512
 9584TIP3    H228638   8.560   4.321   3.641
 9585TIP3   OH228639   8.614   4.428   3.785
 9585TIP3    H128640   8.536   4.462   3.833
 9585TIP3    H228641   8.647   4.509   3.739
 9586TIP3   OH228642   7.228   4.153   4.579
 9586TIP3    H128643   7.326   4.150   4.581
 9586TIP3    H228644   7.207   4.069   4.624
 9587TIP3   OH228645   9.068   4.017   4.341
 9587TIP3    H128646   9.124   3.950   4.297
 9587TIP3    H228647   9.039   4.074   4.266
 9588TIP3   OH228648   8.494   3.859   3.095
 9588TIP3    H128649   8.542   3.844   3.179
 9588TIP3    H228650   8.434   3.782   3.093
 9589TIP3   OH228651   7.194   3.846   3.916
 9589TIP3    H128652   7.257   3.772   3.925
 9589TIP3    H228653   7.255   3.921   3.909
 9590TIP3   OH228654   6.997   4.120   3.987
 9590TIP3    H128655   7.047   4.113   3.904
 9590TIP3    H228656   7.025   4.207   4.019
 9591TIP3   OH228657   8.939   4.159   4.149
 9591TIP3    H128658   8.851   4.198   4.169
 9591TIP3    H228659   8.912   4.088   4.087
 9592TIP3   OH228660   8.575   3.796   2.727
 9592TIP3    H128661   8.615   3.723   2.674
 9592TIP3    H228662   8.642   3.866   2.719
 9593TIP3   OH228663   6.980   3.624   3.489
 9593TIP3    H128664   6.886   3.622   3.513
 9593TIP3    H228665   6.979   3.682   3.409
 9594TIP3   OH228666   8.139   5.326   2.994
 9594TIP3    H128667   8.191   5.311   2.912
 9594TIP3    H228668   8.192   5.392   3.040
 9595TIP3   OH228669   7.200   3.704   4.303
 9595TIP3    H128670   7.149   3.699   4.386
 9595TIP3    H228671   7.133   3.742   4.243
 9596TIP3   OH228672   7.875   5.406   4.065
 9596TIP3    H128673   7.914   5.407   4.155
 9596TIP3    H228674   7.938   5.459   4.014
 9597TIP3   OH228675   8.044   5.564   3.917
 9597TIP3    H128676   8.114   5.506   3.882
 9597TIP3    H228677   8.095   5.619   3.981
 9598TIP3   OH228678   8.837   3.922   4.024
 9598TIP3    H128679   8.746   3.917   3.991
 9598TIP3    H228680   8.867   3.829   4.011
 9599TIP3   OH228681   7.777   5.448   3.577
 9599TIP3    H128682   7.690   5.457   3.533
 9599TIP3    H228683   7.772   5.519   3.645
 9600TIP3   OH228684   8.028   5.367   3.655
 9600TIP3    H128685   7.933   5.381   3.636
 9600TIP3    H228686   8.066   5.447   3.615
 9601TIP3   OH228687   8.240   5.563   3.574
 9601TIP3    H128688   8.221   5.646   3.525
 9601TIP3    H228689   8.260   5.500   3.501
 9602TIP3   OH228690   7.006   5.212   3.693
 9602TIP3    H128691   7.049   5.217   3.780
 9602TIP3    H228692   7.078   5.169   3.641
 9603TIP3   OH228693   7.198   5.084   3.550
 9603TIP3    H128694   7.217   4.999   3.597
 9603TIP3    H228695   7.289   5.122   3.543
 9604TIP3   OH228696   7.460   5.179   3.551
 9604TIP3    H128697   7.500   5.090   3.548
 9604TIP3    H228698   7.492   5.211   3.637
 9605TIP3   OH228699   8.041   3.836   3.640
 9605TIP3    H128700   7.998   3.767   3.694
 9605TIP3    H228701   8.114   3.788   3.597
 9606TIP3   OH228702   8.566   3.715   3.548
 9606TIP3    H128703   8.603   3.768   3.474
 9606TIP3    H228704   8.471   3.736   3.542
 9607TIP3   OH228705   8.660   3.818   3.312
 9607TIP3    H128706   8.733   3.766   3.272
 9607TIP3    H228707   8.694   3.909   3.297
 9608TIP3   OH228708   7.291   3.545   3.660
 9608TIP3    H128709   7.199   3.511   3.660
 9608TIP3    H228710   7.341   3.461   3.657
 9609TIP3   OH228711   7.075   3.414   3.306
 9609TIP3    H128712   7.107   3.472   3.234
 9609TIP3    H228713   7.047   3.479   3.373
 9610TIP3   OH228714   7.732   3.579   3.539
 9610TIP3    H128715   7.792   3.629   3.481
 9610TIP3    H228716   7.756   3.615   3.626
 9611TIP3   OH228717   8.282   3.724   3.524
 9611TIP3    H128718   8.279   3.688   3.435
 9611TIP3    H228719   8.268   3.643   3.578
 9612TIP3   OH228720   8.311   3.646   3.085
 9612TIP3    H128721   8.224   3.689   3.096
 9612TIP3    H228722   8.296   3.561   3.132
 9613TIP3   OH228723   6.793   4.985   3.089
 9613TIP3    H128724   6.709   4.953   3.052
 9613TIP3    H228725   6.784   5.080   3.072
 9614TIP3   OH228726   7.193   3.575   3.071
 9614TIP3    H128727   7.242   3.512   3.014
 9614TIP3    H228728   7.266   3.629   3.107
 9615TIP3   OH228729   7.707   3.749   3.169
 9615TIP3    H128730   7.767   3.703   3.230
 9615TIP3    H228731   7.727   3.841   3.194
 9616TIP3   OH228732   7.566   5.175   2.669
 9616TIP3    H128733   7.654   5.198   2.633
 9616TIP3    H228734   7.544   5.100   2.610
 9617TIP3   OH228735   8.286   5.293   2.761
 9617TIP3    H128736   8.277   5.195   2.748
 9617TIP3    H228737   8.240   5.326   2.681
 9618TIP3   OH228738   7.498   3.825   4.550
 9618TIP3    H128739   7.466   3.754   4.609
 9618TIP3    H228740   7.592   3.827   4.575
 9619TIP3   OH228741   7.746   3.824   4.669
 9619TIP3    H128742   7.831   3.800   4.629
 9619TIP3    H228743   7.736   3.752   4.735
 9620TIP3   OH228744   6.869   5.009   2.727
 9620TIP3    H128745   6.873   5.040   2.818
 9620TIP3    H228746   6.958   4.969   2.714
 9621TIP3   OH228747   8.571   3.884   4.457
 9621TIP3    H128748   8.592   3.853   4.548
 9621TIP3    H228749   8.660   3.880   4.415
 9622TIP3   OH228750   8.512   5.437   3.949
 9622TIP3    H128751   8.433   5.404   3.903
 9622TIP3    H228752   8.491   5.532   3.953
 9623TIP3   OH228753   9.077   4.704   3.460
 9623TIP3    H128754   9.108   4.636   3.522
 9623TIP3    H228755   9.153   4.764   3.460
 9624TIP3   OH228756   9.039   5.114   3.192
 9624TIP3    H128757   9.035   5.016   3.194
 9624TIP3    H228758   9.135   5.127   3.180
 9625TIP3   OH228759   8.752   4.319   2.973
 9625TIP3    H128760   8.703   4.402   2.986
 9625TIP3    H228761   8.682   4.263   2.935
 9626TIP3   OH228762   8.814   4.606   3.142
 9626TIP3    H128763   8.862   4.529   3.181
 9626TIP3    H228764   8.872   4.630   3.069
 9627TIP3   OH228765   9.557   5.523   2.816
 9627TIP3    H128766   9.639   5.531   2.763
 9627TIP3    H228767   9.595   5.513   2.904
 9628TIP3   OH228768   9.525   5.050   3.140
 9628TIP3    H128769   9.535   4.988   3.066
 9628TIP3    H228770   9.619   5.055   3.168
 9629TIP3   OH228771   9.307   4.199   3.154
 9629TIP3    H128772   9.308   4.264   3.082
 9629TIP3    H228773   9.276   4.120   3.105
 9630TIP3   OH228774   8.958   4.399   3.249
 9630TIP3    H128775   9.039   4.378   3.299
 9630TIP3    H228776   8.971   4.343   3.170
 9631TIP3   OH228777   9.362   4.614   3.027
 9631TIP3    H128778   9.456   4.593   3.044
 9631TIP3    H228779   9.328   4.525   3.001
 9632TIP3   OH228780   9.317   4.178   3.581
 9632TIP3    H128781   9.258   4.214   3.513
 9632TIP3    H228782   9.265   4.198   3.662
 9633TIP3   OH228783   9.401   4.962   3.366
 9633TIP3    H128784   9.344   5.030   3.408
 9633TIP3    H228785   9.445   5.014   3.296
 9634TIP3   OH228786   9.184   4.295   3.369
 9634TIP3    H128787   9.249   4.367   3.389
 9634TIP3    H228788   9.230   4.253   3.293
 9635TIP3   OH228789   9.247   5.155   3.473
 9635TIP3    H128790   9.223   5.242   3.435
 9635TIP3    H228791   9.169   5.140   3.530
 9636TIP3   OH228792   8.652   4.838   2.706
 9636TIP3    H128793   8.610   4.864   2.622
 9636TIP3    H228794   8.682   4.924   2.742
 9637TIP3   OH228795   9.163   4.759   2.920
 9637TIP3    H128796   9.125   4.697   2.854
 9637TIP3    H228797   9.239   4.706   2.954
 9638TIP3   OH228798   9.289   5.169   3.072
 9638TIP3    H128799   9.274   5.122   2.989
 9638TIP3    H228800   9.375   5.132   3.102
 9639TIP3   OH228801   9.331   4.709   3.291
 9639TIP3    H128802   9.347   4.699   3.195
 9639TIP3    H228803   9.358   4.802   3.309
 9640TIP3   OH228804   9.460   5.267   3.617
 9640TIP3    H128805   9.407   5.332   3.668
 9640TIP3    H228806   9.389   5.219   3.569
 9641TIP3   OH228807   9.210   4.830   3.713
 9641TIP3    H128808   9.215   4.916   3.759
 9641TIP3    H228809   9.115   4.809   3.725
 9642TIP3   OH228810   9.513   5.310   2.643
 9642TIP3    H128811   9.519   5.379   2.712
 9642TIP3    H228812   9.451   5.350   2.580
 9643TIP3   OH228813   9.254   5.441   3.699
 9643TIP3    H128814   9.219   5.434   3.608
 9643TIP3    H228815   9.175   5.419   3.754
 9644TIP3   OH228816   9.052   4.580   2.734
 9644TIP3    H128817   8.985   4.626   2.678
 9644TIP3    H228818   9.008   4.497   2.753
 9645TIP3   OH228819   8.835   4.967   3.646
 9645TIP3    H128820   8.769   4.944   3.578
 9645TIP3    H228821   8.871   4.880   3.672
 9646TIP3   OH228822   8.690   5.160   3.278
 9646TIP3    H128823   8.786   5.154   3.270
 9646TIP3    H228824   8.680   5.239   3.335
 9647TIP3   OH228825   9.640   5.402   3.461
 9647TIP3    H128826   9.658   5.489   3.502
 9647TIP3    H228827   9.577   5.363   3.525
 9648TIP3   OH228828   9.400   5.523   2.436
 9648TIP3    H128829   9.375   5.507   2.343
 9648TIP3    H228830   9.389   5.619   2.445
 9649TIP3   OH228831   8.857   5.378   2.805
 9649TIP3    H128832   8.905   5.367   2.890
 9649TIP3    H228833   8.800   5.299   2.807
 9650TIP3   OH228834   9.036   5.153   3.640
 9650TIP3    H128835   9.088   5.134   3.721
 9650TIP3    H228836   8.964   5.087   3.646
 9651TIP3   OH228837   9.428   3.971   3.432
 9651TIP3    H128838   9.340   3.944   3.401
 9651TIP3    H228839   9.407   4.055   3.475
 9652TIP3   OH228840   9.374   4.481   3.431
 9652TIP3    H128841   9.327   4.503   3.514
 9652TIP3    H228842   9.363   4.565   3.381
 9653TIP3   OH228843   9.254   4.374   2.948
 9653TIP3    H128844   9.163   4.344   2.973
 9653TIP3    H228845   9.258   4.341   2.856
 9654TIP3   OH228846   9.188   4.515   3.645
 9654TIP3    H128847   9.221   4.575   3.713
 9654TIP3    H228848   9.176   4.432   3.695
 9655TIP3   OH228849   9.229   4.016   2.357
 9655TIP3    H128850   9.191   3.988   2.441
 9655TIP3    H228851   9.152   4.048   2.308
 9656TIP3   OH228852   8.783   4.042   3.226
 9656TIP3    H128853   8.857   4.073   3.282
 9656TIP3    H228854   8.826   4.008   3.147
 9657TIP3   OH228855   8.758   4.023   2.748
 9657TIP3    H128856   8.800   4.063   2.668
 9657TIP3    H228857   8.696   4.095   2.771
 9658TIP3   OH228858   9.016   4.256   3.020
 9658TIP3    H128859   8.921   4.260   2.995
 9658TIP3    H228860   9.040   4.163   3.002
 9659TIP3   OH228861   9.269   4.278   2.690
 9659TIP3    H128862   9.342   4.295   2.628
 9659TIP3    H228863   9.193   4.285   2.627
 9660TIP3   OH228864   9.103   4.285   2.481
 9660TIP3    H128865   9.038   4.239   2.425
 9660TIP3    H228866   9.167   4.314   2.413
 9661TIP3   OH228867   9.201   5.072   3.856
 9661TIP3    H128868   9.280   5.103   3.904
 9661TIP3    H228869   9.136   5.072   3.930
 9662TIP3   OH228870   9.185   4.016   2.982
 9662TIP3    H128871   9.152   3.939   3.033
 9662TIP3    H228872   9.242   3.974   2.916
 9663TIP3   OH228873   9.341   4.832   2.491
 9663TIP3    H128874   9.286   4.751   2.495
 9663TIP3    H228875   9.362   4.850   2.584
 9664TIP3   OH228876   9.731   5.134   3.510
 9664TIP3    H128877   9.763   5.120   3.600
 9664TIP3    H228878   9.703   5.227   3.511
 9665TIP3   OH228879   9.072   4.839   3.175
 9665TIP3    H128880   9.102   4.811   3.086
 9665TIP3    H228881   9.105   4.769   3.233
 9666TIP3   OH228882   8.950   4.757   3.785
 9666TIP3    H128883   8.973   4.743   3.879
 9666TIP3    H228884   8.882   4.689   3.771
 9667TIP3   OH228885   9.639   4.830   3.828
 9667TIP3    H128886   9.559   4.788   3.792
 9667TIP3    H228887   9.706   4.767   3.796
 9668TIP3   OH228888   9.171   5.136   2.794
 9668TIP3    H128889   9.174   5.217   2.740
 9668TIP3    H228890   9.076   5.122   2.800
 9669TIP3   OH228891   8.735   4.444   2.498
 9669TIP3    H128892   8.781   4.527   2.519
 9669TIP3    H228893   8.658   4.450   2.559
 9670TIP3   OH228894   9.342   4.919   2.770
 9670TIP3    H128895   9.289   5.001   2.763
 9670TIP3    H228896   9.281   4.863   2.821
 9671TIP3   OH228897   9.441   5.479   3.267
 9671TIP3    H128898   9.481   5.553   3.218
 9671TIP3    H228899   9.515   5.449   3.323
 9672TIP3   OH228900   9.092   5.378   2.650
 9672TIP3    H128901   9.005   5.386   2.695
 9672TIP3    H228902   9.122   5.471   2.651
 9673TIP3   OH228903   9.163   4.262   3.798
 9673TIP3    H128904   9.066   4.266   3.810
 9673TIP3    H228905   9.189   4.197   3.866
 9674TIP3   OH228906   8.880   5.348   3.425
 9674TIP3    H128907   8.930   5.270   3.453
 9674TIP3    H228908   8.909   5.412   3.491
 9675TIP3   OH228909   9.173   4.988   2.105
 9675TIP3    H128910   9.191   4.896   2.079
 9675TIP3    H228911   9.158   4.978   2.202
 9676TIP3   OH228912   9.119   4.992   2.379
 9676TIP3    H128913   9.202   4.959   2.420
 9676TIP3    H228914   9.126   5.089   2.392
 9677TIP3   OH228915   8.851   4.689   2.581
 9677TIP3    H128916   8.785   4.734   2.638
 9677TIP3    H228917   8.868   4.759   2.515
 9678TIP3   OH228918   9.374   5.219   2.337
 9678TIP3    H128919   9.284   5.236   2.370
 9678TIP3    H228920   9.385   5.292   2.274
 9679TIP3   OH228921   9.110   5.269   2.394
 9679TIP3    H128922   9.084   5.341   2.332
 9679TIP3    H228923   9.100   5.313   2.481
 9680TIP3   OH228924   9.228   3.987   2.641
 9680TIP3    H128925   9.195   4.069   2.682
 9680TIP3    H228926   9.310   4.020   2.600
 9681TIP3   OH228927   8.842   4.903   2.389
 9681TIP3    H128928   8.912   4.970   2.400
 9681TIP3    H228929   8.886   4.846   2.322
 9682TIP3   OH228930   8.788   4.174   2.524
 9682TIP3    H128931   8.787   4.271   2.517
 9682TIP3    H228932   8.708   4.150   2.476
 9683TIP3   OH228933   9.163   3.895   3.396
 9683TIP3    H128934   9.138   3.861   3.308
 9683TIP3    H228935   9.160   3.814   3.451
 9684TIP3   OH228936   8.716   5.116   2.777
 9684TIP3    H128937   8.642   5.145   2.831
 9684TIP3    H228938   8.692   5.154   2.690
 9685TIP3   OH228939   8.869   5.653   3.846
 9685TIP3    H128940   8.956   5.652   3.892
 9685TIP3    H228941   8.849   5.558   3.844
 9686TIP3   OH228942   9.356   5.626   3.891
 9686TIP3    H128943   9.453   5.614   3.894
 9686TIP3    H228944   9.334   5.561   3.821
 9687TIP3   OH228945   9.320   5.204   2.022
 9687TIP3    H128946   9.269   5.128   2.059
 9687TIP3    H228947   9.412   5.170   2.031
 9688TIP3   OH228948   9.001   5.061   4.047
 9688TIP3    H128949   9.018   4.965   4.052
 9688TIP3    H228950   8.913   5.063   4.004
 9689TIP3   OH228951   8.973   4.713   2.245
 9689TIP3    H128952   9.031   4.681   2.316
 9689TIP3    H228953   9.038   4.719   2.171
 9690TIP3   OH228954   9.601   5.127   3.819
 9690TIP3    H128955   9.562   5.159   3.735
 9690TIP3    H228956   9.601   5.031   3.810
 9691TIP3   OH228957   9.121   4.792   4.027
 9691TIP3    H128958   9.197   4.735   4.009
 9691TIP3    H228959   9.144   4.826   4.116
 9692TIP3   OH228960   9.183   4.607   2.467
 9692TIP3    H128961   9.153   4.570   2.551
 9692TIP3    H228962   9.214   4.528   2.418
 9693TIP3   OH228963   9.430   4.675   3.706
 9693TIP3    H128964   9.352   4.734   3.709
 9693TIP3    H228965   9.475   4.711   3.626
 9694TIP3   OH228966   9.281   4.402   2.310
 9694TIP3    H128967   9.245   4.394   2.219
 9694TIP3    H228968   9.375   4.418   2.292
 9695TIP3   OH228969   9.547   4.467   3.836
 9695TIP3    H128970   9.567   4.385   3.786
 9695TIP3    H228971   9.494   4.519   3.772
 9696TIP3   OH228972   9.565   4.274   3.639
 9696TIP3    H128973   9.609   4.262   3.554
 9696TIP3    H228974   9.480   4.228   3.624
 9697TIP3   OH228975   9.555   4.797   3.510
 9697TIP3    H128976   9.611   4.765   3.438
 9697TIP3    H228977   9.508   4.871   3.466
 9698TIP3   OH228978   9.433   4.595   4.045
 9698TIP3    H128979   9.371   4.521   4.063
 9698TIP3    H228980   9.476   4.563   3.963
 9699TIP3   OH228981   9.293   4.364   4.100
 9699TIP3    H128982   9.306   4.278   4.057
 9699TIP3    H228983   9.327   4.346   4.190
 9700TIP3   OH228984   9.092   5.474   2.205
 9700TIP3    H128985   9.188   5.472   2.189
 9700TIP3    H228986   9.063   5.521   2.126
 9701TIP3   OH228987   8.574   4.852   2.424
 9701TIP3    H128988   8.668   4.875   2.411
 9701TIP3    H228989   8.569   4.764   2.382
 9702TIP3   OH228990   8.488   5.466   2.836
 9702TIP3    H128991   8.420   5.403   2.802
 9702TIP3    H228992   8.532   5.409   2.903
 9703TIP3   OH228993   8.623   5.319   3.024
 9703TIP3    H128994   8.612   5.243   3.084
 9703TIP3    H228995   8.674   5.379   3.082
 9704TIP3   OH228996   8.812   4.724   3.395
 9704TIP3    H128997   8.810   4.694   3.302
 9704TIP3    H228998   8.909   4.726   3.412
 9705TIP3   OH228999   9.026   4.410   4.068
 9705TIP3    H129000   9.124   4.405   4.070
 9705TIP3    H229001   9.003   4.326   4.112
 9706TIP3   OH229002   8.985   4.104   3.403
 9706TIP3    H129003   9.047   4.029   3.412
 9706TIP3    H229004   9.049   4.178   3.399
 9707TIP3   OH229005   8.793   4.377   3.474
 9707TIP3    H129006   8.842   4.369   3.390
 9707TIP3    H229007   8.824   4.463   3.506
 9708TIP3   OH229008   8.776   3.878   2.975
 9708TIP3    H129009   8.682   3.878   3.001
 9708TIP3    H229010   8.775   3.937   2.897
 9709TIP3   OH229011   8.992   3.959   3.788
 9709TIP3    H129012   8.944   3.957   3.872
 9709TIP3    H229013   8.925   3.999   3.729
 9710TIP3   OH229014   9.035   5.388   3.866
 9710TIP3    H129015   8.943   5.358   3.851
 9710TIP3    H229016   9.047   5.367   3.960
 9711TIP3   OH229017   9.211   5.420   3.413
 9711TIP3    H129018   9.166   5.497   3.374
 9711TIP3    H229019   9.298   5.431   3.369
 9712TIP3   OH229020   9.687   5.662   3.552
 9712TIP3    H129021   9.681   5.675   3.650
 9712TIP3    H229022   9.755   5.727   3.534
 9713TIP3   OH229023   8.893   5.682   3.433
 9713TIP3    H129024   8.802   5.714   3.414
 9713TIP3    H229025   8.900   5.706   3.526
 9714TIP3   OH229026   9.129   5.658   3.295
 9714TIP3    H129027   9.043   5.669   3.341
 9714TIP3    H229028   9.107   5.686   3.205
 9715TIP3   OH229029   9.538   5.686   3.090
 9715TIP3    H129030   9.468   5.705   3.024
 9715TIP3    H229031   9.548   5.773   3.134
 9716TIP3   OH229032   9.805   5.647   3.122
 9716TIP3    H129033   9.708   5.633   3.117
 9716TIP3    H229034   9.813   5.738   3.096
 9717TIP3   OH229035   8.804   5.473   3.183
 9717TIP3    H129036   8.830   5.445   3.274
 9717TIP3    H229037   8.874   5.428   3.132
 9718TIP3   OH229038   8.995   5.342   3.038
 9718TIP3    H129039   9.010   5.258   3.087
 9718TIP3    H229040   9.086   5.378   3.035
 9719TIP3   OH229041   9.260   5.445   3.041
 9719TIP3    H129042   9.283   5.350   3.027
 9719TIP3    H229043   9.305   5.460   3.126
 9720TIP3   OH229044   9.081   3.809   3.140
 9720TIP3    H129045   8.988   3.779   3.141
 9720TIP3    H229046   9.126   3.722   3.146
 9721TIP3   OH229047   8.874   3.671   2.790
 9721TIP3    H129048   8.900   3.732   2.719
 9721TIP3    H229049   8.843   3.733   2.859
 9722TIP3   OH229050   8.590   5.241   2.573
 9722TIP3    H129051   8.505   5.208   2.539
 9722TIP3    H229052   8.579   5.335   2.557
 9723TIP3   OH229053   8.984   3.835   2.563
 9723TIP3    H129054   9.023   3.770   2.502
 9723TIP3    H229055   9.062   3.880   2.601
 9724TIP3   OH229056   9.365   5.441   2.156
 9724TIP3    H129057   9.462   5.447   2.148
 9724TIP3    H229058   9.344   5.366   2.095
 9725TIP3   OH229059   9.263   4.076   4.016
 9725TIP3    H129060   9.230   4.012   4.081
 9725TIP3    H229061   9.357   4.081   4.045
 9726TIP3   OH229062   9.497   4.085   4.148
 9726TIP3    H129063   9.594   4.091   4.135
 9726TIP3    H229064   9.495   4.014   4.217
 9727TIP3   OH229065   8.667   5.271   2.214
 9727TIP3    H129066   8.665   5.293   2.308
 9727TIP3    H229067   8.755   5.229   2.204
 9728TIP3   OH229068   0.435   5.342   4.917
 9728TIP3    H129069   0.405   5.433   4.897
 9728TIP3    H229070   0.357   5.292   4.890
 9729TIP3   OH229071   0.442   5.336   5.293
 9729TIP3    H129072   0.465   5.308   5.383
 9729TIP3    H229073   0.397   5.256   5.259
 9730TIP3   OH229074   0.678   5.642   4.980
 9730TIP3    H129075   0.659   5.574   5.046
 9730TIP3    H229076   0.702   5.718   5.035
 9731TIP3   OH229077   0.321   6.106   4.991
 9731TIP3    H129078   0.369   6.030   4.952
 9731TIP3    H229079   0.305   6.076   5.082
 9732TIP3   OH229080   0.220   5.512   5.327
 9732TIP3    H129081   0.299   5.465   5.294
 9732TIP3    H229082   0.262   5.592   5.364
 9733TIP3   OH229083   1.249   4.886   5.346
 9733TIP3    H129084   1.273   4.970   5.390
 9733TIP3    H229085   1.257   4.910   5.253
 9734TIP3   OH229086   0.648   5.068   5.383
 9734TIP3    H129087   0.685   4.979   5.398
 9734TIP3    H229088   0.609   5.058   5.294
 9735TIP3   OH229089   0.007   4.722   5.361
 9735TIP3    H129090  -0.023   4.801   5.312
 9735TIP3    H229091  -0.026   4.653   5.300
 9736TIP3   OH229092   0.682   4.839   4.991
 9736TIP3    H129093   0.764   4.809   5.036
 9736TIP3    H229094   0.706   4.832   4.897
 9737TIP3   OH229095   0.056   5.136   5.260
 9737TIP3    H129096   0.149   5.106   5.263
 9737TIP3    H229097   0.013   5.060   5.217
 9738TIP3   OH229098   1.319   5.096   5.515
 9738TIP3    H129099   1.235   5.143   5.494
 9738TIP3    H229100   1.328   5.117   5.609
 9739TIP3   OH229101   0.331   5.565   4.785
 9739TIP3    H129102   0.284   5.539   4.705
 9739TIP3    H229103   0.283   5.647   4.809
 9740TIP3   OH229104   0.909   4.810   5.142
 9740TIP3    H129105   0.872   4.770   5.222
 9740TIP3    H229106   0.944   4.894   5.174
 9741TIP3   OH229107   0.749   5.883   5.148
 9741TIP3    H129108   0.660   5.875   5.190
 9741TIP3    H229109   0.740   5.970   5.104
 9742TIP3   OH229110   1.037   4.788   5.513
 9742TIP3    H129111   0.947   4.813   5.483
 9742TIP3    H229112   1.092   4.817   5.437
 9743TIP3   OH229113   0.333   4.426   5.492
 9743TIP3    H129114   0.326   4.330   5.508
 9743TIP3    H229115   0.261   4.459   5.548
 9744TIP3   OH229116   0.451   5.929   4.824
 9744TIP3    H129117   0.503   5.848   4.802
 9744TIP3    H229118   0.509   5.997   4.784
 9745TIP3   OH229119   0.594   5.715   4.726
 9745TIP3    H129120   0.544   5.638   4.696
 9745TIP3    H229121   0.630   5.683   4.812
 9746TIP3   OH229122   0.975   5.798   5.492
 9746TIP3    H129123   0.961   5.721   5.433
 9746TIP3    H229124   0.954   5.873   5.433
 9747TIP3   OH229125   0.264   5.190   4.747
 9747TIP3    H129126   0.184   5.241   4.723
 9747TIP3    H229127   0.313   5.189   4.662
 9748TIP3   OH229128   0.223   4.977   4.467
 9748TIP3    H129129   0.291   5.023   4.519
 9748TIP3    H229130   0.278   4.911   4.421
 9749TIP3   OH229131   1.169   5.435   5.337
 9749TIP3    H129132   1.086   5.487   5.343
 9749TIP3    H229133   1.197   5.460   5.246
 9750TIP3   OH229134   0.612   5.275   4.722
 9750TIP3    H129135   0.556   5.300   4.799
 9750TIP3    H229136   0.694   5.247   4.768
 9751TIP3   OH229137   0.847   5.315   5.631
 9751TIP3    H129138   0.844   5.399   5.680
 9751TIP3    H229139   0.761   5.318   5.585
 9752TIP3   OH229140  -0.013   5.230   5.505
 9752TIP3    H129141   0.019   5.199   5.417
 9752TIP3    H229142   0.031   5.315   5.514
 9753TIP3   OH229143   0.510   5.881   5.270
 9753TIP3    H129144   0.490   5.959   5.324
 9753TIP3    H229145   0.492   5.806   5.331
 9754TIP3   OH229146   0.455   5.132   4.548
 9754TIP3    H129147   0.512   5.191   4.601
 9754TIP3    H229148   0.480   5.158   4.456
 9755TIP3   OH229149   0.192   5.815   4.825
 9755TIP3    H129150   0.275   5.861   4.848
 9755TIP3    H229151   0.145   5.885   4.777
 9756TIP3   OH229152   0.967   4.372   4.595
 9756TIP3    H129153   0.886   4.391   4.647
 9756TIP3    H229154   0.979   4.457   4.549
 9757TIP3   OH229155   0.765   5.742   4.140
 9757TIP3    H129156   0.773   5.839   4.130
 9757TIP3    H229157   0.859   5.714   4.130
 9758TIP3   OH229158   1.212   6.143   5.539
 9758TIP3    H129159   1.208   6.047   5.552
 9758TIP3    H229160   1.128   6.169   5.583
 9759TIP3   OH229161   0.336   5.909   5.684
 9759TIP3    H129162   0.341   6.003   5.712
 9759TIP3    H229163   0.242   5.899   5.666
 9760TIP3   OH229164   0.104   6.041   4.647
 9760TIP3    H129165   0.068   6.018   4.559
 9760TIP3    H229166   0.064   6.128   4.663
 9761TIP3   OH229167   0.281   5.960   4.267
 9761TIP3    H129168   0.336   5.888   4.229
 9761TIP3    H229169   0.320   5.968   4.357
 9762TIP3   OH229170   0.346   6.002   4.532
 9762TIP3    H129171   0.262   6.007   4.583
 9762TIP3    H229172   0.404   5.964   4.600
 9763TIP3   OH229173   1.102   5.275   5.811
 9763TIP3    H129174   1.020   5.291   5.763
 9763TIP3    H229175   1.114   5.179   5.801
 9764TIP3   OH229176   0.086   4.509   5.627
 9764TIP3    H129177   0.017   4.472   5.571
 9764TIP3    H229178   0.087   4.602   5.598
 9765TIP3   OH229179   0.630   4.622   5.816
 9765TIP3    H129180   0.697   4.595   5.882
 9765TIP3    H229181   0.545   4.601   5.861
 9766TIP3   OH229182   0.874   5.053   5.738
 9766TIP3    H129183   0.822   5.047   5.822
 9766TIP3    H229184   0.845   5.137   5.700
 9767TIP3   OH229185   0.529   5.176   4.290
 9767TIP3    H129186   0.496   5.152   4.201
 9767TIP3    H229187   0.604   5.234   4.267
 9768TIP3   OH229188   0.247   4.552   4.595
 9768TIP3    H129189   0.219   4.554   4.688
 9768TIP3    H229190   0.204   4.469   4.566
 9769TIP3   OH229191   0.017   5.004   5.652
 9769TIP3    H129192  -0.031   5.039   5.728
 9769TIP3    H229193   0.008   5.081   5.590
 9770TIP3   OH229194  -0.096   4.896   5.162
 9770TIP3    H129195  -0.190   4.908   5.144
 9770TIP3    H229196  -0.068   4.855   5.078
 9771TIP3   OH229197   0.405   4.998   4.884
 9771TIP3    H129198   0.350   5.066   4.839
 9771TIP3    H229199   0.458   4.962   4.811
 9772TIP3   OH229200   0.579   5.271   5.968
 9772TIP3    H129201   0.555   5.199   6.031
 9772TIP3    H229202   0.672   5.285   5.992
 9773TIP3   OH229203   0.554   5.032   5.126
 9773TIP3    H129204   0.494   5.053   5.051
 9773TIP3    H229205   0.594   4.950   5.088
 9774TIP3   OH229206  -0.098   4.529   4.563
 9774TIP3    H129207  -0.106   4.526   4.660
 9774TIP3    H229208  -0.190   4.540   4.535
 9775TIP3   OH229209   0.569   5.268   5.546
 9775TIP3    H129210   0.603   5.197   5.486
 9775TIP3    H229211   0.543   5.215   5.623
 9776TIP3   OH229212   0.238   4.761   5.216
 9776TIP3    H129213   0.167   4.742   5.280
 9776TIP3    H229214   0.316   4.721   5.259
 9777TIP3   OH229215  -0.053   4.785   4.911
 9777TIP3    H129216   0.044   4.799   4.905
 9777TIP3    H229217  -0.087   4.825   4.829
 9778TIP3   OH229218   0.731   4.800   5.417
 9778TIP3    H129219   0.693   4.814   5.507
 9778TIP3    H229220   0.665   4.737   5.381
 9779TIP3   OH229221  -0.236   4.843   4.686
 9779TIP3    H129222  -0.273   4.755   4.669
 9779TIP3    H229223  -0.173   4.856   4.611
 9780TIP3   OH229224   0.900   6.493   5.636
 9780TIP3    H129225   0.897   6.517   5.541
 9780TIP3    H229226   0.976   6.545   5.667
 9781TIP3   OH229227   0.325   5.062   5.315
 9781TIP3    H129228   0.385   5.017   5.253
 9781TIP3    H229229   0.338   5.010   5.396
 9782TIP3   OH229230  -0.118   4.548   5.194
 9782TIP3    H129231  -0.184   4.475   5.205
 9782TIP3    H229232  -0.069   4.516   5.117
 9783TIP3   OH229233   0.298   4.947   5.615
 9783TIP3    H129234   0.210   4.988   5.619
 9783TIP3    H229235   0.357   5.013   5.657
 9784TIP3   OH229236   0.040   5.340   4.685
 9784TIP3    H129237  -0.036   5.278   4.682
 9784TIP3    H229238   0.029   5.378   4.776
 9785TIP3   OH229239   0.937   5.579   5.329
 9785TIP3    H129240   0.959   5.629   5.248
 9785TIP3    H229241   0.850   5.539   5.306
 9786TIP3   OH229242   0.487   4.672   4.530
 9786TIP3    H129243   0.402   4.641   4.568
 9786TIP3    H229244   0.512   4.745   4.591
 9787TIP3   OH229245   0.433   5.653   5.701
 9787TIP3    H129246   0.457   5.646   5.794
 9787TIP3    H229247   0.397   5.744   5.697
 9788TIP3   OH229248   0.565   4.902   4.664
 9788TIP3    H129249   0.661   4.911   4.683
 9788TIP3    H229250   0.546   4.983   4.613
 9789TIP3   OH229251   0.190   5.489   4.516
 9789TIP3    H129252   0.145   5.576   4.526
 9789TIP3    H229253   0.133   5.433   4.573
 9790TIP3   OH229254   0.343   5.407   6.016
 9790TIP3    H129255   0.285   5.339   5.976
 9790TIP3    H229256   0.431   5.377   5.983
 9791TIP3   OH229257   0.601   5.920   5.591
 9791TIP3    H129258   0.505   5.914   5.606
 9791TIP3    H229259   0.628   5.973   5.669
 9792TIP3   OH229260   1.009   4.992   4.497
 9792TIP3    H129261   0.945   4.947   4.436
 9792TIP3    H229262   1.003   5.082   4.459
 9793TIP3   OH229263   1.224   5.850   5.582
 9793TIP3    H129264   1.126   5.847   5.573
 9793TIP3    H229265   1.249   5.822   5.491
 9794TIP3   OH229266   0.708   5.813   4.408
 9794TIP3    H129267   0.678   5.746   4.472
 9794TIP3    H229268   0.715   5.763   4.325
 9795TIP3   OH229269   0.703   5.441   5.249
 9795TIP3    H129270   0.609   5.416   5.261
 9795TIP3    H229271   0.736   5.362   5.202
 9796TIP3   OH229272   0.013   5.439   4.934
 9796TIP3    H129273  -0.002   5.532   4.952
 9796TIP3    H229274  -0.034   5.397   5.007
 9797TIP3   OH229275   0.490   5.650   5.428
 9797TIP3    H129276   0.476   5.646   5.525
 9797TIP3    H229277   0.568   5.594   5.418
 9798TIP3   OH229278   0.461   5.540   4.307
 9798TIP3    H129279   0.510   5.515   4.388
 9798TIP3    H229280   0.370   5.514   4.332
 9799TIP3   OH229281   0.737   6.181   5.478
 9799TIP3    H129282   0.658   6.125   5.473
 9799TIP3    H229283   0.719   6.247   5.407
 9800TIP3   OH229284   0.800   6.017   4.130
 9800TIP3    H129285   0.837   6.091   4.079
 9800TIP3    H229286   0.720   6.062   4.164
 9801TIP3   OH229287   0.619   5.471   4.523
 9801TIP3    H129288   0.609   5.408   4.598
 9801TIP3    H229289   0.716   5.473   4.515
 9802TIP3   OH229290  -0.118   5.494   4.333
 9802TIP3    H129291  -0.108   5.407   4.290
 9802TIP3    H229292  -0.143   5.467   4.422
 9803TIP3   OH229293   0.654   4.861   5.678
 9803TIP3    H129294   0.735   4.895   5.718
 9803TIP3    H229295   0.639   4.778   5.729
 9804TIP3   OH229296   0.047   5.717   4.539
 9804TIP3    H129297  -0.044   5.739   4.559
 9804TIP3    H229298   0.060   5.761   4.453
 9805TIP3   OH229299   0.219   4.793   4.942
 9805TIP3    H129300   0.293   4.854   4.925
 9805TIP3    H229301   0.236   4.773   5.037
 9806TIP3   OH229302   0.491   5.109   5.753
 9806TIP3    H129303   0.514   5.162   5.832
 9806TIP3    H229304   0.547   5.030   5.763
 9807TIP3   OH229305  -0.108   4.527   4.843
 9807TIP3    H129306  -0.092   4.615   4.883
 9807TIP3    H229307  -0.017   4.491   4.849
 9808TIP3   OH229308   1.138   5.004   5.729
 9808TIP3    H129309   1.041   5.006   5.742
 9808TIP3    H229310   1.142   4.965   5.641
 9809TIP3   OH229311   0.787   5.200   5.119
 9809TIP3    H129312   0.707   5.145   5.130
 9809TIP3    H229313   0.855   5.150   5.169
 9810TIP3   OH229314   0.756   6.155   5.070
 9810TIP3    H129315   0.713   6.202   4.995
 9810TIP3    H229316   0.850   6.174   5.049
 9811TIP3   OH229317   0.032   5.713   4.248
 9811TIP3    H129318  -0.023   5.637   4.273
 9811TIP3    H229319   0.078   5.677   4.169
 9812TIP3   OH229320   0.658   6.053   5.823
 9812TIP3    H129321   0.648   5.983   5.892
 9812TIP3    H229322   0.730   6.108   5.860
 9813TIP3   OH229323   0.429   5.769   4.134
 9813TIP3    H129324   0.470   5.703   4.192
 9813TIP3    H229325   0.487   5.768   4.055
 9814TIP3   OH229326   0.284   5.682   6.013
 9814TIP3    H129327   0.217   5.667   5.945
 9814TIP3    H229328   0.314   5.590   6.029
 9815TIP3   OH229329   0.165   5.432   4.245
 9815TIP3    H129330   0.154   5.452   4.340
 9815TIP3    H229331   0.153   5.335   4.244
 9816TIP3   OH229332   0.759   5.683   5.629
 9816TIP3    H129333   0.831   5.731   5.585
 9816TIP3    H229334   0.686   5.747   5.618
 9817TIP3   OH229335  -0.151   5.143   4.668
 9817TIP3    H129336  -0.182   5.090   4.742
 9817TIP3    H229337  -0.119   5.074   4.606
 9818TIP3   OH229338   0.185   5.217   5.887
 9818TIP3    H129339   0.096   5.258   5.888
 9818TIP3    H229340   0.216   5.243   5.798
 9819TIP3   OH229341  -0.053   4.936   4.506
 9819TIP3    H129342  -0.078   4.945   4.411
 9819TIP3    H229343   0.044   4.946   4.500
 9820TIP3   OH229344   0.625   5.605   6.028
 9820TIP3    H129345   0.707   5.588   5.980
 9820TIP3    H229346   0.629   5.540   6.101
 9821TIP3   OH229347   0.771   5.272   4.164
 9821TIP3    H129348   0.742   5.225   4.084
 9821TIP3    H229349   0.737   5.362   4.143
 9822TIP3   OH229350   0.248   4.983   6.031
 9822TIP3    H129351   0.234   4.908   5.970
 9822TIP3    H229352   0.216   5.059   5.978
 9823TIP3   OH229353   0.228   4.775   5.820
 9823TIP3    H129354   0.267   4.824   5.744
 9823TIP3    H229355   0.134   4.783   5.802
 9824TIP3   OH229356   0.264   5.338   5.655
 9824TIP3    H129357   0.355   5.324   5.625
 9824TIP3    H229358   0.254   5.433   5.638
 9825TIP3   OH229359   0.846   5.289   6.082
 9825TIP3    H129360   0.895   5.206   6.093
 9825TIP3    H229361   0.914   5.349   6.047
 9826TIP3   OH229362   0.888   5.540   5.817
 9826TIP3    H129363   0.829   5.593   5.759
 9826TIP3    H229364   0.975   5.560   5.776
 9827TIP3   OH229365   0.370   4.549   5.893
 9827TIP3    H129366   0.320   4.629   5.869
 9827TIP3    H229367   0.301   4.480   5.885
 9828TIP3   OH229368   0.500   5.055   6.112
 9828TIP3    H129369   0.486   5.046   6.208
 9828TIP3    H229370   0.410   5.026   6.082
 9829TIP3   OH229371   0.736   5.001   5.964
 9829TIP3    H129372   0.658   5.004   6.025
 9829TIP3    H229373   0.807   4.970   6.024
 9830TIP3   OH229374   0.971   4.943   6.116
 9830TIP3    H129375   0.977   4.847   6.137
 9830TIP3    H229376   0.960   4.983   6.205
 9831TIP3   OH229377   0.465   4.559   6.150
 9831TIP3    H129378   0.532   4.488   6.145
 9831TIP3    H229379   0.425   4.553   6.061
 9832TIP3   OH229380   0.530   4.773   6.309
 9832TIP3    H129381   0.507   4.703   6.245
 9832TIP3    H229382   0.455   4.835   6.301
 9833TIP3   OH229383   1.009   6.245   5.025
 9833TIP3    H129384   1.032   6.280   5.113
 9833TIP3    H229385   1.064   6.298   4.967
 9834TIP3   OH229386   1.037   6.267   5.306
 9834TIP3    H129387   0.993   6.179   5.304
 9834TIP3    H229388   1.111   6.247   5.365
 9835TIP3   OH229389   1.085   5.944   5.882
 9835TIP3    H129390   1.010   5.952   5.944
 9835TIP3    H229391   1.124   6.034   5.886
 9836TIP3   OH229392   0.902   5.457   4.501
 9836TIP3    H129393   0.970   5.522   4.476
 9836TIP3    H229394   0.942   5.417   4.581
 9837TIP3   OH229395   1.027   5.323   4.705
 9837TIP3    H129396   0.961   5.281   4.763
 9837TIP3    H229397   1.088   5.365   4.769
 9838TIP3   OH229398   1.083   5.718   5.140
 9838TIP3    H129399   1.134   5.656   5.085
 9838TIP3    H229400   1.070   5.793   5.079
 9839TIP3   OH229401   0.913   6.016   5.334
 9839TIP3    H129402   0.843   6.061   5.385
 9839TIP3    H229403   0.861   5.969   5.265
 9840TIP3   OH229404   0.966   5.232   4.352
 9840TIP3    H129405   0.894   5.237   4.285
 9840TIP3    H229406   0.940   5.308   4.408
 9841TIP3   OH229407   0.843   4.902   4.302
 9841TIP3    H129408   0.790   4.947   4.235
 9841TIP3    H229409   0.813   4.809   4.290
 9842TIP3   OH229410   0.843   5.178   4.851
 9842TIP3    H129411   0.842   5.081   4.848
 9842TIP3    H229412   0.827   5.195   4.947
 9843TIP3   OH229413   1.130   5.606   5.709
 9843TIP3    H129414   1.204   5.542   5.698
 9843TIP3    H229415   1.155   5.677   5.648
 9844TIP3   OH229416   1.317   5.413   5.724
 9844TIP3    H129417   1.242   5.365   5.764
 9844TIP3    H229418   1.389   5.348   5.739
 9845TIP3   OH229419   0.784   4.635   4.286
 9845TIP3    H129420   0.852   4.610   4.351
 9845TIP3    H229421   0.705   4.586   4.317
 9846TIP3   OH229422   0.838   4.896   4.740
 9846TIP3    H129423   0.879   4.809   4.760
 9846TIP3    H229424   0.899   4.930   4.673
 9847TIP3   OH229425   1.001   5.069   5.243
 9847TIP3    H129426   1.086   5.098   5.203
 9847TIP3    H229427   1.011   5.109   5.332
 9848TIP3   OH229428   1.068   5.216   5.475
 9848TIP3    H129429   0.989   5.249   5.523
 9848TIP3    H229430   1.098   5.298   5.430
 9849TIP3   OH229431   1.528   4.811   6.030
 9849TIP3    H129432   1.577   4.741   5.983
 9849TIP3    H229433   1.492   4.864   5.956
 9850TIP3   OH229434   0.950   4.645   4.782
 9850TIP3    H129435   0.993   4.632   4.870
 9850TIP3    H229436   0.885   4.572   4.783
 9851TIP3   OH229437   1.392   4.946   5.840
 9851TIP3    H129438   1.306   4.988   5.863
 9851TIP3    H229439   1.359   4.878   5.778
 9852TIP3   OH229440   1.030   4.584   4.419
 9852TIP3    H129441   1.071   4.513   4.365
 9852TIP3    H229442   1.094   4.656   4.411
 9853TIP3   OH229443   0.592   6.113   4.685
 9853TIP3    H129444   0.644   6.101   4.603
 9853TIP3    H229445   0.642   6.182   4.731
 9854TIP3   OH229446   0.354   6.167   5.764
 9854TIP3    H129447   0.354   6.209   5.851
 9854TIP3    H229448   0.392   6.238   5.708
 9855TIP3   OH229449   0.493   6.355   5.610
 9855TIP3    H129450   0.559   6.295   5.573
 9855TIP3    H229451   0.547   6.406   5.674
 9856TIP3   OH229452   1.290   4.711   5.712
 9856TIP3    H129453   1.198   4.710   5.680
 9856TIP3    H229454   1.315   4.617   5.699
 9857TIP3   OH229455   0.217   6.238   5.264
 9857TIP3    H129456   0.121   6.250   5.254
 9857TIP3    H229457   0.240   6.317   5.317
 9858TIP3   OH229458   0.478   6.160   5.346
 9858TIP3    H129459   0.387   6.174   5.315
 9858TIP3    H229460   0.525   6.235   5.305
 9859TIP3   OH229461   0.686   6.346   5.263
 9859TIP3    H129462   0.674   6.432   5.218
 9859TIP3    H229463   0.711   6.287   5.189
 9860TIP3   OH229464   0.504   4.628   5.340
 9860TIP3    H129465   0.458   4.555   5.383
 9860TIP3    H229466   0.502   4.599   5.247
 9861TIP3   OH229467   1.026   4.503   5.238
 9861TIP3    H129468   1.056   4.559   5.163
 9861TIP3    H229469   0.928   4.512   5.229
 9862TIP3   OH229470   1.117   4.603   4.999
 9862TIP3    H129471   1.192   4.558   4.956
 9862TIP3    H229472   1.143   4.697   4.988
 9863TIP3   OH229473   0.192   4.376   5.227
 9863TIP3    H129474   0.253   4.420   5.164
 9863TIP3    H229475   0.230   4.404   5.310
 9864TIP3   OH229476   0.758   4.499   5.198
 9864TIP3    H129477   0.684   4.510   5.136
 9864TIP3    H229478   0.721   4.432   5.259
 9865TIP3   OH229479   0.764   4.432   4.776
 9865TIP3    H129480   0.678   4.474   4.789
 9865TIP3    H229481   0.750   4.350   4.827
 9866TIP3   OH229482  -0.319   4.284   4.800
 9866TIP3    H129483  -0.320   4.274   4.703
 9866TIP3    H229484  -0.294   4.377   4.810
 9867TIP3   OH229485   0.174   4.537   4.862
 9867TIP3    H129486   0.248   4.499   4.913
 9867TIP3    H229487   0.187   4.631   4.887
 9868TIP3   OH229488   0.028   5.972   4.388
 9868TIP3    H129489   0.115   5.972   4.342
 9868TIP3    H229490  -0.028   5.935   4.316
 9869TIP3   OH229491   0.738   6.081   4.451
 9869TIP3    H129492   0.729   5.983   4.437
 9869TIP3    H229493   0.692   6.115   4.372
 9870TIP3   OH229494   0.195   4.586   6.344
 9870TIP3    H129495   0.281   4.577   6.301
 9870TIP3    H229496   0.207   4.532   6.424
 9871TIP3   OH229497   1.023   4.671   6.148
 9871TIP3    H129498   1.042   4.641   6.240
 9871TIP3    H229499   1.112   4.665   6.107
 9872TIP3   OH229500   0.966   6.225   5.638
 9872TIP3    H129501   0.886   6.192   5.592
 9872TIP3    H229502   0.945   6.320   5.641
 9873TIP3   OH229503   2.230   5.596   4.406
 9873TIP3    H129504   2.203   5.688   4.387
 9873TIP3    H229505   2.151   5.549   4.374
 9874TIP3   OH229506   2.231   5.596   4.783
 9874TIP3    H129507   2.259   5.567   4.872
 9874TIP3    H229508   2.185   5.517   4.750
 9875TIP3   OH229509   1.531   5.492   5.147
 9875TIP3    H129510   1.562   5.427   5.213
 9875TIP3    H229511   1.604   5.556   5.149
 9876TIP3   OH229512   2.472   5.897   4.468
 9876TIP3    H129513   2.458   5.831   4.536
 9876TIP3    H229514   2.499   5.975   4.519
 9877TIP3   OH229515   1.500   5.902   4.877
 9877TIP3    H129516   1.490   5.805   4.880
 9877TIP3    H229517   1.597   5.910   4.872
 9878TIP3   OH229518   1.208   5.108   4.662
 9878TIP3    H129519   1.158   5.191   4.678
 9878TIP3    H229520   1.137   5.052   4.628
 9879TIP3   OH229521   1.267   5.394   4.832
 9879TIP3    H129522   1.316   5.318   4.870
 9879TIP3    H229523   1.325   5.421   4.760
 9880TIP3   OH229524   2.118   6.360   4.481
 9880TIP3    H129525   2.168   6.288   4.436
 9880TIP3    H229526   2.112   6.328   4.571
 9881TIP3   OH229527   2.028   5.821   4.835
 9881TIP3    H129528   2.066   5.747   4.784
 9881TIP3    H229529   2.111   5.867   4.859
 9882TIP3   OH229530   3.040   5.145   4.829
 9882TIP3    H129531   3.068   5.226   4.876
 9882TIP3    H229532   3.062   5.167   4.737
 9883TIP3   OH229533   2.438   5.324   4.869
 9883TIP3    H129534   2.482   5.238   4.885
 9883TIP3    H229535   2.408   5.312   4.777
 9884TIP3   OH229536   1.778   4.984   4.833
 9884TIP3    H129537   1.756   5.057   4.772
 9884TIP3    H229538   1.728   4.911   4.790
 9885TIP3   OH229539   2.471   5.073   4.456
 9885TIP3    H129540   2.544   5.059   4.520
 9885TIP3    H229541   2.521   5.110   4.381
 9886TIP3   OH229542   1.411   5.187   4.940
 9886TIP3    H129543   1.494   5.166   4.988
 9886TIP3    H229544   1.422   5.130   4.861
 9887TIP3   OH229545   1.853   5.384   4.728
 9887TIP3    H129546   1.946   5.357   4.744
 9887TIP3    H229547   1.813   5.300   4.698
 9888TIP3   OH229548   3.113   5.349   5.002
 9888TIP3    H129549   3.030   5.398   4.984
 9888TIP3    H229550   3.125   5.368   5.096
 9889TIP3   OH229551   1.776   4.967   5.269
 9889TIP3    H129552   1.717   5.005   5.200
 9889TIP3    H229553   1.723   4.986   5.349
 9890TIP3   OH229554   2.123   5.818   4.276
 9890TIP3    H129555   2.079   5.798   4.192
 9890TIP3    H229556   2.081   5.903   4.299
 9891TIP3   OH229557   1.881   5.742   5.065
 9891TIP3    H129558   1.817   5.807   5.101
 9891TIP3    H229559   1.922   5.794   4.993
 9892TIP3   OH229560   2.683   5.076   4.626
 9892TIP3    H129561   2.673   5.029   4.710
 9892TIP3    H229562   2.737   5.153   4.652
 9893TIP3   OH229563   1.646   5.082   5.053
 9893TIP3    H129564   1.707   5.156   5.074
 9893TIP3    H229565   1.694   5.042   4.977
 9894TIP3   OH229566   1.708   5.935   5.159
 9894TIP3    H129567   1.683   6.021   5.120
 9894TIP3    H229568   1.630   5.920   5.216
 9895TIP3   OH229569   1.107   5.626   4.396
 9895TIP3    H129570   1.060   5.654   4.316
 9895TIP3    H229571   1.134   5.712   4.434
 9896TIP3   OH229572   2.544   6.140   4.635
 9896TIP3    H129573   2.454   6.133   4.675
 9896TIP3    H229574   2.537   6.227   4.590
 9897TIP3   OH229575   2.829   5.056   4.994
 9897TIP3    H129576   2.742   5.081   4.959
 9897TIP3    H229577   2.890   5.083   4.922
 9898TIP3   OH229578   2.132   4.692   4.981
 9898TIP3    H129579   2.117   4.596   4.987
 9898TIP3    H229580   2.052   4.727   5.027
 9899TIP3   OH229581   2.248   6.187   4.312
 9899TIP3    H129582   2.298   6.106   4.288
 9899TIP3    H229583   2.306   6.255   4.270
 9900TIP3   OH229584   2.389   5.972   4.215
 9900TIP3    H129585   2.348   5.893   4.177
 9900TIP3    H229586   2.424   5.938   4.299
 9901TIP3   OH229587   2.770   6.055   4.980
 9901TIP3    H129588   2.759   5.978   4.920
 9901TIP3    H229589   2.751   6.130   4.920
 9902TIP3   OH229590   2.060   5.447   4.236
 9902TIP3    H129591   1.979   5.499   4.215
 9902TIP3    H229592   2.107   5.448   4.150
 9903TIP3   OH229593   2.019   5.233   3.953
 9903TIP3    H129594   2.087   5.283   4.003
 9903TIP3    H229595   2.077   5.170   3.905
 9904TIP3   OH229596   2.964   5.691   4.823
 9904TIP3    H129597   2.882   5.744   4.829
 9904TIP3    H229598   2.994   5.715   4.733
 9905TIP3   OH229599   2.407   5.530   4.209
 9905TIP3    H129600   2.352   5.556   4.287
 9905TIP3    H229601   2.491   5.505   4.253
 9906TIP3   OH229602   2.643   5.570   5.120
 9906TIP3    H129603   2.641   5.655   5.168
 9906TIP3    H229604   2.557   5.574   5.073
 9907TIP3   OH229605   1.639   5.528   4.624
 9907TIP3    H129606   1.599   5.471   4.556
 9907TIP3    H229607   1.718   5.476   4.651
 9908TIP3   OH229608   1.770   5.939   4.774
 9908TIP3    H129609   1.749   5.897   4.689
 9908TIP3    H229610   1.860   5.907   4.791
 9909TIP3   OH229611   1.785   5.498   4.979
 9909TIP3    H129612   1.812   5.483   4.886
 9909TIP3    H229613   1.821   5.587   4.999
 9910TIP3   OH229614   2.304   6.138   4.756
 9910TIP3    H129615   2.286   6.219   4.807
 9910TIP3    H229616   2.287   6.066   4.821
 9911TIP3   OH229617   1.913   6.055   5.305
 9911TIP3    H129618   1.854   6.119   5.349
 9911TIP3    H229619   1.847   6.003   5.254
 9912TIP3   OH229620   2.250   5.388   4.034
 9912TIP3    H129621   2.308   5.447   4.087
 9912TIP3    H229622   2.276   5.413   3.942
 9913TIP3   OH229623   1.668   5.611   5.403
 9913TIP3    H129624   1.673   5.699   5.447
 9913TIP3    H229625   1.572   5.594   5.414
 9914TIP3   OH229626   1.992   6.069   4.308
 9914TIP3    H129627   2.069   6.125   4.329
 9914TIP3    H229628   1.929   6.133   4.273
 9915TIP3   OH229629   1.709   6.225   5.390
 9915TIP3    H129630   1.674   6.224   5.299
 9915TIP3    H229631   1.630   6.204   5.443
 9916TIP3   OH229632   2.764   4.631   4.082
 9916TIP3    H129633   2.683   4.652   4.133
 9916TIP3    H229634   2.777   4.714   4.032
 9917TIP3   OH229635   1.508   5.370   4.426
 9917TIP3    H129636   1.442   5.418   4.371
 9917TIP3    H229637   1.461   5.289   4.445
 9918TIP3   OH229638   2.562   5.998   3.630
 9918TIP3    H129639   2.569   6.095   3.616
 9918TIP3    H229640   2.655   5.970   3.618
 9919TIP3   OH229641   1.288   5.755   5.336
 9919TIP3    H129642   1.220   5.736   5.269
 9919TIP3    H229643   1.323   5.666   5.359
 9920TIP3   OH229644   1.141   5.948   4.970
 9920TIP3    H129645   1.238   5.949   4.963
 9920TIP3    H229646   1.126   6.029   5.021
 9921TIP3   OH229647   3.008   6.400   5.026
 9921TIP3    H129648   3.004   6.303   5.037
 9921TIP3    H229649   2.923   6.425   5.070
 9922TIP3   OH229650   2.114   6.184   5.161
 9922TIP3    H129651   2.113   6.278   5.192
 9922TIP3    H229652   2.041   6.146   5.215
 9923TIP3   OH229653   1.872   6.315   4.112
 9923TIP3    H129654   1.826   6.299   4.027
 9923TIP3    H229655   1.841   6.405   4.136
 9924TIP3   OH229656   1.311   6.164   4.493
 9924TIP3    H129657   1.359   6.155   4.579
 9924TIP3    H229658   1.246   6.092   4.502
 9925TIP3   OH229659   2.074   6.215   3.752
 9925TIP3    H129660   2.133   6.146   3.716
 9925TIP3    H229661   2.109   6.225   3.843
 9926TIP3   OH229662   2.124   6.263   4.022
 9926TIP3    H129663   2.036   6.274   4.065
 9926TIP3    H229664   2.176   6.226   4.095
 9927TIP3   OH229665   2.896   5.532   5.301
 9927TIP3    H129666   2.818   5.546   5.246
 9927TIP3    H229667   2.913   5.436   5.286
 9928TIP3   OH229668   1.494   5.937   5.325
 9928TIP3    H129669   1.542   5.922   5.409
 9928TIP3    H229670   1.419   5.875   5.333
 9929TIP3   OH229671   1.893   4.761   5.111
 9929TIP3    H129672   1.803   4.731   5.085
 9929TIP3    H229673   1.869   4.846   5.153
 9930TIP3   OH229674   2.658   5.303   5.216
 9930TIP3    H129675   2.617   5.308   5.305
 9930TIP3    H229676   2.643   5.393   5.181
 9931TIP3   OH229677   2.323   5.435   3.777
 9931TIP3    H129678   2.292   5.410   3.687
 9931TIP3    H229679   2.403   5.487   3.755
 9932TIP3   OH229680   2.038   4.811   4.080
 9932TIP3    H129681   2.006   4.811   4.172
 9932TIP3    H229682   1.998   4.728   4.048
 9933TIP3   OH229683   1.825   5.276   5.128
 9933TIP3    H129684   1.773   5.297   5.208
 9933TIP3    H229685   1.810   5.357   5.074
 9934TIP3   OH229686   1.708   5.162   4.641
 9934TIP3    H129687   1.615   5.138   4.659
 9934TIP3    H229688   1.720   5.122   4.553
 9935TIP3   OH229689   2.197   5.249   4.368
 9935TIP3    H129690   2.144   5.321   4.328
 9935TIP3    H229691   2.252   5.221   4.292
 9936TIP3   OH229692   2.371   5.527   5.455
 9936TIP3    H129693   2.350   5.456   5.519
 9936TIP3    H229694   2.464   5.544   5.476
 9937TIP3   OH229695   2.356   5.279   4.609
 9937TIP3    H129696   2.297   5.311   4.538
 9937TIP3    H229697   2.387   5.197   4.566
 9938TIP3   OH229698   1.646   5.307   5.336
 9938TIP3    H129699   1.659   5.374   5.405
 9938TIP3    H229700   1.628   5.227   5.389
 9939TIP3   OH229701   1.692   4.782   4.047
 9939TIP3    H129702   1.684   4.782   4.144
 9939TIP3    H229703   1.615   4.836   4.022
 9940TIP3   OH229704   1.236   4.830   4.914
 9940TIP3    H129705   1.311   4.861   4.970
 9940TIP3    H229706   1.279   4.796   4.834
 9941TIP3   OH229707   1.212   4.811   4.435
 9941TIP3    H129708   1.255   4.852   4.358
 9941TIP3    H229709   1.149   4.882   4.459
 9942TIP3   OH229710   2.367   5.526   5.033
 9942TIP3    H129711   2.398   5.453   4.974
 9942TIP3    H229712   2.336   5.474   5.109
 9943TIP3   OH229713   2.033   4.982   4.703
 9943TIP3    H129714   1.950   4.984   4.754
 9943TIP3    H229715   2.100   4.989   4.773
 9944TIP3   OH229716   1.469   5.042   4.711
 9944TIP3    H129717   1.374   5.052   4.686
 9944TIP3    H229718   1.489   4.950   4.688
 9945TIP3   OH229719   1.741   5.036   4.399
 9945TIP3    H129720   1.834   5.056   4.378
 9945TIP3    H229721   1.692   5.062   4.317
 9946TIP3   OH229722   2.527   5.062   4.901
 9946TIP3    H129723   2.494   5.071   4.993
 9946TIP3    H229724   2.462   4.999   4.864
 9947TIP3   OH229725   1.580   5.068   4.179
 9947TIP3    H129726   1.506   5.027   4.132
 9947TIP3    H229727   1.631   5.106   4.104
 9948TIP3   OH229728   2.696   6.749   5.123
 9948TIP3    H129729   2.692   6.773   5.029
 9948TIP3    H229730   2.772   6.802   5.154
 9949TIP3   OH229731   1.655   5.858   5.546
 9949TIP3    H129732   1.733   5.892   5.594
 9949TIP3    H229733   1.588   5.859   5.617
 9950TIP3   OH229734   2.118   5.312   4.799
 9950TIP3    H129735   2.193   5.275   4.749
 9950TIP3    H229736   2.132   5.272   4.887
 9951TIP3   OH229737   1.644   4.801   4.679
 9951TIP3    H129738   1.608   4.722   4.724
 9951TIP3    H229739   1.690   4.764   4.603
 9952TIP3   OH229740   2.095   5.207   5.097
 9952TIP3    H129741   2.005   5.245   5.105
 9952TIP3    H229742   2.150   5.272   5.144
 9953TIP3   OH229743   1.833   5.601   4.186
 9953TIP3    H129744   1.759   5.537   4.175
 9953TIP3    H229745   1.815   5.636   4.276
 9954TIP3   OH229746   2.733   5.837   4.816
 9954TIP3    H129747   2.757   5.887   4.734
 9954TIP3    H229748   2.646   5.798   4.791
 9955TIP3   OH229749   2.290   4.914   4.046
 9955TIP3    H129750   2.193   4.900   4.054
 9955TIP3    H229751   2.302   5.009   4.069
 9956TIP3   OH229752   2.232   5.919   5.184
 9956TIP3    H129753   2.249   5.901   5.276
 9956TIP3    H229754   2.192   6.008   5.187
 9957TIP3   OH229755   2.360   5.160   4.149
 9957TIP3    H129756   2.456   5.168   4.165
 9957TIP3    H229757   2.341   5.240   4.096
 9958TIP3   OH229758   1.525   5.624   4.863
 9958TIP3    H129759   1.563   5.594   4.778
 9958TIP3    H229760   1.559   5.557   4.925
 9959TIP3   OH229761   1.976   5.751   4.004
 9959TIP3    H129762   1.929   5.837   4.011
 9959TIP3    H229763   1.922   5.696   4.065
 9960TIP3   OH229764   1.406   5.539   5.472
 9960TIP3    H129765   1.421   5.528   5.568
 9960TIP3    H229766   1.331   5.478   5.457
 9961TIP3   OH229767   2.127   5.656   5.497
 9961TIP3    H129768   2.067   5.601   5.445
 9961TIP3    H229769   2.214   5.625   5.464
 9962TIP3   OH229770   2.393   6.175   5.080
 9962TIP3    H129771   2.296   6.177   5.090
 9962TIP3    H229772   2.420   6.230   5.157
 9963TIP3   OH229773   2.802   5.250   3.987
 9963TIP3    H129774   2.740   5.205   3.926
 9963TIP3    H229775   2.799   5.339   3.945
 9964TIP3   OH229776   3.020   6.108   5.069
 9964TIP3    H129777   2.922   6.103   5.060
 9964TIP3    H229778   3.046   6.079   4.978
 9965TIP3   OH229779   2.501   6.070   3.894
 9965TIP3    H129780   2.477   6.000   3.956
 9965TIP3    H229781   2.514   6.023   3.810
 9966TIP3   OH229782   2.498   5.699   4.736
 9966TIP3    H129783   2.404   5.674   4.747
 9966TIP3    H229784   2.532   5.620   4.689
 9967TIP3   OH229785   1.623   5.925   4.483
 9967TIP3    H129786   1.625   6.008   4.432
 9967TIP3    H229787   1.529   5.915   4.498
 9968TIP3   OH229788   1.187   5.232   4.189
 9968TIP3    H129789   1.233   5.316   4.210
 9968TIP3    H229790   1.110   5.238   4.249
 9969TIP3   OH229791   1.765   5.693   4.431
 9969TIP3    H129792   1.729   5.783   4.447
 9969TIP3    H229793   1.726   5.645   4.506
 9970TIP3   OH229794   1.893   6.271   4.955
 9970TIP3    H129795   1.931   6.345   4.904
 9970TIP3    H229796   1.971   6.240   5.004
 9971TIP3   OH229797   1.546   6.164   4.339
 9971TIP3    H129798   1.459   6.173   4.384
 9971TIP3    H229799   1.577   6.257   4.342
 9972TIP3   OH229800   2.282   5.905   4.914
 9972TIP3    H129801   2.274   5.904   5.012
 9972TIP3    H229802   2.364   5.854   4.901
 9973TIP3   OH229803   2.255   5.793   3.797
 9973TIP3    H129804   2.309   5.770   3.876
 9973TIP3    H229805   2.166   5.774   3.830
 9974TIP3   OH229806   2.532   6.439   4.964
 9974TIP3    H129807   2.451   6.385   4.955
 9974TIP3    H229808   2.517   6.505   4.892
 9975TIP3   OH229809   2.595   6.273   3.616
 9975TIP3    H129810   2.632   6.344   3.561
 9975TIP3    H229811   2.516   6.320   3.650
 9976TIP3   OH229812   1.615   5.048   5.484
 9976TIP3    H129813   1.519   5.057   5.496
 9976TIP3    H229814   1.638   4.987   5.556
 9977TIP3   OH229815   2.415   5.730   4.013
 9977TIP3    H129816   2.407   5.664   4.085
 9977TIP3    H229817   2.512   5.730   4.001
 9978TIP3   OH229818   1.334   6.134   5.114
 9978TIP3    H129819   1.385   6.060   5.150
 9978TIP3    H229820   1.357   6.206   5.174
 9979TIP3   OH229821   1.621   5.776   3.793
 9979TIP3    H129822   1.642   5.684   3.769
 9979TIP3    H229823   1.604   5.768   3.889
 9980TIP3   OH229824   1.571   5.783   4.065
 9980TIP3    H129825   1.637   5.758   4.131
 9980TIP3    H229826   1.572   5.881   4.073
 9981TIP3   OH229827   1.305   5.478   4.271
 9981TIP3    H129828   1.238   5.522   4.329
 9981TIP3    H229829   1.318   5.548   4.205
 9982TIP3   OH229830   2.457   5.108   5.162
 9982TIP3    H129831   2.535   5.160   5.190
 9982TIP3    H229832   2.440   5.050   5.236
 9983TIP3   OH229833   2.334   4.865   4.326
 9983TIP3    H129834   2.319   4.890   4.233
 9983TIP3    H229835   2.372   4.947   4.364
 9984TIP3   OH229836   1.833   5.981   4.015
 9984TIP3    H129837   1.747   6.009   4.052
 9984TIP3    H229838   1.852   6.057   3.959
 9985TIP3   OH229839   2.024   5.042   4.429
 9985TIP3    H129840   2.088   5.115   4.411
 9985TIP3    H229841   2.027   5.037   4.527
 9986TIP3   OH229842   2.290   5.364   5.240
 9986TIP3    H129843   2.306   5.424   5.316
 9986TIP3    H229844   2.352   5.292   5.257
 9987TIP3   OH229845   2.168   4.772   4.534
 9987TIP3    H129846   2.158   4.849   4.593
 9987TIP3    H229847   2.228   4.810   4.466
 9988TIP3   OH229848   1.574   6.055   4.084
 9988TIP3    H129849   1.546   6.125   4.021
 9988TIP3    H229850   1.560   6.099   4.171
 9989TIP3   OH229851   1.679   4.768   4.324
 9989TIP3    H129852   1.674   4.860   4.358
 9989TIP3    H229853   1.775   4.753   4.332
 9990TIP3   OH229854   2.928   5.266   5.217
 9990TIP3    H129855   2.830   5.262   5.219
 9990TIP3    H229856   2.945   5.221   5.133
 9991TIP3   OH229857   2.583   5.458   4.608
 9991TIP3    H129858   2.507   5.398   4.620
 9991TIP3    H229859   2.655   5.411   4.656
 9992TIP3   OH229860   1.294   5.688   4.078
 9992TIP3    H129861   1.354   5.764   4.088
 9992TIP3    H229862   1.344   5.637   4.011
 9993TIP3   OH229863   1.240   4.962   4.206
 9993TIP3    H129864   1.239   5.060   4.205
 9993TIP3    H229865   1.151   4.941   4.179
 9994TIP3   OH229866   2.551   6.411   4.558
 9994TIP3    H129867   2.508   6.458   4.483
 9994TIP3    H229868   2.645   6.431   4.536
 9995TIP3   OH229869   1.632   4.682   5.083
 9995TIP3    H129870   1.595   4.651   4.998
 9995TIP3    H229871   1.617   4.604   5.141
 9996TIP3   OH229872   1.165   5.896   4.466
 9996TIP3    H129873   1.096   5.931   4.524
 9996TIP3    H229874   1.141   5.940   4.381
 9997TIP3   OH229875   1.322   6.440   5.536
 9997TIP3    H129876   1.408   6.439   5.584
 9997TIP3    H229877   1.299   6.346   5.535
 9998TIP3   OH229878   1.807   6.406   5.582
 9998TIP3    H129879   1.902   6.388   5.586
 9998TIP3    H229880   1.780   6.350   5.507
 9999TIP3   OH229881   1.784   5.983   3.708
 9999TIP3    H129882   1.730   5.911   3.748
 9999TIP3    H229883   1.861   5.932   3.676
10000TIP3   OH229884   2.445   6.313   5.313
10000TIP3    H129885   2.436   6.243   5.382
10000TIP3    H229886   2.520   6.365   5.345
10001TIP3   OH229887   2.221   6.023   3.619
10001TIP3    H129888   2.272   5.964   3.676
10001TIP3    H229889   2.276   6.028   3.538
10002TIP3   OH229890   1.454   5.848   5.736
10002TIP3    H129891   1.469   5.752   5.739
10002TIP3    H229892   1.365   5.853   5.694
10003TIP3   OH229893   1.431   5.499   3.927
10003TIP3    H129894   1.484   5.468   4.003
10003TIP3    H229895   1.500   5.503   3.858
10004TIP3   OH229896   2.063   5.933   5.509
10004TIP3    H129897   2.018   5.950   5.424
10004TIP3    H229898   2.091   5.840   5.501
10005TIP3   OH229899   1.935   5.696   3.736
10005TIP3    H129900   1.940   5.711   3.832
10005TIP3    H229901   1.936   5.598   3.733
10006TIP3   OH229902   2.555   5.939   5.116
10006TIP3    H129903   2.627   5.987   5.071
10006TIP3    H229904   2.482   6.004   5.105
10007TIP3   OH229905   1.571   5.582   5.719
10007TIP3    H129906   1.644   5.522   5.702
10007TIP3    H229907   1.595   5.616   5.808
10008TIP3   OH229908   1.638   5.403   4.152
10008TIP3    H129909   1.610   5.364   4.236
10008TIP3    H229910   1.673   5.325   4.104
10009TIP3   OH229911   1.911   5.469   5.384
10009TIP3    H129912   1.831   5.525   5.386
10009TIP3    H229913   1.955   5.501   5.301
10010TIP3   OH229914   1.739   5.193   3.994
10010TIP3    H129915   1.712   5.197   3.899
10010TIP3    H229916   1.836   5.203   3.985
10011TIP3   OH229917   2.422   5.867   5.514
10011TIP3    H129918   2.503   5.848   5.466
10011TIP3    H229919   2.423   5.801   5.585
10012TIP3   OH229920   2.562   5.527   3.655
10012TIP3    H129921   2.540   5.481   3.571
10012TIP3    H229922   2.531   5.618   3.631
10013TIP3   OH229923   2.036   5.255   5.504
10013TIP3    H129924   2.029   5.176   5.447
10013TIP3    H229925   1.990   5.323   5.450
10014TIP3   OH229926   2.037   5.036   5.314
10014TIP3    H129927   2.061   5.082   5.231
10014TIP3    H229928   1.943   5.015   5.297
10015TIP3   OH229929   2.064   5.578   5.185
10015TIP3    H129930   2.144   5.590   5.133
10015TIP3    H229931   2.004   5.645   5.144
10016TIP3   OH229932   2.645   5.547   5.569
10016TIP3    H129933   2.698   5.466   5.577
10016TIP3    H229934   2.710   5.608   5.532
10017TIP3   OH229935   2.684   5.796   5.304
10017TIP3    H129936   2.626   5.850   5.245
10017TIP3    H229937   2.771   5.817   5.264
10018TIP3   OH229938   1.911   5.367   5.736
10018TIP3    H129939   1.839   5.302   5.750
10018TIP3    H229940   1.941   5.344   5.646
10019TIP3   OH229941   2.164   4.800   5.393
10019TIP3    H129942   2.129   4.888   5.368
10019TIP3    H229943   2.090   4.743   5.369
10020TIP3   OH229944   2.295   5.304   5.597
10020TIP3    H129945   2.276   5.307   5.693
10020TIP3    H229946   2.204   5.286   5.564
10021TIP3   OH229947   2.535   5.270   5.453
10021TIP3    H129948   2.458   5.275   5.514
10021TIP3    H229949   2.607   5.239   5.512
10022TIP3   OH229950   2.773   5.200   5.609
10022TIP3    H129951   2.792   5.111   5.644
10022TIP3    H229952   2.764   5.252   5.692
10023TIP3   OH229953   1.749   5.148   5.787
10023TIP3    H129954   1.751   5.057   5.753
10023TIP3    H229955   1.780   5.136   5.878
10024TIP3   OH229956   2.287   5.023   5.806
10024TIP3    H129957   2.278   5.013   5.710
10024TIP3    H229958   2.229   5.102   5.820
10025TIP3   OH229959   1.545   6.253   3.894
10025TIP3    H129960   1.641   6.255   3.877
10025TIP3    H229961   1.515   6.307   3.818
10026TIP3   OH229962   1.025   5.641   4.110
10026TIP3    H129963   1.121   5.663   4.101
10026TIP3    H229964   1.022   5.552   4.070
10027TIP3   OH229965   0.942   6.251   4.524
10027TIP3    H129966   0.872   6.191   4.491
10027TIP3    H229967   0.985   6.195   4.592
10028TIP3   OH229968   1.079   6.103   4.711
10028TIP3    H129969   1.063   6.032   4.775
10028TIP3    H229970   1.127   6.167   4.768
10029TIP3   OH229971   2.804   6.502   4.513
10029TIP3    H129972   2.829   6.540   4.599
10029TIP3    H229973   2.861   6.551   4.452
10030TIP3   OH229974   2.832   6.526   4.795
10030TIP3    H129975   2.790   6.438   4.790
10030TIP3    H229976   2.909   6.504   4.850
10031TIP3   OH229977   2.882   6.200   5.370
10031TIP3    H129978   2.806   6.209   5.431
10031TIP3    H229979   2.920   6.290   5.372
10032TIP3   OH229980   2.696   5.715   3.988
10032TIP3    H129981   2.764   5.779   3.960
10032TIP3    H229982   2.739   5.675   4.067
10033TIP3   OH229983   2.824   5.582   4.191
10033TIP3    H129984   2.758   5.540   4.251
10033TIP3    H229985   2.888   5.621   4.253
10034TIP3   OH229986   2.877   5.973   4.625
10034TIP3    H129987   2.930   5.911   4.572
10034TIP3    H229988   2.869   6.049   4.565
10035TIP3   OH229989   2.709   6.273   4.821
10035TIP3    H129990   2.638   6.318   4.871
10035TIP3    H229991   2.659   6.226   4.751
10036TIP3   OH229992   2.761   5.489   3.840
10036TIP3    H129993   2.690   5.493   3.772
10036TIP3    H229994   2.736   5.566   3.894
10037TIP3   OH229995   2.632   5.162   3.795
10037TIP3    H129996   2.592   5.205   3.719
10037TIP3    H229997   2.606   5.069   3.781
10038TIP3   OH229998   2.637   5.438   4.338
10038TIP3    H129999   2.646   5.341   4.335
10038TIP3    H230000   2.624   5.454   4.435
10039TIP3   OH230001   1.265   5.508   5.086
10039TIP3    H130002   1.262   5.481   4.992
10039TIP3    H230003   1.362   5.512   5.100
10040TIP3   OH230004   2.926   5.862   5.196
10040TIP3    H130005   2.999   5.798   5.186
10040TIP3    H230006   2.951   5.932   5.133
10041TIP3   OH230007   3.112   5.670   5.215
10041TIP3    H130008   3.037   5.620   5.254
10041TIP3    H230009   3.184   5.605   5.228
10042TIP3   OH230010   2.577   4.896   3.779
10042TIP3    H130011   2.652   4.867   3.834
10042TIP3    H230012   2.504   4.838   3.807
10043TIP3   OH230013   2.633   5.154   4.234
10043TIP3    H130014   2.675   5.066   4.249
10043TIP3    H230015   2.691   5.189   4.165
10044TIP3   OH230016   2.796   5.329   4.729
10044TIP3    H130017   2.882   5.355   4.688
10044TIP3    H230018   2.809   5.366   4.818
10045TIP3   OH230019   2.863   5.473   4.962
10045TIP3    H130020   2.785   5.508   5.008
10045TIP3    H230021   2.896   5.553   4.915
10046TIP3   OH230022   1.481   5.199   5.760
10046TIP3    H130023   1.578   5.192   5.762
10046TIP3    H230024   1.456   5.114   5.802
10047TIP3   OH230025   2.743   4.904   4.271
10047TIP3    H130026   2.791   4.888   4.355
10047TIP3    H230027   2.682   4.827   4.270
10048TIP3   OH230028   1.445   4.889   5.085
10048TIP3    H130029   1.509   4.817   5.100
10048TIP3    H230030   1.503   4.966   5.085
10049TIP3   OH230031   1.249   5.164   5.167
10049TIP3    H130032   1.295   5.159   5.081
10049TIP3    H230033   1.269   5.253   5.195
10050TIP3   OH230034   3.192   5.207   5.326
10050TIP3    H130035   3.103   5.236   5.349
10050TIP3    H230036   3.172   5.120   5.285
10051TIP3   OH230037   2.824   4.840   3.904
10051TIP3    H130038   2.865   4.768   3.851
10051TIP3    H230039   2.890   4.911   3.897
10052TIP3   OH230040   1.228   4.664   4.663
10052TIP3    H130041   1.136   4.664   4.693
10052TIP3    H230042   1.224   4.725   4.586
10053TIP3   OH230043   2.388   6.368   4.171
10053TIP3    H130044   2.440   6.355   4.089
10053TIP3    H230045   2.438   6.439   4.215
10054TIP3   OH230046   1.450   4.743   5.477
10054TIP3    H130047   1.400   4.741   5.561
10054TIP3    H230048   1.384   4.787   5.419
10055TIP3   OH230049   1.490   6.169   5.557
10055TIP3    H130050   1.397   6.147   5.539
10055TIP3    H230051   1.494   6.159   5.653
10056TIP3   OH230052   1.668   6.205   5.104
10056TIP3    H130053   1.616   6.279   5.067
10056TIP3    H230054   1.752   6.222   5.058
10057TIP3   OH230055   2.113   6.450   5.241
10057TIP3    H130056   2.154   6.454   5.330
10057TIP3    H230057   2.178   6.502   5.189
10058TIP3   OH230058   2.291   6.602   5.101
10058TIP3    H130059   2.363   6.553   5.058
10058TIP3    H230060   2.342   6.661   5.161
10059TIP3   OH230061   3.087   4.968   5.196
10059TIP3    H130062   2.992   4.979   5.185
10059TIP3    H230063   3.090   4.874   5.220
10060TIP3   OH230064   1.344   6.462   5.129
10060TIP3    H130065   1.256   6.497   5.102
10060TIP3    H230066   1.351   6.502   5.217
10061TIP3   OH230067   1.579   6.441   4.984
10061TIP3    H130068   1.494   6.455   5.030
10061TIP3    H230069   1.559   6.478   4.895
10062TIP3   OH230070   2.006   6.472   4.782
10062TIP3    H130071   1.936   6.492   4.717
10062TIP3    H230072   2.018   6.560   4.824
10063TIP3   OH230073   2.274   6.412   4.833
10063TIP3    H130074   2.179   6.428   4.815
10063TIP3    H230075   2.315   6.489   4.791
10064TIP3   OH230076   2.484   6.605   4.750
10064TIP3    H130077   2.468   6.690   4.704
10064TIP3    H230078   2.507   6.545   4.675
10065TIP3   OH230079   1.255   6.259   4.871
10065TIP3    H130080   1.280   6.233   4.962
10065TIP3    H230081   1.328   6.216   4.821
10066TIP3   OH230082   1.448   6.129   4.727
10066TIP3    H130083   1.464   6.046   4.778
10066TIP3    H230084   1.538   6.168   4.724
10067TIP3   OH230085   1.713   6.225   4.730
10067TIP3    H130086   1.746   6.133   4.721
10067TIP3    H230087   1.755   6.249   4.815
10068TIP3   OH230088   2.293   4.883   4.819
10068TIP3    H130089   2.248   4.814   4.872
10068TIP3    H230090   2.364   4.833   4.775
10069TIP3   OH230091   2.817   4.758   4.724
10069TIP3    H130092   2.851   4.812   4.650
10069TIP3    H230093   2.721   4.779   4.721
10070TIP3   OH230094   2.909   4.861   4.488
10070TIP3    H130095   2.982   4.810   4.447
10070TIP3    H230096   2.942   4.953   4.474
10071TIP3   OH230097   1.541   4.590   4.835
10071TIP3    H130098   1.448   4.557   4.836
10071TIP3    H230099   1.590   4.505   4.832
10072TIP3   OH230100   1.328   4.459   4.481
10072TIP3    H130101   1.353   4.520   4.410
10072TIP3    H230102   1.294   4.520   4.549
10073TIP3   OH230103   1.985   4.619   4.715
10073TIP3    H130104   2.041   4.672   4.657
10073TIP3    H230105   1.996   4.664   4.800
10074TIP3   OH230106   2.532   4.769   4.701
10074TIP3    H130107   2.528   4.735   4.611
10074TIP3    H230108   2.515   4.687   4.754
10075TIP3   OH230109   2.559   4.690   4.261
10075TIP3    H130110   2.473   4.736   4.274
10075TIP3    H230111   2.543   4.606   4.309
10076TIP3   OH230112   1.044   6.028   4.263
10076TIP3    H130113   0.958   5.997   4.229
10076TIP3    H230114   1.033   6.124   4.250
10077TIP3   OH230115   1.442   4.619   4.248
10077TIP3    H130116   1.493   4.559   4.189
10077TIP3    H230117   1.512   4.675   4.285
10078TIP3   OH230118   1.956   4.792   4.346
10078TIP3    H130119   2.018   4.749   4.408
10078TIP3    H230120   1.974   4.886   4.369
10079TIP3   OH230121   1.815   6.219   3.846
10079TIP3    H130122   1.903   6.243   3.810
10079TIP3    H230123   1.793   6.145   3.787
10080TIP3   OH230124   2.533   6.337   3.938
10080TIP3    H130125   2.524   6.240   3.924
10080TIP3    H230126   2.489   6.372   3.858
10081TIP3   OH230127   1.745   4.871   5.727
10081TIP3    H130128   1.708   4.802   5.784
10081TIP3    H230129   1.839   4.870   5.754
10082TIP3   OH230130   1.993   4.864   5.848
10082TIP3    H130131   2.089   4.857   5.849
10082TIP3    H230132   1.968   4.799   5.918
10083TIP3   OH230133   1.116   6.053   3.903
10083TIP3    H130134   1.112   6.086   3.994
10083TIP3    H230135   1.207   6.017   3.898
10084TIP3   OH230136   2.760   6.481   5.127
10084TIP3    H130137   2.682   6.449   5.078
10084TIP3    H230138   2.741   6.577   5.128
10085TIP3   OH230139   4.025   5.852   3.894
10085TIP3    H130140   3.998   5.944   3.873
10085TIP3    H230141   3.949   5.804   3.858
10086TIP3   OH230142   4.025   5.854   4.272
10086TIP3    H130143   4.055   5.823   4.359
10086TIP3    H230144   3.983   5.775   4.235
10087TIP3   OH230145   3.325   5.750   4.639
10087TIP3    H130146   3.358   5.683   4.702
10087TIP3    H230147   3.403   5.806   4.628
10088TIP3   OH230148   4.268   6.154   3.954
10088TIP3    H130149   4.255   6.086   4.022
10088TIP3    H230150   4.296   6.231   4.007
10089TIP3   OH230151   3.297   6.158   4.366
10089TIP3    H130152   3.287   6.060   4.368
10089TIP3    H230153   3.393   6.166   4.356
10090TIP3   OH230154   3.002   5.362   4.151
10090TIP3    H130155   2.954   5.446   4.164
10090TIP3    H230156   2.931   5.309   4.110
10091TIP3   OH230157   3.062   5.649   4.319
10091TIP3    H130158   3.112   5.574   4.356
10091TIP3    H230159   3.122   5.680   4.249
10092TIP3   OH230160   3.916   6.617   3.970
10092TIP3    H130161   3.963   6.546   3.921
10092TIP3    H230162   3.911   6.581   4.059
10093TIP3   OH230163   3.824   6.078   4.322
10093TIP3    H130164   3.862   6.003   4.273
10093TIP3    H230165   3.907   6.123   4.346
10094TIP3   OH230166   4.839   5.399   4.318
10094TIP3    H130167   4.865   5.482   4.363
10094TIP3    H230168   4.858   5.422   4.225
10095TIP3   OH230169   4.235   5.581   4.355
10095TIP3    H130170   4.277   5.495   4.374
10095TIP3    H230171   4.205   5.567   4.263
10096TIP3   OH230172   3.572   5.241   4.320
10096TIP3    H130173   3.553   5.313   4.257
10096TIP3    H230174   3.525   5.167   4.275
10097TIP3   OH230175   4.269   5.332   3.944
10097TIP3    H130176   4.344   5.315   4.006
10097TIP3    H230177   4.317   5.367   3.867
10098TIP3   OH230178   3.208   5.443   4.427
10098TIP3    H130179   3.291   5.422   4.474
10098TIP3    H230180   3.219   5.387   4.347
10099TIP3   OH230181   3.648   5.640   4.219
10099TIP3    H130182   3.742   5.615   4.232
10099TIP3    H230183   3.609   5.557   4.186
10100TIP3   OH230184   4.909   5.605   4.490
10100TIP3    H130185   4.827   5.655   4.471
10100TIP3    H230186   4.927   5.633   4.581
10101TIP3   OH230187   3.568   5.220   4.754
10101TIP3    H130188   3.509   5.259   4.686
10101TIP3    H230189   3.517   5.242   4.835
10102TIP3   OH230190   3.916   6.073   3.764
10102TIP3    H130191   3.878   6.054   3.678
10102TIP3    H230192   3.874   6.158   3.786
10103TIP3   OH230193   3.677   5.998   4.550
10103TIP3    H130194   3.613   6.064   4.587
10103TIP3    H230195   3.719   6.049   4.478
10104TIP3   OH230196   4.482   5.329   4.116
10104TIP3    H130197   4.463   5.292   4.203
10104TIP3    H230198   4.535   5.408   4.139
10105TIP3   OH230199   3.442   5.338   4.539
10105TIP3    H130200   3.503   5.412   4.561
10105TIP3    H230201   3.489   5.298   4.463
10106TIP3   OH230202   3.505   6.192   4.647
10106TIP3    H130203   3.479   6.277   4.605
10106TIP3    H230204   3.425   6.178   4.703
10107TIP3   OH230205   2.900   5.882   3.883
10107TIP3    H130206   2.859   5.908   3.799
10107TIP3    H230207   2.929   5.969   3.919
10108TIP3   OH230208   4.339   6.397   4.123
10108TIP3    H130209   4.249   6.390   4.161
10108TIP3    H230210   4.333   6.483   4.077
10109TIP3   OH230211   4.625   5.306   4.481
10109TIP3    H130212   4.537   5.336   4.452
10109TIP3    H230213   4.684   5.338   4.410
10110TIP3   OH230214   3.927   4.949   4.463
10110TIP3    H130215   3.918   4.854   4.480
10110TIP3    H230216   3.846   4.984   4.506
10111TIP3   OH230217   4.042   6.445   3.798
10111TIP3    H130218   4.091   6.363   3.775
10111TIP3    H230219   4.101   6.512   3.756
10112TIP3   OH230220   4.182   6.230   3.702
10112TIP3    H130221   4.151   6.150   3.658
10112TIP3    H230222   4.218   6.194   3.786
10113TIP3   OH230223   4.565   6.312   4.466
10113TIP3    H130224   4.555   6.235   4.406
10113TIP3    H230225   4.548   6.387   4.405
10114TIP3   OH230226   3.857   5.705   3.723
10114TIP3    H130227   3.777   5.757   3.700
10114TIP3    H230228   3.904   5.703   3.638
10115TIP3   OH230229   3.816   5.488   3.442
10115TIP3    H130230   3.885   5.539   3.489
10115TIP3    H230231   3.873   5.425   3.393
10116TIP3   OH230232   4.760   5.946   4.310
10116TIP3    H130233   4.678   6.000   4.315
10116TIP3    H230234   4.791   5.971   4.220
10117TIP3   OH230235   4.203   5.787   3.695
10117TIP3    H130236   4.149   5.813   3.774
10117TIP3    H230237   4.287   5.761   3.739
10118TIP3   OH230238   4.440   5.827   4.606
10118TIP3    H130239   4.438   5.911   4.655
10118TIP3    H230240   4.354   5.832   4.560
10119TIP3   OH230241   3.435   5.786   4.112
10119TIP3    H130242   3.394   5.728   4.044
10119TIP3    H230243   3.513   5.733   4.139
10120TIP3   OH230244   3.564   6.194   4.261
10120TIP3    H130245   3.545   6.155   4.175
10120TIP3    H230246   3.655   6.163   4.279
10121TIP3   OH230247   3.574   5.756   4.466
10121TIP3    H130248   3.606   5.737   4.376
10121TIP3    H230249   3.616   5.843   4.486
10122TIP3   OH230250   4.097   6.395   4.243
10122TIP3    H130251   4.083   6.475   4.296
10122TIP3    H230252   4.084   6.322   4.306
10123TIP3   OH230253   3.710   6.313   4.792
10123TIP3    H130254   3.650   6.377   4.836
10123TIP3    H230255   3.645   6.260   4.741
10124TIP3   OH230256   4.045   5.645   3.521
10124TIP3    H130257   4.104   5.704   3.573
10124TIP3    H230258   4.070   5.670   3.428
10125TIP3   OH230259   3.465   5.869   4.892
10125TIP3    H130260   3.468   5.956   4.935
10125TIP3    H230261   3.369   5.851   4.897
10126TIP3   OH230262   3.787   6.327   3.798
10126TIP3    H130263   3.866   6.381   3.815
10126TIP3    H230264   3.726   6.390   3.757
10127TIP3   OH230265   3.505   6.483   4.876
10127TIP3    H130266   3.471   6.481   4.784
10127TIP3    H230267   3.425   6.460   4.928
10128TIP3   OH230268   3.302   5.628   3.918
10128TIP3    H130269   3.238   5.675   3.860
10128TIP3    H230270   3.259   5.543   3.928
10129TIP3   OH230271   4.359   6.255   3.118
10129TIP3    H130272   4.367   6.352   3.103
10129TIP3    H230273   4.451   6.226   3.105
10130TIP3   OH230274   3.084   6.013   4.824
10130TIP3    H130275   3.018   5.991   4.754
10130TIP3    H230276   3.120   5.925   4.847
10131TIP3   OH230277   2.938   6.203   4.461
10131TIP3    H130278   3.033   6.202   4.447
10131TIP3    H230279   2.926   6.286   4.509
10132TIP3   OH230280   4.803   6.655   4.512
10132TIP3    H130281   4.801   6.559   4.525
10132TIP3    H230282   4.719   6.681   4.557
10133TIP3   OH230283   3.910   6.442   4.648
10133TIP3    H130284   3.909   6.535   4.679
10133TIP3    H230285   3.838   6.404   4.701
10134TIP3   OH230286   3.667   6.571   3.599
10134TIP3    H130287   3.623   6.552   3.514
10134TIP3    H230288   3.636   6.661   3.620
10135TIP3   OH230289   3.106   6.421   3.981
10135TIP3    H130290   3.154   6.411   4.066
10135TIP3    H230291   3.045   6.346   3.986
10136TIP3   OH230292   3.871   6.472   3.239
10136TIP3    H130293   3.929   6.403   3.202
10136TIP3    H230294   3.906   6.481   3.330
10137TIP3   OH230295   3.920   6.521   3.510
10137TIP3    H130296   3.832   6.530   3.552
10137TIP3    H230297   3.972   6.480   3.581
10138TIP3   OH230298   4.692   5.787   4.787
10138TIP3    H130299   4.613   5.800   4.733
10138TIP3    H230300   4.708   5.691   4.776
10139TIP3   OH230301   3.289   6.195   4.813
10139TIP3    H130302   3.339   6.178   4.896
10139TIP3    H230303   3.215   6.132   4.820
10140TIP3   OH230304   3.683   5.029   4.574
10140TIP3    H130305   3.592   4.996   4.555
10140TIP3    H230306   3.660   5.112   4.620
10141TIP3   OH230307   4.221   5.133   4.786
10141TIP3    H130308   4.274   5.100   4.858
10141TIP3    H230309   4.129   5.114   4.817
10142TIP3   OH230310   4.459   5.561   4.707
10142TIP3    H130311   4.413   5.559   4.794
10142TIP3    H230312   4.437   5.650   4.673
10143TIP3   OH230313   4.120   5.695   3.265
10143TIP3    H130314   4.088   5.667   3.177
10143TIP3    H230315   4.202   5.742   3.240
10144TIP3   OH230316   3.831   5.070   3.566
10144TIP3    H130317   3.800   5.067   3.658
10144TIP3    H230318   3.795   4.985   3.534
10145TIP3   OH230319   3.620   5.533   4.614
10145TIP3    H130320   3.569   5.555   4.695
10145TIP3    H230321   3.604   5.614   4.560
10146TIP3   OH230322   3.504   5.420   4.128
10146TIP3    H130323   3.411   5.395   4.145
10146TIP3    H230324   3.518   5.380   4.039
10147TIP3   OH230325   3.994   5.505   3.855
10147TIP3    H130326   3.941   5.577   3.814
10147TIP3    H230327   4.049   5.477   3.780
10148TIP3   OH230328   4.169   5.785   4.943
10148TIP3    H130329   4.147   5.712   5.005
10148TIP3    H230330   4.263   5.800   4.964
10149TIP3   OH230331   4.152   5.535   4.096
10149TIP3    H130332   4.093   5.567   4.024
10149TIP3    H230333   4.184   5.454   4.052
10150TIP3   OH230334   3.440   5.564   4.823
10150TIP3    H130335   3.464   5.628   4.892
10150TIP3    H230336   3.426   5.482   4.876
10151TIP3   OH230337   3.487   5.039   3.534
10151TIP3    H130338   3.480   5.038   3.631
10151TIP3    H230339   3.410   5.093   3.509
10152TIP3   OH230340   3.032   5.085   4.404
10152TIP3    H130341   3.107   5.119   4.458
10152TIP3    H230342   3.073   5.055   4.322
10153TIP3   OH230343   3.006   5.067   3.924
10153TIP3    H130344   3.050   5.106   3.845
10153TIP3    H230345   2.945   5.140   3.946
10154TIP3   OH230346   4.161   5.782   4.519
10154TIP3    H130347   4.194   5.710   4.461
10154TIP3    H230348   4.133   5.729   4.597
10155TIP3   OH230349   3.830   5.240   4.191
10155TIP3    H130350   3.748   5.240   4.243
10155TIP3    H230351   3.898   5.244   4.260
10156TIP3   OH230352   3.265   5.298   4.199
10156TIP3    H130353   3.170   5.305   4.172
10156TIP3    H230354   3.289   5.207   4.174
10157TIP3   OH230355   3.536   5.294   3.886
10157TIP3    H130356   3.630   5.311   3.865
10157TIP3    H230357   3.490   5.319   3.803
10158TIP3   OH230358   4.323   5.317   4.390
10158TIP3    H130359   4.289   5.330   4.482
10158TIP3    H230360   4.256   5.257   4.355
10159TIP3   OH230361   3.375   5.326   3.665
10159TIP3    H130362   3.304   5.283   3.615
10159TIP3    H230363   3.428   5.364   3.591
10160TIP3   OH230364   4.492   7.007   4.610
10160TIP3    H130365   4.490   7.030   4.515
10160TIP3    H230366   4.570   7.056   4.640
10161TIP3   OH230367   3.449   6.115   5.033
10161TIP3    H130368   3.529   6.148   5.079
10161TIP3    H230369   3.384   6.118   5.106
10162TIP3   OH230370   3.915   5.569   4.286
10162TIP3    H130371   3.988   5.532   4.234
10162TIP3    H230372   3.928   5.528   4.373
10163TIP3   OH230373   3.439   5.059   4.165
10163TIP3    H130374   3.406   4.978   4.208
10163TIP3    H230375   3.488   5.024   4.089
10164TIP3   OH230376   3.891   5.464   4.580
10164TIP3    H130377   3.802   5.504   4.591
10164TIP3    H230378   3.949   5.526   4.629
10165TIP3   OH230379   3.628   5.858   3.672
10165TIP3    H130380   3.554   5.794   3.661
10165TIP3    H230381   3.610   5.892   3.763
10166TIP3   OH230382   4.529   6.094   4.302
10166TIP3    H130383   4.554   6.143   4.221
10166TIP3    H230384   4.443   6.054   4.277
10167TIP3   OH230385   4.087   5.169   3.538
10167TIP3    H130386   3.989   5.156   3.540
10167TIP3    H230387   4.098   5.265   3.556
10168TIP3   OH230388   4.025   6.174   4.670
10168TIP3    H130389   4.050   6.157   4.762
10168TIP3    H230390   3.989   6.265   4.674
10169TIP3   OH230391   4.156   5.418   3.638
10169TIP3    H130392   4.253   5.423   3.650
10169TIP3    H230393   4.137   5.496   3.582
10170TIP3   OH230394   3.319   5.878   4.349
10170TIP3    H130395   3.357   5.853   4.263
10170TIP3    H230396   3.361   5.815   4.409
10171TIP3   OH230397   3.774   6.008   3.493
10171TIP3    H130398   3.726   6.094   3.500
10171TIP3    H230399   3.719   5.953   3.553
10172TIP3   OH230400   3.199   5.800   4.961
10172TIP3    H130401   3.219   5.786   5.056
10172TIP3    H230402   3.129   5.733   4.945
10173TIP3   OH230403   3.925   5.912   4.983
10173TIP3    H130404   3.866   5.857   4.929
10173TIP3    H230405   4.013   5.881   4.953
10174TIP3   OH230406   4.188   6.432   4.568
10174TIP3    H130407   4.091   6.434   4.577
10174TIP3    H230408   4.215   6.487   4.644
10175TIP3   OH230409   4.599   5.506   3.473
10175TIP3    H130410   4.537   5.459   3.413
10175TIP3    H230411   4.595   5.594   3.430
10176TIP3   OH230412   4.815   6.363   4.556
10176TIP3    H130413   4.717   6.359   4.546
10176TIP3    H230414   4.841   6.335   4.465
10177TIP3   OH230415   4.297   6.327   3.382
10177TIP3    H130416   4.273   6.254   3.441
10177TIP3    H230417   4.310   6.282   3.296
10178TIP3   OH230418   4.293   5.956   4.223
10178TIP3    H130419   4.200   5.930   4.234
10178TIP3    H230420   4.328   5.877   4.176
10179TIP3   OH230421   3.420   6.183   3.974
10179TIP3    H130422   3.424   6.265   3.920
10179TIP3    H230423   3.325   6.169   3.980
10180TIP3   OH230424   2.984   5.488   3.675
10180TIP3    H130425   3.030   5.572   3.695
10180TIP3    H230426   2.907   5.495   3.736
10181TIP3   OH230427   3.560   5.950   3.919
10181TIP3    H130428   3.526   6.040   3.935
10181TIP3    H230429   3.522   5.901   3.994
10182TIP3   OH230430   3.689   6.528   4.443
10182TIP3    H130431   3.728   6.600   4.391
10182TIP3    H230432   3.768   6.495   4.490
10183TIP3   OH230433   3.342   6.422   3.827
10183TIP3    H130434   3.255   6.430   3.871
10183TIP3    H230435   3.373   6.515   3.829
10184TIP3   OH230436   4.079   6.163   4.401
10184TIP3    H130437   4.071   6.159   4.498
10184TIP3    H230438   4.159   6.110   4.386
10185TIP3   OH230439   4.052   6.053   3.284
10185TIP3    H130440   4.104   6.029   3.363
10185TIP3    H230441   3.963   6.028   3.313
10186TIP3   OH230442   4.326   6.697   4.452
10186TIP3    H130443   4.247   6.641   4.441
10186TIP3    H230444   4.313   6.762   4.379
10187TIP3   OH230445   4.392   6.530   3.104
10187TIP3    H130446   4.430   6.601   3.049
10187TIP3    H230447   4.312   6.577   3.136
10188TIP3   OH230448   3.413   5.308   4.969
10188TIP3    H130449   3.317   5.311   4.985
10188TIP3    H230450   3.443   5.249   5.040
10189TIP3   OH230451   4.211   5.991   3.503
10189TIP3    H130452   4.202   5.922   3.572
10189TIP3    H230453   4.308   5.988   3.488
10190TIP3   OH230454   3.128   6.392   4.602
10190TIP3    H130455   3.180   6.316   4.632
10190TIP3    H230456   3.159   6.461   4.661
10191TIP3   OH230457   3.419   6.036   3.283
10191TIP3    H130458   3.434   5.944   3.253
10191TIP3    H230459   3.400   6.022   3.378
10192TIP3   OH230460   3.365   6.039   3.556
10192TIP3    H130461   3.437   6.014   3.615
10192TIP3    H230462   3.368   6.138   3.561
10193TIP3   OH230463   3.100   5.734   3.758
10193TIP3    H130464   3.035   5.779   3.815
10193TIP3    H230465   3.116   5.803   3.691
10194TIP3   OH230466   4.247   5.372   4.649
10194TIP3    H130467   4.328   5.410   4.687
10194TIP3    H230468   4.234   5.290   4.701
10195TIP3   OH230469   4.118   5.128   3.816
10195TIP3    H130470   4.110   5.146   3.721
10195TIP3    H230471   4.165   5.208   3.849
10196TIP3   OH230472   3.629   6.238   3.505
10196TIP3    H130473   3.543   6.267   3.539
10196TIP3    H230474   3.647   6.306   3.440
10197TIP3   OH230475   3.818   5.300   3.917
10197TIP3    H130476   3.884   5.370   3.897
10197TIP3    H230477   3.824   5.295   4.015
10198TIP3   OH230478   4.086   5.619   4.727
10198TIP3    H130479   4.107   5.674   4.805
10198TIP3    H230480   4.144   5.542   4.739
10199TIP3   OH230481   3.964   5.029   4.022
10199TIP3    H130482   3.953   5.108   4.079
10199TIP3    H230483   4.021   5.067   3.951
10200TIP3   OH230484   3.371   6.313   3.571
10200TIP3    H130485   3.343   6.382   3.507
10200TIP3    H230486   3.356   6.357   3.657
10201TIP3   OH230487   3.474   5.025   3.811
10201TIP3    H130488   3.471   5.117   3.844
10201TIP3    H230489   3.570   5.008   3.818
10202TIP3   OH230490   4.726   5.519   4.704
10202TIP3    H130491   4.628   5.517   4.711
10202TIP3    H230492   4.738   5.486   4.614
10203TIP3   OH230493   4.379   5.714   4.095
10203TIP3    H130494   4.303   5.654   4.106
10203TIP3    H230495   4.451   5.667   4.143
10204TIP3   OH230496   3.090   5.944   3.565
10204TIP3    H130497   3.154   6.018   3.573
10204TIP3    H230498   3.137   5.891   3.497
10205TIP3   OH230499   3.036   5.218   3.698
10205TIP3    H130500   3.037   5.316   3.693
10205TIP3    H230501   2.952   5.197   3.655
10206TIP3   OH230502   4.347   6.669   4.045
10206TIP3    H130503   4.304   6.716   3.969
10206TIP3    H230504   4.441   6.688   4.024
10207TIP3   OH230505   3.422   4.942   4.569
10207TIP3    H130506   3.390   4.910   4.482
10207TIP3    H230507   3.411   4.862   4.625
10208TIP3   OH230508   2.963   6.156   3.954
10208TIP3    H130509   2.890   6.189   4.007
10208TIP3    H230510   2.941   6.197   3.867
10209TIP3   OH230511   3.118   6.697   5.024
10209TIP3    H130512   3.204   6.696   5.070
10209TIP3    H230513   3.096   6.602   5.021
10210TIP3   OH230514   3.602   6.662   5.070
10210TIP3    H130515   3.697   6.646   5.073
10210TIP3    H230516   3.576   6.606   4.994
10211TIP3   OH230517   3.583   6.241   3.198
10211TIP3    H130518   3.528   6.167   3.234
10211TIP3    H230519   3.657   6.190   3.159
10212TIP3   OH230520   4.238   6.571   4.802
10212TIP3    H130521   4.231   6.500   4.869
10212TIP3    H230522   4.317   6.621   4.831
10213TIP3   OH230523   4.018   6.281   3.106
10213TIP3    H130524   4.066   6.218   3.163
10213TIP3    H230525   4.073   6.282   3.025
10214TIP3   OH230526   3.249   6.105   5.225
10214TIP3    H130527   3.267   6.009   5.224
10214TIP3    H230528   3.162   6.109   5.181
10215TIP3   OH230529   3.226   5.756   3.416
10215TIP3    H130530   3.282   5.724   3.488
10215TIP3    H230531   3.292   5.761   3.344
10216TIP3   OH230532   3.856   6.188   4.998
10216TIP3    H130533   3.816   6.206   4.911
10216TIP3    H230534   3.888   6.096   4.988
10217TIP3   OH230535   3.734   5.952   3.224
10217TIP3    H130536   3.737   5.967   3.321
10217TIP3    H230537   3.734   5.854   3.220
10218TIP3   OH230538   4.350   6.197   4.603
10218TIP3    H130539   4.424   6.242   4.558
10218TIP3    H230540   4.280   6.264   4.590
10219TIP3   OH230541   3.366   5.839   5.205
10219TIP3    H130542   3.440   5.782   5.182
10219TIP3    H230543   3.392   5.870   5.294
10220TIP3   OH230544   3.435   5.659   3.639
10220TIP3    H130545   3.409   5.616   3.722
10220TIP3    H230546   3.471   5.584   3.587
10221TIP3   OH230547   3.704   5.724   4.868
10221TIP3    H130548   3.626   5.783   4.871
10221TIP3    H230549   3.751   5.757   4.788
10222TIP3   OH230550   3.535   5.451   3.481
10222TIP3    H130551   3.508   5.454   3.387
10222TIP3    H230552   3.633   5.459   3.472
10223TIP3   OH230553   4.219   6.125   5.002
10223TIP3    H130554   4.300   6.106   4.952
10223TIP3    H230555   4.221   6.057   5.071
10224TIP3   OH230556   4.358   5.784   3.142
10224TIP3    H130557   4.336   5.737   3.059
10224TIP3    H230558   4.327   5.874   3.117
10225TIP3   OH230559   3.827   5.512   4.995
10225TIP3    H130560   3.826   5.433   4.937
10225TIP3    H230561   3.784   5.579   4.937
10226TIP3   OH230562   3.824   5.303   4.800
10226TIP3    H130563   3.852   5.344   4.716
10226TIP3    H230564   3.731   5.278   4.780
10227TIP3   OH230565   3.858   5.835   4.674
10227TIP3    H130566   3.940   5.842   4.623
10227TIP3    H230567   3.802   5.902   4.630
10228TIP3   OH230568   4.440   5.801   5.056
10228TIP3    H130569   4.491   5.719   5.064
10228TIP3    H230570   4.507   5.862   5.021
10229TIP3   OH230571   4.480   6.053   4.791
10229TIP3    H130572   4.422   6.107   4.731
10229TIP3    H230573   4.568   6.073   4.751
10230TIP3   OH230574   3.708   5.626   5.225
10230TIP3    H130575   3.637   5.560   5.238
10230TIP3    H230576   3.740   5.603   5.136
10231TIP3   OH230577   3.967   5.079   4.862
10231TIP3    H130578   3.912   5.157   4.837
10231TIP3    H230579   3.904   5.006   4.846
10232TIP3   OH230580   4.089   5.567   5.083
10232TIP3    H130581   4.078   5.557   5.179
10232TIP3    H230582   3.998   5.542   5.053
10233TIP3   OH230583   4.328   5.512   4.940
10233TIP3    H130584   4.251   5.517   4.999
10233TIP3    H230585   4.401   5.491   5.001
10234TIP3   OH230586   4.557   5.474   5.102
10234TIP3    H130587   4.593   5.388   5.127
10234TIP3    H230588   4.553   5.521   5.189
10235TIP3   OH230589   3.544   5.412   5.276
10235TIP3    H130590   3.553   5.325   5.233
10235TIP3    H230591   3.580   5.393   5.365
10236TIP3   OH230592   4.019   5.084   5.127
10236TIP3    H130593   4.048   4.991   5.125
10236TIP3    H230594   3.994   5.093   5.032
10237TIP3   OH230595   4.122   5.289   5.279
10237TIP3    H130596   4.089   5.222   5.215
10237TIP3    H230597   4.048   5.354   5.280
10238TIP3   OH230598   3.342   6.514   3.383
10238TIP3    H130599   3.438   6.512   3.364
10238TIP3    H230600   3.311   6.563   3.305
10239TIP3   OH230601   2.822   5.896   3.602
10239TIP3    H130602   2.917   5.919   3.588
10239TIP3    H230603   2.818   5.808   3.559
10240TIP3   OH230604   2.737   6.509   4.012
10240TIP3    H130605   2.668   6.448   3.977
10240TIP3    H230606   2.780   6.452   4.079
10241TIP3   OH230607   2.874   6.362   4.199
10241TIP3    H130608   2.860   6.288   4.260
10241TIP3    H230609   2.923   6.424   4.255
10242TIP3   OH230610   4.599   6.761   4.000
10242TIP3    H130611   4.627   6.797   4.086
10242TIP3    H230612   4.660   6.805   3.938
10243TIP3   OH230613   4.629   6.783   4.283
10243TIP3    H130614   4.587   6.694   4.277
10243TIP3    H230615   4.706   6.761   4.337
10244TIP3   OH230616   4.676   6.459   4.854
10244TIP3    H130617   4.603   6.467   4.919
10244TIP3    H230618   4.717   6.547   4.859
10245TIP3   OH230619   4.491   5.972   3.475
10245TIP3    H130620   4.560   6.036   3.447
10245TIP3    H230621   4.534   5.932   3.554
10246TIP3   OH230622   4.619   5.839   3.678
10246TIP3    H130623   4.554   5.797   3.737
10246TIP3    H230624   4.684   5.878   3.741
10247TIP3   OH230625   4.672   6.229   4.111
10247TIP3    H130626   4.726   6.167   4.059
10247TIP3    H230627   4.665   6.306   4.051
10248TIP3   OH230628   4.506   6.530   4.307
10248TIP3    H130629   4.434   6.574   4.357
10248TIP3    H230630   4.456   6.482   4.237
10249TIP3   OH230631   4.558   5.747   3.326
10249TIP3    H130632   4.486   5.748   3.259
10249TIP3    H230633   4.530   5.824   3.380
10250TIP3   OH230634   4.424   5.421   3.284
10250TIP3    H130635   4.387   5.451   3.201
10250TIP3    H230636   4.406   5.324   3.280
10251TIP3   OH230637   4.433   5.695   3.825
10251TIP3    H130638   4.442   5.598   3.818
10251TIP3    H230639   4.421   5.709   3.921
10252TIP3   OH230640   3.061   5.766   4.573
10252TIP3    H130641   3.059   5.738   4.479
10252TIP3    H230642   3.158   5.769   4.588
10253TIP3   OH230643   4.721   6.119   4.682
10253TIP3    H130644   4.795   6.054   4.673
10253TIP3    H230645   4.749   6.190   4.621
10254TIP3   OH230646   4.907   5.927   4.701
10254TIP3    H130647   4.833   5.875   4.740
10254TIP3    H230648   4.980   5.863   4.713
10255TIP3   OH230649   4.376   5.153   3.278
10255TIP3    H130650   4.446   5.094   3.313
10255TIP3    H230651   4.298   5.098   3.293
10256TIP3   OH230652   4.430   5.413   3.721
10256TIP3    H130653   4.470   5.324   3.734
10256TIP3    H230654   4.486   5.446   3.649
10257TIP3   OH230655   4.592   5.584   4.216
10257TIP3    H130656   4.678   5.611   4.175
10257TIP3    H230657   4.605   5.623   4.304
10258TIP3   OH230658   4.659   5.729   4.448
10258TIP3    H130659   4.581   5.764   4.496
10258TIP3    H230660   4.692   5.809   4.402
10259TIP3   OH230661   3.276   5.457   5.249
10259TIP3    H130662   3.374   5.449   5.250
10259TIP3    H230663   3.252   5.371   5.288
10260TIP3   OH230664   5.133   5.334   4.998
10260TIP3    H130665   5.141   5.244   4.966
10260TIP3    H230666   5.082   5.380   4.928
10261TIP3   OH230667   4.539   5.166   3.757
10261TIP3    H130668   4.584   5.147   3.842
10261TIP3    H230669   4.485   5.085   3.747
10262TIP3   OH230670   3.238   5.149   4.578
10262TIP3    H130671   3.301   5.074   4.588
10262TIP3    H230672   3.299   5.224   4.572
10263TIP3   OH230673   3.042   5.421   4.651
10263TIP3    H130674   3.091   5.414   4.567
10263TIP3    H230675   3.069   5.509   4.681
10264TIP3   OH230676   4.988   5.462   4.807
10264TIP3    H130677   4.905   5.494   4.847
10264TIP3    H230678   4.952   5.389   4.753
10265TIP3   OH230679   3.024   4.924   4.151
10265TIP3    H130680   2.931   4.923   4.177
10265TIP3    H230681   3.024   4.982   4.073
10266TIP3   OH230682   4.184   6.627   3.658
10266TIP3    H130683   4.234   6.611   3.576
10266TIP3    H230684   4.238   6.695   3.701
10267TIP3   OH230685   3.234   4.987   4.962
10267TIP3    H130686   3.188   4.993   5.048
10267TIP3    H230687   3.174   5.039   4.905
10268TIP3   OH230688   3.286   6.428   5.042
10268TIP3    H130689   3.193   6.403   5.024
10268TIP3    H230690   3.290   6.417   5.138
10269TIP3   OH230691   3.463   6.463   4.592
10269TIP3    H130692   3.414   6.538   4.553
10269TIP3    H230693   3.549   6.478   4.546
10270TIP3   OH230694   3.909   6.708   4.729
10270TIP3    H130695   3.951   6.711   4.817
10270TIP3    H230696   3.975   6.759   4.676
10271TIP3   OH230697   4.087   6.859   4.587
10271TIP3    H130698   4.159   6.810   4.544
10271TIP3    H230699   4.139   6.917   4.647
10272TIP3   OH230700   4.887   5.223   4.683
10272TIP3    H130701   4.794   5.243   4.661
10272TIP3    H230702   4.881   5.126   4.688
10273TIP3   OH230703   3.140   6.720   4.615
10273TIP3    H130704   3.052   6.754   4.589
10273TIP3    H230705   3.147   6.758   4.703
10274TIP3   OH230706   3.376   6.699   4.471
10274TIP3    H130707   3.290   6.712   4.517
10274TIP3    H230708   3.356   6.733   4.382
10275TIP3   OH230709   3.802   6.729   4.270
10275TIP3    H130710   3.733   6.749   4.203
10275TIP3    H230711   3.815   6.817   4.311
10276TIP3   OH230712   4.070   6.669   4.322
10276TIP3    H130713   3.976   6.685   4.301
10276TIP3    H230714   4.113   6.744   4.278
10277TIP3   OH230715   4.278   6.861   4.236
10277TIP3    H130716   4.264   6.946   4.189
10277TIP3    H230717   4.304   6.801   4.163
10278TIP3   OH230718   3.051   6.515   4.359
10278TIP3    H130719   3.077   6.490   4.450
10278TIP3    H230720   3.123   6.472   4.308
10279TIP3   OH230721   3.244   6.386   4.215
10279TIP3    H130722   3.261   6.302   4.264
10279TIP3    H230723   3.334   6.424   4.211
10280TIP3   OH230724   3.509   6.482   4.218
10280TIP3    H130725   3.542   6.392   4.204
10280TIP3    H230726   3.553   6.503   4.302
10281TIP3   OH230727   4.087   5.140   4.308
10281TIP3    H130728   4.042   5.072   4.361
10281TIP3    H230729   4.155   5.088   4.262
10282TIP3   OH230730   4.609   4.996   4.198
10282TIP3    H130731   4.647   5.060   4.133
10282TIP3    H230732   4.517   5.030   4.204
10283TIP3   OH230733   4.706   5.117   3.975
10283TIP3    H130734   4.782   5.073   3.931
10283TIP3    H230735   4.733   5.211   3.962
10284TIP3   OH230736   3.335   4.846   4.323
10284TIP3    H130737   3.243   4.813   4.322
10284TIP3    H230738   3.385   4.762   4.320
10285TIP3   OH230739   3.122   4.715   3.970
10285TIP3    H130740   3.152   4.773   3.897
10285TIP3    H230741   3.092   4.781   4.036
10286TIP3   OH230742   3.780   4.878   4.203
10286TIP3    H130743   3.836   4.930   4.144
10286TIP3    H230744   3.801   4.918   4.289
10287TIP3   OH230745   4.332   5.024   4.186
10287TIP3    H130746   4.303   5.001   4.096
10287TIP3    H230747   4.309   4.943   4.237
10288TIP3   OH230748   4.368   4.946   3.788
10288TIP3    H130749   4.290   4.988   3.749
10288TIP3    H230750   4.336   4.855   3.803
10289TIP3   OH230751   2.838   6.286   3.752
10289TIP3    H130752   2.753   6.254   3.716
10289TIP3    H230753   2.829   6.381   3.733
10290TIP3   OH230754   3.238   4.875   3.736
10290TIP3    H130755   3.288   4.814   3.677
10290TIP3    H230756   3.310   4.930   3.771
10291TIP3   OH230757   3.751   5.049   3.834
10291TIP3    H130758   3.813   5.005   3.893
10291TIP3    H230759   3.771   5.143   3.857
10292TIP3   OH230760   3.611   6.477   3.333
10292TIP3    H130761   3.699   6.499   3.296
10292TIP3    H230762   3.589   6.402   3.274
10293TIP3   OH230763   4.329   6.593   3.425
10293TIP3    H130764   4.320   6.496   3.411
10293TIP3    H230765   4.285   6.627   3.344
10294TIP3   OH230766   3.553   5.153   5.190
10294TIP3    H130767   3.500   5.097   5.249
10294TIP3    H230768   3.643   5.138   5.225
10295TIP3   OH230769   3.792   5.117   5.332
10295TIP3    H130770   3.869   5.113   5.273
10295TIP3    H230771   3.809   5.043   5.392
10296TIP3   OH230772   2.914   6.310   3.390
10296TIP3    H130773   2.914   6.342   3.481
10296TIP3    H230774   3.004   6.271   3.380
10297TIP3   OH230775   4.556   6.738   4.614
10297TIP3    H130776   4.477   6.707   4.565
10297TIP3    H230777   4.537   6.834   4.615
10298TIP3   OH230778   5.821   6.109   3.381
10298TIP3    H130779   5.795   6.201   3.361
10298TIP3    H230780   5.744   6.061   3.346
10299TIP3   OH230781   5.821   6.110   3.759
10299TIP3    H130782   5.851   6.081   3.846
10299TIP3    H230783   5.779   6.031   3.723
10300TIP3   OH230784   5.121   6.006   4.125
10300TIP3    H130785   5.154   5.940   4.189
10300TIP3    H230786   5.199   6.064   4.117
10301TIP3   OH230787   6.064   6.411   3.442
10301TIP3    H130788   6.052   6.343   3.509
10301TIP3    H230789   6.092   6.487   3.494
10302TIP3   OH230790   5.092   6.415   3.852
10302TIP3    H130791   5.083   6.317   3.854
10302TIP3    H230792   5.189   6.423   3.844
10303TIP3   OH230793   4.797   5.620   3.639
10303TIP3    H130794   4.746   5.702   3.649
10303TIP3    H230795   4.732   5.563   3.595
10304TIP3   OH230796   4.858   5.907   3.807
10304TIP3    H130797   4.907   5.830   3.843
10304TIP3    H230798   4.916   5.935   3.735
10305TIP3   OH230799   5.711   6.873   3.457
10305TIP3    H130800   5.759   6.803   3.408
10305TIP3    H230801   5.708   6.837   3.546
10306TIP3   OH230802   5.620   6.335   3.809
10306TIP3    H130803   5.658   6.260   3.760
10306TIP3    H230804   5.703   6.380   3.833
10307TIP3   OH230805   6.636   5.657   3.796
10307TIP3    H130806   6.660   5.740   3.843
10307TIP3    H230807   6.662   5.679   3.705
10308TIP3   OH230808   6.029   5.837   3.843
10308TIP3    H130809   6.075   5.754   3.862
10308TIP3    H230810   6.002   5.823   3.750
10309TIP3   OH230811   5.368   5.498   3.808
10309TIP3    H130812   5.349   5.571   3.745
10309TIP3    H230813   5.321   5.425   3.763
10310TIP3   OH230814   6.063   5.585   3.429
10310TIP3    H130815   6.136   5.571   3.494
10310TIP3    H230816   6.113   5.623   3.355
10311TIP3   OH230817   5.003   5.698   3.914
10311TIP3    H130818   5.087   5.679   3.960
10311TIP3    H230819   5.014   5.644   3.834
10312TIP3   OH230820   5.445   5.897   3.705
10312TIP3    H130821   5.538   5.871   3.718
10312TIP3    H230822   5.405   5.813   3.673
10313TIP3   OH230823   6.708   5.867   3.972
10313TIP3    H130824   6.622   5.909   3.951
10313TIP3    H230825   6.711   5.883   4.067
10314TIP3   OH230826   5.364   5.478   4.241
10314TIP3    H130827   5.307   5.518   4.172
10314TIP3    H230828   5.312   5.500   4.321
10315TIP3   OH230829   5.713   6.329   3.251
10315TIP3    H130830   5.673   6.311   3.165
10315TIP3    H230831   5.671   6.415   3.273
10316TIP3   OH230832   5.472   6.255   4.037
10316TIP3    H130833   5.409   6.321   4.074
10316TIP3    H230834   5.515   6.306   3.966
10317TIP3   OH230835   6.274   5.590   3.600
10317TIP3    H130836   6.266   5.544   3.685
10317TIP3    H230837   6.330   5.666   3.624
10318TIP3   OH230838   5.237   5.595   4.026
10318TIP3    H130839   5.298   5.670   4.048
10318TIP3    H230840   5.286   5.556   3.950
10319TIP3   OH230841   5.300   6.448   4.133
10319TIP3    H130842   5.275   6.534   4.093
10319TIP3    H230843   5.221   6.434   4.190
10320TIP3   OH230844   4.696   6.139   3.370
10320TIP3    H130845   4.655   6.164   3.285
10320TIP3    H230846   4.725   6.225   3.405
10321TIP3   OH230847   6.136   6.654   3.610
10321TIP3    H130848   6.045   6.646   3.648
10321TIP3    H230849   6.129   6.740   3.564
10322TIP3   OH230850   6.428   5.599   3.977
10322TIP3    H130851   6.338   5.590   3.942
10322TIP3    H230852   6.483   5.601   3.897
10323TIP3   OH230853   5.718   5.209   3.943
10323TIP3    H130854   5.718   5.114   3.965
10323TIP3    H230855   5.640   5.241   3.993
10324TIP3   OH230856   5.838   6.702   3.285
10324TIP3    H130857   5.888   6.620   3.262
10324TIP3    H230858   5.897   6.768   3.242
10325TIP3   OH230859   5.978   6.487   3.189
10325TIP3    H130860   5.946   6.406   3.146
10325TIP3    H230861   6.014   6.451   3.274
10326TIP3   OH230862   6.362   6.569   3.954
10326TIP3    H130863   6.352   6.491   3.894
10326TIP3    H230864   6.345   6.643   3.893
10327TIP3   OH230865   5.652   5.961   3.209
10327TIP3    H130866   5.572   6.013   3.187
10327TIP3    H230867   5.699   5.961   3.124
10328TIP3   OH230868   5.613   5.745   2.929
10328TIP3    H130869   5.680   5.796   2.977
10328TIP3    H230870   5.671   5.683   2.880
10329TIP3   OH230871   6.557   6.205   3.797
10329TIP3    H130872   6.474   6.258   3.802
10329TIP3    H230873   6.587   6.228   3.706
10330TIP3   OH230874   5.999   6.043   3.183
10330TIP3    H130875   5.945   6.069   3.261
10330TIP3    H230876   6.083   6.018   3.226
10331TIP3   OH230877   6.235   6.084   4.093
10331TIP3    H130878   6.233   6.168   4.142
10331TIP3    H230879   6.150   6.089   4.046
10332TIP3   OH230880   5.231   6.042   3.599
10332TIP3    H130881   5.190   5.984   3.531
10332TIP3    H230882   5.309   5.989   3.626
10333TIP3   OH230883   5.361   6.451   3.748
10333TIP3    H130884   5.341   6.411   3.662
10333TIP3    H230885   5.451   6.420   3.766
10334TIP3   OH230886   5.370   6.013   3.952
10334TIP3    H130887   5.403   5.994   3.862
10334TIP3    H230888   5.412   6.099   3.973
10335TIP3   OH230889   5.893   6.651   3.729
10335TIP3    H130890   5.879   6.731   3.783
10335TIP3    H230891   5.880   6.578   3.793
10336TIP3   OH230892   5.506   6.570   4.277
10336TIP3    H130893   5.447   6.633   4.323
10336TIP3    H230894   5.440   6.517   4.228
10337TIP3   OH230895   5.842   5.901   3.008
10337TIP3    H130896   5.901   5.960   3.060
10337TIP3    H230897   5.867   5.926   2.916
10338TIP3   OH230898   5.261   6.126   4.378
10338TIP3    H130899   5.266   6.213   4.422
10338TIP3    H230900   5.165   6.108   4.385
10339TIP3   OH230901   5.583   6.583   3.285
10339TIP3    H130902   5.662   6.637   3.301
10339TIP3    H230903   5.523   6.647   3.244
10340TIP3   OH230904   5.301   6.740   4.363
10340TIP3    H130905   5.267   6.737   4.271
10340TIP3    H230906   5.221   6.718   4.416
10341TIP3   OH230907   6.356   5.144   3.055
10341TIP3    H130908   6.276   5.166   3.107
10341TIP3    H230909   6.370   5.227   3.005
10342TIP3   OH230910   5.099   5.883   3.403
10342TIP3    H130911   5.035   5.932   3.346
10342TIP3    H230912   5.053   5.799   3.415
10343TIP3   OH230913   6.155   6.511   2.605
10343TIP3    H130914   6.163   6.608   2.590
10343TIP3    H230915   6.248   6.482   2.592
10344TIP3   OH230916   4.879   6.269   4.311
10344TIP3    H130917   4.815   6.247   4.240
10344TIP3    H230918   4.917   6.182   4.335
10345TIP3   OH230919   4.734   6.460   3.947
10345TIP3    H130920   4.830   6.456   3.933
10345TIP3    H230921   4.725   6.542   3.998
10346TIP3   OH230922   6.600   6.913   4.000
10346TIP3    H130923   6.597   6.816   4.010
10346TIP3    H230924   6.516   6.938   4.044
10347TIP3   OH230925   5.706   6.699   4.134
10347TIP3    H130926   5.705   6.792   4.165
10347TIP3    H230927   5.634   6.660   4.188
10348TIP3   OH230928   5.463   6.827   3.086
10348TIP3    H130929   5.419   6.809   3.001
10348TIP3    H230930   5.433   6.918   3.107
10349TIP3   OH230931   4.902   6.678   3.468
10349TIP3    H130932   4.950   6.668   3.553
10349TIP3    H230933   4.843   6.601   3.471
10350TIP3   OH230934   5.667   6.729   2.726
10350TIP3    H130935   5.725   6.659   2.689
10350TIP3    H230936   5.702   6.738   2.817
10351TIP3   OH230937   5.716   6.778   2.996
10351TIP3    H130938   5.628   6.786   3.039
10351TIP3    H230939   5.768   6.737   3.067
10352TIP3   OH230940   6.485   6.045   4.265
10352TIP3    H130941   6.405   6.055   4.211
10352TIP3    H230942   6.503   5.950   4.258
10353TIP3   OH230943   5.086   6.452   4.300
10353TIP3    H130944   5.136   6.435   4.383
10353TIP3    H230945   5.011   6.388   4.308
10354TIP3   OH230946   5.481   5.280   4.072
10354TIP3    H130947   5.390   5.251   4.051
10354TIP3    H230948   5.461   5.364   4.117
10355TIP3   OH230949   6.008   5.390   4.275
10355TIP3    H130950   6.059   5.354   4.348
10355TIP3    H230951   5.917   5.368   4.303
10356TIP3   OH230952   6.260   5.821   4.199
10356TIP3    H130953   6.209   5.818   4.283
10356TIP3    H230954   6.235   5.907   4.161
10357TIP3   OH230955   5.916   5.949   2.751
10357TIP3    H130956   5.884   5.924   2.662
10357TIP3    H230957   5.997   5.999   2.728
10358TIP3   OH230958   5.640   5.335   3.060
10358TIP3    H130959   5.603   5.340   3.150
10358TIP3    H230960   5.577   5.277   3.016
10359TIP3   OH230961   5.415   5.790   4.101
10359TIP3    H130962   5.366   5.813   4.182
10359TIP3    H230963   5.400   5.871   4.047
10360TIP3   OH230964   5.300   5.675   3.615
10360TIP3    H130965   5.206   5.651   3.632
10360TIP3    H230966   5.313   5.635   3.526
10361TIP3   OH230967   5.788   5.760   3.341
10361TIP3    H130968   5.736   5.833   3.301
10361TIP3    H230969   5.845   5.734   3.266
10362TIP3   OH230970   5.965   6.041   4.429
10362TIP3    H130971   5.943   5.969   4.491
10362TIP3    H230972   6.058   6.057   4.450
10363TIP3   OH230973   5.947   5.791   3.583
10363TIP3    H130974   5.890   5.824   3.511
10363TIP3    H230975   5.979   5.709   3.540
10364TIP3   OH230976   5.235   5.821   4.311
10364TIP3    H130977   5.262   5.886   4.378
10364TIP3    H230978   5.223   5.740   4.363
10365TIP3   OH230979   5.305   5.296   3.026
10365TIP3    H130980   5.284   5.289   3.121
10365TIP3    H230981   5.223   5.335   2.991
10366TIP3   OH230982   4.825   5.343   3.897
10366TIP3    H130983   4.904   5.376   3.943
10366TIP3    H230984   4.857   5.318   3.809
10367TIP3   OH230985   4.833   5.349   3.431
10367TIP3    H130986   4.859   5.374   3.340
10367TIP3    H230987   4.751   5.401   3.440
10368TIP3   OH230988   5.956   6.039   4.006
10368TIP3    H130989   5.990   5.966   3.948
10368TIP3    H230990   5.929   5.986   4.084
10369TIP3   OH230991   5.623   5.496   3.675
10369TIP3    H130992   5.543   5.498   3.731
10369TIP3    H230993   5.694   5.498   3.741
10370TIP3   OH230994   5.059   5.554   3.686
10370TIP3    H130995   4.965   5.564   3.658
10370TIP3    H230996   5.081   5.464   3.658
10371TIP3   OH230997   5.333   5.548   3.372
10371TIP3    H130998   5.426   5.572   3.352
10371TIP3    H230999   5.284   5.574   3.291
10372TIP3   OH231000   6.120   5.575   3.878
10372TIP3    H131001   6.085   5.587   3.969
10372TIP3    H231002   6.056   5.513   3.841
10373TIP3   OH231003   5.174   5.582   3.154
10373TIP3    H131004   5.101   5.537   3.106
10373TIP3    H231005   5.224   5.618   3.078
10374TIP3   OH231006   6.288   7.263   4.097
10374TIP3    H131007   6.286   7.287   4.002
10374TIP3    H231008   6.366   7.314   4.127
10375TIP3   OH231009   5.246   6.373   4.520
10375TIP3    H131010   5.326   6.404   4.567
10375TIP3    H231011   5.182   6.374   4.593
10376TIP3   OH231012   5.711   5.824   3.772
10376TIP3    H131013   5.785   5.789   3.721
10376TIP3    H231014   5.725   5.785   3.860
10377TIP3   OH231015   5.238   5.316   3.652
10377TIP3    H131016   5.202   5.235   3.695
10377TIP3    H231017   5.281   5.282   3.573
10378TIP3   OH231018   5.687   5.720   4.070
10378TIP3    H131019   5.598   5.760   4.079
10378TIP3    H231020   5.745   5.783   4.116
10379TIP3   OH231021   5.424   6.115   3.159
10379TIP3    H131022   5.351   6.050   3.148
10379TIP3    H231023   5.406   6.149   3.250
10380TIP3   OH231024   6.325   6.351   3.789
10380TIP3    H131025   6.350   6.400   3.708
10380TIP3    H231026   6.239   6.311   3.764
10381TIP3   OH231027   5.892   5.429   3.019
10381TIP3    H131028   5.794   5.418   3.027
10381TIP3    H231029   5.905   5.524   3.041
10382TIP3   OH231030   5.821   6.431   4.157
10382TIP3    H131031   5.845   6.413   4.249
10382TIP3    H231032   5.785   6.521   4.162
10383TIP3   OH231033   5.954   5.674   3.123
10383TIP3    H131034   6.050   5.682   3.139
10383TIP3    H231035   5.934   5.754   3.070
10384TIP3   OH231036   5.115   6.136   3.836
10384TIP3    H131037   5.153   6.109   3.750
10384TIP3    H231038   5.156   6.072   3.896
10385TIP3   OH231039   5.569   6.264   2.980
10385TIP3    H131040   5.522   6.351   2.986
10385TIP3    H231041   5.515   6.209   3.040
10386TIP3   OH231042   4.995   6.058   4.448
10386TIP3    H131043   5.018   6.045   4.542
10386TIP3    H231044   4.927   5.990   4.435
10387TIP3   OH231045   5.721   6.170   4.468
10387TIP3    H131046   5.663   6.113   4.415
10387TIP3    H231047   5.810   6.139   4.440
10388TIP3   OH231048   5.984   6.689   4.054
10388TIP3    H131049   5.888   6.691   4.063
10388TIP3    H231050   6.011   6.743   4.131
10389TIP3   OH231051   6.394   5.764   2.961
10389TIP3    H131052   6.331   5.719   2.900
10389TIP3    H231053   6.391   5.853   2.919
10390TIP3   OH231054   6.613   6.623   4.042
10390TIP3    H131055   6.515   6.616   4.034
10390TIP3    H231056   6.639   6.592   3.952
10391TIP3   OH231057   6.091   6.583   2.867
10391TIP3    H131058   6.071   6.511   2.928
10391TIP3    H231059   6.107   6.538   2.782
10392TIP3   OH231060   6.089   6.213   3.709
10392TIP3    H131061   5.996   6.187   3.721
10392TIP3    H231062   6.124   6.134   3.663
10393TIP3   OH231063   5.216   6.440   3.461
10393TIP3    H131064   5.220   6.521   3.407
10393TIP3    H231065   5.121   6.426   3.467
10394TIP3   OH231066   4.780   5.743   3.164
10394TIP3    H131067   4.826   5.828   3.183
10394TIP3    H231068   4.702   5.750   3.223
10395TIP3   OH231069   5.356   6.206   3.406
10395TIP3    H131070   5.322   6.297   3.422
10395TIP3    H231071   5.318   6.158   3.481
10396TIP3   OH231072   5.485   6.784   3.930
10396TIP3    H131073   5.525   6.857   3.878
10396TIP3    H231074   5.563   6.751   3.978
10397TIP3   OH231075   5.138   6.678   3.314
10397TIP3    H131076   5.051   6.687   3.358
10397TIP3    H231077   5.169   6.772   3.316
10398TIP3   OH231078   5.875   6.419   3.888
10398TIP3    H131079   5.867   6.416   3.985
10398TIP3    H231080   5.955   6.367   3.873
10399TIP3   OH231081   5.848   6.308   2.771
10399TIP3    H131082   5.901   6.285   2.850
10399TIP3    H231083   5.759   6.285   2.801
10400TIP3   OH231084   6.123   6.954   3.939
10400TIP3    H131085   6.044   6.898   3.929
10400TIP3    H231086   6.109   7.019   3.866
10401TIP3   OH231087   6.188   6.786   2.591
10401TIP3    H131088   6.228   6.857   2.537
10401TIP3    H231089   6.108   6.834   2.622
10402TIP3   OH231090   5.207   5.563   4.456
10402TIP3    H131091   5.111   5.572   4.472
10402TIP3    H231092   5.234   5.508   4.532
10403TIP3   OH231093   6.008   6.246   2.989
10403TIP3    H131094   5.999   6.178   3.059
10403TIP3    H231095   6.105   6.244   2.975
10404TIP3   OH231096   4.924   6.648   4.089
10404TIP3    H131097   4.976   6.573   4.119
10404TIP3    H231098   4.955   6.717   4.149
10405TIP3   OH231099   5.216   6.292   2.769
10405TIP3    H131100   5.229   6.200   2.739
10405TIP3    H231101   5.196   6.279   2.864
10406TIP3   OH231102   5.161   6.296   3.043
10406TIP3    H131103   5.233   6.271   3.102
10406TIP3    H231104   5.164   6.394   3.048
10407TIP3   OH231105   4.898   5.991   3.246
10407TIP3    H131106   4.831   6.036   3.302
10407TIP3    H231107   4.912   6.060   3.178
10408TIP3   OH231108   6.043   5.629   4.137
10408TIP3    H131109   6.126   5.664   4.172
10408TIP3    H231110   6.029   5.548   4.190
10409TIP3   OH231111   5.925   5.378   3.299
10409TIP3    H131112   5.913   5.405   3.206
10409TIP3    H231113   5.965   5.459   3.339
10410TIP3   OH231114   5.426   6.494   2.992
10410TIP3    H131115   5.339   6.523   3.026
10410TIP3    H231116   5.444   6.565   2.928
10411TIP3   OH231117   5.615   5.553   3.401
10411TIP3    H131118   5.679   5.626   3.382
10411TIP3    H231119   5.620   5.548   3.498
10412TIP3   OH231120   5.882   5.875   4.213
10412TIP3    H131121   5.904   5.930   4.291
10412TIP3    H231122   5.940   5.798   4.224
10413TIP3   OH231123   5.762   5.283   3.506
10413TIP3    H131124   5.760   5.355   3.572
10413TIP3    H231125   5.822   5.323   3.438
10414TIP3   OH231126   5.168   6.569   3.058
10414TIP3    H131127   5.139   6.639   2.994
10414TIP3    H231128   5.153   6.614   3.144
10415TIP3   OH231129   5.275   5.279   3.303
10415TIP3    H131130   5.260   5.371   3.332
10415TIP3    H231131   5.372   5.275   3.312
10416TIP3   OH231132   6.527   5.770   4.185
10416TIP3    H131133   6.430   5.777   4.199
10416TIP3    H231134   6.523   5.719   4.102
10417TIP3   OH231135   6.175   5.972   3.582
10417TIP3    H131136   6.100   5.911   3.594
10417TIP3    H231137   6.248   5.926   3.629
10418TIP3   OH231138   4.887   6.201   3.052
10418TIP3    H131139   4.951   6.274   3.060
10418TIP3    H231140   4.932   6.147   2.984
10419TIP3   OH231141   4.833   5.472   3.183
10419TIP3    H131142   4.827   5.569   3.179
10419TIP3    H231143   4.750   5.444   3.143
10420TIP3   OH231144   6.143   6.926   3.531
10420TIP3    H131145   6.100   6.973   3.456
10420TIP3    H231146   6.237   6.945   3.511
10421TIP3   OH231147   5.219   5.197   4.057
10421TIP3    H131148   5.188   5.168   3.969
10421TIP3    H231149   5.207   5.117   4.111
10422TIP3   OH231150   4.760   6.415   3.441
10422TIP3    H131151   4.685   6.446   3.493
10422TIP3    H231152   4.738   6.454   3.354
10423TIP3   OH231153   4.914   6.954   4.511
10423TIP3    H131154   5.001   6.954   4.557
10423TIP3    H231155   4.894   6.859   4.508
10424TIP3   OH231156   5.397   6.921   4.555
10424TIP3    H131157   5.492   6.902   4.562
10424TIP3    H231158   5.373   6.863   4.480
10425TIP3   OH231159   5.379   6.497   2.684
10425TIP3    H131160   5.323   6.425   2.721
10425TIP3    H231161   5.453   6.445   2.648
10426TIP3   OH231162   6.035   6.827   4.288
10426TIP3    H131163   6.027   6.756   4.356
10426TIP3    H231164   6.113   6.877   4.318
10427TIP3   OH231165   5.814   6.537   2.593
10427TIP3    H131166   5.863   6.476   2.651
10427TIP3    H231167   5.870   6.540   2.513
10428TIP3   OH231168   5.045   6.362   4.711
10428TIP3    H131169   5.063   6.266   4.714
10428TIP3    H231170   4.957   6.364   4.667
10429TIP3   OH231171   5.022   6.014   2.903
10429TIP3    H131172   5.078   5.980   2.975
10429TIP3    H231173   5.089   6.018   2.831
10430TIP3   OH231174   5.654   6.446   4.484
10430TIP3    H131175   5.612   6.462   4.397
10430TIP3    H231176   5.685   6.353   4.476
10431TIP3   OH231177   5.531   6.210   2.710
10431TIP3    H131178   5.533   6.224   2.807
10431TIP3    H231179   5.529   6.112   2.706
10432TIP3   OH231180   6.147   6.454   4.090
10432TIP3    H131181   6.221   6.499   4.045
10432TIP3    H231182   6.076   6.519   4.077
10433TIP3   OH231183   5.163   6.093   4.692
10433TIP3    H131184   5.240   6.038   4.672
10433TIP3    H231185   5.187   6.127   4.781
10434TIP3   OH231186   5.233   5.915   3.126
10434TIP3    H131187   5.204   5.873   3.209
10434TIP3    H231188   5.267   5.839   3.075
10435TIP3   OH231189   5.499   5.978   4.353
10435TIP3    H131190   5.423   6.040   4.358
10435TIP3    H231191   5.548   6.013   4.274
10436TIP3   OH231192   5.331   5.707   2.967
10436TIP3    H131193   5.303   5.711   2.873
10436TIP3    H231194   5.428   5.717   2.957
10437TIP3   OH231195   6.015   6.381   4.487
10437TIP3    H131196   6.095   6.360   4.438
10437TIP3    H231197   6.016   6.315   4.558
10438TIP3   OH231198   6.154   6.041   2.629
10438TIP3    H131199   6.132   5.994   2.545
10438TIP3    H231200   6.123   6.131   2.605
10439TIP3   OH231201   5.621   5.766   4.480
10439TIP3    H131202   5.624   5.688   4.421
10439TIP3    H231203   5.580   5.834   4.423
10440TIP3   OH231204   5.623   5.554   4.287
10440TIP3    H131205   5.652   5.598   4.204
10440TIP3    H231206   5.529   5.533   4.267
10441TIP3   OH231207   5.654   6.091   4.160
10441TIP3    H131208   5.737   6.099   4.111
10441TIP3    H231209   5.598   6.159   4.117
10442TIP3   OH231210   6.237   6.061   4.540
10442TIP3    H131211   6.287   5.979   4.552
10442TIP3    H231212   6.304   6.118   4.499
10443TIP3   OH231213   6.275   6.311   4.280
10443TIP3    H131214   6.219   6.365   4.219
10443TIP3    H231215   6.363   6.329   4.240
10444TIP3   OH231216   5.502   5.885   4.708
10444TIP3    H131217   5.431   5.820   4.724
10444TIP3    H231218   5.536   5.856   4.621
10445TIP3   OH231219   5.754   5.322   4.353
10445TIP3    H131220   5.706   5.406   4.331
10445TIP3    H231221   5.683   5.256   4.338
10446TIP3   OH231222   5.884   5.823   4.570
10446TIP3    H131223   5.874   5.814   4.666
10446TIP3    H231224   5.794   5.798   4.542
10447TIP3   OH231225   6.125   5.770   4.428
10447TIP3    H131226   6.047   5.774   4.487
10447TIP3    H231227   6.195   5.737   4.487
10448TIP3   OH231228   6.353   5.696   4.587
10448TIP3    H131229   6.374   5.614   4.632
10448TIP3    H231230   6.346   5.759   4.662
10449TIP3   OH231231   5.337   5.673   4.764
10449TIP3    H131232   5.337   5.583   4.726
10449TIP3    H231233   5.377   5.656   4.852
10450TIP3   OH231234   5.879   5.328   4.597
10450TIP3    H131235   5.889   5.234   4.617
10450TIP3    H231236   5.829   5.324   4.513
10451TIP3   OH231237   5.919   5.542   4.770
10451TIP3    H131238   5.901   5.474   4.702
10451TIP3    H231239   5.842   5.602   4.762
10452TIP3   OH231240   5.138   6.771   2.870
10452TIP3    H131241   5.234   6.769   2.851
10452TIP3    H231242   5.107   6.820   2.792
10453TIP3   OH231243   4.619   6.152   3.089
10453TIP3    H131244   4.713   6.175   3.074
10453TIP3    H231245   4.613   6.065   3.046
10454TIP3   OH231246   4.531   6.766   3.500
10454TIP3    H131247   4.464   6.704   3.465
10454TIP3    H231248   4.576   6.709   3.566
10455TIP3   OH231249   4.668   6.619   3.686
10455TIP3    H131250   4.657   6.545   3.747
10455TIP3    H231251   4.720   6.680   3.743
10456TIP3   OH231252   6.395   7.018   3.486
10456TIP3    H131253   6.423   7.055   3.572
10456TIP3    H231254   6.456   7.061   3.424
10457TIP3   OH231255   6.425   7.040   3.770
10457TIP3    H131256   6.383   6.951   3.764
10457TIP3    H231257   6.502   7.017   3.823
10458TIP3   OH231258   6.476   6.711   4.346
10458TIP3    H131259   6.399   6.721   4.406
10458TIP3    H231260   6.514   6.801   4.347
10459TIP3   OH231261   6.287   6.228   2.962
10459TIP3    H131262   6.356   6.292   2.933
10459TIP3    H231263   6.331   6.189   3.040
10460TIP3   OH231264   6.415   6.096   3.165
10460TIP3    H131265   6.351   6.054   3.225
10460TIP3    H231266   6.481   6.134   3.226
10461TIP3   OH231267   6.469   6.486   3.598
10461TIP3    H131268   6.523   6.423   3.546
10461TIP3    H231269   6.462   6.562   3.537
10462TIP3   OH231270   6.302   6.786   3.794
10462TIP3    H131271   6.230   6.830   3.844
10462TIP3    H231272   6.252   6.739   3.724
10463TIP3   OH231273   6.353   6.002   2.814
10463TIP3    H131274   6.282   6.006   2.746
10463TIP3    H231275   6.328   6.080   2.868
10464TIP3   OH231276   6.223   5.677   2.769
10464TIP3    H131277   6.185   5.719   2.692
10464TIP3    H231278   6.197   5.583   2.755
10465TIP3   OH231279   6.229   5.951   3.312
10465TIP3    H131280   6.240   5.855   3.309
10465TIP3    H231281   6.217   5.967   3.409
10466TIP3   OH231282   4.857   6.023   4.060
10466TIP3    H131283   4.855   5.995   3.966
10466TIP3    H231284   4.954   6.026   4.075
10467TIP3   OH231285   6.518   6.378   4.173
10467TIP3    H131286   6.589   6.310   4.163
10467TIP3    H231287   6.544   6.445   4.109
10468TIP3   OH231288   6.704   6.185   4.191
10468TIP3    H131289   6.629   6.137   4.233
10468TIP3    H231290   6.775   6.118   4.204
10469TIP3   OH231291   6.170   5.410   2.755
10469TIP3    H131292   6.249   5.382   2.806
10469TIP3    H231293   6.101   5.349   2.784
10470TIP3   OH231294   6.225   5.668   3.208
10470TIP3    H131295   6.267   5.580   3.223
10470TIP3    H231296   6.284   5.702   3.138
10471TIP3   OH231297   6.388   5.843   3.700
10471TIP3    H131298   6.474   5.870   3.661
10471TIP3    H231299   6.401   5.876   3.791
10472TIP3   OH231300   6.456   5.986   3.933
10472TIP3    H131301   6.378   6.020   3.982
10472TIP3    H231302   6.489   6.067   3.889
10473TIP3   OH231303   5.069   5.712   4.728
10473TIP3    H131304   5.167   5.711   4.736
10473TIP3    H231305   5.047   5.627   4.771
10474TIP3   OH231306   6.931   5.592   4.496
10474TIP3    H131307   6.930   5.497   4.476
10474TIP3    H231308   6.880   5.630   4.421
10475TIP3   OH231309   6.335   5.417   3.245
10475TIP3    H131310   6.384   5.402   3.329
10475TIP3    H231311   6.276   5.339   3.244
10476TIP3   OH231312   5.036   5.405   4.067
10476TIP3    H131313   5.101   5.332   4.075
10476TIP3    H231314   5.096   5.481   4.059
10477TIP3   OH231315   4.839   5.677   4.139
10477TIP3    H131316   4.887   5.671   4.054
10477TIP3    H231317   4.865   5.766   4.168
10478TIP3   OH231318   6.780   5.721   4.305
10478TIP3    H131319   6.690   5.754   4.323
10478TIP3    H231320   6.763   5.664   4.228
10479TIP3   OH231321   6.416   5.353   2.876
10479TIP3    H131322   6.458   5.281   2.825
10479TIP3    H231323   6.483   5.425   2.871
10480TIP3   OH231324   4.818   5.185   3.646
10480TIP3    H131325   4.721   5.182   3.656
10480TIP3    H231326   4.828   5.241   3.566
10481TIP3   OH231327   5.980   6.884   3.145
10481TIP3    H131328   6.030   6.868   3.062
10481TIP3    H231329   6.034   6.952   3.188
10482TIP3   OH231330   5.033   5.245   4.448
10482TIP3    H131331   4.987   5.252   4.533
10482TIP3    H231332   4.973   5.297   4.391
10483TIP3   OH231333   5.081   6.687   4.530
10483TIP3    H131334   4.989   6.660   4.513
10483TIP3    H231335   5.090   6.670   4.625
10484TIP3   OH231336   5.259   6.720   4.078
10484TIP3    H131337   5.210   6.795   4.039
10484TIP3    H231338   5.345   6.733   4.033
10485TIP3   OH231339   5.705   6.965   4.215
10485TIP3    H131340   5.747   6.967   4.304
10485TIP3    H231341   5.771   7.016   4.163
10486TIP3   OH231342   5.883   7.116   4.073
10486TIP3    H131343   5.955   7.066   4.031
10486TIP3    H231344   5.935   7.174   4.134
10487TIP3   OH231345   4.936   6.977   4.101
10487TIP3    H131346   4.847   7.011   4.076
10487TIP3    H231347   4.944   7.014   4.190
10488TIP3   OH231348   5.172   6.956   3.958
10488TIP3    H131349   5.086   6.969   4.003
10488TIP3    H231350   5.152   6.989   3.868
10489TIP3   OH231351   5.598   6.985   3.757
10489TIP3    H131352   5.530   7.006   3.690
10489TIP3    H231353   5.611   7.073   3.798
10490TIP3   OH231354   5.866   6.925   3.808
10490TIP3    H131355   5.772   6.942   3.788
10490TIP3    H231356   5.909   7.001   3.764
10491TIP3   OH231357   6.074   7.117   3.723
10491TIP3    H131358   6.060   7.202   3.676
10491TIP3    H231359   6.100   7.058   3.649
10492TIP3   OH231360   4.846   6.772   3.846
10492TIP3    H131361   4.874   6.746   3.937
10492TIP3    H231362   4.919   6.729   3.795
10493TIP3   OH231363   5.040   6.643   3.702
10493TIP3    H131364   5.057   6.559   3.750
10493TIP3    H231365   5.130   6.681   3.698
10494TIP3   OH231366   5.305   6.739   3.705
10494TIP3    H131367   5.338   6.648   3.691
10494TIP3    H231368   5.349   6.760   3.789
10495TIP3   OH231369   5.879   5.393   3.783
10495TIP3    H131370   5.838   5.325   3.840
10495TIP3    H231371   5.957   5.347   3.747
10496TIP3   OH231372   6.409   5.267   3.698
10496TIP3    H131373   6.445   5.321   3.625
10496TIP3    H231374   6.315   5.294   3.698
10497TIP3   OH231375   6.501   5.375   3.462
10497TIP3    H131376   6.574   5.324   3.422
10497TIP3    H231377   6.535   5.467   3.448
10498TIP3   OH231378   5.135   5.104   3.810
10498TIP3    H131379   5.041   5.076   3.804
10498TIP3    H231380   5.181   5.018   3.805
10499TIP3   OH231381   4.941   4.965   3.457
10499TIP3    H131382   4.950   5.023   3.379
10499TIP3    H231383   4.877   5.018   3.509
10500TIP3   OH231384   5.578   5.132   3.689
10500TIP3    H131385   5.632   5.188   3.632
10500TIP3    H231386   5.596   5.171   3.776
10501TIP3   OH231387   6.120   5.283   3.677
10501TIP3    H131388   6.128   5.246   3.588
10501TIP3    H231389   6.105   5.201   3.730
10502TIP3   OH231390   6.151   5.203   3.234
10502TIP3    H131391   6.067   5.250   3.249
10502TIP3    H231392   6.136   5.120   3.284
10503TIP3   OH231393   4.635   6.543   3.239
10503TIP3    H131394   4.550   6.510   3.203
10503TIP3    H231395   4.624   6.637   3.219
10504TIP3   OH231396   5.035   5.129   3.224
10504TIP3    H131397   5.086   5.076   3.160
10504TIP3    H231398   5.103   5.188   3.261
10505TIP3   OH231399   5.552   5.301   3.324
10505TIP3    H131400   5.618   5.269   3.388
10505TIP3    H231401   5.562   5.397   3.342
10506TIP3   OH231402   5.407   6.733   2.820
10506TIP3    H131403   5.495   6.756   2.783
10506TIP3    H231404   5.385   6.658   2.760
10507TIP3   OH231405   6.124   6.850   2.912
10507TIP3    H131406   6.115   6.753   2.897
10507TIP3    H231407   6.081   6.884   2.831
10508TIP3   OH231408   5.324   5.412   4.676
10508TIP3    H131409   5.300   5.365   4.757
10508TIP3    H231410   5.419   5.397   4.667
10509TIP3   OH231411   4.711   6.568   2.877
10509TIP3    H131412   4.712   6.597   2.969
10509TIP3    H231413   4.800   6.528   2.866
10510TIP3   OH231414   6.352   6.994   4.101
10510TIP3    H131415   6.274   6.963   4.052
10510TIP3    H231416   6.334   7.090   4.102
10511TIP3   OH231417   7.617   6.367   2.865
10511TIP3    H131418   7.589   6.458   2.841
10511TIP3    H231419   7.542   6.317   2.831
10512TIP3   OH231420   7.621   6.367   3.246
10512TIP3    H131421   7.647   6.333   3.333
10512TIP3    H231422   7.576   6.290   3.207
10513TIP3   OH231423   6.916   6.265   3.615
10513TIP3    H131424   6.950   6.196   3.676
10513TIP3    H231425   6.997   6.315   3.597
10514TIP3   OH231426   7.871   6.662   2.928
10514TIP3    H131427   7.841   6.598   2.993
10514TIP3    H231428   7.885   6.742   2.981
10515TIP3   OH231429   6.889   6.671   3.341
10515TIP3    H131430   6.880   6.573   3.342
10515TIP3    H231431   6.985   6.679   3.329
10516TIP3   OH231432   6.593   5.875   3.124
10516TIP3    H131433   6.546   5.959   3.137
10516TIP3    H231434   6.523   5.822   3.083
10517TIP3   OH231435   6.654   6.162   3.292
10517TIP3    H131436   6.704   6.086   3.330
10517TIP3    H231437   6.714   6.192   3.223
10518TIP3   OH231438   7.511   7.133   2.945
10518TIP3    H131439   7.555   7.062   2.894
10518TIP3    H231440   7.501   7.092   3.031
10519TIP3   OH231441   7.415   6.592   3.296
10519TIP3    H131442   7.451   6.518   3.245
10519TIP3    H231443   7.500   6.635   3.319
10520TIP3   OH231444   8.429   5.912   3.293
10520TIP3    H131445   8.457   5.995   3.337
10520TIP3    H231446   8.450   5.930   3.200
10521TIP3   OH231447   7.832   6.096   3.327
10521TIP3    H131448   7.870   6.009   3.348
10521TIP3    H231449   7.797   6.081   3.237
10522TIP3   OH231450   7.164   5.755   3.293
10522TIP3    H131451   7.144   5.827   3.229
10522TIP3    H231452   7.117   5.681   3.249
10523TIP3   OH231453   7.859   5.844   2.917
10523TIP3    H131454   7.933   5.828   2.980
10523TIP3    H231455   7.908   5.880   2.841
10524TIP3   OH231456   6.800   5.956   3.401
10524TIP3    H131457   6.884   5.935   3.447
10524TIP3    H231458   6.812   5.901   3.320
10525TIP3   OH231459   7.240   6.154   3.195
10525TIP3    H131460   7.334   6.129   3.207
10525TIP3    H231461   7.201   6.070   3.161
10526TIP3   OH231462   8.502   6.123   3.459
10526TIP3    H131463   8.416   6.168   3.444
10526TIP3    H231464   8.512   6.137   3.554
10527TIP3   OH231465   7.163   5.732   3.730
10527TIP3    H131466   7.109   5.767   3.657
10527TIP3    H231467   7.111   5.761   3.807
10528TIP3   OH231468   7.511   6.587   2.744
10528TIP3    H131469   7.479   6.565   2.654
10528TIP3    H231470   7.464   6.671   2.759
10529TIP3   OH231471   7.270   6.512   3.524
10529TIP3    H131472   7.206   6.577   3.560
10529TIP3    H231473   7.311   6.562   3.451
10530TIP3   OH231474   8.073   5.845   3.086
10530TIP3    H131475   8.059   5.795   3.168
10530TIP3    H231476   8.124   5.922   3.117
10531TIP3   OH231477   7.034   5.851   3.513
10531TIP3    H131478   7.097   5.923   3.535
10531TIP3    H231479   7.083   5.809   3.438
10532TIP3   OH231480   7.097   6.705   3.621
10532TIP3    H131481   7.071   6.789   3.578
10532TIP3    H231482   7.018   6.691   3.677
10533TIP3   OH231483   6.492   6.396   2.857
10533TIP3    H131484   6.453   6.421   2.771
10533TIP3    H231485   6.522   6.482   2.892
10534TIP3   OH231486   7.935   6.912   3.098
10534TIP3    H131487   7.845   6.902   3.137
10534TIP3    H231488   7.924   6.996   3.050
10535TIP3   OH231489   8.221   5.817   3.460
10535TIP3    H131490   8.132   5.842   3.430
10535TIP3    H231491   8.278   5.845   3.386
10536TIP3   OH231492   7.521   5.459   3.439
10536TIP3    H131493   7.509   5.364   3.458
10536TIP3    H231494   7.442   5.496   3.485
10537TIP3   OH231495   7.634   6.959   2.774
10537TIP3    H131496   7.681   6.876   2.750
10537TIP3    H231497   7.694   7.024   2.730
10538TIP3   OH231498   7.772   6.745   2.678
10538TIP3    H131499   7.754   6.669   2.620
10538TIP3    H231500   7.808   6.701   2.757
10539TIP3   OH231501   8.159   6.826   3.439
10539TIP3    H131502   8.145   6.748   3.381
10539TIP3    H231503   8.139   6.900   3.378
10540TIP3   OH231504   7.448   6.220   2.696
10540TIP3    H131505   7.367   6.272   2.676
10540TIP3    H231506   7.494   6.222   2.611
10541TIP3   OH231507   7.409   5.999   2.424
10541TIP3    H131508   7.478   6.051   2.468
10541TIP3    H231509   7.465   5.941   2.368
10542TIP3   OH231510   8.352   6.463   3.287
10542TIP3    H131511   8.268   6.514   3.292
10542TIP3    H231512   8.377   6.480   3.194
10543TIP3   OH231513   7.796   6.296   2.670
10543TIP3    H131514   7.739   6.327   2.745
10543TIP3    H231515   7.878   6.273   2.718
10544TIP3   OH231516   8.032   6.342   3.578
10544TIP3    H131517   8.028   6.425   3.628
10544TIP3    H231518   7.945   6.343   3.534
10545TIP3   OH231519   7.026   6.299   3.087
10545TIP3    H131520   6.986   6.242   3.019
10545TIP3    H231521   7.105   6.246   3.113
10546TIP3   OH231522   7.155   6.707   3.235
10546TIP3    H131523   7.136   6.670   3.148
10546TIP3    H231524   7.246   6.675   3.251
10547TIP3   OH231525   7.162   6.271   3.440
10547TIP3    H131526   7.196   6.248   3.351
10547TIP3    H231527   7.207   6.356   3.459
10548TIP3   OH231528   7.695   6.908   3.218
10548TIP3    H131529   7.676   6.987   3.271
10548TIP3    H231530   7.677   6.834   3.280
10549TIP3   OH231531   7.302   6.826   3.764
10549TIP3    H131532   7.242   6.890   3.809
10549TIP3    H231533   7.237   6.774   3.714
10550TIP3   OH231534   7.639   6.155   2.495
10550TIP3    H131535   7.696   6.217   2.546
10550TIP3    H231536   7.664   6.179   2.402
10551TIP3   OH231537   7.057   6.382   3.868
10551TIP3    H131538   7.060   6.471   3.909
10551TIP3    H231539   6.961   6.365   3.869
10552TIP3   OH231540   7.376   6.844   2.779
10552TIP3    H131541   7.457   6.897   2.789
10552TIP3    H231542   7.319   6.902   2.726
10553TIP3   OH231543   7.097   6.997   3.850
10553TIP3    H131544   7.064   6.994   3.758
10553TIP3    H231545   7.017   6.974   3.902
10554TIP3   OH231546   8.153   5.400   2.543
10554TIP3    H131547   8.071   5.419   2.594
10554TIP3    H231548   8.164   5.484   2.493
10555TIP3   OH231549   6.893   6.142   2.893
10555TIP3    H131550   6.831   6.188   2.833
10555TIP3    H231551   6.852   6.055   2.901
10556TIP3   OH231552   7.956   6.766   2.087
10556TIP3    H131553   7.959   6.863   2.075
10556TIP3    H231554   8.050   6.741   2.078
10557TIP3   OH231555   6.676   6.526   3.797
10557TIP3    H131556   6.612   6.504   3.727
10557TIP3    H231557   6.712   6.438   3.821
10558TIP3   OH231558   6.530   6.716   3.434
10558TIP3    H131559   6.626   6.712   3.419
10558TIP3    H231560   6.522   6.798   3.484
10559TIP3   OH231561   8.395   7.169   3.485
10559TIP3    H131562   8.393   7.072   3.499
10559TIP3    H231563   8.311   7.194   3.530
10560TIP3   OH231564   7.502   6.955   3.621
10560TIP3    H131565   7.501   7.049   3.652
10560TIP3    H231566   7.430   6.917   3.675
10561TIP3   OH231567   7.259   7.082   2.572
10561TIP3    H131568   7.217   7.061   2.486
10561TIP3    H231569   7.229   7.173   2.589
10562TIP3   OH231570   6.698   6.935   2.955
10562TIP3    H131571   6.747   6.924   3.039
10562TIP3    H231572   6.639   6.857   2.958
10563TIP3   OH231573   7.469   6.992   2.218
10563TIP3    H131574   7.531   6.926   2.179
10563TIP3    H231575   7.500   6.994   2.311
10564TIP3   OH231576   7.514   7.038   2.489
10564TIP3    H131577   7.424   7.045   2.527
10564TIP3    H231578   7.559   6.984   2.556
10565TIP3   OH231579   8.286   6.303   3.758
10565TIP3    H131580   8.203   6.314   3.709
10565TIP3    H231581   8.301   6.207   3.749
10566TIP3   OH231582   6.882   6.708   3.787
10566TIP3    H131583   6.931   6.691   3.870
10566TIP3    H231584   6.807   6.645   3.793
10567TIP3   OH231585   7.282   5.539   3.553
10567TIP3    H131586   7.192   5.503   3.543
10567TIP3    H231587   7.264   5.607   3.620
10568TIP3   OH231588   7.801   5.645   3.777
10568TIP3    H131589   7.881   5.617   3.826
10568TIP3    H231590   7.733   5.634   3.845
10569TIP3   OH231591   8.058   6.079   3.685
10569TIP3    H131592   8.007   6.073   3.769
10569TIP3    H231593   8.027   6.164   3.647
10570TIP3   OH231594   7.715   6.195   2.237
10570TIP3    H131595   7.676   6.174   2.150
10570TIP3    H231596   7.777   6.267   2.213
10571TIP3   OH231597   7.427   5.580   2.540
10571TIP3    H131598   7.394   5.579   2.632
10571TIP3    H231599   7.387   5.496   2.508
10572TIP3   OH231600   7.212   6.046   3.587
10572TIP3    H131601   7.163   6.067   3.669
10572TIP3    H231602   7.197   6.128   3.533
10573TIP3   OH231603   7.096   5.934   3.101
10573TIP3    H131604   7.003   5.909   3.118
10573TIP3    H231605   7.110   5.894   3.012
10574TIP3   OH231606   7.586   6.020   2.829
10574TIP3    H131607   7.532   6.091   2.787
10574TIP3    H231608   7.639   5.991   2.753
10575TIP3   OH231609   7.762   6.301   3.919
10575TIP3    H131610   7.738   6.226   3.978
10575TIP3    H231611   7.856   6.311   3.939
10576TIP3   OH231612   7.746   6.050   3.068
10576TIP3    H131613   7.684   6.080   2.998
10576TIP3    H231614   7.776   5.967   3.026
10577TIP3   OH231615   7.031   6.079   3.797
10577TIP3    H131616   7.062   6.142   3.864
10577TIP3    H231617   7.020   5.997   3.849
10578TIP3   OH231618   7.080   5.552   2.507
10578TIP3    H131619   7.073   5.551   2.605
10578TIP3    H231620   7.002   5.606   2.484
10579TIP3   OH231621   6.625   5.599   3.378
10579TIP3    H131622   6.700   5.632   3.432
10579TIP3    H231623   6.667   5.568   3.297
10580TIP3   OH231624   6.597   5.580   2.897
10580TIP3    H131625   6.642   5.618   2.819
10580TIP3    H231626   6.537   5.653   2.919
10581TIP3   OH231627   7.759   6.295   3.494
10581TIP3    H131628   7.789   6.223   3.434
10581TIP3    H231629   7.728   6.242   3.570
10582TIP3   OH231630   7.422   5.758   3.165
10582TIP3    H131631   7.340   5.754   3.219
10582TIP3    H231632   7.491   5.753   3.233
10583TIP3   OH231633   6.857   5.811   3.173
10583TIP3    H131634   6.763   5.817   3.145
10583TIP3    H231635   6.883   5.721   3.148
10584TIP3   OH231636   7.129   5.808   2.859
10584TIP3    H131637   7.223   5.824   2.839
10584TIP3    H231638   7.082   5.832   2.776
10585TIP3   OH231639   7.915   5.832   3.366
10585TIP3    H131640   7.880   5.842   3.457
10585TIP3    H231641   7.851   5.769   3.329
10586TIP3   OH231642   6.967   5.839   2.638
10586TIP3    H131643   6.896   5.796   2.587
10586TIP3    H231644   7.020   5.878   2.565
10587TIP3   OH231645   8.084   7.520   3.584
10587TIP3    H131646   8.081   7.543   3.489
10587TIP3    H231647   8.161   7.571   3.614
10588TIP3   OH231648   7.041   6.629   4.008
10588TIP3    H131649   7.122   6.661   4.053
10588TIP3    H231650   6.977   6.633   4.081
10589TIP3   OH231651   7.507   6.085   3.263
10589TIP3    H131652   7.577   6.040   3.214
10589TIP3    H231653   7.512   6.043   3.351
10590TIP3   OH231654   7.028   5.573   3.137
10590TIP3    H131655   6.998   5.492   3.183
10590TIP3    H231656   7.083   5.538   3.067
10591TIP3   OH231657   7.487   5.987   3.536
10591TIP3    H131658   7.395   6.010   3.563
10591TIP3    H231659   7.541   6.038   3.599
10592TIP3   OH231660   7.214   6.364   2.648
10592TIP3    H131661   7.138   6.302   2.638
10592TIP3    H231662   7.198   6.401   2.738
10593TIP3   OH231663   8.119   6.607   3.277
10593TIP3    H131664   8.140   6.655   3.194
10593TIP3    H231665   8.033   6.565   3.255
10594TIP3   OH231666   7.679   5.683   2.508
10594TIP3    H131667   7.582   5.669   2.513
10594TIP3    H231668   7.688   5.779   2.528
10595TIP3   OH231669   7.622   6.691   3.643
10595TIP3    H131670   7.640   6.667   3.734
10595TIP3    H231671   7.581   6.778   3.650
10596TIP3   OH231672   7.748   5.930   2.611
10596TIP3    H131673   7.845   5.940   2.624
10596TIP3    H231674   7.726   6.009   2.558
10597TIP3   OH231675   6.910   6.391   3.323
10597TIP3    H131676   6.948   6.366   3.236
10597TIP3    H231677   6.955   6.329   3.382
10598TIP3   OH231678   7.385   6.531   2.509
10598TIP3    H131679   7.332   6.610   2.485
10598TIP3    H231680   7.316   6.469   2.537
10599TIP3   OH231681   6.789   6.314   3.937
10599TIP3    H131682   6.808   6.296   4.031
10599TIP3    H231683   6.722   6.247   3.917
10600TIP3   OH231684   7.517   6.426   3.957
10600TIP3    H131685   7.460   6.371   3.901
10600TIP3    H231686   7.605   6.395   3.929
10601TIP3   OH231687   7.782   6.950   3.539
10601TIP3    H131688   7.685   6.947   3.549
10601TIP3    H231689   7.807   7.002   3.618
10602TIP3   OH231690   8.195   6.021   2.446
10602TIP3    H131691   8.132   5.974   2.386
10602TIP3    H231692   8.188   6.109   2.404
10603TIP3   OH231693   8.409   6.878   3.528
10603TIP3    H131694   8.311   6.872   3.520
10603TIP3    H231695   8.434   6.849   3.437
10604TIP3   OH231696   7.903   6.835   2.358
10604TIP3    H131697   7.857   6.769   2.412
10604TIP3    H231698   7.894   6.797   2.268
10605TIP3   OH231699   7.886   6.468   3.198
10605TIP3    H131700   7.793   6.443   3.210
10605TIP3    H231701   7.920   6.389   3.150
10606TIP3   OH231702   7.013   6.698   2.952
10606TIP3    H131703   7.019   6.777   2.895
10606TIP3    H231704   6.918   6.681   2.950
10607TIP3   OH231705   6.576   6.001   2.648
10607TIP3    H131706   6.623   6.085   2.668
10607TIP3    H231707   6.499   6.009   2.709
10608TIP3   OH231708   7.152   6.463   2.895
10608TIP3    H131709   7.120   6.554   2.910
10608TIP3    H231710   7.112   6.415   2.970
10609TIP3   OH231711   7.281   7.041   3.417
10609TIP3    H131712   7.320   7.113   3.364
10609TIP3    H231713   7.360   7.008   3.464
10610TIP3   OH231714   6.934   6.935   2.802
10610TIP3    H131715   6.847   6.945   2.845
10610TIP3    H231716   6.966   7.028   2.803
10611TIP3   OH231717   7.672   6.676   3.374
10611TIP3    H131718   7.663   6.673   3.472
10611TIP3    H231719   7.749   6.619   3.360
10612TIP3   OH231720   7.920   7.210   3.425
10612TIP3    H131721   7.841   7.153   3.417
10612TIP3    H231722   7.904   7.274   3.352
10613TIP3   OH231723   7.986   7.044   2.076
10613TIP3    H131724   8.016   7.118   2.021
10613TIP3    H231725   7.904   7.083   2.112
10614TIP3   OH231726   6.997   5.824   3.945
10614TIP3    H131727   6.900   5.836   3.948
10614TIP3    H231728   7.005   5.736   3.986
10615TIP3   OH231729   7.814   6.522   2.500
10615TIP3    H131730   7.795   6.440   2.549
10615TIP3    H231731   7.903   6.504   2.464
10616TIP3   OH231732   6.719   6.905   3.576
10616TIP3    H131733   6.772   6.829   3.604
10616TIP3    H231734   6.753   6.974   3.636
10617TIP3   OH231735   7.014   6.546   2.256
10617TIP3    H131736   7.026   6.454   2.228
10617TIP3    H231737   6.995   6.535   2.351
10618TIP3   OH231738   6.956   6.552   2.532
10618TIP3    H131739   7.035   6.528   2.582
10618TIP3    H231740   6.960   6.650   2.536
10619TIP3   OH231741   6.692   6.246   2.732
10619TIP3    H131742   6.627   6.293   2.788
10619TIP3    H231743   6.710   6.315   2.665
10620TIP3   OH231744   7.840   5.879   3.626
10620TIP3    H131745   7.919   5.913   3.670
10620TIP3    H231746   7.819   5.800   3.680
10621TIP3   OH231747   7.721   5.635   2.787
10621TIP3    H131748   7.706   5.659   2.693
10621TIP3    H231749   7.759   5.718   2.823
10622TIP3   OH231750   7.219   6.748   2.478
10622TIP3    H131751   7.133   6.782   2.508
10622TIP3    H231752   7.240   6.812   2.408
10623TIP3   OH231753   7.411   5.813   2.891
10623TIP3    H131754   7.475   5.885   2.872
10623TIP3    H231755   7.416   5.807   2.989
10624TIP3   OH231756   7.680   6.134   3.700
10624TIP3    H131757   7.700   6.187   3.780
10624TIP3    H231758   7.734   6.054   3.714
10625TIP3   OH231759   7.556   5.542   2.994
10625TIP3    H131760   7.551   5.618   3.055
10625TIP3    H231761   7.616   5.579   2.925
10626TIP3   OH231762   6.960   6.825   2.545
10626TIP3    H131763   6.935   6.895   2.481
10626TIP3    H231764   6.948   6.871   2.631
10627TIP3   OH231765   7.066   5.539   2.784
10627TIP3    H131766   7.064   5.630   2.819
10627TIP3    H231767   7.162   5.521   2.792
10628TIP3   OH231768   8.323   6.033   3.674
10628TIP3    H131769   8.225   6.035   3.687
10628TIP3    H231770   8.326   5.983   3.592
10629TIP3   OH231771   7.972   6.227   3.067
10629TIP3    H131772   7.894   6.170   3.078
10629TIP3    H231773   8.041   6.178   3.117
10630TIP3   OH231774   6.682   6.459   2.539
10630TIP3    H131775   6.749   6.529   2.547
10630TIP3    H231776   6.728   6.404   2.471
10631TIP3   OH231777   6.628   5.731   2.672
10631TIP3    H131778   6.630   5.829   2.667
10631TIP3    H231779   6.545   5.711   2.627
10632TIP3   OH231780   7.940   7.183   3.019
10632TIP3    H131781   7.895   7.229   2.944
10632TIP3    H231782   8.033   7.201   2.996
10633TIP3   OH231783   7.012   5.453   3.546
10633TIP3    H131784   6.985   5.422   3.457
10633TIP3    H231785   7.005   5.372   3.600
10634TIP3   OH231786   6.557   6.671   2.929
10634TIP3    H131787   6.480   6.703   2.978
10634TIP3    H231788   6.538   6.709   2.840
10635TIP3   OH231789   6.710   7.211   3.998
10635TIP3    H131790   6.797   7.210   4.044
10635TIP3    H231791   6.690   7.116   3.995
10636TIP3   OH231792   7.194   7.177   4.042
10636TIP3    H131793   7.288   7.158   4.048
10636TIP3    H231794   7.168   7.120   3.967
10637TIP3   OH231795   7.188   6.745   2.168
10637TIP3    H131796   7.132   6.674   2.205
10637TIP3    H231797   7.270   6.696   2.147
10638TIP3   OH231798   7.831   7.084   3.775
10638TIP3    H131799   7.823   7.013   3.842
10638TIP3    H231800   7.910   7.133   3.806
10639TIP3   OH231801   7.639   6.813   2.097
10639TIP3    H131802   7.587   6.731   2.102
10639TIP3    H231803   7.668   6.809   2.005
10640TIP3   OH231804   6.841   6.614   4.201
10640TIP3    H131805   6.858   6.518   4.192
10640TIP3    H231806   6.754   6.621   4.155
10641TIP3   OH231807   6.816   6.268   2.392
10641TIP3    H131808   6.874   6.237   2.464
10641TIP3    H231809   6.882   6.273   2.319
10642TIP3   OH231810   7.449   6.702   3.971
10642TIP3    H131811   7.408   6.718   3.884
10642TIP3    H231812   7.481   6.609   3.963
10643TIP3   OH231813   7.944   6.710   3.577
10643TIP3    H131814   8.016   6.758   3.533
10643TIP3    H231815   7.870   6.772   3.565
10644TIP3   OH231816   6.960   6.353   4.183
10644TIP3    H131817   7.037   6.305   4.148
10644TIP3    H231818   6.992   6.384   4.269
10645TIP3   OH231819   7.019   6.169   2.611
10645TIP3    H131820   7.000   6.124   2.695
10645TIP3    H231821   7.060   6.097   2.559
10646TIP3   OH231822   7.295   6.238   3.842
10646TIP3    H131823   7.218   6.299   3.844
10646TIP3    H231824   7.344   6.269   3.763
10647TIP3   OH231825   7.128   5.964   2.455
10647TIP3    H131826   7.102   5.968   2.360
10647TIP3    H231827   7.225   5.973   2.447
10648TIP3   OH231828   7.812   6.639   3.976
10648TIP3    H131829   7.892   6.616   3.926
10648TIP3    H231830   7.811   6.571   4.045
10649TIP3   OH231831   7.964   6.299   2.109
10649TIP3    H131832   7.929   6.252   2.031
10649TIP3    H231833   7.924   6.388   2.093
10650TIP3   OH231834   7.412   6.026   3.976
10650TIP3    H131835   7.419   5.947   3.917
10650TIP3    H231836   7.374   6.091   3.913
10651TIP3   OH231837   7.415   5.834   3.782
10651TIP3    H131838   7.454   5.841   3.693
10651TIP3    H231839   7.334   5.784   3.764
10652TIP3   OH231840   7.450   6.351   3.651
10652TIP3    H131841   7.530   6.351   3.598
10652TIP3    H231842   7.394   6.416   3.604
10653TIP3   OH231843   8.032   6.315   4.030
10653TIP3    H131844   8.077   6.230   4.040
10653TIP3    H231845   8.102   6.371   3.994
10654TIP3   OH231846   8.073   6.568   3.766
10654TIP3    H131847   8.015   6.620   3.706
10654TIP3    H231848   8.160   6.586   3.724
10655TIP3   OH231849   7.290   6.142   4.200
10655TIP3    H131850   7.225   6.070   4.207
10655TIP3    H231851   7.331   6.122   4.114
10656TIP3   OH231852   7.679   6.082   4.056
10656TIP3    H131853   7.672   6.067   4.152
10656TIP3    H231854   7.589   6.053   4.028
10657TIP3   OH231855   7.921   6.031   3.912
10657TIP3    H131856   7.844   6.028   3.972
10657TIP3    H231857   7.993   5.997   3.969
10658TIP3   OH231858   8.152   5.970   4.063
10658TIP3    H131859   8.162   5.874   4.082
10658TIP3    H231860   8.145   6.008   4.153
10659TIP3   OH231861   7.139   5.920   4.254
10659TIP3    H131862   7.178   5.855   4.194
10659TIP3    H231863   7.179   5.894   4.340
10660TIP3   OH231864   7.665   5.582   4.048
10660TIP3    H131865   7.734   5.516   4.068
10660TIP3    H231866   7.594   5.518   4.023
10661TIP3   OH231867   7.713   5.793   4.247
10661TIP3    H131868   7.694   5.726   4.177
10661TIP3    H231869   7.636   5.852   4.242
10662TIP3   OH231870   6.936   7.026   2.362
10662TIP3    H131871   7.031   7.023   2.339
10662TIP3    H231872   6.904   7.074   2.283
10663TIP3   OH231873   6.415   6.409   2.577
10663TIP3    H131874   6.509   6.433   2.561
10663TIP3    H231875   6.410   6.321   2.533
10664TIP3   OH231876   6.326   7.023   2.987
10664TIP3    H131877   6.260   6.960   2.952
10664TIP3    H231878   6.372   6.966   3.053
10665TIP3   OH231879   6.464   6.876   3.173
10665TIP3    H131880   6.454   6.801   3.233
10665TIP3    H231881   6.516   6.937   3.229
10666TIP3   OH231882   8.195   7.268   2.973
10666TIP3    H131883   8.217   7.305   3.060
10666TIP3    H231884   8.248   7.323   2.914
10667TIP3   OH231885   8.223   7.295   3.255
10667TIP3    H131886   8.178   7.208   3.250
10667TIP3    H231887   8.296   7.273   3.314
10668TIP3   OH231888   8.268   6.972   3.827
10668TIP3    H131889   8.195   6.979   3.892
10668TIP3    H231890   8.309   7.061   3.833
10669TIP3   OH231891   8.089   6.479   2.446
10669TIP3    H131892   8.152   6.549   2.419
10669TIP3    H231893   8.130   6.444   2.527
10670TIP3   OH231894   8.213   6.356   2.661
10670TIP3    H131895   8.141   6.304   2.702
10670TIP3    H231896   8.237   6.416   2.732
10671TIP3   OH231897   8.268   6.744   3.088
10671TIP3    H131898   8.309   6.685   3.023
10671TIP3    H231899   8.250   6.823   3.034
10672TIP3   OH231900   8.098   7.045   3.281
10672TIP3    H131901   8.027   7.088   3.332
10672TIP3    H231902   8.046   6.997   3.212
10673TIP3   OH231903   8.152   6.257   2.300
10673TIP3    H131904   8.082   6.259   2.230
10673TIP3    H231905   8.122   6.335   2.352
10674TIP3   OH231906   8.028   5.931   2.253
10674TIP3    H131907   7.975   5.976   2.186
10674TIP3    H231908   7.998   5.838   2.240
10675TIP3   OH231909   8.031   6.207   2.798
10675TIP3    H131910   8.032   6.110   2.792
10675TIP3    H231911   8.014   6.221   2.894
10676TIP3   OH231912   6.652   6.281   3.546
10676TIP3    H131913   6.651   6.252   3.452
10676TIP3    H231914   6.750   6.284   3.562
10677TIP3   OH231915   8.315   6.633   3.656
10677TIP3    H131916   8.387   6.567   3.647
10677TIP3    H231917   8.343   6.703   3.595
10678TIP3   OH231918   8.501   6.440   3.672
10678TIP3    H131919   8.426   6.389   3.710
10678TIP3    H231920   8.574   6.375   3.687
10679TIP3   OH231921   7.966   5.665   2.239
10679TIP3    H131922   8.038   5.635   2.298
10679TIP3    H231923   7.890   5.609   2.265
10680TIP3   OH231924   8.024   5.926   2.697
10680TIP3    H131925   8.063   5.837   2.712
10680TIP3    H231926   8.080   5.957   2.623
10681TIP3   OH231927   8.184   6.098   3.190
10681TIP3    H131928   8.268   6.128   3.149
10681TIP3    H231929   8.195   6.134   3.280
10682TIP3   OH231930   8.251   6.242   3.422
10682TIP3    H131931   8.173   6.274   3.471
10682TIP3    H231932   8.282   6.324   3.379
10683TIP3   OH231933   6.871   5.973   4.231
10683TIP3    H131934   6.967   5.956   4.221
10683TIP3    H231935   6.842   5.888   4.268
10684TIP3   OH231936   8.706   5.834   3.978
10684TIP3    H131937   8.763   5.766   3.935
10684TIP3    H231938   8.678   5.889   3.901
10685TIP3   OH231939   8.132   5.674   2.731
10685TIP3    H131940   8.178   5.657   2.816
10685TIP3    H231941   8.070   5.598   2.729
10686TIP3   OH231942   6.831   5.662   3.553
10686TIP3    H131943   6.893   5.587   3.562
10686TIP3    H231944   6.894   5.736   3.545
10687TIP3   OH231945   6.635   5.935   3.625
10687TIP3    H131946   6.684   5.926   3.541
10687TIP3    H231947   6.664   6.022   3.654
10688TIP3   OH231948   8.577   5.974   3.783
10688TIP3    H131949   8.490   6.012   3.805
10688TIP3    H231950   8.549   5.901   3.725
10689TIP3   OH231951   8.214   5.609   2.366
10689TIP3    H131952   8.252   5.537   2.312
10689TIP3    H231953   8.280   5.680   2.354
10690TIP3   OH231954   6.616   5.436   3.124
10690TIP3    H131955   6.523   5.438   3.150
10690TIP3    H231956   6.617   5.495   3.046
10691TIP3   OH231957   7.782   7.138   2.635
10691TIP3    H131958   7.827   7.120   2.550
10691TIP3    H231959   7.834   7.211   2.670
10692TIP3   OH231960   6.823   5.538   3.962
10692TIP3    H131961   6.763   5.490   4.019
10692TIP3    H231962   6.763   5.569   3.891
10693TIP3   OH231963   6.878   6.942   4.017
10693TIP3    H131964   6.786   6.916   3.999
10693TIP3    H231965   6.884   6.930   4.113
10694TIP3   OH231966   7.055   6.977   3.566
10694TIP3    H131967   7.006   7.052   3.526
10694TIP3    H231968   7.140   6.990   3.520
10695TIP3   OH231969   7.501   7.222   3.703
10695TIP3    H131970   7.543   7.223   3.791
10695TIP3    H231971   7.567   7.272   3.650
10696TIP3   OH231972   7.679   7.373   3.561
10696TIP3    H131973   7.750   7.322   3.518
10696TIP3    H231974   7.731   7.430   3.621
10697TIP3   OH231975   8.474   5.735   3.660
10697TIP3    H131976   8.382   5.727   3.630
10697TIP3    H231977   8.505   5.642   3.649
10698TIP3   OH231978   6.732   7.234   3.588
10698TIP3    H131979   6.644   7.268   3.562
10698TIP3    H231980   6.740   7.270   3.677
10699TIP3   OH231981   6.969   7.213   3.445
10699TIP3    H131982   6.882   7.226   3.490
10699TIP3    H231983   6.949   7.246   3.355
10700TIP3   OH231984   7.394   7.242   3.244
10700TIP3    H131985   7.326   7.261   3.176
10700TIP3    H231986   7.407   7.330   3.285
10701TIP3   OH231987   7.662   7.183   3.295
10701TIP3    H131988   7.567   7.197   3.275
10701TIP3    H231989   7.702   7.259   3.250
10702TIP3   OH231990   7.875   7.376   3.210
10702TIP3    H131991   7.857   7.460   3.163
10702TIP3    H231992   7.896   7.315   3.136
10703TIP3   OH231993   6.642   7.028   3.333
10703TIP3    H131994   6.670   7.003   3.424
10703TIP3    H231995   6.714   6.986   3.282
10704TIP3   OH231996   6.835   6.900   3.190
10704TIP3    H131997   6.853   6.815   3.236
10704TIP3    H231998   6.926   6.938   3.183
10705TIP3   OH231999   7.101   6.996   3.191
10705TIP3    H132000   7.134   6.906   3.174
10705TIP3    H232001   7.146   7.015   3.276
10706TIP3   OH232002   7.677   5.650   3.276
10706TIP3    H132003   7.635   5.584   3.334
10706TIP3    H232004   7.749   5.600   3.236
10707TIP3   OH232005   8.204   5.532   3.185
10707TIP3    H132006   8.238   5.584   3.109
10707TIP3    H232007   8.108   5.548   3.179
10708TIP3   OH232008   8.298   5.634   2.949
10708TIP3    H132009   8.371   5.582   2.908
10708TIP3    H232010   8.331   5.726   2.933
10709TIP3   OH232011   6.928   5.360   3.297
10709TIP3    H132012   6.836   5.326   3.296
10709TIP3    H232013   6.978   5.275   3.293
10710TIP3   OH232014   6.711   5.229   2.942
10710TIP3    H132015   6.745   5.286   2.871
10710TIP3    H232016   6.684   5.294   3.010
10711TIP3   OH232017   7.369   5.393   3.178
10711TIP3    H132018   7.430   5.443   3.120
10711TIP3    H232019   7.390   5.429   3.265
10712TIP3   OH232020   7.923   5.539   3.160
10712TIP3    H132021   7.914   5.503   3.072
10712TIP3    H232022   7.906   5.459   3.216
10713TIP3   OH232023   7.948   5.461   2.722
10713TIP3    H132024   7.861   5.504   2.733
10713TIP3    H232025   7.933   5.376   2.770
10714TIP3   OH232026   6.430   6.800   2.728
10714TIP3    H132027   6.346   6.767   2.690
10714TIP3    H232028   6.420   6.894   2.707
10715TIP3   OH232029   6.830   5.388   2.709
10715TIP3    H132030   6.880   5.327   2.651
10715TIP3    H232031   6.903   5.444   2.745
10716TIP3   OH232032   7.343   5.563   2.807
10716TIP3    H132033   7.404   5.518   2.867
10716TIP3    H232034   7.364   5.656   2.831
10717TIP3   OH232035   7.205   6.987   2.305
10717TIP3    H132036   7.292   7.014   2.268
10717TIP3    H232037   7.186   6.912   2.244
10718TIP3   OH232038   7.925   7.105   2.399
10718TIP3    H132039   7.918   7.007   2.386
10718TIP3    H232040   7.876   7.137   2.320
10719TIP3   OH232041   6.506   6.821   2.364
10719TIP3    H132042   6.512   6.855   2.454
10719TIP3    H232043   6.595   6.781   2.350
10720TIP3   OH232044   8.209   5.700   4.095
10720TIP3    H132045   8.227   5.668   4.186
10720TIP3    H232046   8.297   5.693   4.053
10721TIP3   OH232047   8.150   7.251   3.586
10721TIP3    H132048   8.070   7.219   3.539
10721TIP3    H232049   8.129   7.347   3.589
10722TIP3   OH232050   9.416   6.617   2.349
10722TIP3    H132051   9.396   6.710   2.330
10722TIP3    H232052   9.338   6.573   2.311
10723TIP3   OH232053   9.365   6.625   2.746
10723TIP3    H132054   9.429   6.607   2.817
10723TIP3    H232055   9.377   6.549   2.688
10724TIP3   OH232056   8.689   6.937   2.823
10724TIP3    H132057   8.677   6.842   2.829
10724TIP3    H232058   8.786   6.945   2.814
10725TIP3   OH232059   8.390   6.146   2.623
10725TIP3    H132060   8.328   6.221   2.623
10725TIP3    H232061   8.334   6.077   2.584
10726TIP3   OH232062   8.496   6.411   2.782
10726TIP3    H132063   8.475   6.318   2.775
10726TIP3    H232064   8.501   6.436   2.688
10727TIP3   OH232065   9.297   7.376   2.443
10727TIP3    H132066   9.341   7.297   2.409
10727TIP3    H232067   9.288   7.352   2.537
10728TIP3   OH232068   9.207   6.850   2.783
10728TIP3    H132069   9.249   6.766   2.754
10728TIP3    H232070   9.289   6.900   2.801
10729TIP3   OH232071   9.627   6.374   2.814
10729TIP3    H132072   9.627   6.279   2.836
10729TIP3    H232073   9.608   6.368   2.719
10730TIP3   OH232074   8.957   6.015   2.781
10730TIP3    H132075   8.938   6.077   2.708
10730TIP3    H232076   8.916   5.934   2.743
10731TIP3   OH232077   9.645   6.098   2.425
10731TIP3    H132078   9.720   6.060   2.473
10731TIP3    H232079   9.691   6.155   2.361
10732TIP3   OH232080   9.029   6.382   2.715
10732TIP3    H132081   9.128   6.381   2.714
10732TIP3    H232082   9.010   6.316   2.645
10733TIP3   OH232083   8.957   6.000   3.210
10733TIP3    H132084   8.884   6.021   3.150
10733TIP3    H232085   8.912   6.012   3.296
10734TIP3   OH232086   9.312   6.852   2.220
10734TIP3    H132087   9.265   6.822   2.142
10734TIP3    H232088   9.264   6.934   2.242
10735TIP3   OH232089   9.063   6.763   3.016
10735TIP3    H132090   9.000   6.830   3.049
10735TIP3    H232091   9.103   6.809   2.940
10736TIP3   OH232092   8.821   6.113   2.994
10736TIP3    H132093   8.889   6.173   3.027
10736TIP3    H232094   8.867   6.067   2.920
10737TIP3   OH232095   8.890   6.962   3.104
10737TIP3    H132096   8.867   7.050   3.067
10737TIP3    H232097   8.813   6.949   3.164
10738TIP3   OH232098   8.292   6.652   2.344
10738TIP3    H132099   8.243   6.673   2.261
10738TIP3    H232100   8.315   6.741   2.376
10739TIP3   OH232101   9.310   5.713   2.924
10739TIP3    H132102   9.305   5.617   2.939
10739TIP3    H232103   9.231   5.744   2.974
10740TIP3   OH232104   9.430   7.216   2.251
10740TIP3    H132105   9.499   7.151   2.269
10740TIP3    H232106   9.480   7.299   2.242
10741TIP3   OH232107   9.240   6.475   2.178
10741TIP3    H132108   9.158   6.526   2.164
10741TIP3    H232109   9.280   6.477   2.090
10742TIP3   OH232110   9.202   6.260   1.899
10742TIP3    H132111   9.267   6.298   1.960
10742TIP3    H232112   9.258   6.193   1.854
10743TIP3   OH232113   8.824   6.545   2.577
10743TIP3    H132114   8.775   6.495   2.508
10743TIP3    H232115   8.906   6.496   2.585
10744TIP3   OH232116   8.953   6.962   2.722
10744TIP3    H132117   8.941   6.922   2.635
10744TIP3    H232118   9.044   6.933   2.744
10745TIP3   OH232119   9.446   7.170   2.695
10745TIP3    H132120   9.479   7.246   2.746
10745TIP3    H232121   9.465   7.095   2.754
10746TIP3   OH232122   9.096   7.082   3.252
10746TIP3    H132123   9.037   7.145   3.297
10746TIP3    H232124   9.032   7.029   3.201
10747TIP3   OH232125   9.445   6.422   1.987
10747TIP3    H132126   9.489   6.483   2.048
10747TIP3    H232127   9.469   6.458   1.900
10748TIP3   OH232128   8.851   6.638   3.349
10748TIP3    H132129   8.858   6.725   3.394
10748TIP3    H232130   8.756   6.619   3.364
10749TIP3   OH232131   9.171   7.094   2.253
10749TIP3    H132132   9.243   7.152   2.282
10749TIP3    H232133   9.106   7.156   2.218
10750TIP3   OH232134   8.893   7.254   3.337
10750TIP3    H132135   8.858   7.251   3.246
10750TIP3    H232136   8.813   7.231   3.390
10751TIP3   OH232137   8.688   6.399   2.380
10751TIP3    H132138   8.624   6.444   2.322
10751TIP3    H232139   8.651   6.310   2.383
10752TIP3   OH232140   8.473   6.781   3.282
10752TIP3    H132141   8.400   6.759   3.220
10752TIP3    H232142   8.503   6.693   3.313
10753TIP3   OH232143   8.329   6.974   2.921
10753TIP3    H132144   8.424   6.987   2.913
10753TIP3    H232145   8.303   7.055   2.968
10754TIP3   OH232146   9.296   7.211   3.108
10754TIP3    H132147   9.295   7.304   3.140
10754TIP3    H232148   9.225   7.172   3.163
10755TIP3   OH232149   9.056   7.351   2.054
10755TIP3    H132150   9.006   7.324   1.975
10755TIP3    H232151   9.015   7.435   2.079
10756TIP3   OH232152   8.496   7.192   2.440
10756TIP3    H132153   8.541   7.181   2.526
10756TIP3    H232154   8.435   7.116   2.442
10757TIP3   OH232155   9.266   7.246   1.714
10757TIP3    H132156   9.331   7.180   1.688
10757TIP3    H232157   9.293   7.263   1.807
10758TIP3   OH232158   9.306   7.288   1.982
10758TIP3    H132159   9.215   7.303   2.015
10758TIP3    H232160   9.343   7.235   2.055
10759TIP3   OH232161   8.678   6.965   3.273
10759TIP3    H132162   8.728   6.949   3.356
10759TIP3    H232163   8.604   6.901   3.282
10760TIP3   OH232164   9.074   5.790   3.056
10760TIP3    H132165   8.985   5.757   3.031
10760TIP3    H232166   9.049   5.871   3.103
10761TIP3   OH232167   9.604   5.905   3.257
10761TIP3    H132168   9.650   5.884   3.340
10761TIP3    H232169   9.511   5.885   3.283
10762TIP3   OH232170   9.230   5.839   2.028
10762TIP3    H132171   9.198   5.838   2.121
10762TIP3    H232172   9.187   5.757   1.996
10763TIP3   OH232173   8.967   6.359   3.036
10763TIP3    H132174   8.927   6.339   3.125
10763TIP3    H232175   9.033   6.424   3.064
10764TIP3   OH232176   8.888   6.192   2.586
10764TIP3    H132177   8.797   6.158   2.602
10764TIP3    H232178   8.905   6.152   2.497
10765TIP3   OH232179   9.376   6.271   2.308
10765TIP3    H132180   9.327   6.347   2.271
10765TIP3    H232181   9.438   6.248   2.237
10766TIP3   OH232182   9.559   6.558   3.403
10766TIP3    H132183   9.533   6.486   3.465
10766TIP3    H232184   9.654   6.565   3.424
10767TIP3   OH232185   9.515   6.303   2.570
10767TIP3    H132186   9.491   6.351   2.490
10767TIP3    H232187   9.557   6.225   2.529
10768TIP3   OH232188   8.842   6.314   3.274
10768TIP3    H132189   8.845   6.391   3.333
10768TIP3    H232190   8.824   6.242   3.338
10769TIP3   OH232191   8.881   5.812   1.993
10769TIP3    H132192   8.871   5.807   2.090
10769TIP3    H232193   8.799   5.860   1.969
10770TIP3   OH232194   8.420   5.861   2.862
10770TIP3    H132195   8.500   5.884   2.914
10770TIP3    H232196   8.455   5.818   2.782
10771TIP3   OH232197   8.396   5.837   2.384
10771TIP3    H132198   8.440   5.877   2.305
10771TIP3    H232199   8.333   5.909   2.404
10772TIP3   OH232200   9.521   6.560   2.978
10772TIP3    H132201   9.576   6.503   2.920
10772TIP3    H232202   9.514   6.503   3.056
10773TIP3   OH232203   9.215   6.014   2.650
10773TIP3    H132204   9.136   6.007   2.707
10773TIP3    H232205   9.287   6.018   2.716
10774TIP3   OH232206   8.658   6.072   2.654
10774TIP3    H132207   8.561   6.081   2.645
10774TIP3    H232208   8.674   5.977   2.639
10775TIP3   OH232209   8.923   6.068   2.348
10775TIP3    H132210   9.018   6.078   2.329
10775TIP3    H232211   8.879   6.089   2.263
10776TIP3   OH232212   9.609   6.106   2.857
10776TIP3    H132213   9.610   6.107   2.954
10776TIP3    H232214   9.557   6.026   2.835
10777TIP3   OH232215   8.763   6.100   2.127
10777TIP3    H132216   8.690   6.054   2.082
10777TIP3    H232217   8.814   6.132   2.050
10778TIP3   OH232218   8.838   6.887   3.492
10778TIP3    H132219   8.918   6.917   3.540
10778TIP3    H232220   8.774   6.885   3.566
10779TIP3   OH232221   9.295   6.324   2.743
10779TIP3    H132222   9.371   6.307   2.683
10779TIP3    H232223   9.331   6.295   2.828
10780TIP3   OH232224   8.831   5.826   2.628
10780TIP3    H132225   8.794   5.747   2.672
10780TIP3    H232226   8.883   5.788   2.557
10781TIP3   OH232227   9.282   6.231   3.052
10781TIP3    H132228   9.205   6.289   3.050
10781TIP3    H232229   9.350   6.289   3.093
10782TIP3   OH232230   9.014   6.628   2.136
10782TIP3    H132231   8.942   6.562   2.123
10782TIP3    H232232   8.994   6.660   2.227
10783TIP3   OH232233   9.470   5.959   1.973
10783TIP3    H132234   9.382   5.930   2.007
10783TIP3    H232235   9.487   6.042   2.024
10784TIP3   OH232236   9.414   6.943   3.133
10784TIP3    H132237   9.428   6.928   3.227
10784TIP3    H232238   9.380   7.034   3.131
10785TIP3   OH232239   9.560   6.193   2.087
10785TIP3    H132240   9.651   6.218   2.110
10785TIP3    H232241   9.530   6.270   2.034
10786TIP3   OH232242   9.158   6.777   1.956
10786TIP3    H132243   9.113   6.864   1.963
10786TIP3    H232244   9.101   6.722   2.015
10787TIP3   OH232245   8.588   6.569   3.421
10787TIP3    H132246   8.610   6.558   3.515
10787TIP3    H232247   8.517   6.503   3.410
10788TIP3   OH232248   9.314   6.685   3.441
10788TIP3    H132249   9.256   6.623   3.393
10788TIP3    H232250   9.403   6.652   3.414
10789TIP3   OH232251   9.579   7.210   3.026
10789TIP3    H132252   9.482   7.205   3.026
10789TIP3    H232253   9.596   7.262   3.107
10790TIP3   OH232254   8.807   6.953   2.432
10790TIP3    H132255   8.809   7.035   2.380
10790TIP3    H232256   8.712   6.939   2.439
10791TIP3   OH232257   8.373   6.258   2.137
10791TIP3    H132258   8.416   6.343   2.157
10791TIP3    H232259   8.294   6.264   2.195
10792TIP3   OH232260   8.945   6.718   2.382
10792TIP3    H132261   8.912   6.809   2.395
10792TIP3    H232262   8.906   6.673   2.459
10793TIP3   OH232263   9.078   7.297   2.903
10793TIP3    H132264   9.121   7.369   2.852
10793TIP3    H232265   9.155   7.259   2.949
10794TIP3   OH232266   8.730   7.191   2.288
10794TIP3    H132267   8.643   7.198   2.331
10794TIP3    H232268   8.760   7.285   2.290
10795TIP3   OH232269   9.465   6.936   2.860
10795TIP3    H132270   9.459   6.935   2.958
10795TIP3    H232271   9.539   6.876   2.845
10796TIP3   OH232272   8.802   6.073   3.432
10796TIP3    H132273   8.705   6.079   3.447
10796TIP3    H232274   8.829   6.014   3.503
10797TIP3   OH232275   8.521   7.161   3.061
10797TIP3    H132276   8.570   7.087   3.100
10797TIP3    H232277   8.544   7.232   3.123
10798TIP3   OH232278   8.808   6.804   1.742
10798TIP3    H132279   8.820   6.712   1.713
10798TIP3    H232280   8.790   6.792   1.837
10799TIP3   OH232281   8.756   6.810   2.014
10799TIP3    H132282   8.822   6.783   2.079
10799TIP3    H232283   8.759   6.908   2.022
10800TIP3   OH232284   8.491   6.506   2.219
10800TIP3    H132285   8.423   6.549   2.275
10800TIP3    H232286   8.503   6.575   2.150
10801TIP3   OH232287   9.657   6.145   3.137
10801TIP3    H132288   9.697   6.189   3.214
10801TIP3    H232289   9.627   6.061   3.179
10802TIP3   OH232290   9.482   5.918   2.276
10802TIP3    H132291   9.515   5.910   2.186
10802TIP3    H232292   9.547   5.977   2.318
10803TIP3   OH232293   9.020   7.011   1.966
10803TIP3    H132294   8.933   7.036   2.001
10803TIP3    H232295   9.030   7.076   1.895
10804TIP3   OH232296   9.200   6.072   2.379
10804TIP3    H132297   9.271   6.137   2.359
10804TIP3    H232298   9.210   6.062   2.476
10805TIP3   OH232299   9.476   6.385   3.188
10805TIP3    H132300   9.492   6.444   3.264
10805TIP3    H232301   9.540   6.314   3.205
10806TIP3   OH232302   9.350   5.800   2.483
10806TIP3    H132303   9.345   5.877   2.542
10806TIP3    H232304   9.403   5.838   2.410
10807TIP3   OH232305   8.763   7.083   2.032
10807TIP3    H132306   8.732   7.151   1.968
10807TIP3    H232307   8.744   7.126   2.118
10808TIP3   OH232308   8.863   5.795   2.269
10808TIP3    H132309   8.859   5.885   2.308
10808TIP3    H232310   8.959   5.778   2.278
10809TIP3   OH232311   8.482   6.714   2.026
10809TIP3    H132312   8.543   6.788   2.031
10809TIP3    H232313   8.527   6.660   1.957
10810TIP3   OH232314   8.426   5.988   2.156
10810TIP3    H132315   8.421   6.086   2.153
10810TIP3    H232316   8.340   5.964   2.119
10811TIP3   OH232317   8.809   5.712   3.033
10811TIP3    H132318   8.779   5.676   2.946
10811TIP3    H232319   8.801   5.633   3.091
10812TIP3   OH232320   8.353   6.930   2.415
10812TIP3    H132321   8.276   6.957   2.468
10812TIP3    H232322   8.327   6.968   2.328
10813TIP3   OH232323   8.507   7.467   3.483
10813TIP3    H132324   8.593   7.466   3.530
10813TIP3    H232325   8.485   7.373   3.482
10814TIP3   OH232326   8.992   7.436   3.526
10814TIP3    H132327   9.085   7.412   3.535
10814TIP3    H232328   8.965   7.377   3.453
10815TIP3   OH232329   8.971   7.009   1.662
10815TIP3    H132330   8.913   6.938   1.697
10815TIP3    H232331   9.042   6.955   1.623
10816TIP3   OH232332   9.630   7.340   3.267
10816TIP3    H132333   9.606   7.265   3.326
10816TIP3    H232334   9.714   7.367   3.305
10817TIP3   OH232335   8.639   6.876   3.684
10817TIP3    H132336   8.655   6.780   3.690
10817TIP3    H232337   8.550   6.877   3.641
10818TIP3   OH232338   8.616   6.528   1.874
10818TIP3    H132339   8.668   6.492   1.947
10818TIP3    H232340   8.684   6.531   1.804
10819TIP3   OH232341   9.248   6.960   3.456
10819TIP3    H132342   9.204   6.975   3.370
10819TIP3    H232343   9.277   6.866   3.449
10820TIP3   OH232344   9.121   6.725   1.684
10820TIP3    H132345   9.132   6.741   1.780
10820TIP3    H232346   9.118   6.627   1.684
10821TIP3   OH232347   8.757   6.609   3.663
10821TIP3    H132348   8.830   6.547   3.646
10821TIP3    H232349   8.781   6.641   3.753
10822TIP3   OH232350   8.828   6.427   2.102
10822TIP3    H132351   8.795   6.383   2.182
10822TIP3    H232352   8.859   6.351   2.049
10823TIP3   OH232353   9.091   6.490   3.316
10823TIP3    H132354   9.015   6.551   3.327
10823TIP3    H232355   9.144   6.535   3.246
10824TIP3   OH232356   8.922   6.222   1.939
10824TIP3    H132357   8.893   6.223   1.845
10824TIP3    H232358   9.019   6.231   1.929
10825TIP3   OH232359   9.606   6.898   3.468
10825TIP3    H132360   9.675   6.865   3.410
10825TIP3    H232361   9.601   6.828   3.536
10826TIP3   OH232362   9.214   6.283   3.456
10826TIP3    H132363   9.215   6.200   3.405
10826TIP3    H232364   9.169   6.345   3.395
10827TIP3   OH232365   9.217   6.065   3.265
10827TIP3    H132366   9.246   6.107   3.182
10827TIP3    H232367   9.124   6.042   3.245
10828TIP3   OH232368   9.245   6.594   3.121
10828TIP3    H132369   9.330   6.608   3.076
10828TIP3    H232370   9.190   6.666   3.082
10829TIP3   OH232371   9.836   6.575   3.511
10829TIP3    H132372   9.865   6.488   3.542
10829TIP3    H232373   9.922   6.620   3.501
10830TIP3   OH232374   9.088   6.398   3.681
10830TIP3    H132375   9.021   6.328   3.696
10830TIP3    H232376   9.128   6.367   3.597
10831TIP3   OH232377   9.352   5.830   3.317
10831TIP3    H132378   9.300   5.913   3.307
10831TIP3    H232379   9.281   5.762   3.313
10832TIP3   OH232380   9.476   6.343   3.541
10832TIP3    H132381   9.476   6.315   3.634
10832TIP3    H232382   9.385   6.314   3.517
10833TIP3   OH232383   9.708   6.260   3.390
10833TIP3    H132384   9.631   6.276   3.449
10833TIP3    H232385   9.779   6.244   3.456
10834TIP3   OH232386   9.925   6.210   3.568
10834TIP3    H132387   9.944   6.130   3.619
10834TIP3    H232388   9.925   6.277   3.639
10835TIP3   OH232389   8.934   6.175   3.736
10835TIP3    H132390   8.940   6.083   3.701
10835TIP3    H232391   8.969   6.162   3.826
10836TIP3   OH232392   9.434   5.846   3.588
10836TIP3    H132393   9.504   5.781   3.607
10836TIP3    H232394   9.409   5.824   3.497
10837TIP3   OH232395   9.524   6.091   3.700
10837TIP3    H132396   9.509   5.996   3.684
10837TIP3    H232397   9.435   6.121   3.725
10838TIP3   OH232398   8.732   7.286   1.847
10838TIP3    H132399   8.826   7.284   1.823
10838TIP3    H232400   8.697   7.330   1.767
10839TIP3   OH232401   8.215   6.666   2.063
10839TIP3    H132402   8.310   6.685   2.048
10839TIP3    H232403   8.206   6.578   2.020
10840TIP3   OH232404   8.125   7.280   2.471
10840TIP3    H132405   8.056   7.219   2.436
10840TIP3    H232406   8.169   7.223   2.537
10841TIP3   OH232407   8.262   7.135   2.659
10841TIP3    H132408   8.243   7.061   2.718
10841TIP3    H232409   8.311   7.194   2.718
10842TIP3   OH232410   8.459   6.528   3.031
10842TIP3    H132411   8.465   6.492   2.940
10842TIP3    H232412   8.545   6.569   3.042
10843TIP3   OH232413   8.667   6.227   3.709
10843TIP3    H132414   8.765   6.219   3.710
10843TIP3    H232415   8.641   6.142   3.749
10844TIP3   OH232416   8.625   5.923   3.039
10844TIP3    H132417   8.684   5.846   3.050
10844TIP3    H232418   8.689   5.995   3.024
10845TIP3   OH232419   8.427   6.192   3.103
10845TIP3    H132420   8.490   6.152   3.043
10845TIP3    H232421   8.470   6.275   3.129
10846TIP3   OH232422   8.413   5.703   2.618
10846TIP3    H132423   8.318   5.693   2.638
10846TIP3    H232424   8.411   5.755   2.535
10847TIP3   OH232425   8.634   5.777   3.428
10847TIP3    H132426   8.584   5.767   3.511
10847TIP3    H232427   8.564   5.812   3.369
10848TIP3   OH232428   8.673   7.201   3.504
10848TIP3    H132429   8.581   7.174   3.487
10848TIP3    H232430   8.682   7.182   3.598
10849TIP3   OH232431   8.852   7.233   3.052
10849TIP3    H132432   8.803   7.307   3.013
10849TIP3    H232433   8.938   7.248   3.007
10850TIP3   OH232434   9.293   7.477   3.193
10850TIP3    H132435   9.339   7.482   3.279
10850TIP3    H232436   9.356   7.525   3.135
10851TIP3   OH232437   9.458   7.625   3.035
10851TIP3    H132438   9.533   7.581   2.992
10851TIP3    H232439   9.503   7.678   3.105
10852TIP3   OH232440   8.529   7.491   3.074
10852TIP3    H132441   8.440   7.524   3.050
10852TIP3    H232442   8.535   7.524   3.164
10853TIP3   OH232443   8.764   7.469   2.932
10853TIP3    H132444   8.678   7.482   2.978
10853TIP3    H232445   8.743   7.503   2.842
10854TIP3   OH232446   9.193   7.500   2.723
10854TIP3    H132447   9.117   7.520   2.666
10854TIP3    H232448   9.204   7.586   2.771
10855TIP3   OH232449   9.462   7.442   2.779
10855TIP3    H132450   9.366   7.454   2.762
10855TIP3    H232451   9.499   7.525   2.747
10856TIP3   OH232452   8.441   7.287   2.819
10856TIP3    H132453   8.467   7.260   2.910
10856TIP3    H232454   8.513   7.243   2.768
10857TIP3   OH232455   8.633   7.160   2.674
10857TIP3    H132456   8.650   7.076   2.724
10857TIP3    H232457   8.724   7.197   2.670
10858TIP3   OH232458   8.900   7.252   2.680
10858TIP3    H132459   8.932   7.161   2.666
10858TIP3    H232460   8.943   7.273   2.764
10859TIP3   OH232461   9.467   5.881   2.762
10859TIP3    H132462   9.416   5.817   2.815
10859TIP3    H232463   9.510   5.823   2.698
10860TIP3   OH232464   8.724   5.617   2.785
10860TIP3    H132465   8.632   5.582   2.784
10860TIP3    H232466   8.774   5.533   2.781
10861TIP3   OH232467   8.511   5.485   2.431
10861TIP3    H132468   8.540   5.543   2.358
10861TIP3    H232469   8.480   5.549   2.497
10862TIP3   OH232470   9.160   5.655   2.663
10862TIP3    H132471   9.223   5.694   2.601
10862TIP3    H232472   9.195   5.683   2.748
10863TIP3   OH232473   8.230   7.054   2.210
10863TIP3    H132474   8.145   7.019   2.178
10863TIP3    H232475   8.215   7.149   2.191
10864TIP3   OH232476   8.626   5.647   2.194
10864TIP3    H132477   8.675   5.583   2.139
10864TIP3    H232478   8.700   5.700   2.231
10865TIP3   OH232479   9.140   5.821   2.291
10865TIP3    H132480   9.199   5.772   2.351
10865TIP3    H232481   9.163   5.913   2.318
10866TIP3   OH232482   8.999   7.249   1.791
10866TIP3    H132483   9.085   7.272   1.751
10866TIP3    H232484   8.975   7.174   1.731
10867TIP3   OH232485   8.933   5.899   3.675
10867TIP3    H132486   8.899   5.828   3.732
10867TIP3    H232487   9.027   5.899   3.700
10868TIP3   OH232488   9.182   5.896   3.793
10868TIP3    H132489   9.267   5.873   3.752
10868TIP3    H232490   9.171   5.823   3.858
10869TIP3   OH232491   8.305   7.088   1.851
10869TIP3    H132492   8.298   7.106   1.946
10869TIP3    H232493   8.393   7.044   1.844
10870TIP3   OH232494   0.374   7.455   4.602
10870TIP3    H132495   0.417   7.395   4.665
10870TIP3    H232496   0.397   7.542   4.636
10871TIP3   OH232497   0.883   6.702   4.981
10871TIP3    H132498   0.911   6.785   5.024
10871TIP3    H232499   0.903   6.722   4.888
10872TIP3   OH232500   0.356   6.879   5.008
10872TIP3    H132501   0.385   6.789   5.029
10872TIP3    H232502   0.323   6.865   4.918
10873TIP3   OH232503   0.309   6.631   4.611
10873TIP3    H132504   0.386   6.615   4.670
10873TIP3    H232505   0.355   6.665   4.532
10874TIP3   OH232506   0.958   6.907   5.152
10874TIP3    H132507   0.875   6.954   5.130
10874TIP3    H232508   0.969   6.934   5.244
10875TIP3   OH232509   0.527   6.632   4.776
10875TIP3    H132510   0.502   6.596   4.863
10875TIP3    H232511   0.581   6.709   4.800
10876TIP3   OH232512   0.683   6.597   5.151
10876TIP3    H132513   0.597   6.638   5.137
10876TIP3    H232514   0.735   6.631   5.075
10877TIP3   OH232515   0.243   7.532   4.349
10877TIP3    H132516   0.187   7.458   4.319
10877TIP3    H232517   0.290   7.492   4.423
10878TIP3   OH232518   0.625   7.624   5.132
10878TIP3    H132519   0.589   7.541   5.096
10878TIP3    H232520   0.606   7.686   5.059
10879TIP3   OH232521   0.826   7.237   4.970
10879TIP3    H132522   0.740   7.286   4.978
10879TIP3    H232523   0.852   7.264   4.880
10880TIP3   OH232524   0.261   7.097   4.347
10880TIP3    H132525   0.197   7.118   4.419
10880TIP3    H232526   0.337   7.061   4.398
10881TIP3   OH232527   0.507   7.154   5.243
10881TIP3    H132528   0.499   7.221   5.314
10881TIP3    H232529   0.414   7.140   5.221
10882TIP3   OH232530   0.158   6.908   4.168
10882TIP3    H132531   0.163   6.978   4.236
10882TIP3    H232532   0.122   6.959   4.094
10883TIP3   OH232533   0.606   6.188   4.231
10883TIP3    H132534   0.525   6.207   4.284
10883TIP3    H232535   0.618   6.272   4.184
10884TIP3   OH232536   0.406   7.557   3.779
10884TIP3    H132537   0.417   7.654   3.770
10884TIP3    H232538   0.498   7.525   3.766
10885TIP3   OH232539   0.861   7.950   5.170
10885TIP3    H132540   0.861   7.854   5.190
10885TIP3    H232541   0.767   7.973   5.190
10886TIP3   OH232542   0.743   7.090   5.444
10886TIP3    H132543   0.657   7.105   5.402
10886TIP3    H232544   0.749   6.993   5.442
10887TIP3   OH232545   0.281   6.429   5.452
10887TIP3    H132546   0.352   6.396   5.511
10887TIP3    H232547   0.202   6.413   5.506
10888TIP3   OH232548   0.539   6.882   5.351
10888TIP3    H132549   0.500   6.866   5.440
10888TIP3    H232550   0.476   6.948   5.318
10889TIP3   OH232551   0.151   7.022   3.907
10889TIP3    H132552   0.138   6.965   3.829
10889TIP3    H232553   0.246   7.042   3.901
10890TIP3   OH232554   0.210   6.841   4.765
10890TIP3    H132555   0.130   6.863   4.714
10890TIP3    H232556   0.235   6.757   4.720
10891TIP3   OH232557   0.380   6.607   5.029
10891TIP3    H132558   0.379   6.610   5.127
10891TIP3    H232559   0.306   6.545   5.013
10892TIP3   OH232560   0.600   7.381   4.966
10892TIP3    H132561   0.619   7.436   4.887
10892TIP3    H232562   0.503   7.387   4.972
10893TIP3   OH232563   0.088   6.478   4.189
10893TIP3    H132564   0.008   6.530   4.206
10893TIP3    H232565   0.156   6.547   4.210
10894TIP3   OH232566   0.236   6.678   4.280
10894TIP3    H132567   0.319   6.713   4.316
10894TIP3    H232568   0.195   6.761   4.246
10895TIP3   OH232569   0.643   6.806   4.136
10895TIP3    H132570   0.580   6.761   4.074
10895TIP3    H232571   0.639   6.895   4.097
10896TIP3   OH232572   0.871   7.670   5.219
10896TIP3    H132573   0.773   7.662   5.212
10896TIP3    H232574   0.895   7.638   5.129
10897TIP3   OH232575   0.340   7.632   4.048
10897TIP3    H132576   0.318   7.566   4.116
10897TIP3    H232577   0.358   7.577   3.969
10898TIP3   OH232578   0.332   7.262   4.856
10898TIP3    H132579   0.269   7.219   4.915
10898TIP3    H232580   0.381   7.184   4.821
10899TIP3   OH232581   0.432   7.838   3.770
10899TIP3    H132582   0.486   7.907   3.726
10899TIP3    H232583   0.344   7.872   3.750
10900TIP3   OH232584   0.253   7.293   4.150
10900TIP3    H132585   0.239   7.224   4.217
10900TIP3    H232586   0.350   7.290   4.144
10901TIP3   OH232587   0.383   6.636   5.294
10901TIP3    H132588   0.413   6.715   5.342
10901TIP3    H232589   0.359   6.574   5.366
10902TIP3   OH232590   0.189   6.415   4.463
10902TIP3    H132591   0.157   6.459   4.382
10902TIP3    H232592   0.210   6.491   4.519
10903TIP3   OH232593   0.792   6.808   5.367
10903TIP3    H132594   0.695   6.824   5.367
10903TIP3    H232595   0.803   6.777   5.276
10904TIP3   OH232596   0.429   7.021   4.753
10904TIP3    H132597   0.353   6.959   4.757
10904TIP3    H232598   0.498   6.973   4.803
10905TIP3   OH232599   0.422   7.863   4.697
10905TIP3    H132600   0.340   7.914   4.677
10905TIP3    H232601   0.490   7.930   4.688
10906TIP3   OH232602   0.403   7.091   3.802
10906TIP3    H132603   0.384   7.038   3.722
10906TIP3    H232604   0.378   7.179   3.768
10907TIP3   OH232605   0.503   7.094   5.694
10907TIP3    H132606   0.561   7.029   5.735
10907TIP3    H232607   0.552   7.176   5.703
10908TIP3   OH232608   0.528   7.350   5.440
10908TIP3    H132609   0.468   7.419   5.410
10908TIP3    H232610   0.615   7.377   5.401
10909TIP3   OH232611   0.422   6.819   5.578
10909TIP3    H132612   0.342   6.825   5.632
10909TIP3    H232613   0.491   6.804   5.646
10910TIP3   OH232614   0.607   6.755   5.765
10910TIP3    H132615   0.619   6.659   5.784
10910TIP3    H232616   0.593   6.795   5.853
10911TIP3   OH232617   0.714   8.200   4.661
10911TIP3    H132618   0.707   8.146   4.742
10911TIP3    H232619   0.752   8.141   4.595
10912TIP3   OH232620   0.679   8.077   4.919
10912TIP3    H132621   0.640   7.989   4.933
10912TIP3    H232622   0.743   8.079   4.991
10913TIP3   OH232623   0.716   7.765   5.511
10913TIP3    H132624   0.644   7.763   5.575
10913TIP3    H232625   0.758   7.853   5.526
10914TIP3   OH232626   0.537   7.275   4.137
10914TIP3    H132627   0.610   7.335   4.113
10914TIP3    H232628   0.574   7.233   4.218
10915TIP3   OH232629   0.664   7.144   4.341
10915TIP3    H132630   0.601   7.096   4.400
10915TIP3    H232631   0.733   7.175   4.403
10916TIP3   OH232632   0.708   7.528   4.760
10916TIP3    H132633   0.772   7.467   4.720
10916TIP3    H232634   0.717   7.608   4.704
10917TIP3   OH232635   0.538   7.826   4.958
10917TIP3    H132636   0.475   7.873   5.013
10917TIP3    H232637   0.490   7.815   4.873
10918TIP3   OH232638   0.603   7.048   3.989
10918TIP3    H132639   0.530   7.052   3.924
10918TIP3    H232640   0.577   7.122   4.047
10919TIP3   OH232641   0.480   6.719   3.936
10919TIP3    H132642   0.430   6.757   3.863
10919TIP3    H232643   0.452   6.625   3.931
10920TIP3   OH232644   0.485   6.993   4.487
10920TIP3    H132645   0.490   6.896   4.480
10920TIP3    H232646   0.473   7.006   4.583
10921TIP3   OH232647   0.772   7.425   5.343
10921TIP3    H132648   0.840   7.354   5.337
10921TIP3    H232649   0.803   7.489   5.278
10922TIP3   OH232650   0.956   7.231   5.365
10922TIP3    H132651   0.880   7.179   5.401
10922TIP3    H232652   1.027   7.165   5.379
10923TIP3   OH232653   0.418   6.453   3.929
10923TIP3    H132654   0.495   6.426   3.984
10923TIP3    H232655   0.346   6.395   3.958
10924TIP3   OH232656   0.487   6.718   4.395
10924TIP3    H132657   0.525   6.628   4.408
10924TIP3    H232658   0.538   6.747   4.318
10925TIP3   OH232659   0.637   6.884   4.874
10925TIP3    H132660   0.724   6.913   4.837
10925TIP3    H232661   0.646   6.921   4.964
10926TIP3   OH232662   0.711   7.024   5.107
10926TIP3    H132663   0.636   7.062   5.157
10926TIP3    H232664   0.745   7.104   5.062
10927TIP3   OH232665   1.162   6.621   5.671
10927TIP3    H132666   1.216   6.554   5.624
10927TIP3    H232667   1.130   6.677   5.596
10928TIP3   OH232668   0.587   6.462   4.420
10928TIP3    H132669   0.632   6.446   4.505
10928TIP3    H232670   0.524   6.387   4.418
10929TIP3   OH232671   1.035   6.760   5.479
10929TIP3    H132672   0.947   6.800   5.491
10929TIP3    H232673   1.010   6.690   5.415
10930TIP3   OH232674   0.664   6.399   4.052
10930TIP3    H132675   0.708   6.326   4.003
10930TIP3    H232676   0.731   6.470   4.048
10931TIP3   OH232677   0.929   6.523   5.351
10931TIP3    H132678   0.837   6.524   5.317
10931TIP3    H232679   0.954   6.429   5.336
10932TIP3   OH232680   0.177   6.413   4.991
10932TIP3    H132681   0.159   6.333   5.042
10932TIP3    H232682   0.249   6.382   4.932
10933TIP3   OH232683   0.659   6.317   4.874
10933TIP3    H132684   0.695   6.372   4.801
10933TIP3    H232685   0.564   6.339   4.869
10934TIP3   OH232686   0.751   6.418   4.637
10934TIP3    H132687   0.825   6.369   4.596
10934TIP3    H232688   0.783   6.511   4.624
10935TIP3   OH232689   0.383   6.319   4.841
10935TIP3    H132690   0.381   6.284   4.751
10935TIP3    H232691   0.368   6.237   4.894
10936TIP3   OH232692   0.403   6.249   4.410
10936TIP3    H132693   0.320   6.298   4.426
10936TIP3    H232694   0.385   6.165   4.456
10937TIP3   OH232695   0.374   7.900   4.072
10937TIP3    H132696   0.368   7.803   4.086
10937TIP3    H232697   0.342   7.904   3.981
10938TIP3   OH232698   0.662   6.486   5.786
10938TIP3    H132699   0.682   6.454   5.877
10938TIP3    H232700   0.749   6.480   5.743
10939TIP3   OH232701   0.604   8.034   5.209
10939TIP3    H132702   0.534   7.982   5.250
10939TIP3    H232703   0.605   8.108   5.272
10940TIP3   OH232704   1.870   7.413   4.041
10940TIP3    H132705   1.841   7.504   4.022
10940TIP3    H232706   1.789   7.363   4.019
10941TIP3   OH232707   1.872   7.410   4.420
10941TIP3    H132708   1.894   7.378   4.509
10941TIP3    H232709   1.820   7.337   4.385
10942TIP3   OH232710   2.110   7.713   4.104
10942TIP3    H132711   2.093   7.643   4.168
10942TIP3    H232712   2.137   7.787   4.161
10943TIP3   OH232713   1.139   7.712   4.514
10943TIP3    H132714   1.134   7.617   4.529
10943TIP3    H232715   1.236   7.724   4.511
10944TIP3   OH232716   0.842   6.919   4.297
10944TIP3    H132717   0.797   7.004   4.313
10944TIP3    H232718   0.769   6.866   4.263
10945TIP3   OH232719   0.906   7.206   4.468
10945TIP3    H132720   0.953   7.131   4.512
10945TIP3    H232721   0.978   7.240   4.413
10946TIP3   OH232722   1.758   8.176   4.121
10946TIP3    H132723   1.806   8.105   4.073
10946TIP3    H232724   1.751   8.138   4.209
10947TIP3   OH232725   1.660   7.641   4.468
10947TIP3    H132726   1.690   7.561   4.421
10947TIP3    H232727   1.747   7.679   4.492
10948TIP3   OH232728   2.679   6.957   4.470
10948TIP3    H132729   2.706   7.041   4.512
10948TIP3    H232730   2.696   6.977   4.376
10949TIP3   OH232731   2.084   7.140   4.505
10949TIP3    H132732   2.121   7.052   4.522
10949TIP3    H232733   2.046   7.128   4.416
10950TIP3   OH232734   1.418   6.796   4.470
10950TIP3    H132735   1.394   6.872   4.412
10950TIP3    H232736   1.364   6.726   4.428
10951TIP3   OH232737   2.109   6.886   4.093
10951TIP3    H132738   2.182   6.872   4.157
10951TIP3    H232739   2.158   6.924   4.018
10952TIP3   OH232740   1.037   6.991   4.579
10952TIP3    H132741   1.125   7.015   4.615
10952TIP3    H232742   1.063   6.941   4.499
10953TIP3   OH232743   1.505   7.200   4.322
10953TIP3    H132744   1.576   7.181   4.384
10953TIP3    H232745   1.449   7.120   4.326
10954TIP3   OH232746   2.751   7.165   4.640
10954TIP3    H132747   2.668   7.213   4.619
10954TIP3    H232748   2.764   7.191   4.732
10955TIP3   OH232749   1.411   6.781   4.906
10955TIP3    H132750   1.357   6.823   4.837
10955TIP3    H232751   1.358   6.804   4.985
10956TIP3   OH232752   1.765   7.636   3.911
10956TIP3    H132753   1.714   7.606   3.834
10956TIP3    H232754   1.717   7.719   3.933
10957TIP3   OH232755   1.546   7.576   4.727
10957TIP3    H132756   1.458   7.615   4.746
10957TIP3    H232757   1.558   7.598   4.633
10958TIP3   OH232758   2.322   6.889   4.264
10958TIP3    H132759   2.305   6.845   4.348
10958TIP3    H232760   2.373   6.967   4.291
10959TIP3   OH232761   1.286   6.895   4.692
10959TIP3    H132762   1.330   6.981   4.706
10959TIP3    H232763   1.336   6.861   4.615
10960TIP3   OH232764   1.339   7.753   4.796
10960TIP3    H132765   1.315   7.840   4.759
10960TIP3    H232766   1.262   7.736   4.854
10961TIP3   OH232767   0.742   7.441   4.034
10961TIP3    H132768   0.701   7.468   3.950
10961TIP3    H232769   0.774   7.526   4.071
10962TIP3   OH232770   2.181   7.956   4.274
10962TIP3    H132771   2.091   7.947   4.314
10962TIP3    H232772   2.172   8.042   4.228
10963TIP3   OH232773   2.471   6.857   4.636
10963TIP3    H132774   2.382   6.886   4.607
10963TIP3    H232775   2.528   6.889   4.563
10964TIP3   OH232776   1.771   6.502   4.620
10964TIP3    H132777   1.754   6.407   4.634
10964TIP3    H232778   1.693   6.541   4.664
10965TIP3   OH232779   1.884   8.004   3.949
10965TIP3    H132780   1.934   7.922   3.927
10965TIP3    H232781   1.943   8.070   3.905
10966TIP3   OH232782   2.026   7.789   3.852
10966TIP3    H132783   1.980   7.711   3.818
10966TIP3    H232784   2.062   7.754   3.936
10967TIP3   OH232785   2.408   7.871   4.616
10967TIP3    H132786   2.395   7.792   4.558
10967TIP3    H232787   2.390   7.945   4.553
10968TIP3   OH232788   1.697   7.261   3.872
10968TIP3    H132789   1.615   7.311   3.852
10968TIP3    H232790   1.743   7.261   3.786
10969TIP3   OH232791   1.656   7.048   3.589
10969TIP3    H132792   1.724   7.096   3.640
10969TIP3    H232793   1.713   6.985   3.542
10970TIP3   OH232794   2.602   7.506   4.461
10970TIP3    H132795   2.519   7.558   4.467
10970TIP3    H232796   2.630   7.530   4.370
10971TIP3   OH232797   2.045   7.346   3.844
10971TIP3    H132798   1.989   7.371   3.921
10971TIP3    H232799   2.128   7.319   3.889
10972TIP3   OH232800   2.282   7.386   4.755
10972TIP3    H132801   2.276   7.471   4.802
10972TIP3    H232802   2.194   7.385   4.711
10973TIP3   OH232803   1.282   7.355   4.232
10973TIP3    H132804   1.245   7.279   4.185
10973TIP3    H232805   1.342   7.311   4.296
10974TIP3   OH232806   1.407   7.759   4.408
10974TIP3    H132807   1.386   7.703   4.332
10974TIP3    H232808   1.497   7.726   4.431
10975TIP3   OH232809   1.939   7.953   4.393
10975TIP3    H132810   1.926   8.030   4.451
10975TIP3    H232811   1.925   7.877   4.453
10976TIP3   OH232812   1.551   7.872   4.939
10976TIP3    H132813   1.488   7.932   4.983
10976TIP3    H232814   1.489   7.815   4.889
10977TIP3   OH232815   1.888   7.202   3.671
10977TIP3    H132816   1.946   7.261   3.724
10977TIP3    H232817   1.913   7.228   3.579
10978TIP3   OH232818   1.309   7.422   5.053
10978TIP3    H132819   1.309   7.511   5.093
10978TIP3    H232820   1.214   7.407   5.040
10979TIP3   OH232821   1.629   7.884   3.943
10979TIP3    H132822   1.706   7.938   3.966
10979TIP3    H232823   1.566   7.949   3.910
10980TIP3   OH232824   1.346   8.042   5.025
10980TIP3    H132825   1.310   8.038   4.935
10980TIP3    H232826   1.267   8.020   5.080
10981TIP3   OH232827   2.402   6.445   3.720
10981TIP3    H132828   2.320   6.465   3.770
10981TIP3    H232829   2.415   6.527   3.669
10982TIP3   OH232830   1.146   7.173   4.050
10982TIP3    H132831   1.077   7.222   4.003
10982TIP3    H232832   1.098   7.097   4.084
10983TIP3   OH232833   2.200   7.812   3.267
10983TIP3    H132834   2.209   7.909   3.254
10983TIP3    H232835   2.292   7.783   3.254
10984TIP3   OH232836   0.925   7.571   4.972
10984TIP3    H132837   0.863   7.539   4.905
10984TIP3    H232838   0.963   7.486   5.006
10985TIP3   OH232839   0.786   7.766   4.615
10985TIP3    H132840   0.874   7.742   4.586
10985TIP3    H232841   0.806   7.838   4.677
10986TIP3   OH232842   2.644   8.214   4.662
10986TIP3    H132843   2.642   8.117   4.673
10986TIP3    H232844   2.560   8.239   4.707
10987TIP3   OH232845   1.747   8.002   4.794
10987TIP3    H132846   1.747   8.094   4.828
10987TIP3    H232847   1.677   7.962   4.850
10988TIP3   OH232848   1.508   8.131   3.748
10988TIP3    H132849   1.462   8.111   3.664
10988TIP3    H232850   1.476   8.220   3.769
10989TIP3   OH232851   0.946   7.980   4.132
10989TIP3    H132852   1.000   7.967   4.213
10989TIP3    H232853   0.893   7.898   4.133
10990TIP3   OH232854   1.711   8.030   3.389
10990TIP3    H132855   1.770   7.960   3.353
10990TIP3    H232856   1.745   8.039   3.481
10991TIP3   OH232857   1.761   8.079   3.660
10991TIP3    H132858   1.673   8.087   3.703
10991TIP3    H232859   1.811   8.035   3.730
10992TIP3   OH232860   2.534   7.346   4.935
10992TIP3    H132861   2.452   7.361   4.885
10992TIP3    H232862   2.546   7.250   4.924
10993TIP3   OH232863   1.126   7.758   4.966
10993TIP3    H132864   1.180   7.737   5.045
10993TIP3    H232865   1.055   7.690   4.971
10994TIP3   OH232866   1.530   6.577   4.746
10994TIP3    H132867   1.440   6.547   4.721
10994TIP3    H232868   1.506   6.661   4.789
10995TIP3   OH232869   2.061   6.692   4.941
10995TIP3    H132870   2.127   6.665   5.008
10995TIP3    H232871   1.976   6.673   4.985
10996TIP3   OH232872   2.307   7.123   4.862
10996TIP3    H132873   2.255   7.119   4.945
10996TIP3    H232874   2.277   7.207   4.823
10997TIP3   OH232875   1.961   7.254   3.415
10997TIP3    H132876   1.929   7.226   3.327
10997TIP3    H232877   2.043   7.300   3.390
10998TIP3   OH232878   1.674   6.626   3.716
10998TIP3    H132879   1.643   6.626   3.809
10998TIP3    H232880   1.636   6.542   3.685
10999TIP3   OH232881   1.466   7.106   4.761
10999TIP3    H132882   1.411   7.112   4.842
10999TIP3    H232883   1.416   7.169   4.704
11000TIP3   OH232884   1.343   6.972   4.280
11000TIP3    H132885   1.249   6.950   4.299
11000TIP3    H232886   1.353   6.934   4.190
11001TIP3   OH232887   1.835   7.064   4.006
11001TIP3    H132888   1.780   7.135   3.967
11001TIP3    H232889   1.888   7.036   3.929
11002TIP3   OH232890   2.010   7.345   5.095
11002TIP3    H132891   1.985   7.271   5.155
11002TIP3    H232892   2.105   7.355   5.116
11003TIP3   OH232893   1.996   7.094   4.246
11003TIP3    H132894   1.933   7.126   4.178
11003TIP3    H232895   2.025   7.011   4.201
11004TIP3   OH232896   1.300   7.102   4.978
11004TIP3    H132897   1.292   7.184   5.028
11004TIP3    H232898   1.275   7.032   5.042
11005TIP3   OH232899   1.328   6.596   3.684
11005TIP3    H132900   1.322   6.596   3.781
11005TIP3    H232901   1.251   6.651   3.661
11006TIP3   OH232902   0.874   6.642   4.554
11006TIP3    H132903   0.947   6.679   4.609
11006TIP3    H232904   0.919   6.614   4.474
11007TIP3   OH232905   0.847   6.624   4.072
11007TIP3    H132906   0.893   6.665   3.995
11007TIP3    H232907   0.786   6.697   4.096
11008TIP3   OH232908   2.013   7.341   4.671
11008TIP3    H132909   2.040   7.268   4.611
11008TIP3    H232910   1.977   7.290   4.746
11009TIP3   OH232911   1.671   6.793   4.341
11009TIP3    H132912   1.586   6.797   4.388
11009TIP3    H232913   1.734   6.804   4.414
11010TIP3   OH232914   1.104   6.855   4.348
11010TIP3    H132915   1.009   6.863   4.324
11010TIP3    H232916   1.126   6.763   4.325
11011TIP3   OH232917   1.378   6.847   4.034
11011TIP3    H132918   1.470   6.872   4.017
11011TIP3    H232919   1.330   6.877   3.954
11012TIP3   OH232920   2.165   6.873   4.540
11012TIP3    H132921   2.131   6.887   4.631
11012TIP3    H232922   2.096   6.814   4.505
11013TIP3   OH232923   1.215   6.883   3.814
11013TIP3    H132924   1.142   6.842   3.765
11013TIP3    H232925   1.267   6.921   3.741
11014TIP3   OH232926   2.333   8.565   4.760
11014TIP3    H132927   2.332   8.586   4.665
11014TIP3    H232928   2.412   8.614   4.791
11015TIP3   OH232929   1.288   7.679   5.182
11015TIP3    H132930   1.369   7.707   5.229
11015TIP3    H232931   1.226   7.674   5.257
11016TIP3   OH232932   1.765   7.134   4.451
11016TIP3    H132933   1.826   7.084   4.394
11016TIP3    H232934   1.769   7.085   4.535
11017TIP3   OH232935   1.277   6.617   4.316
11017TIP3    H132936   1.245   6.536   4.361
11017TIP3    H232937   1.329   6.581   4.243
11018TIP3   OH232938   1.730   7.022   4.731
11018TIP3    H132939   1.640   7.062   4.738
11018TIP3    H232940   1.786   7.086   4.779
11019TIP3   OH232941   1.469   7.415   3.819
11019TIP3    H132942   1.396   7.350   3.812
11019TIP3    H232943   1.454   7.452   3.909
11020TIP3   OH232944   2.370   7.652   4.453
11020TIP3    H132945   2.393   7.700   4.371
11020TIP3    H232946   2.283   7.611   4.429
11021TIP3   OH232947   1.927   6.728   3.684
11021TIP3    H132948   1.830   6.714   3.691
11021TIP3    H232949   1.938   6.823   3.706
11022TIP3   OH232950   1.888   7.746   4.818
11022TIP3    H132951   1.878   7.701   4.903
11022TIP3    H232952   1.826   7.821   4.826
11023TIP3   OH232953   1.997   6.974   3.785
11023TIP3    H132954   2.093   6.982   3.802
11023TIP3    H232955   1.978   7.054   3.733
11024TIP3   OH232956   1.612   7.565   3.640
11024TIP3    H132957   1.566   7.651   3.650
11024TIP3    H232958   1.559   7.508   3.701
11025TIP3   OH232959   1.034   7.366   5.114
11025TIP3    H132960   1.060   7.347   5.207
11025TIP3    H232961   0.973   7.293   5.094
11026TIP3   OH232962   1.763   7.471   5.133
11026TIP3    H132963   1.701   7.416   5.082
11026TIP3    H232964   1.849   7.437   5.100
11027TIP3   OH232965   2.030   8.007   4.708
11027TIP3    H132966   1.936   7.989   4.724
11027TIP3    H232967   2.055   8.050   4.792
11028TIP3   OH232968   2.440   7.064   3.623
11028TIP3    H132969   2.376   7.019   3.563
11028TIP3    H232970   2.436   7.153   3.582
11029TIP3   OH232971   2.658   7.924   4.705
11029TIP3    H132972   2.560   7.918   4.697
11029TIP3    H232973   2.683   7.893   4.615
11030TIP3   OH232974   2.137   7.885   3.532
11030TIP3    H132975   2.114   7.815   3.594
11030TIP3    H232976   2.150   7.837   3.448
11031TIP3   OH232977   2.135   7.514   4.372
11031TIP3    H132978   2.042   7.487   4.386
11031TIP3    H232979   2.169   7.434   4.326
11032TIP3   OH232980   1.260   7.743   4.122
11032TIP3    H132981   1.259   7.824   4.068
11032TIP3    H232982   1.166   7.724   4.131
11033TIP3   OH232983   0.824   7.046   3.826
11033TIP3    H132984   0.872   7.128   3.847
11033TIP3    H232985   0.748   7.052   3.888
11034TIP3   OH232986   1.411   7.518   4.059
11034TIP3    H132987   1.369   7.602   4.087
11034TIP3    H232988   1.375   7.457   4.128
11035TIP3   OH232989   1.529   8.086   4.594
11035TIP3    H132990   1.573   8.157   4.543
11035TIP3    H232991   1.605   8.048   4.642
11036TIP3   OH232992   1.179   7.982   3.974
11036TIP3    H132993   1.094   7.990   4.021
11036TIP3    H232994   1.211   8.075   3.978
11037TIP3   OH232995   1.923   7.721   4.549
11037TIP3    H132996   1.915   7.721   4.647
11037TIP3    H232997   1.997   7.660   4.536
11038TIP3   OH232998   1.892   7.613   3.434
11038TIP3    H132999   1.946   7.588   3.512
11038TIP3    H233000   1.804   7.585   3.465
11039TIP3   OH233001   2.169   8.256   4.604
11039TIP3    H133002   2.093   8.194   4.600
11039TIP3    H233003   2.149   8.317   4.530
11040TIP3   OH233004   2.234   8.088   3.254
11040TIP3    H133005   2.274   8.162   3.205
11040TIP3    H233006   2.153   8.134   3.286
11041TIP3   OH233007   1.253   6.861   5.127
11041TIP3    H133008   1.156   6.866   5.135
11041TIP3    H233009   1.276   6.796   5.196
11042TIP3   OH233010   2.053   7.546   3.648
11042TIP3    H133011   2.042   7.480   3.720
11042TIP3    H233012   2.150   7.544   3.638
11043TIP3   OH233013   0.965   7.945   4.753
11043TIP3    H133014   1.021   7.873   4.786
11043TIP3    H233015   0.994   8.017   4.811
11044TIP3   OH233016   1.258   7.593   3.433
11044TIP3    H133017   1.275   7.502   3.404
11044TIP3    H233018   1.241   7.581   3.529
11045TIP3   OH233019   1.204   7.598   3.707
11045TIP3    H133020   1.274   7.567   3.766
11045TIP3    H233021   1.211   7.695   3.715
11046TIP3   OH233022   0.939   7.290   3.907
11046TIP3    H133023   0.875   7.335   3.967
11046TIP3    H233024   0.958   7.361   3.844
11047TIP3   OH233025   2.093   6.925   4.798
11047TIP3    H133026   2.169   6.965   4.843
11047TIP3    H233027   2.074   6.846   4.852
11048TIP3   OH233028   1.972   6.678   3.963
11048TIP3    H133029   1.955   6.704   3.871
11048TIP3    H233030   2.009   6.761   4.001
11049TIP3   OH233031   1.470   7.795   3.653
11049TIP3    H133032   1.384   7.824   3.690
11049TIP3    H233033   1.487   7.868   3.592
11050TIP3   OH233034   1.662   6.856   4.067
11050TIP3    H133035   1.724   6.930   4.050
11050TIP3    H233036   1.662   6.853   4.165
11051TIP3   OH233037   1.930   7.178   4.873
11051TIP3    H133038   1.941   7.235   4.952
11051TIP3    H233039   1.984   7.101   4.895
11052TIP3   OH233040   1.805   6.588   4.173
11052TIP3    H133041   1.789   6.666   4.229
11052TIP3    H233042   1.865   6.626   4.104
11053TIP3   OH233043   1.212   7.872   3.721
11053TIP3    H133044   1.183   7.942   3.658
11053TIP3    H233045   1.197   7.915   3.808
11054TIP3   OH233046   1.316   6.582   3.960
11054TIP3    H133047   1.313   6.674   3.995
11054TIP3    H233048   1.412   6.566   3.969
11055TIP3   OH233049   2.572   7.076   4.856
11055TIP3    H133050   2.474   7.077   4.865
11055TIP3    H233051   2.579   7.040   4.767
11056TIP3   OH233052   2.221   7.272   4.244
11056TIP3    H133053   2.143   7.215   4.257
11056TIP3    H233054   2.291   7.224   4.293
11057TIP3   OH233055   0.931   7.505   3.713
11057TIP3    H133056   1.001   7.573   3.724
11057TIP3    H233057   0.976   7.448   3.648
11058TIP3   OH233058   0.878   6.775   3.843
11058TIP3    H133059   0.877   6.873   3.842
11058TIP3    H233060   0.788   6.755   3.814
11059TIP3   OH233061   2.187   8.229   4.195
11059TIP3    H133062   2.145   8.275   4.120
11059TIP3    H233063   2.282   8.248   4.175
11060TIP3   OH233064   1.267   6.496   4.721
11060TIP3    H133065   1.232   6.465   4.635
11060TIP3    H233066   1.253   6.418   4.778
11061TIP3   OH233067   0.807   7.724   4.108
11061TIP3    H133068   0.728   7.750   4.155
11061TIP3    H233069   0.786   7.757   4.018
11062TIP3   OH233070   0.957   8.251   5.178
11062TIP3    H133071   1.045   8.253   5.221
11062TIP3    H233072   0.943   8.155   5.170
11063TIP3   OH233073   1.442   8.223   5.217
11063TIP3    H133074   1.536   8.201   5.225
11063TIP3    H233075   1.417   8.165   5.143
11064TIP3   OH233076   1.423   7.797   3.347
11064TIP3    H133077   1.366   7.727   3.386
11064TIP3    H233078   1.498   7.744   3.316
11065TIP3   OH233079   2.080   8.129   4.951
11065TIP3    H133080   2.071   8.057   5.018
11065TIP3    H233081   2.158   8.177   4.983
11066TIP3   OH233082   1.859   7.839   3.257
11066TIP3    H133083   1.902   7.774   3.316
11066TIP3    H233084   1.917   7.838   3.179
11067TIP3   OH233085   1.094   7.663   5.379
11067TIP3    H133086   1.112   7.567   5.380
11067TIP3    H233087   1.007   7.664   5.332
11068TIP3   OH233088   1.067   7.315   3.567
11068TIP3    H133089   1.121   7.280   3.640
11068TIP3    H233090   1.135   7.319   3.497
11069TIP3   OH233091   1.697   7.746   5.146
11069TIP3    H133092   1.654   7.760   5.060
11069TIP3    H233093   1.727   7.652   5.140
11070TIP3   OH233094   1.573   7.511   3.372
11070TIP3    H133095   1.578   7.525   3.469
11070TIP3    H233096   1.574   7.413   3.368
11071TIP3   OH233097   2.195   7.751   4.755
11071TIP3    H133098   2.261   7.805   4.709
11071TIP3    H233099   2.115   7.806   4.746
11072TIP3   OH233100   1.207   7.402   5.356
11072TIP3    H133101   1.278   7.344   5.328
11072TIP3    H233102   1.235   7.428   5.446
11073TIP3   OH233103   1.273   7.218   3.789
11073TIP3    H133104   1.247   7.182   3.876
11073TIP3    H233105   1.309   7.140   3.743
11074TIP3   OH233106   1.551   7.288   5.026
11074TIP3    H133107   1.466   7.336   5.027
11074TIP3    H233108   1.586   7.310   4.937
11075TIP3   OH233109   1.376   7.008   3.630
11075TIP3    H133110   1.349   7.012   3.536
11075TIP3    H233111   1.473   7.018   3.623
11076TIP3   OH233112   2.063   7.686   5.155
11076TIP3    H133113   2.138   7.659   5.100
11076TIP3    H233114   2.058   7.615   5.221
11077TIP3   OH233115   2.199   7.343   3.291
11077TIP3    H133116   2.177   7.295   3.209
11077TIP3    H233117   2.167   7.433   3.266
11078TIP3   OH233118   1.671   7.070   5.142
11078TIP3    H133119   1.665   6.991   5.086
11078TIP3    H233120   1.625   7.138   5.088
11079TIP3   OH233121   1.671   6.853   4.949
11079TIP3    H133122   1.695   6.899   4.866
11079TIP3    H233123   1.576   6.833   4.933
11080TIP3   OH233124   1.714   7.397   4.831
11080TIP3    H133125   1.779   7.394   4.759
11080TIP3    H233126   1.650   7.463   4.796
11081TIP3   OH233127   2.282   7.360   5.208
11081TIP3    H133128   2.330   7.276   5.212
11081TIP3    H233129   2.348   7.419   5.169
11082TIP3   OH233130   2.323   7.612   4.945
11082TIP3    H133131   2.264   7.664   4.885
11082TIP3    H233132   2.409   7.631   4.903
11083TIP3   OH233133   1.550   7.181   5.376
11083TIP3    H133134   1.478   7.116   5.387
11083TIP3    H233135   1.579   7.162   5.285
11084TIP3   OH233136   1.802   6.620   5.017
11084TIP3    H133137   1.755   6.703   4.993
11084TIP3    H233138   1.731   6.554   5.005
11085TIP3   OH233139   1.929   7.124   5.233
11085TIP3    H133140   1.912   7.114   5.328
11085TIP3    H233141   1.840   7.101   5.199
11086TIP3   OH233142   2.168   7.072   5.088
11086TIP3    H133143   2.090   7.076   5.147
11086TIP3    H233144   2.239   7.041   5.148
11087TIP3   OH233145   2.403   7.015   5.242
11087TIP3    H133146   2.411   6.919   5.260
11087TIP3    H233147   2.394   7.054   5.331
11088TIP3   OH233148   1.385   6.963   5.426
11088TIP3    H133149   1.391   6.874   5.387
11088TIP3    H233150   1.419   6.948   5.516
11089TIP3   OH233151   1.898   6.629   5.274
11089TIP3    H133152   1.965   6.558   5.266
11089TIP3    H233153   1.856   6.625   5.186
11090TIP3   OH233154   1.962   6.844   5.434
11090TIP3    H133155   1.939   6.774   5.369
11090TIP3    H233156   1.886   6.905   5.427
11091TIP3   OH233157   1.183   8.075   3.534
11091TIP3    H133158   1.278   8.070   3.515
11091TIP3    H233159   1.153   8.122   3.454
11092TIP3   OH233160   0.663   7.456   3.749
11092TIP3    H133161   0.758   7.478   3.737
11092TIP3    H233162   0.660   7.366   3.710
11093TIP3   OH233163   0.582   8.064   4.157
11093TIP3    H133164   0.511   8.005   4.124
11093TIP3    H233165   0.622   8.009   4.227
11094TIP3   OH233166   0.705   7.918   4.352
11094TIP3    H133167   0.700   7.841   4.410
11094TIP3    H233168   0.768   7.974   4.401
11095TIP3   OH233169   2.438   8.324   4.149
11095TIP3    H133170   2.469   8.354   4.236
11095TIP3    H233171   2.505   8.360   4.089
11096TIP3   OH233172   2.470   8.341   4.433
11096TIP3    H133173   2.426   8.254   4.428
11096TIP3    H233174   2.547   8.316   4.486
11097TIP3   OH233175   2.518   8.016   5.006
11097TIP3    H133176   2.443   8.023   5.069
11097TIP3    H233177   2.557   8.105   5.010
11098TIP3   OH233178   2.333   7.530   3.625
11098TIP3    H133179   2.403   7.593   3.598
11098TIP3    H233180   2.375   7.489   3.705
11099TIP3   OH233181   2.460   7.397   3.828
11099TIP3    H133182   2.395   7.354   3.887
11099TIP3    H233183   2.524   7.435   3.892
11100TIP3   OH233184   2.515   7.789   4.262
11100TIP3    H133185   2.567   7.725   4.210
11100TIP3    H233186   2.505   7.863   4.200
11101TIP3   OH233187   2.346   8.090   4.456
11101TIP3    H133188   2.275   8.130   4.509
11101TIP3    H233189   2.296   8.040   4.388
11102TIP3   OH233190   2.399   7.304   3.476
11102TIP3    H133191   2.327   7.307   3.409
11102TIP3    H233192   2.372   7.381   3.532
11103TIP3   OH233193   2.268   6.978   3.432
11103TIP3    H133194   2.231   7.016   3.352
11103TIP3    H233195   2.243   6.883   3.421
11104TIP3   OH233196   2.276   7.252   3.975
11104TIP3    H133197   2.282   7.155   3.971
11104TIP3    H233198   2.261   7.268   4.071
11105TIP3   OH233199   0.921   7.337   4.714
11105TIP3    H133200   0.904   7.295   4.628
11105TIP3    H233201   1.019   7.331   4.712
11106TIP3   OH233202   2.564   7.677   4.833
11106TIP3    H133203   2.637   7.612   4.823
11106TIP3    H233204   2.588   7.746   4.770
11107TIP3   OH233205   2.750   7.484   4.851
11107TIP3    H133206   2.674   7.435   4.889
11107TIP3    H233207   2.822   7.419   4.865
11108TIP3   OH233208   2.213   6.712   3.419
11108TIP3    H133209   2.288   6.680   3.474
11108TIP3    H233210   2.140   6.653   3.443
11109TIP3   OH233211   2.271   6.969   3.872
11109TIP3    H133212   2.312   6.881   3.887
11109TIP3    H233213   2.328   7.002   3.801
11110TIP3   OH233214   2.434   7.141   4.366
11110TIP3    H133215   2.520   7.169   4.326
11110TIP3    H233216   2.445   7.180   4.455
11111TIP3   OH233217   2.501   7.287   4.599
11111TIP3    H133218   2.422   7.320   4.647
11111TIP3    H233219   2.532   7.368   4.553
11112TIP3   OH233220   1.117   7.015   5.398
11112TIP3    H133221   1.215   7.007   5.397
11112TIP3    H233222   1.094   6.930   5.441
11113TIP3   OH233223   2.957   6.879   5.156
11113TIP3    H133224   3.011   6.812   5.109
11113TIP3    H233225   2.925   6.934   5.081
11114TIP3   OH233226   2.381   6.718   3.908
11114TIP3    H133227   2.427   6.702   3.993
11114TIP3    H233228   2.319   6.642   3.906
11115TIP3   OH233229   1.081   6.705   4.728
11115TIP3    H133230   1.148   6.635   4.739
11115TIP3    H233231   1.138   6.784   4.720
11116TIP3   OH233232   0.882   6.978   4.804
11116TIP3    H133233   0.932   6.969   4.719
11116TIP3    H233234   0.923   7.057   4.840
11117TIP3   OH233235   2.824   7.017   4.964
11117TIP3    H133236   2.737   7.058   4.982
11117TIP3    H233237   2.797   6.947   4.902
11118TIP3   OH233238   2.463   6.653   3.543
11118TIP3    H133239   2.501   6.582   3.487
11118TIP3    H233240   2.527   6.725   3.532
11119TIP3   OH233241   0.865   6.477   4.298
11119TIP3    H133242   0.773   6.480   4.329
11119TIP3    H233243   0.863   6.539   4.222
11120TIP3   OH233244   2.023   8.188   3.807
11120TIP3    H133245   2.075   8.170   3.726
11120TIP3    H233246   2.080   8.251   3.853
11121TIP3   OH233247   1.085   6.560   5.116
11121TIP3    H133248   1.035   6.556   5.199
11121TIP3    H233249   1.020   6.602   5.056
11122TIP3   OH233250   1.130   7.994   5.196
11122TIP3    H133251   1.041   7.962   5.174
11122TIP3    H233252   1.139   7.967   5.288
11123TIP3   OH233253   1.300   8.023   4.741
11123TIP3    H133254   1.257   8.101   4.702
11123TIP3    H233255   1.388   8.033   4.698
11124TIP3   OH233256   1.749   8.268   4.880
11124TIP3    H133257   1.792   8.267   4.968
11124TIP3    H233258   1.816   8.317   4.827
11125TIP3   OH233259   1.928   8.419   4.735
11125TIP3    H133260   1.997   8.365   4.695
11125TIP3    H233261   1.980   8.475   4.797
11126TIP3   OH233262   2.722   6.782   4.838
11126TIP3    H133263   2.631   6.779   4.803
11126TIP3    H233264   2.750   6.688   4.824
11127TIP3   OH233265   0.983   8.278   4.763
11127TIP3    H133266   0.894   8.298   4.728
11127TIP3    H233267   0.979   8.322   4.849
11128TIP3   OH233268   1.219   8.260   4.621
11128TIP3    H133269   1.134   8.272   4.669
11128TIP3    H233270   1.197   8.292   4.532
11129TIP3   OH233271   1.643   8.288   4.419
11129TIP3    H133272   1.574   8.308   4.354
11129TIP3    H233273   1.655   8.375   4.462
11130TIP3   OH233274   1.911   8.229   4.471
11130TIP3    H133275   1.817   8.243   4.451
11130TIP3    H233276   1.952   8.305   4.427
11131TIP3   OH233277   2.121   8.421   4.387
11131TIP3    H133278   2.106   8.504   4.337
11131TIP3    H233279   2.146   8.359   4.315
11132TIP3   OH233280   0.897   8.056   4.501
11132TIP3    H133281   0.928   8.034   4.592
11132TIP3    H233282   0.970   8.017   4.449
11133TIP3   OH233283   1.094   7.937   4.357
11133TIP3    H133284   1.112   7.853   4.404
11133TIP3    H233285   1.185   7.976   4.354
11134TIP3   OH233286   1.356   8.039   4.367
11134TIP3    H133287   1.386   7.947   4.355
11134TIP3    H233288   1.399   8.059   4.452
11135TIP3   OH233289   1.934   6.698   4.462
11135TIP3    H133290   1.885   6.630   4.511
11135TIP3    H233291   1.999   6.645   4.412
11136TIP3   OH233292   2.453   6.574   4.363
11136TIP3    H133293   2.489   6.628   4.288
11136TIP3    H233294   2.357   6.594   4.357
11137TIP3   OH233295   2.547   6.675   4.126
11137TIP3    H133296   2.620   6.625   4.084
11137TIP3    H233297   2.578   6.768   4.111
11138TIP3   OH233298   1.177   6.404   4.472
11138TIP3    H133299   1.085   6.371   4.473
11138TIP3    H233300   1.226   6.319   4.470
11139TIP3   OH233301   0.962   6.273   4.119
11139TIP3    H133302   0.991   6.334   4.048
11139TIP3    H233303   0.932   6.336   4.187
11140TIP3   OH233304   1.621   6.434   4.352
11140TIP3    H133305   1.678   6.489   4.296
11140TIP3    H233306   1.631   6.477   4.438
11141TIP3   OH233307   2.173   6.582   4.337
11141TIP3    H133308   2.161   6.550   4.247
11141TIP3    H233309   2.155   6.501   4.390
11142TIP3   OH233310   2.197   6.506   3.899
11142TIP3    H133311   2.111   6.550   3.911
11142TIP3    H233312   2.180   6.421   3.946
11143TIP3   OH233313   0.680   7.841   3.901
11143TIP3    H133314   0.594   7.811   3.868
11143TIP3    H233315   0.671   7.937   3.887
11144TIP3   OH233316   1.079   6.435   3.884
11144TIP3    H133317   1.130   6.374   3.828
11144TIP3    H233318   1.150   6.490   3.922
11145TIP3   OH233319   1.594   6.606   3.983
11145TIP3    H133320   1.655   6.563   4.046
11145TIP3    H233321   1.611   6.700   4.007
11146TIP3   OH233322   1.451   8.035   3.481
11146TIP3    H133323   1.540   8.056   3.446
11146TIP3    H233324   1.429   7.958   3.423
11147TIP3   OH233325   2.170   8.151   3.575
11147TIP3    H133326   2.162   8.053   3.562
11147TIP3    H233327   2.126   8.184   3.494
11148TIP3   OH233328   1.383   6.684   5.364
11148TIP3    H133329   1.350   6.614   5.423
11148TIP3    H233330   1.478   6.687   5.390
11149TIP3   OH233331   1.632   6.683   5.484
11149TIP3    H133332   1.716   6.657   5.443
11149TIP3    H233333   1.619   6.612   5.550
11150TIP3   OH233334   0.756   7.871   3.541
11150TIP3    H133335   0.760   7.895   3.635
11150TIP3    H233336   0.844   7.828   3.527
11151TIP3   OH233337   2.457   6.743   5.271
11151TIP3    H133338   2.477   6.713   5.362
11151TIP3    H233339   2.545   6.739   5.228
11152TIP3   OH233340   2.398   8.296   4.764
11152TIP3    H133341   2.319   8.263   4.716
11152TIP3    H233342   2.377   8.392   4.767
11153TIP3   OH233343   3.663   7.668   3.530
11153TIP3    H133344   3.636   7.759   3.510
11153TIP3    H233345   3.586   7.619   3.497
11154TIP3   OH233346   3.663   7.667   3.909
11154TIP3    H133347   3.692   7.638   3.997
11154TIP3    H233348   3.620   7.588   3.874
11155TIP3   OH233349   2.962   7.564   4.275
11155TIP3    H133350   2.995   7.498   4.339
11155TIP3    H233351   3.040   7.621   4.266
11156TIP3   OH233352   3.905   7.970   3.591
11156TIP3    H133353   3.891   7.901   3.658
11156TIP3    H233354   3.933   8.045   3.645
11157TIP3   OH233355   2.933   7.973   4.003
11157TIP3    H133356   2.924   7.875   4.005
11157TIP3    H233357   3.029   7.982   3.994
11158TIP3   OH233358   2.639   7.178   3.787
11158TIP3    H133359   2.590   7.261   3.800
11158TIP3    H233360   2.570   7.122   3.748
11159TIP3   OH233361   2.700   7.464   3.957
11159TIP3    H133362   2.748   7.388   3.994
11159TIP3    H233363   2.758   7.492   3.884
11160TIP3   OH233364   3.555   8.433   3.605
11160TIP3    H133365   3.603   8.360   3.559
11160TIP3    H233366   3.555   8.401   3.696
11161TIP3   OH233367   3.461   7.892   3.959
11161TIP3    H133368   3.499   7.817   3.910
11161TIP3    H233369   3.545   7.938   3.983
11162TIP3   OH233370   4.473   7.213   3.956
11162TIP3    H133371   4.501   7.297   3.999
11162TIP3    H233372   4.495   7.233   3.863
11163TIP3   OH233373   3.873   7.395   3.993
11163TIP3    H133374   3.916   7.310   4.011
11163TIP3    H233375   3.842   7.381   3.901
11164TIP3   OH233376   3.210   7.055   3.957
11164TIP3    H133377   3.190   7.127   3.895
11164TIP3    H233378   3.162   6.981   3.913
11165TIP3   OH233379   3.904   7.146   3.580
11165TIP3    H133380   3.977   7.130   3.644
11165TIP3    H233381   3.954   7.181   3.504
11166TIP3   OH233382   2.844   7.257   4.064
11166TIP3    H133383   2.927   7.236   4.111
11166TIP3    H233384   2.855   7.201   3.984
11167TIP3   OH233385   3.285   7.455   3.855
11167TIP3    H133386   3.379   7.429   3.869
11167TIP3    H233387   3.246   7.371   3.823
11168TIP3   OH233388   4.546   7.420   4.127
11168TIP3    H133389   4.463   7.469   4.107
11168TIP3    H233390   4.563   7.449   4.218
11169TIP3   OH233391   3.207   7.038   4.391
11169TIP3    H133392   3.148   7.075   4.323
11169TIP3    H233393   3.155   7.058   4.472
11170TIP3   OH233394   3.556   7.889   3.400
11170TIP3    H133395   3.513   7.867   3.316
11170TIP3    H233396   3.513   7.974   3.422
11171TIP3   OH233397   3.314   7.813   4.188
11171TIP3    H133398   3.250   7.878   4.224
11171TIP3    H233399   3.356   7.864   4.116
11172TIP3   OH233400   4.116   7.147   3.750
11172TIP3    H133401   4.108   7.098   3.833
11172TIP3    H233402   4.171   7.224   3.776
11173TIP3   OH233403   3.078   7.153   4.176
11173TIP3    H133404   3.140   7.226   4.197
11173TIP3    H233405   3.127   7.112   4.100
11174TIP3   OH233406   3.141   8.005   4.284
11174TIP3    H133407   3.117   8.091   4.244
11174TIP3    H233408   3.062   7.992   4.341
11175TIP3   OH233409   2.539   7.697   3.520
11175TIP3    H133410   2.496   7.723   3.437
11175TIP3    H233411   2.568   7.783   3.556
11176TIP3   OH233412   3.979   8.212   3.761
11176TIP3    H133413   3.889   8.204   3.801
11176TIP3    H233414   3.970   8.298   3.716
11177TIP3   OH233415   4.267   7.114   4.122
11177TIP3    H133416   4.179   7.143   4.093
11177TIP3    H233417   4.326   7.145   4.050
11178TIP3   OH233418   3.566   6.758   4.105
11178TIP3    H133419   3.552   6.663   4.120
11178TIP3    H233420   3.488   6.796   4.151
11179TIP3   OH233421   3.681   8.259   3.434
11179TIP3    H133422   3.731   8.177   3.412
11179TIP3    H233423   3.739   8.326   3.392
11180TIP3   OH233424   3.822   8.044   3.338
11180TIP3    H133425   3.783   7.965   3.299
11180TIP3    H233426   3.857   8.010   3.423
11181TIP3   OH233427   4.205   8.125   4.104
11181TIP3    H133428   4.192   8.049   4.043
11181TIP3    H233429   4.185   8.201   4.044
11182TIP3   OH233430   3.494   7.520   3.360
11182TIP3    H133431   3.413   7.570   3.337
11182TIP3    H233432   3.540   7.517   3.274
11183TIP3   OH233433   3.453   7.304   3.078
11183TIP3    H133434   3.521   7.353   3.126
11183TIP3    H233435   3.509   7.240   3.030
11184TIP3   OH233436   4.398   7.762   3.947
11184TIP3    H133437   4.315   7.815   3.952
11184TIP3    H233438   4.428   7.785   3.857
11185TIP3   OH233439   3.840   7.602   3.332
11185TIP3    H133440   3.786   7.627   3.411
11185TIP3    H233441   3.924   7.576   3.376
11186TIP3   OH233442   4.076   7.642   4.243
11186TIP3    H133443   4.073   7.727   4.291
11186TIP3    H233444   3.990   7.645   4.197
11187TIP3   OH233445   3.073   7.600   3.749
11187TIP3    H133446   3.031   7.542   3.681
11187TIP3    H233447   3.150   7.547   3.776
11188TIP3   OH233448   3.202   8.007   3.899
11188TIP3    H133449   3.183   7.966   3.813
11188TIP3    H233450   3.293   7.977   3.917
11189TIP3   OH233451   3.212   7.571   4.103
11189TIP3    H133452   3.243   7.552   4.013
11189TIP3    H233453   3.253   7.658   4.123
11190TIP3   OH233454   3.739   8.211   3.881
11190TIP3    H133455   3.710   8.291   3.928
11190TIP3    H233456   3.720   8.139   3.944
11191TIP3   OH233457   3.347   8.128   4.428
11191TIP3    H133458   3.287   8.192   4.473
11191TIP3    H233459   3.281   8.075   4.378
11192TIP3   OH233460   3.683   7.459   3.158
11192TIP3    H133461   3.742   7.519   3.210
11192TIP3    H233462   3.708   7.485   3.066
11193TIP3   OH233463   3.102   7.683   4.528
11193TIP3    H133464   3.106   7.771   4.572
11193TIP3    H233465   3.006   7.665   4.535
11194TIP3   OH233466   3.425   8.140   3.432
11194TIP3    H133467   3.502   8.195   3.454
11194TIP3    H233468   3.362   8.204   3.396
11195TIP3   OH233469   3.141   8.302   4.515
11195TIP3    H133470   3.110   8.298   4.422
11195TIP3    H233471   3.061   8.276   4.565
11196TIP3   OH233472   4.198   6.702   3.206
11196TIP3    H133473   4.117   6.722   3.257
11196TIP3    H233474   4.210   6.785   3.156
11197TIP3   OH233475   2.940   7.442   3.554
11197TIP3    H133476   2.875   7.488   3.497
11197TIP3    H233477   2.897   7.357   3.566
11198TIP3   OH233478   3.996   8.069   2.755
11198TIP3    H133479   4.004   8.166   2.740
11198TIP3    H233480   4.089   8.040   2.742
11199TIP3   OH233481   2.721   7.827   4.460
11199TIP3    H133482   2.655   7.806   4.391
11199TIP3    H233483   2.757   7.739   4.484
11200TIP3   OH233484   2.575   8.020   4.094
11200TIP3    H133485   2.671   8.012   4.082
11200TIP3    H233486   2.569   8.099   4.149
11201TIP3   OH233487   4.433   8.466   4.148
11201TIP3    H133488   4.443   8.369   4.153
11201TIP3    H233489   4.351   8.477   4.197
11202TIP3   OH233490   3.551   8.258   4.288
11202TIP3    H133491   3.545   8.352   4.317
11202TIP3    H233492   3.476   8.219   4.338
11203TIP3   OH233493   3.305   8.387   3.234
11203TIP3    H133494   3.259   8.367   3.151
11203TIP3    H233495   3.272   8.475   3.258
11204TIP3   OH233496   2.743   8.236   3.618
11204TIP3    H133497   2.792   8.227   3.703
11204TIP3    H233498   2.686   8.157   3.623
11205TIP3   OH233499   3.508   8.287   2.877
11205TIP3    H133500   3.566   8.217   2.840
11205TIP3    H233501   3.542   8.295   2.968
11206TIP3   OH233502   3.558   8.335   3.147
11206TIP3    H133503   3.469   8.345   3.189
11206TIP3    H233504   3.607   8.292   3.219
11207TIP3   OH233505   4.329   7.602   4.424
11207TIP3    H133506   4.250   7.617   4.370
11207TIP3    H233507   4.344   7.506   4.412
11208TIP3   OH233508   2.926   8.010   4.452
11208TIP3    H133509   2.976   7.991   4.533
11208TIP3    H233510   2.852   7.946   4.457
11209TIP3   OH233511   3.326   6.833   4.233
11209TIP3    H133512   3.236   6.802   4.208
11209TIP3    H233513   3.301   6.917   4.277
11210TIP3   OH233514   3.858   6.949   4.427
11210TIP3    H133515   3.926   6.921   4.492
11210TIP3    H233516   3.774   6.928   4.473
11211TIP3   OH233517   4.099   7.377   4.345
11211TIP3    H133518   4.050   7.375   4.431
11211TIP3    H233519   4.074   7.465   4.309
11212TIP3   OH233520   3.757   7.508   2.902
11212TIP3    H133521   3.725   7.481   2.813
11212TIP3    H233522   3.838   7.557   2.878
11213TIP3   OH233523   3.471   6.883   3.203
11213TIP3    H133524   3.438   6.881   3.295
11213TIP3    H233525   3.433   6.799   3.171
11214TIP3   OH233526   3.257   7.348   4.251
11214TIP3    H133527   3.206   7.369   4.332
11214TIP3    H233528   3.242   7.429   4.198
11215TIP3   OH233529   3.141   7.234   3.766
11215TIP3    H133530   3.048   7.209   3.782
11215TIP3    H233531   3.154   7.194   3.677
11216TIP3   OH233532   3.631   7.321   3.493
11216TIP3    H133533   3.578   7.392   3.451
11216TIP3    H233534   3.686   7.291   3.417
11217TIP3   OH233535   3.806   7.600   4.581
11217TIP3    H133536   3.784   7.527   4.642
11217TIP3    H233537   3.901   7.612   4.601
11218TIP3   OH233538   3.789   7.350   3.733
11218TIP3    H133539   3.730   7.381   3.661
11218TIP3    H233540   3.821   7.268   3.690
11219TIP3   OH233541   3.077   7.379   4.460
11219TIP3    H133542   3.100   7.443   4.529
11219TIP3    H233543   3.064   7.297   4.512
11220TIP3   OH233544   3.126   6.855   3.170
11220TIP3    H133545   3.117   6.852   3.268
11220TIP3    H233546   3.047   6.906   3.146
11221TIP3   OH233547   2.668   6.901   4.042
11221TIP3    H133548   2.745   6.932   4.094
11221TIP3    H233549   2.708   6.868   3.960
11222TIP3   OH233550   2.645   6.882   3.561
11222TIP3    H133551   2.687   6.921   3.482
11222TIP3    H233552   2.582   6.954   3.583
11223TIP3   OH233553   3.800   7.596   4.156
11223TIP3    H133554   3.832   7.524   4.097
11223TIP3    H233555   3.770   7.544   4.233
11224TIP3   OH233556   3.467   7.056   3.828
11224TIP3    H133557   3.384   7.055   3.879
11224TIP3    H233558   3.534   7.058   3.898
11225TIP3   OH233559   2.902   7.113   3.836
11225TIP3    H133560   2.807   7.120   3.809
11225TIP3    H233561   2.925   7.021   3.811
11226TIP3   OH233562   3.173   7.109   3.523
11226TIP3    H133563   3.267   7.125   3.501
11226TIP3    H233564   3.126   7.133   3.440
11227TIP3   OH233565   3.960   7.132   4.030
11227TIP3    H133566   3.924   7.144   4.120
11227TIP3    H233567   3.895   7.071   3.991
11228TIP3   OH233568   3.013   7.142   3.303
11228TIP3    H133569   2.940   7.098   3.255
11228TIP3    H233570   3.064   7.178   3.228
11229TIP3   OH233571   4.103   8.890   4.265
11229TIP3    H133572   4.096   8.844   4.180
11229TIP3    H233573   4.197   8.876   4.284
11230TIP3   OH233574   3.087   7.931   4.670
11230TIP3    H133575   3.166   7.963   4.716
11230TIP3    H233576   3.022   7.930   4.743
11231TIP3   OH233577   3.552   7.384   3.924
11231TIP3    H133578   3.625   7.346   3.872
11231TIP3    H233579   3.564   7.343   4.011
11232TIP3   OH233580   3.077   6.873   3.802
11232TIP3    H133581   3.042   6.792   3.847
11232TIP3    H233582   3.125   6.836   3.727
11233TIP3   OH233583   3.528   7.278   4.218
11233TIP3    H133584   3.438   7.317   4.229
11233TIP3    H233585   3.585   7.341   4.266
11234TIP3   OH233586   3.265   7.673   3.309
11234TIP3    H133587   3.192   7.608   3.298
11234TIP3    H233588   3.247   7.706   3.400
11235TIP3   OH233589   4.166   7.908   3.939
11235TIP3    H133590   4.190   7.957   3.858
11235TIP3    H233591   4.080   7.868   3.914
11236TIP3   OH233592   3.723   6.985   3.171
11236TIP3    H133593   3.627   6.970   3.178
11236TIP3    H233594   3.733   7.080   3.194
11237TIP3   OH233595   3.662   7.989   4.307
11237TIP3    H133596   3.686   7.973   4.399
11237TIP3    H233597   3.628   8.080   4.310
11238TIP3   OH233598   3.793   7.232   3.274
11238TIP3    H133599   3.889   7.238   3.289
11238TIP3    H233600   3.774   7.311   3.220
11239TIP3   OH233601   2.957   7.694   3.986
11239TIP3    H133602   2.995   7.667   3.900
11239TIP3    H233603   2.996   7.629   4.047
11240TIP3   OH233604   3.410   7.822   3.129
11240TIP3    H133605   3.363   7.909   3.137
11240TIP3    H233606   3.356   7.767   3.190
11241TIP3   OH233607   2.836   7.614   4.598
11241TIP3    H133608   2.855   7.600   4.693
11241TIP3    H233609   2.766   7.549   4.581
11242TIP3   OH233610   3.562   7.726   4.620
11242TIP3    H133611   3.503   7.670   4.567
11242TIP3    H233612   3.649   7.694   4.590
11243TIP3   OH233613   3.834   8.250   4.216
11243TIP3    H133614   3.738   8.257   4.231
11243TIP3    H233615   3.871   8.309   4.283
11244TIP3   OH233616   4.236   7.321   3.111
11244TIP3    H133617   4.173   7.276   3.050
11244TIP3    H233618   4.232   7.410   3.069
11245TIP3   OH233619   4.454   8.183   4.190
11245TIP3    H133620   4.356   8.175   4.183
11245TIP3    H233621   4.480   8.150   4.101
11246TIP3   OH233622   3.934   8.141   3.019
11246TIP3    H133623   3.910   8.070   3.080
11246TIP3    H233624   3.947   8.095   2.934
11247TIP3   OH233625   3.931   7.770   3.859
11247TIP3    H133626   3.837   7.745   3.871
11247TIP3    H233627   3.965   7.691   3.813
11248TIP3   OH233628   3.057   7.996   3.608
11248TIP3    H133629   3.060   8.079   3.558
11248TIP3    H233630   2.962   7.985   3.619
11249TIP3   OH233631   2.621   7.302   3.313
11249TIP3    H133632   2.667   7.386   3.334
11249TIP3    H233633   2.543   7.308   3.373
11250TIP3   OH233634   3.198   7.764   3.556
11250TIP3    H133635   3.162   7.854   3.572
11250TIP3    H233636   3.160   7.715   3.630
11251TIP3   OH233637   3.324   8.346   4.084
11251TIP3    H133638   3.345   8.439   4.065
11251TIP3    H233639   3.407   8.315   4.123
11252TIP3   OH233640   2.978   8.238   3.463
11252TIP3    H133641   2.891   8.245   3.509
11252TIP3    H233642   3.009   8.331   3.468
11253TIP3   OH233643   3.716   7.977   4.038
11253TIP3    H133644   3.707   7.974   4.136
11253TIP3    H233645   3.797   7.926   4.025
11254TIP3   OH233646   3.688   7.868   2.921
11254TIP3    H133647   3.742   7.844   3.000
11254TIP3    H233648   3.600   7.842   2.951
11255TIP3   OH233649   3.964   8.508   4.071
11255TIP3    H133650   3.885   8.452   4.069
11255TIP3    H233651   3.943   8.576   4.004
11256TIP3   OH233652   4.029   8.344   2.740
11256TIP3    H133653   4.069   8.417   2.689
11256TIP3    H233654   3.949   8.391   2.772
11257TIP3   OH233655   3.049   7.121   4.608
11257TIP3    H133656   2.952   7.127   4.620
11257TIP3    H233657   3.074   7.059   4.678
11258TIP3   OH233658   3.849   7.803   3.138
11258TIP3    H133659   3.839   7.736   3.208
11258TIP3    H233660   3.946   7.802   3.125
11259TIP3   OH233661   2.762   8.206   4.241
11259TIP3    H133662   2.816   8.131   4.269
11259TIP3    H233663   2.800   8.277   4.296
11260TIP3   OH233664   3.056   7.849   2.920
11260TIP3    H133665   3.071   7.757   2.891
11260TIP3    H233666   3.037   7.837   3.015
11261TIP3   OH233667   3.002   7.854   3.192
11261TIP3    H133668   3.072   7.828   3.253
11261TIP3    H233669   3.006   7.952   3.199
11262TIP3   OH233670   2.738   7.549   3.395
11262TIP3    H133671   2.672   7.593   3.453
11262TIP3    H233672   2.753   7.618   3.329
11263TIP3   OH233673   3.884   7.186   4.288
11263TIP3    H133674   3.966   7.223   4.326
11263TIP3    H233675   3.871   7.105   4.341
11264TIP3   OH233676   3.764   6.937   3.451
11264TIP3    H133677   3.751   6.961   3.357
11264TIP3    H233678   3.804   7.019   3.487
11265TIP3   OH233679   3.266   8.052   3.141
11265TIP3    H133680   3.180   8.081   3.177
11265TIP3    H233681   3.283   8.122   3.077
11266TIP3   OH233682   3.456   7.114   3.554
11266TIP3    H133683   3.521   7.186   3.536
11266TIP3    H233684   3.461   7.109   3.652
11267TIP3   OH233685   3.724   7.434   4.363
11267TIP3    H133686   3.744   7.488   4.442
11267TIP3    H233687   3.780   7.356   4.376
11268TIP3   OH233688   3.601   6.844   3.659
11268TIP3    H133689   3.591   6.922   3.717
11268TIP3    H233690   3.661   6.880   3.589
11269TIP3   OH233691   3.009   8.128   3.208
11269TIP3    H133692   2.979   8.198   3.145
11269TIP3    H233693   2.993   8.172   3.295
11270TIP3   OH233694   3.111   6.840   3.448
11270TIP3    H133695   3.108   6.931   3.482
11270TIP3    H233696   3.207   6.822   3.455
11271TIP3   OH233697   4.366   7.334   4.344
11271TIP3    H133698   4.268   7.332   4.350
11271TIP3    H233699   4.378   7.298   4.255
11272TIP3   OH233700   4.016   7.529   3.732
11272TIP3    H133701   3.940   7.469   3.743
11272TIP3    H233702   4.088   7.482   3.779
11273TIP3   OH233703   2.727   7.759   3.202
11273TIP3    H133704   2.793   7.831   3.210
11273TIP3    H233705   2.773   7.705   3.134
11274TIP3   OH233706   2.673   7.031   3.334
11274TIP3    H133707   2.668   7.129   3.329
11274TIP3    H233708   2.592   7.005   3.289
11275TIP3   OH233709   3.984   8.484   3.681
11275TIP3    H133710   3.941   8.531   3.606
11275TIP3    H233711   4.078   8.504   3.660
11276TIP3   OH233712   3.062   6.753   4.209
11276TIP3    H133713   3.029   6.722   4.122
11276TIP3    H233714   3.049   6.674   4.265
11277TIP3   OH233715   2.601   7.973   3.591
11277TIP3    H133716   2.527   8.003   3.645
11277TIP3    H233717   2.578   8.012   3.504
11278TIP3   OH233718   2.755   8.511   4.661
11278TIP3    H133719   2.841   8.508   4.706
11278TIP3    H233720   2.732   8.417   4.657
11279TIP3   OH233721   3.249   8.476   4.707
11279TIP3    H133722   3.340   8.442   4.703
11279TIP3    H233723   3.210   8.426   4.633
11280TIP3   OH233724   3.220   8.054   2.834
11280TIP3    H133725   3.164   7.983   2.872
11280TIP3    H233726   3.294   8.002   2.800
11281TIP3   OH233727   3.655   8.096   2.744
11281TIP3    H133728   3.701   8.032   2.801
11281TIP3    H233729   3.711   8.096   2.664
11282TIP3   OH233730   2.887   7.920   4.861
11282TIP3    H133731   2.903   7.823   4.863
11282TIP3    H233732   2.799   7.923   4.818
11283TIP3   OH233733   2.863   7.572   3.053
11283TIP3    H133734   2.918   7.537   3.126
11283TIP3    H233735   2.931   7.576   2.982
11284TIP3   OH233736   3.491   7.999   4.635
11284TIP3    H133737   3.453   8.020   4.548
11284TIP3    H233738   3.523   7.907   4.624
11285TIP3   OH233739   3.371   7.768   2.860
11285TIP3    H133740   3.374   7.782   2.957
11285TIP3    H233741   3.371   7.669   2.857
11286TIP3   OH233742   3.988   8.011   4.240
11286TIP3    H133743   4.062   8.057   4.195
11286TIP3    H233744   3.918   8.078   4.231
11287TIP3   OH233745   3.004   7.654   4.843
11287TIP3    H133746   3.078   7.596   4.821
11287TIP3    H233747   3.030   7.686   4.932
11288TIP3   OH233748   3.073   7.473   3.277
11288TIP3    H133749   3.045   7.431   3.359
11288TIP3    H233750   3.108   7.397   3.225
11289TIP3   OH233751   3.342   7.539   4.505
11289TIP3    H133752   3.263   7.598   4.508
11289TIP3    H233753   3.388   7.571   4.425
11290TIP3   OH233754   3.172   7.266   3.117
11290TIP3    H133755   3.145   7.268   3.023
11290TIP3    H233756   3.269   7.274   3.108
11291TIP3   OH233757   3.861   7.942   4.639
11291TIP3    H133758   3.938   7.920   4.585
11291TIP3    H233759   3.860   7.870   4.705
11292TIP3   OH233760   3.995   7.599   2.778
11292TIP3    H133761   3.973   7.552   2.696
11292TIP3    H233762   3.964   7.689   2.754
11293TIP3   OH233763   3.464   7.326   4.631
11293TIP3    H133764   3.464   7.246   4.574
11293TIP3    H233765   3.421   7.392   4.573
11294TIP3   OH233766   3.466   7.111   4.438
11294TIP3    H133767   3.494   7.154   4.354
11294TIP3    H233768   3.373   7.089   4.419
11295TIP3   OH233769   3.496   7.649   4.311
11295TIP3    H133770   3.577   7.658   4.260
11295TIP3    H233771   3.439   7.717   4.268
11296TIP3   OH233772   4.079   7.617   4.694
11296TIP3    H133773   4.126   7.533   4.698
11296TIP3    H233774   4.145   7.676   4.656
11297TIP3   OH233775   4.117   7.869   4.430
11297TIP3    H133776   4.059   7.922   4.369
11297TIP3    H233777   4.204   7.888   4.389
11298TIP3   OH233778   3.343   7.439   4.862
11298TIP3    H133779   3.273   7.372   4.874
11298TIP3    H233780   3.377   7.416   4.773
11299TIP3   OH233781   3.599   6.877   4.505
11299TIP3    H133782   3.551   6.960   4.481
11299TIP3    H233783   3.529   6.810   4.492
11300TIP3   OH233784   3.725   7.382   4.720
11300TIP3    H133785   3.712   7.371   4.816
11300TIP3    H233786   3.635   7.357   4.689
11301TIP3   OH233787   3.965   7.332   4.576
11301TIP3    H133788   3.888   7.332   4.636
11301TIP3    H233789   4.037   7.300   4.634
11302TIP3   OH233790   4.194   7.271   4.729
11302TIP3    H133791   4.206   7.175   4.747
11302TIP3    H233792   4.190   7.310   4.819
11303TIP3   OH233793   3.181   7.220   4.913
11303TIP3    H133794   3.188   7.129   4.876
11303TIP3    H233795   3.216   7.205   5.003
11304TIP3   OH233796   3.693   6.885   4.762
11304TIP3    H133797   3.761   6.816   4.755
11304TIP3    H233798   3.653   6.880   4.673
11305TIP3   OH233799   3.758   7.100   4.922
11305TIP3    H133800   3.735   7.030   4.857
11305TIP3    H233801   3.681   7.161   4.914
11306TIP3   OH233802   2.979   8.330   3.020
11306TIP3    H133803   3.075   8.327   3.001
11306TIP3    H233804   2.948   8.377   2.940
11307TIP3   OH233805   2.459   7.711   3.237
11307TIP3    H133806   2.554   7.733   3.224
11307TIP3    H233807   2.454   7.623   3.196
11308TIP3   OH233808   2.372   8.324   3.651
11308TIP3    H133809   2.305   8.261   3.616
11308TIP3    H233810   2.417   8.268   3.717
11309TIP3   OH233811   2.509   8.177   3.837
11309TIP3    H133812   2.499   8.103   3.898
11309TIP3    H233813   2.562   8.238   3.892
11310TIP3   OH233814   4.234   8.581   3.636
11310TIP3    H133815   4.267   8.608   3.723
11310TIP3    H233816   4.303   8.615   3.576
11311TIP3   OH233817   4.271   8.597   3.919
11311TIP3    H133818   4.220   8.513   3.914
11311TIP3    H233819   4.347   8.567   3.971
11312TIP3   OH233820   4.313   8.277   4.490
11312TIP3    H133821   4.233   8.286   4.545
11312TIP3    H233822   4.350   8.367   4.499
11313TIP3   OH233823   4.129   7.786   3.112
11313TIP3    H133824   4.198   7.850   3.084
11313TIP3    H233825   4.171   7.746   3.191
11314TIP3   OH233826   4.256   7.654   3.315
11314TIP3    H133827   4.191   7.611   3.375
11314TIP3    H233828   4.322   7.691   3.377
11315TIP3   OH233829   4.311   8.044   3.749
11315TIP3    H133830   4.364   7.981   3.697
11315TIP3    H233831   4.300   8.119   3.687
11316TIP3   OH233832   4.146   8.346   3.946
11316TIP3    H133833   4.078   8.394   3.998
11316TIP3    H233834   4.092   8.300   3.879
11317TIP3   OH233835   4.194   7.561   2.963
11317TIP3    H133836   4.123   7.564   2.896
11317TIP3    H233837   4.168   7.637   3.018
11318TIP3   OH233838   4.065   7.234   2.919
11318TIP3    H133839   4.025   7.274   2.841
11318TIP3    H233840   4.040   7.140   2.908
11319TIP3   OH233841   4.070   7.509   3.462
11319TIP3    H133842   4.079   7.412   3.458
11319TIP3    H233843   4.057   7.524   3.558
11320TIP3   OH233844   2.698   7.582   4.209
11320TIP3    H133845   2.695   7.553   4.116
11320TIP3    H233846   2.795   7.584   4.225
11321TIP3   OH233847   4.359   7.934   4.321
11321TIP3    H133848   4.432   7.869   4.311
11321TIP3    H233849   4.383   8.002   4.256
11322TIP3   OH233850   4.545   7.741   4.339
11322TIP3    H133851   4.470   7.690   4.377
11322TIP3    H233852   4.618   7.676   4.352
11323TIP3   OH233853   4.009   6.968   2.905
11323TIP3    H133854   4.085   6.937   2.958
11323TIP3    H233855   3.937   6.908   2.930
11324TIP3   OH233856   4.066   7.225   3.358
11324TIP3    H133857   4.108   7.137   3.373
11324TIP3    H233858   4.125   7.259   3.288
11325TIP3   OH233859   4.230   7.400   3.853
11325TIP3    H133860   4.315   7.427   3.812
11325TIP3    H233861   4.243   7.437   3.942
11326TIP3   OH233862   4.297   7.544   4.087
11326TIP3    H133863   4.218   7.578   4.133
11326TIP3    H233864   4.329   7.624   4.040
11327TIP3   OH233865   2.913   7.270   4.885
11327TIP3    H133866   3.011   7.263   4.885
11327TIP3    H233867   2.889   7.185   4.927
11328TIP3   OH233868   4.749   7.134   4.642
11328TIP3    H133869   4.807   7.068   4.598
11328TIP3    H233870   4.721   7.190   4.566
11329TIP3   OH233871   4.176   6.975   3.396
11329TIP3    H133872   4.224   6.958   3.479
11329TIP3    H233873   4.116   6.898   3.394
11330TIP3   OH233874   2.877   6.961   4.215
11330TIP3    H133875   2.940   6.887   4.225
11330TIP3    H233876   2.938   7.037   4.209
11331TIP3   OH233877   2.681   7.236   4.290
11331TIP3    H133878   2.728   7.228   4.205
11331TIP3    H233879   2.707   7.324   4.318
11332TIP3   OH233880   4.620   7.275   4.449
11332TIP3    H133881   4.532   7.314   4.466
11332TIP3    H233882   4.595   7.203   4.388
11333TIP3   OH233883   4.258   6.911   3.028
11333TIP3    H133884   4.297   6.839   2.975
11333TIP3    H233885   4.324   6.982   3.019
11334TIP3   OH233886   2.662   6.741   3.790
11334TIP3    H133887   2.567   6.737   3.814
11334TIP3    H233888   2.660   6.797   3.710
11335TIP3   OH233889   3.822   8.443   3.295
11335TIP3    H133890   3.871   8.425   3.212
11335TIP3    H233891   3.879   8.508   3.338
11336TIP3   OH233892   2.882   6.818   4.604
11336TIP3    H133893   2.831   6.814   4.686
11336TIP3    H233894   2.816   6.858   4.543
11337TIP3   OH233895   2.922   8.247   4.684
11337TIP3    H133896   2.831   8.218   4.661
11337TIP3    H233897   2.926   8.225   4.777
11338TIP3   OH233898   3.102   8.273   4.233
11338TIP3    H133899   3.050   8.344   4.188
11338TIP3    H233900   3.186   8.289   4.185
11339TIP3   OH233901   3.553   8.524   4.369
11339TIP3    H133902   3.607   8.530   4.450
11339TIP3    H233903   3.608   8.575   4.305
11340TIP3   OH233904   3.755   8.661   4.226
11340TIP3    H133905   3.812   8.587   4.201
11340TIP3    H233906   3.817   8.710   4.279
11341TIP3   OH233907   4.518   7.038   4.325
11341TIP3    H133908   4.428   7.033   4.290
11341TIP3    H233909   4.548   6.945   4.311
11342TIP3   OH233910   2.773   8.537   4.254
11342TIP3    H133911   2.685   8.574   4.229
11342TIP3    H233912   2.780   8.569   4.344
11343TIP3   OH233913   2.995   8.482   4.099
11343TIP3    H133914   2.917   8.516   4.146
11343TIP3    H233915   3.000   8.540   4.021
11344TIP3   OH233916   3.683   8.495   3.950
11344TIP3    H133917   3.601   8.542   3.978
11344TIP3    H233918   3.733   8.570   3.915
11345TIP3   OH233919   3.922   8.686   3.867
11345TIP3    H133920   3.899   8.766   3.817
11345TIP3    H233921   3.939   8.620   3.796
11346TIP3   OH233922   2.687   8.329   3.997
11346TIP3    H133923   2.716   8.306   4.087
11346TIP3    H233924   2.760   8.289   3.945
11347TIP3   OH233925   2.880   8.201   3.851
11347TIP3    H133926   2.897   8.118   3.901
11347TIP3    H233927   2.970   8.240   3.848
11348TIP3   OH233928   3.144   8.290   3.856
11348TIP3    H133929   3.180   8.200   3.850
11348TIP3    H233930   3.186   8.320   3.938
11349TIP3   OH233931   3.725   6.953   3.944
11349TIP3    H133932   3.681   6.883   3.995
11349TIP3    H233933   3.795   6.904   3.897
11350TIP3   OH233934   4.248   6.833   3.851
11350TIP3    H133935   4.285   6.884   3.775
11350TIP3    H233936   4.152   6.851   3.842
11351TIP3   OH233937   4.342   6.932   3.614
11351TIP3    H133938   4.415   6.881   3.572
11351TIP3    H233939   4.375   7.024   3.598
11352TIP3   OH233940   2.973   6.661   3.961
11352TIP3    H133941   2.881   6.628   3.960
11352TIP3    H233942   3.022   6.576   3.957
11353TIP3   OH233943   2.762   6.529   3.608
11353TIP3    H133944   2.789   6.587   3.534
11353TIP3    H233945   2.729   6.594   3.673
11354TIP3   OH233946   3.416   6.693   3.839
11354TIP3    H133947   3.474   6.743   3.781
11354TIP3    H233948   3.436   6.732   3.925
11355TIP3   OH233949   3.965   6.840   3.824
11355TIP3    H133950   3.960   6.805   3.735
11355TIP3    H233951   3.950   6.758   3.878
11356TIP3   OH233952   3.993   6.762   3.386
11356TIP3    H133953   3.906   6.804   3.396
11356TIP3    H233954   3.978   6.677   3.432
11357TIP3   OH233955   2.476   8.099   3.388
11357TIP3    H133956   2.392   8.066   3.353
11357TIP3    H233957   2.464   8.194   3.373
11358TIP3   OH233958   2.875   6.688   3.373
11358TIP3    H133959   2.924   6.628   3.315
11358TIP3    H233960   2.947   6.744   3.409
11359TIP3   OH233961   3.388   6.864   3.470
11359TIP3    H133962   3.449   6.818   3.530
11359TIP3    H233963   3.409   6.957   3.494
11360TIP3   OH233964   3.247   8.292   2.968
11360TIP3    H133965   3.336   8.313   2.933
11360TIP3    H233966   3.225   8.216   2.910
11361TIP3   OH233967   3.966   8.408   3.062
11361TIP3    H133968   3.958   8.310   3.048
11361TIP3    H233969   3.923   8.441   2.981
11362TIP3   OH233970   3.180   6.942   4.851
11362TIP3    H133971   3.147   6.871   4.909
11362TIP3    H233972   3.274   6.943   4.877
11363TIP3   OH233973   3.429   6.940   4.970
11363TIP3    H133974   3.513   6.916   4.928
11363TIP3    H233975   3.418   6.867   5.035
11364TIP3   OH233976   2.553   8.128   3.027
11364TIP3    H133977   2.554   8.151   3.121
11364TIP3    H233978   2.641   8.086   3.015
11365TIP3   OH233979   4.253   7.000   4.758
11365TIP3    H133980   4.274   6.969   4.849
11365TIP3    H233981   4.341   6.996   4.715
11366TIP3   OH233982   5.459   7.924   3.017
11366TIP3    H133983   5.433   8.016   2.997
11366TIP3    H233984   5.381   7.877   2.983
11367TIP3   OH233985   5.462   7.921   3.392
11367TIP3    H133986   5.489   7.896   3.482
11367TIP3    H233987   5.416   7.842   3.361
11368TIP3   OH233988   4.758   7.822   3.765
11368TIP3    H133989   4.791   7.755   3.827
11368TIP3    H233990   4.837   7.875   3.750
11369TIP3   OH233991   5.702   8.223   3.078
11369TIP3    H133992   5.686   8.156   3.145
11369TIP3    H233993   5.724   8.301   3.132
11370TIP3   OH233994   4.729   8.228   3.493
11370TIP3    H133995   4.721   8.131   3.493
11370TIP3    H233996   4.825   8.238   3.477
11371TIP3   OH233997   4.435   7.433   3.274
11371TIP3    H133998   4.387   7.517   3.287
11371TIP3    H233999   4.365   7.379   3.235
11372TIP3   OH234000   4.495   7.720   3.443
11372TIP3    H134001   4.545   7.644   3.480
11372TIP3    H234002   4.556   7.751   3.374
11373TIP3   OH234003   5.255   8.148   3.448
11373TIP3    H134004   5.296   8.076   3.397
11373TIP3    H234005   5.338   8.196   3.471
11374TIP3   OH234006   6.270   7.470   3.443
11374TIP3    H134007   6.298   7.553   3.485
11374TIP3    H234008   6.292   7.488   3.350
11375TIP3   OH234009   5.668   7.651   3.480
11375TIP3    H134010   5.712   7.566   3.497
11375TIP3    H234011   5.638   7.638   3.388
11376TIP3   OH234012   5.006   7.311   3.444
11376TIP3    H134013   4.986   7.384   3.382
11376TIP3    H234014   4.958   7.238   3.400
11377TIP3   OH234015   5.700   7.402   3.067
11377TIP3    H134016   5.773   7.387   3.131
11377TIP3    H234017   5.750   7.438   2.991
11378TIP3   OH234018   4.640   7.513   3.551
11378TIP3    H134019   4.724   7.493   3.597
11378TIP3    H234020   4.652   7.458   3.471
11379TIP3   OH234021   5.081   7.711   3.343
11379TIP3    H134022   5.175   7.686   3.356
11379TIP3    H234023   5.042   7.627   3.310
11380TIP3   OH234024   6.342   7.677   3.614
11380TIP3    H134025   6.260   7.726   3.594
11380TIP3    H234026   6.360   7.706   3.705
11381TIP3   OH234027   5.003   7.295   3.878
11381TIP3    H134028   4.944   7.331   3.809
11381TIP3    H234029   4.951   7.314   3.958
11382TIP3   OH234030   5.357   8.148   2.885
11382TIP3    H134031   5.310   8.128   2.804
11382TIP3    H234032   5.314   8.232   2.912
11383TIP3   OH234033   5.110   8.069   3.675
11383TIP3    H134034   5.047   8.137   3.709
11383TIP3    H234035   5.153   8.118   3.601
11384TIP3   OH234036   5.912   7.404   3.237
11384TIP3    H134037   5.905   7.355   3.320
11384TIP3    H234038   5.967   7.480   3.263
11385TIP3   OH234039   4.874   7.410   3.663
11385TIP3    H134040   4.936   7.483   3.684
11385TIP3    H234041   4.923   7.369   3.587
11386TIP3   OH234042   4.937   8.263   3.773
11386TIP3    H134043   4.913   8.347   3.727
11386TIP3    H234044   4.857   8.251   3.828
11387TIP3   OH234045   4.334   7.953   3.007
11387TIP3    H134046   4.293   7.979   2.923
11387TIP3    H234047   4.364   8.039   3.043
11388TIP3   OH234048   5.753   8.474   3.258
11388TIP3    H134049   5.659   8.468   3.281
11388TIP3    H234050   5.755   8.559   3.209
11389TIP3   OH234051   6.063   7.370   3.609
11389TIP3    H134052   5.976   7.400   3.579
11389TIP3    H234053   6.122   7.402   3.537
11390TIP3   OH234054   5.362   7.015   3.591
11390TIP3    H134055   5.349   6.919   3.607
11390TIP3    H234056   5.284   7.052   3.637
11391TIP3   OH234057   5.464   8.511   2.878
11391TIP3    H134058   5.527   8.436   2.872
11391TIP3    H234059   5.525   8.587   2.870
11392TIP3   OH234060   5.628   8.296   2.821
11392TIP3    H134061   5.573   8.223   2.792
11392TIP3    H234062   5.659   8.264   2.909
11393TIP3   OH234063   5.999   8.383   3.590
11393TIP3    H134064   5.988   8.305   3.531
11393TIP3    H234065   5.981   8.457   3.529
11394TIP3   OH234066   5.289   7.775   2.846
11394TIP3    H134067   5.209   7.827   2.823
11394TIP3    H234068   5.337   7.774   2.761
11395TIP3   OH234069   5.249   7.561   2.565
11395TIP3    H134070   5.317   7.610   2.613
11395TIP3    H234071   5.305   7.497   2.517
11396TIP3   OH234072   6.194   8.018   3.434
11396TIP3    H134073   6.111   8.071   3.440
11396TIP3    H234074   6.223   8.042   3.344
11397TIP3   OH234075   5.636   7.858   2.819
11397TIP3    H134076   5.582   7.884   2.898
11397TIP3    H234077   5.720   7.833   2.863
11398TIP3   OH234078   5.873   7.899   3.729
11398TIP3    H134079   5.869   7.984   3.777
11398TIP3    H234080   5.786   7.902   3.683
11399TIP3   OH234081   4.868   7.856   3.237
11399TIP3    H134082   4.828   7.799   3.168
11399TIP3    H234083   4.946   7.804   3.264
11400TIP3   OH234084   4.992   8.254   3.391
11400TIP3    H134085   4.980   8.223   3.300
11400TIP3    H234086   5.087   8.233   3.407
11401TIP3   OH234087   5.005   7.829   3.590
11401TIP3    H134088   5.038   7.809   3.500
11401TIP3    H234089   5.048   7.915   3.610
11402TIP3   OH234090   5.141   8.383   3.918
11402TIP3    H134091   5.081   8.448   3.960
11402TIP3    H234092   5.077   8.331   3.865
11403TIP3   OH234093   5.479   7.716   2.645
11403TIP3    H134094   5.538   7.775   2.697
11403TIP3    H234095   5.504   7.741   2.553
11404TIP3   OH234096   4.898   7.940   4.017
11404TIP3    H134097   4.902   8.027   4.059
11404TIP3    H234098   4.802   7.922   4.021
11405TIP3   OH234099   5.218   8.394   2.928
11405TIP3    H134100   5.299   8.445   2.949
11405TIP3    H234101   5.161   8.464   2.895
11406TIP3   OH234102   4.937   8.557   4.000
11406TIP3    H134103   4.907   8.554   3.907
11406TIP3    H234104   4.856   8.534   4.049
11407TIP3   OH234105   5.994   6.959   2.693
11407TIP3    H134106   5.913   6.979   2.744
11407TIP3    H234107   6.006   7.042   2.642
11408TIP3   OH234108   4.736   7.699   3.041
11408TIP3    H134109   4.671   7.745   2.983
11408TIP3    H234110   4.693   7.613   3.052
11409TIP3   OH234111   5.792   8.325   2.240
11409TIP3    H134112   5.800   8.422   2.228
11409TIP3    H234113   5.885   8.297   2.227
11410TIP3   OH234114   4.518   8.084   3.947
11410TIP3    H134115   4.452   8.062   3.877
11410TIP3    H234116   4.554   7.996   3.971
11411TIP3   OH234117   4.372   8.275   3.581
11411TIP3    H134118   4.467   8.267   3.567
11411TIP3    H234119   4.366   8.354   3.636
11412TIP3   OH234120   6.235   8.727   3.635
11412TIP3    H134121   6.234   8.630   3.647
11412TIP3    H234122   6.152   8.751   3.681
11413TIP3   OH234123   5.349   8.510   3.780
11413TIP3    H134124   5.343   8.605   3.804
11413TIP3    H234125   5.271   8.473   3.827
11414TIP3   OH234126   5.097   8.644   2.720
11414TIP3    H134127   5.054   8.626   2.635
11414TIP3    H234128   5.068   8.734   2.742
11415TIP3   OH234129   4.538   8.493   3.106
11415TIP3    H134130   4.589   8.483   3.190
11415TIP3    H234131   4.483   8.413   3.110
11416TIP3   OH234132   5.304   8.543   2.365
11416TIP3    H134133   5.363   8.474   2.328
11416TIP3    H234134   5.338   8.552   2.457
11417TIP3   OH234135   5.352   8.591   2.636
11417TIP3    H134136   5.264   8.600   2.678
11417TIP3    H234137   5.402   8.555   2.713
11418TIP3   OH234138   6.125   7.859   3.911
11418TIP3    H134139   6.046   7.873   3.857
11418TIP3    H234140   6.140   7.763   3.899
11419TIP3   OH234141   4.721   8.270   3.941
11419TIP3    H134142   4.774   8.247   4.020
11419TIP3    H234143   4.648   8.204   3.945
11420TIP3   OH234144   5.122   7.089   3.719
11420TIP3    H134145   5.032   7.059   3.694
11420TIP3    H234146   5.098   7.173   3.763
11421TIP3   OH234147   5.655   7.206   3.914
11421TIP3    H134148   5.723   7.178   3.979
11421TIP3    H234149   5.571   7.185   3.960
11422TIP3   OH234150   5.895   7.634   3.832
11422TIP3    H134151   5.847   7.631   3.917
11422TIP3    H234152   5.871   7.721   3.796
11423TIP3   OH234153   5.553   7.764   2.388
11423TIP3    H134154   5.522   7.738   2.299
11423TIP3    H234155   5.634   7.814   2.365
11424TIP3   OH234156   5.267   7.140   2.690
11424TIP3    H134157   5.235   7.138   2.782
11424TIP3    H234158   5.229   7.056   2.658
11425TIP3   OH234159   5.053   7.605   3.737
11425TIP3    H134160   5.003   7.627   3.819
11425TIP3    H234161   5.037   7.686   3.684
11426TIP3   OH234162   4.937   7.490   3.252
11426TIP3    H134163   4.844   7.465   3.269
11426TIP3    H234164   4.951   7.451   3.164
11427TIP3   OH234165   5.427   7.577   2.979
11427TIP3    H134166   5.374   7.649   2.938
11427TIP3    H234167   5.482   7.548   2.904
11428TIP3   OH234168   5.602   7.857   4.068
11428TIP3    H134169   5.580   7.783   4.129
11428TIP3    H234170   5.697   7.869   4.088
11429TIP3   OH234171   5.584   7.606   3.220
11429TIP3    H134172   5.527   7.639   3.149
11429TIP3    H234173   5.617   7.524   3.177
11430TIP3   OH234174   4.872   7.635   3.948
11430TIP3    H134175   4.900   7.699   4.015
11430TIP3    H234176   4.861   7.553   3.999
11431TIP3   OH234177   4.922   7.111   2.657
11431TIP3    H134178   4.914   7.109   2.755
11431TIP3    H234179   4.843   7.163   2.633
11432TIP3   OH234180   4.465   7.157   3.529
11432TIP3    H134181   4.541   7.188   3.581
11432TIP3    H234182   4.504   7.125   3.447
11433TIP3   OH234183   4.440   7.138   3.048
11433TIP3    H134184   4.484   7.177   2.969
11433TIP3    H234185   4.378   7.211   3.069
11434TIP3   OH234186   5.597   7.852   3.644
11434TIP3    H134187   5.628   7.780   3.585
11434TIP3    H234188   5.566   7.799   3.721
11435TIP3   OH234189   5.263   7.312   3.314
11435TIP3    H134190   5.181   7.311   3.367
11435TIP3    H234191   5.331   7.315   3.383
11436TIP3   OH234192   4.698   7.369   3.323
11436TIP3    H134193   4.604   7.376   3.296
11436TIP3    H234194   4.722   7.278   3.298
11437TIP3   OH234195   4.969   7.366   3.010
11437TIP3    H134196   5.063   7.381   2.989
11437TIP3    H234197   4.923   7.390   2.927
11438TIP3   OH234198   5.757   7.388   3.517
11438TIP3    H134199   5.720   7.401   3.607
11438TIP3    H234200   5.692   7.328   3.478
11439TIP3   OH234201   4.808   7.399   2.789
11439TIP3    H134202   4.736   7.354   2.740
11439TIP3    H234203   4.860   7.435   2.715
11440TIP3   OH234204   5.924   9.079   3.734
11440TIP3    H134205   5.922   9.098   3.638
11440TIP3    H234206   6.005   9.126   3.762
11441TIP3   OH234207   4.882   8.188   4.156
11441TIP3    H134208   4.963   8.218   4.203
11441TIP3    H234209   4.819   8.186   4.231
11442TIP3   OH234210   5.348   7.640   3.410
11442TIP3    H134211   5.421   7.604   3.358
11442TIP3    H234212   5.362   7.599   3.497
11443TIP3   OH234213   4.872   7.130   3.289
11443TIP3    H134214   4.839   7.049   3.333
11443TIP3    H234215   4.922   7.094   3.215
11444TIP3   OH234216   5.324   7.534   3.706
11444TIP3    H134217   5.235   7.574   3.716
11444TIP3    H234218   5.382   7.597   3.753
11445TIP3   OH234219   5.061   7.929   2.795
11445TIP3    H134220   4.988   7.865   2.784
11445TIP3    H234221   5.043   7.963   2.886
11446TIP3   OH234222   5.962   8.165   3.427
11446TIP3    H134223   5.986   8.213   3.345
11446TIP3    H234224   5.876   8.124   3.402
11447TIP3   OH234225   5.520   7.242   2.658
11447TIP3    H134226   5.423   7.227   2.665
11447TIP3    H234227   5.530   7.336   2.680
11448TIP3   OH234228   5.464   8.250   3.794
11448TIP3    H134229   5.480   8.232   3.887
11448TIP3    H234230   5.424   8.339   3.795
11449TIP3   OH234231   5.589   7.488   2.761
11449TIP3    H134232   5.686   7.495   2.776
11449TIP3    H234233   5.570   7.568   2.707
11450TIP3   OH234234   4.750   7.948   3.473
11450TIP3    H134235   4.789   7.925   3.386
11450TIP3    H234236   4.796   7.887   3.532
11451TIP3   OH234237   5.206   8.078   2.614
11451TIP3    H134238   5.159   8.164   2.622
11451TIP3    H234239   5.153   8.023   2.676
11452TIP3   OH234240   4.631   7.873   4.086
11452TIP3    H134241   4.653   7.857   4.180
11452TIP3    H234242   4.563   7.805   4.069
11453TIP3   OH234243   5.358   7.984   4.107
11453TIP3    H134244   5.300   7.928   4.052
11453TIP3    H234245   5.446   7.953   4.078
11454TIP3   OH234246   5.631   8.510   3.689
11454TIP3    H134247   5.535   8.501   3.688
11454TIP3    H234248   5.644   8.561   3.772
11455TIP3   OH234249   6.032   7.578   2.598
11455TIP3    H134250   5.969   7.533   2.537
11455TIP3    H234251   6.028   7.667   2.556
11456TIP3   OH234252   6.249   8.436   3.679
11456TIP3    H134253   6.151   8.431   3.670
11456TIP3    H234254   6.276   8.406   3.589
11457TIP3   OH234255   5.732   8.398   2.506
11457TIP3    H134256   5.705   8.331   2.570
11457TIP3    H234257   5.742   8.348   2.423
11458TIP3   OH234258   5.728   8.027   3.347
11458TIP3    H134259   5.634   8.003   3.359
11458TIP3    H234260   5.761   7.947   3.300
11459TIP3   OH234261   4.854   8.253   3.097
11459TIP3    H134262   4.862   8.335   3.045
11459TIP3    H234263   4.758   8.243   3.103
11460TIP3   OH234264   4.417   7.559   2.799
11460TIP3    H134265   4.464   7.643   2.820
11460TIP3    H234266   4.340   7.566   2.860
11461TIP3   OH234267   4.993   8.019   3.041
11461TIP3    H134268   4.960   8.110   3.058
11461TIP3    H234269   4.956   7.972   3.118
11462TIP3   OH234270   5.119   8.597   3.570
11462TIP3    H134271   5.145   8.676   3.518
11462TIP3    H234272   5.206   8.562   3.594
11463TIP3   OH234273   4.773   8.495   2.949
11463TIP3    H134274   4.687   8.503   2.995
11463TIP3    H234275   4.805   8.587   2.954
11464TIP3   OH234276   5.509   8.221   3.523
11464TIP3    H134277   5.505   8.226   3.621
11464TIP3    H234278   5.598   8.187   3.508
11465TIP3   OH234279   5.484   8.125   2.407
11465TIP3    H134280   5.539   8.099   2.485
11465TIP3    H234281   5.396   8.100   2.439
11466TIP3   OH234282   5.757   8.771   3.580
11466TIP3    H134283   5.688   8.703   3.571
11466TIP3    H234284   5.742   8.830   3.503
11467TIP3   OH234285   5.826   8.601   2.227
11467TIP3    H134286   5.865   8.673   2.175
11467TIP3    H234287   5.746   8.647   2.261
11468TIP3   OH234288   4.846   7.378   4.095
11468TIP3    H134289   4.749   7.382   4.107
11468TIP3    H234290   4.873   7.316   4.164
11469TIP3   OH234291   5.644   8.054   2.620
11469TIP3    H134292   5.635   7.991   2.694
11469TIP3    H234293   5.742   8.057   2.611
11470TIP3   OH234294   4.559   8.464   3.729
11470TIP3    H134295   4.611   8.385   3.747
11470TIP3    H234296   4.601   8.528   3.787
11471TIP3   OH234297   4.851   8.107   2.407
11471TIP3    H134298   4.867   8.016   2.377
11471TIP3    H234299   4.834   8.094   2.502
11472TIP3   OH234300   4.797   8.111   2.680
11472TIP3    H134301   4.870   8.085   2.738
11472TIP3    H234302   4.802   8.209   2.686
11473TIP3   OH234303   4.534   7.804   2.882
11473TIP3    H134304   4.468   7.850   2.939
11473TIP3    H234305   4.550   7.874   2.816
11474TIP3   OH234306   5.680   7.443   3.775
11474TIP3    H134307   5.762   7.480   3.812
11474TIP3    H234308   5.667   7.362   3.828
11475TIP3   OH234309   5.561   7.194   2.938
11475TIP3    H134310   5.547   7.217   2.844
11475TIP3    H234311   5.601   7.276   2.974
11476TIP3   OH234312   5.060   8.306   2.625
11476TIP3    H134313   4.976   8.337   2.664
11476TIP3    H234314   5.083   8.381   2.570
11477TIP3   OH234315   5.252   7.371   3.041
11477TIP3    H134316   5.317   7.442   3.022
11477TIP3    H234317   5.257   7.365   3.139
11478TIP3   OH234318   5.519   7.690   3.851
11478TIP3    H134319   5.540   7.745   3.929
11478TIP3    H234320   5.577   7.613   3.863
11479TIP3   OH234321   5.397   7.100   3.145
11479TIP3    H134322   5.388   7.178   3.204
11479TIP3    H234323   5.457   7.137   3.076
11480TIP3   OH234324   4.803   8.384   2.695
11480TIP3    H134325   4.775   8.455   2.632
11480TIP3    H234326   4.789   8.429   2.781
11481TIP3   OH234327   4.907   7.096   2.934
11481TIP3    H134328   4.905   7.188   2.969
11481TIP3    H234329   5.003   7.079   2.942
11482TIP3   OH234330   6.162   7.591   3.831
11482TIP3    H134331   6.064   7.589   3.837
11482TIP3    H234332   6.174   7.555   3.742
11483TIP3   OH234333   5.812   7.785   3.218
11483TIP3    H134334   5.736   7.725   3.230
11483TIP3    H234335   5.884   7.738   3.266
11484TIP3   OH234336   4.524   8.016   2.689
11484TIP3    H134337   4.590   8.087   2.698
11484TIP3    H234338   4.570   7.961   2.621
11485TIP3   OH234339   4.469   7.290   2.822
11485TIP3    H134340   4.469   7.387   2.816
11485TIP3    H234341   4.387   7.266   2.779
11486TIP3   OH234342   5.784   8.736   3.171
11486TIP3    H134343   5.734   8.782   3.100
11486TIP3    H234344   5.875   8.762   3.145
11487TIP3   OH234345   4.856   7.010   3.696
11487TIP3    H134346   4.825   6.978   3.609
11487TIP3    H234347   4.845   6.931   3.752
11488TIP3   OH234348   4.398   8.231   3.079
11488TIP3    H134349   4.322   8.261   3.130
11488TIP3    H234350   4.377   8.269   2.991
11489TIP3   OH234351   4.551   8.767   4.153
11489TIP3    H134352   4.639   8.762   4.194
11489TIP3    H234353   4.531   8.672   4.144
11490TIP3   OH234354   5.034   8.735   4.192
11490TIP3    H134355   5.128   8.715   4.198
11490TIP3    H234356   5.009   8.679   4.116
11491TIP3   OH234357   5.015   8.311   2.319
11491TIP3    H134358   4.960   8.240   2.360
11491TIP3    H234359   5.090   8.259   2.288
11492TIP3   OH234360   5.667   8.646   3.930
11492TIP3    H134361   5.662   8.572   3.995
11492TIP3    H234362   5.749   8.692   3.956
11493TIP3   OH234363   5.451   8.352   2.231
11493TIP3    H134364   5.496   8.288   2.289
11493TIP3    H234365   5.508   8.352   2.151
11494TIP3   OH234366   4.683   8.177   4.349
11494TIP3    H134367   4.700   8.081   4.352
11494TIP3    H234368   4.594   8.179   4.305
11495TIP3   OH234369   4.659   7.827   2.540
11495TIP3    H134370   4.715   7.794   2.613
11495TIP3    H234371   4.726   7.832   2.469
11496TIP3   OH234372   5.289   8.259   4.122
11496TIP3    H134373   5.249   8.277   4.035
11496TIP3    H234374   5.321   8.167   4.113
11497TIP3   OH234375   5.166   8.024   2.346
11497TIP3    H134376   5.170   8.039   2.443
11497TIP3    H234377   5.166   7.926   2.343
11498TIP3   OH234378   5.785   8.268   3.728
11498TIP3    H134379   5.858   8.314   3.682
11498TIP3    H234380   5.713   8.332   3.715
11499TIP3   OH234381   4.800   7.910   4.329
11499TIP3    H134382   4.876   7.855   4.306
11499TIP3    H234383   4.826   7.941   4.418
11500TIP3   OH234384   4.867   7.730   2.762
11500TIP3    H134385   4.843   7.688   2.846
11500TIP3    H234386   4.903   7.655   2.711
11501TIP3   OH234387   5.137   7.794   3.990
11501TIP3    H134388   5.060   7.855   3.994
11501TIP3    H234389   5.185   7.827   3.911
11502TIP3   OH234390   4.968   7.523   2.604
11502TIP3    H134391   4.941   7.525   2.510
11502TIP3    H234392   5.066   7.531   2.596
11503TIP3   OH234393   5.653   8.197   4.127
11503TIP3    H134394   5.731   8.174   4.074
11503TIP3    H234395   5.654   8.127   4.195
11504TIP3   OH234396   5.791   7.856   2.265
11504TIP3    H134397   5.769   7.808   2.182
11504TIP3    H234398   5.759   7.946   2.241
11505TIP3   OH234399   5.259   7.582   4.119
11505TIP3    H134400   5.260   7.503   4.062
11505TIP3    H234401   5.217   7.648   4.059
11506TIP3   OH234402   5.262   7.368   3.925
11506TIP3    H134403   5.290   7.411   3.842
11506TIP3    H234404   5.169   7.346   3.906
11507TIP3   OH234405   5.292   7.907   3.798
11507TIP3    H134406   5.374   7.915   3.748
11507TIP3    H234407   5.235   7.974   3.754
11508TIP3   OH234408   5.874   7.873   4.181
11508TIP3    H134409   5.922   7.789   4.185
11508TIP3    H234410   5.941   7.932   4.143
11509TIP3   OH234411   5.913   8.125   3.917
11509TIP3    H134412   5.856   8.178   3.856
11509TIP3    H234413   6.001   8.144   3.876
11510TIP3   OH234414   5.138   7.696   4.348
11510TIP3    H134415   5.069   7.628   4.360
11510TIP3    H234416   5.173   7.672   4.260
11511TIP3   OH234417   5.395   7.134   3.991
11511TIP3    H134418   5.347   7.216   3.968
11511TIP3    H234419   5.325   7.066   3.978
11512TIP3   OH234420   5.521   7.638   4.207
11512TIP3    H134421   5.509   7.627   4.303
11512TIP3    H234422   5.431   7.613   4.177
11513TIP3   OH234423   5.761   7.588   4.062
11513TIP3    H134424   5.685   7.588   4.123
11513TIP3    H234425   5.834   7.556   4.120
11514TIP3   OH234426   5.990   7.528   4.215
11514TIP3    H134427   6.002   7.432   4.233
11514TIP3    H234428   5.986   7.566   4.305
11515TIP3   OH234429   4.977   7.476   4.400
11515TIP3    H134430   4.985   7.386   4.363
11515TIP3    H234431   5.013   7.462   4.490
11516TIP3   OH234432   5.489   7.142   4.249
11516TIP3    H134433   5.557   7.073   4.242
11516TIP3    H234434   5.450   7.137   4.159
11517TIP3   OH234435   5.554   7.357   4.408
11517TIP3    H134436   5.532   7.286   4.343
11517TIP3    H234437   5.477   7.417   4.400
11518TIP3   OH234438   4.775   8.587   2.507
11518TIP3    H134439   4.871   8.582   2.489
11518TIP3    H234440   4.746   8.635   2.427
11519TIP3   OH234441   4.256   7.968   2.725
11519TIP3    H134442   4.351   7.990   2.711
11519TIP3    H234443   4.251   7.879   2.683
11520TIP3   OH234444   4.167   8.581   3.138
11520TIP3    H134445   4.101   8.518   3.103
11520TIP3    H234446   4.213   8.525   3.204
11521TIP3   OH234447   4.304   8.435   3.325
11521TIP3    H134448   4.295   8.359   3.384
11521TIP3    H234449   4.357   8.494   3.380
11522TIP3   OH234450   6.035   8.833   3.122
11522TIP3    H134451   6.059   8.867   3.210
11522TIP3    H234452   6.096   8.880   3.063
11523TIP3   OH234453   6.066   8.854   3.406
11523TIP3    H134454   6.019   8.768   3.398
11523TIP3    H234455   6.140   8.827   3.463
11524TIP3   OH234456   6.110   8.530   3.979
11524TIP3    H134457   6.036   8.538   4.043
11524TIP3    H234458   6.150   8.618   3.984
11525TIP3   OH234459   5.926   8.043   2.599
11525TIP3    H134460   5.995   8.106   2.572
11525TIP3    H234461   5.967   8.002   2.678
11526TIP3   OH234462   6.053   7.910   2.802
11526TIP3    H134463   5.987   7.868   2.862
11526TIP3    H234464   6.117   7.949   2.865
11527TIP3   OH234465   6.106   8.301   3.235
11527TIP3    H134466   6.160   8.237   3.184
11527TIP3    H234467   6.098   8.376   3.173
11528TIP3   OH234468   5.938   8.601   3.431
11528TIP3    H134469   5.868   8.646   3.482
11528TIP3    H234470   5.886   8.555   3.362
11529TIP3   OH234471   5.991   7.817   2.450
11529TIP3    H134472   5.919   7.821   2.383
11529TIP3    H234473   5.965   7.894   2.505
11530TIP3   OH234474   5.861   7.491   2.406
11530TIP3    H134475   5.821   7.531   2.328
11530TIP3    H234476   5.835   7.397   2.394
11531TIP3   OH234477   5.867   7.766   2.949
11531TIP3    H134478   5.876   7.669   2.944
11531TIP3    H234479   5.854   7.781   3.045
11532TIP3   OH234480   4.494   7.838   3.696
11532TIP3    H134481   4.492   7.809   3.602
11532TIP3    H234482   4.591   7.841   3.712
11533TIP3   OH234483   6.155   8.190   3.807
11533TIP3    H134484   6.228   8.125   3.797
11533TIP3    H234485   6.181   8.260   3.744
11534TIP3   OH234486   6.341   7.997   3.826
11534TIP3    H134487   6.266   7.946   3.864
11534TIP3    H234488   6.414   7.933   3.839
11535TIP3   OH234489   5.806   7.225   2.392
11535TIP3    H134490   5.882   7.194   2.444
11535TIP3    H234491   5.734   7.165   2.417
11536TIP3   OH234492   5.862   7.482   2.845
11536TIP3    H134493   5.904   7.394   2.860
11536TIP3    H234494   5.921   7.516   2.775
11537TIP3   OH234495   6.026   7.657   3.340
11537TIP3    H134496   6.111   7.683   3.299
11537TIP3    H234497   6.039   7.694   3.429
11538TIP3   OH234498   6.093   7.801   3.573
11538TIP3    H134499   6.014   7.835   3.620
11538TIP3    H234500   6.125   7.881   3.526
11539TIP3   OH234501   4.709   7.527   4.371
11539TIP3    H134502   4.807   7.520   4.371
11539TIP3    H234503   4.686   7.441   4.413
11540TIP3   OH234504   6.546   7.391   4.129
11540TIP3    H134505   6.603   7.324   4.084
11540TIP3    H234506   6.517   7.446   4.053
11541TIP3   OH234507   5.972   7.232   2.883
11541TIP3    H134508   6.020   7.215   2.966
11541TIP3    H234509   5.912   7.155   2.881
11542TIP3   OH234510   4.672   7.218   3.704
11542TIP3    H134511   4.735   7.144   3.712
11542TIP3    H234512   4.734   7.294   3.696
11543TIP3   OH234513   4.476   7.493   3.776
11543TIP3    H134514   4.524   7.484   3.691
11543TIP3    H234515   4.504   7.581   3.804
11544TIP3   OH234516   6.416   7.531   3.936
11544TIP3    H134517   6.329   7.570   3.954
11544TIP3    H234518   6.390   7.460   3.875
11545TIP3   OH234519   6.054   7.168   2.514
11545TIP3    H134520   6.095   7.095   2.462
11545TIP3    H234521   6.121   7.239   2.507
11546TIP3   OH234522   4.458   6.998   3.277
11546TIP3    H134523   4.363   6.994   3.301
11546TIP3    H234524   4.457   7.054   3.197
11547TIP3   OH234525   5.618   8.712   2.780
11547TIP3    H134526   5.669   8.690   2.700
11547TIP3    H234527   5.680   8.768   2.829
11548TIP3   OH234528   4.678   7.076   4.091
11548TIP3    H134529   4.627   7.071   4.173
11548TIP3    H234530   4.612   7.114   4.030
11549TIP3   OH234531   4.714   8.510   4.170
11549TIP3    H134532   4.627   8.472   4.149
11549TIP3    H234533   4.728   8.480   4.261
11550TIP3   OH234534   4.896   8.536   3.718
11550TIP3    H134535   4.850   8.611   3.675
11550TIP3    H234536   4.982   8.547   3.673
11551TIP3   OH234537   5.342   8.781   3.855
11551TIP3    H134538   5.387   8.782   3.942
11551TIP3    H234539   5.408   8.828   3.799
11552TIP3   OH234540   5.524   8.925   3.710
11552TIP3    H134541   5.599   8.880   3.667
11552TIP3    H234542   5.572   8.986   3.769
11553TIP3   OH234543   6.314   7.294   3.812
11553TIP3    H134544   6.224   7.290   3.777
11553TIP3    H234545   6.344   7.201   3.798
11554TIP3   OH234546   4.570   8.796   3.736
11554TIP3    H134547   4.483   8.834   3.713
11554TIP3    H234548   4.577   8.819   3.829
11555TIP3   OH234549   4.808   8.767   3.596
11555TIP3    H134550   4.721   8.785   3.638
11555TIP3    H234551   4.793   8.800   3.505
11556TIP3   OH234552   5.186   8.811   3.414
11556TIP3    H134553   5.228   8.765   3.337
11556TIP3    H234554   5.255   8.876   3.431
11557TIP3   OH234555   5.734   8.938   3.364
11557TIP3    H134556   5.698   9.015   3.316
11557TIP3    H234557   5.733   8.870   3.294
11558TIP3   OH234558   4.483   8.585   3.485
11558TIP3    H134559   4.513   8.560   3.575
11558TIP3    H234560   4.555   8.544   3.432
11559TIP3   OH234561   4.675   8.457   3.340
11559TIP3    H134562   4.694   8.373   3.388
11559TIP3    H234563   4.766   8.496   3.337
11560TIP3   OH234564   4.934   8.551   3.348
11560TIP3    H134565   4.983   8.472   3.320
11560TIP3    H234566   4.988   8.579   3.425
11561TIP3   OH234567   5.521   7.210   3.430
11561TIP3    H134568   5.477   7.139   3.482
11561TIP3    H234569   5.592   7.161   3.384
11562TIP3   OH234570   6.044   7.090   3.338
11562TIP3    H134571   6.081   7.141   3.262
11562TIP3    H234572   5.948   7.108   3.329
11563TIP3   OH234573   6.138   7.189   3.101
11563TIP3    H134574   6.211   7.137   3.059
11563TIP3    H234575   6.172   7.280   3.085
11564TIP3   OH234576   4.769   6.918   3.448
11564TIP3    H134577   4.677   6.884   3.447
11564TIP3    H234578   4.818   6.833   3.444
11565TIP3   OH234579   4.556   6.786   3.095
11565TIP3    H134580   4.586   6.844   3.021
11565TIP3    H234581   4.526   6.852   3.160
11566TIP3   OH234582   5.211   6.950   3.327
11566TIP3    H134583   5.270   7.000   3.267
11566TIP3    H234584   5.234   6.988   3.413
11567TIP3   OH234585   5.760   7.096   3.312
11567TIP3    H134586   5.757   7.062   3.222
11567TIP3    H234587   5.746   7.015   3.365
11568TIP3   OH234588   5.789   7.018   2.873
11568TIP3    H134589   5.702   7.061   2.883
11568TIP3    H234590   5.774   6.933   2.919
11569TIP3   OH234591   4.272   8.356   2.875
11569TIP3    H134592   4.187   8.323   2.839
11569TIP3    H234593   4.261   8.451   2.858
11570TIP3   OH234594   4.671   6.947   2.859
11570TIP3    H134595   4.720   6.884   2.801
11570TIP3    H234596   4.744   7.001   2.895
11571TIP3   OH234597   5.184   7.121   2.957
11571TIP3    H134598   5.246   7.075   3.017
11571TIP3    H234599   5.205   7.214   2.981
11572TIP3   OH234600   5.043   8.548   2.455
11572TIP3    H134601   5.133   8.569   2.421
11572TIP3    H234602   5.022   8.471   2.397
11573TIP3   OH234603   5.765   8.665   2.548
11573TIP3    H134604   5.756   8.567   2.536
11573TIP3    H234605   5.719   8.697   2.468
11574TIP3   OH234606   4.976   7.198   4.338
11574TIP3    H134607   4.944   7.127   4.396
11574TIP3    H234608   5.071   7.200   4.363
11575TIP3   OH234609   5.225   7.196   4.457
11575TIP3    H134610   5.309   7.172   4.416
11575TIP3    H234611   5.214   7.125   4.523
11576TIP3   OH234612   4.349   8.384   2.514
11576TIP3    H134613   4.351   8.408   2.608
11576TIP3    H234614   4.437   8.343   2.501
11577TIP3   OH234615   6.050   7.257   4.245
11577TIP3    H134616   6.070   7.226   4.335
11577TIP3    H234617   6.137   7.252   4.202
11578TIP3   OH234618   5.988   8.810   3.738
11578TIP3    H134619   5.910   8.778   3.689
11578TIP3    H234620   5.970   8.906   3.739
11579TIP3   OH234621   7.254   8.178   2.504
11579TIP3    H134622   7.226   8.270   2.487
11579TIP3    H234623   7.181   8.130   2.461
11580TIP3   OH234624   7.254   8.182   2.882
11580TIP3    H134625   7.283   8.151   2.970
11580TIP3    H234626   7.213   8.102   2.845
11581TIP3   OH234627   6.554   8.078   3.250
11581TIP3    H134628   6.587   8.011   3.313
11581TIP3    H234629   6.634   8.132   3.238
11582TIP3   OH234630   7.499   8.484   2.564
11582TIP3    H134631   7.482   8.415   2.630
11582TIP3    H234632   7.525   8.559   2.620
11583TIP3   OH234633   6.525   8.486   2.975
11583TIP3    H134634   6.516   8.388   2.977
11583TIP3    H234635   6.621   8.495   2.973
11584TIP3   OH234636   6.230   7.689   2.763
11584TIP3    H134637   6.183   7.774   2.773
11584TIP3    H234638   6.161   7.635   2.722
11585TIP3   OH234639   6.293   7.977   2.929
11585TIP3    H134640   6.341   7.901   2.967
11585TIP3    H234641   6.348   8.001   2.854
11586TIP3   OH234642   7.145   8.946   2.579
11586TIP3    H134643   7.192   8.873   2.533
11586TIP3    H234644   7.146   8.915   2.671
11587TIP3   OH234645   7.053   8.406   2.931
11587TIP3    H134646   7.093   8.330   2.886
11587TIP3    H234647   7.136   8.452   2.956
11588TIP3   OH234648   8.068   7.727   2.930
11588TIP3    H134649   8.094   7.811   2.973
11588TIP3    H234650   8.083   7.748   2.836
11589TIP3   OH234651   7.467   7.908   2.965
11589TIP3    H134652   7.507   7.822   2.983
11589TIP3    H234653   7.434   7.895   2.874
11590TIP3   OH234654   6.802   7.568   2.931
11590TIP3    H134655   6.782   7.640   2.868
11590TIP3    H234656   6.756   7.494   2.886
11591TIP3   OH234657   7.496   7.662   2.558
11591TIP3    H134658   7.573   7.644   2.616
11591TIP3    H234659   7.541   7.694   2.478
11592TIP3   OH234660   6.436   7.770   3.038
11592TIP3    H134661   6.520   7.749   3.084
11592TIP3    H234662   6.448   7.715   2.958
11593TIP3   OH234663   6.877   7.968   2.831
11593TIP3    H134664   6.971   7.942   2.843
11593TIP3    H234665   6.838   7.885   2.797
11594TIP3   OH234666   8.141   7.936   3.099
11594TIP3    H134667   8.057   7.983   3.079
11594TIP3    H234668   8.149   7.956   3.193
11595TIP3   OH234669   6.800   7.552   3.365
11595TIP3    H134670   6.741   7.588   3.296
11595TIP3    H234671   6.747   7.571   3.445
11596TIP3   OH234672   7.148   8.402   2.380
11596TIP3    H134673   7.123   8.377   2.289
11596TIP3    H234674   7.106   8.490   2.390
11597TIP3   OH234675   6.906   8.326   3.161
11597TIP3    H134676   6.843   8.392   3.198
11597TIP3    H234677   6.950   8.378   3.092
11598TIP3   OH234678   7.713   7.659   2.723
11598TIP3    H134679   7.698   7.610   2.804
11598TIP3    H234680   7.763   7.737   2.754
11599TIP3   OH234681   6.671   7.666   3.149
11599TIP3    H134682   6.733   7.739   3.170
11599TIP3    H234683   6.718   7.625   3.073
11600TIP3   OH234684   6.733   8.519   3.256
11600TIP3    H134685   6.708   8.606   3.218
11600TIP3    H234686   6.654   8.505   3.313
11601TIP3   OH234687   6.131   8.210   2.494
11601TIP3    H134688   6.087   8.236   2.412
11601TIP3    H234689   6.160   8.296   2.530
11602TIP3   OH234690   7.569   8.721   2.733
11602TIP3    H134691   7.480   8.712   2.775
11602TIP3    H234692   7.557   8.808   2.689
11603TIP3   OH234693   7.859   7.630   3.097
11603TIP3    H134694   7.770   7.655   3.067
11603TIP3    H234695   7.916   7.658   3.023
11604TIP3   OH234696   7.158   7.271   3.078
11604TIP3    H134697   7.145   7.176   3.093
11604TIP3    H234698   7.080   7.308   3.124
11605TIP3   OH234699   7.268   8.771   2.404
11605TIP3    H134700   7.321   8.690   2.384
11605TIP3    H234701   7.328   8.839   2.366
11606TIP3   OH234702   7.413   8.557   2.312
11606TIP3    H134703   7.381   8.476   2.271
11606TIP3    H234704   7.450   8.524   2.397
11607TIP3   OH234705   7.799   8.640   3.076
11607TIP3    H134706   7.784   8.563   3.017
11607TIP3    H234707   7.775   8.715   3.018
11608TIP3   OH234708   7.089   8.030   2.327
11608TIP3    H134709   6.999   8.039   2.290
11608TIP3    H234710   7.141   8.017   2.246
11609TIP3   OH234711   7.991   8.277   2.922
11609TIP3    H134712   7.907   8.328   2.927
11609TIP3    H234713   8.019   8.299   2.830
11610TIP3   OH234714   7.439   8.127   2.309
11610TIP3    H134715   7.380   8.144   2.386
11610TIP3    H234716   7.519   8.092   2.354
11611TIP3   OH234717   7.669   8.156   3.215
11611TIP3    H134718   7.664   8.241   3.263
11611TIP3    H234719   7.582   8.157   3.170
11612TIP3   OH234720   6.674   8.123   2.716
11612TIP3    H134721   6.620   8.063   2.660
11612TIP3    H234722   6.745   8.064   2.747
11613TIP3   OH234723   6.798   8.526   2.871
11613TIP3    H134724   6.777   8.471   2.794
11613TIP3    H234725   6.889   8.496   2.892
11614TIP3   OH234726   6.802   8.084   3.077
11614TIP3    H134727   6.835   8.063   2.987
11614TIP3    H234728   6.845   8.170   3.097
11615TIP3   OH234729   7.329   8.719   2.852
11615TIP3    H134730   7.314   8.805   2.897
11615TIP3    H234731   7.311   8.653   2.921
11616TIP3   OH234732   6.939   8.641   3.402
11616TIP3    H134733   6.881   8.704   3.448
11616TIP3    H234734   6.873   8.588   3.353
11617TIP3   OH234735   7.287   7.976   2.137
11617TIP3    H134736   7.344   8.041   2.183
11617TIP3    H234737   7.303   7.997   2.042
11618TIP3   OH234738   6.694   8.197   3.503
11618TIP3    H134739   6.698   8.284   3.546
11618TIP3    H234740   6.598   8.179   3.508
11619TIP3   OH234741   7.012   8.655   2.399
11619TIP3    H134742   7.093   8.703   2.424
11619TIP3    H234743   6.954   8.726   2.369
11620TIP3   OH234744   6.733   8.812   3.487
11620TIP3    H134745   6.700   8.808   3.395
11620TIP3    H234746   6.654   8.789   3.539
11621TIP3   OH234747   7.792   7.215   2.182
11621TIP3    H134748   7.709   7.229   2.231
11621TIP3    H234749   7.799   7.299   2.131
11622TIP3   OH234750   6.514   7.962   2.554
11622TIP3    H134751   6.464   8.001   2.480
11622TIP3    H234752   6.505   7.868   2.536
11623TIP3   OH234753   7.586   8.581   1.726
11623TIP3    H134754   7.586   8.677   1.707
11623TIP3    H234755   7.680   8.558   1.710
11624TIP3   OH234756   6.313   8.340   3.434
11624TIP3    H134757   6.248   8.318   3.364
11624TIP3    H234758   6.350   8.253   3.458
11625TIP3   OH234759   6.167   8.531   3.069
11625TIP3    H134760   6.263   8.528   3.058
11625TIP3    H234761   6.155   8.613   3.120
11626TIP3   OH234762   8.036   8.979   3.124
11626TIP3    H134763   8.029   8.882   3.127
11626TIP3    H234764   7.945   9.005   3.153
11627TIP3   OH234765   7.134   8.775   3.253
11627TIP3    H134766   7.136   8.866   3.289
11627TIP3    H234767   7.067   8.733   3.311
11628TIP3   OH234768   6.897   8.897   2.210
11628TIP3    H134769   6.855   8.878   2.124
11628TIP3    H234770   6.864   8.986   2.231
11629TIP3   OH234771   6.336   8.749   2.592
11629TIP3    H134772   6.383   8.739   2.677
11629TIP3    H234773   6.277   8.672   2.595
11630TIP3   OH234774   7.101   8.793   1.858
11630TIP3    H134775   7.161   8.726   1.818
11630TIP3    H234776   7.137   8.802   1.948
11631TIP3   OH234777   7.151   8.847   2.126
11631TIP3    H134778   7.062   8.856   2.165
11631TIP3    H234779   7.201   8.808   2.200
11632TIP3   OH234780   7.923   8.117   3.395
11632TIP3    H134781   7.841   8.131   3.345
11632TIP3    H234782   7.936   8.020   3.384
11633TIP3   OH234783   6.518   8.523   3.424
11633TIP3    H134784   6.569   8.506   3.506
11633TIP3    H234785   6.445   8.459   3.431
11634TIP3   OH234786   6.918   7.346   3.207
11634TIP3    H134787   6.828   7.315   3.181
11634TIP3    H234788   6.893   7.430   3.250
11635TIP3   OH234789   7.450   7.463   3.401
11635TIP3    H134790   7.518   7.434   3.466
11635TIP3    H234791   7.366   7.442   3.446
11636TIP3   OH234792   7.695   7.893   3.322
11636TIP3    H134793   7.643   7.888   3.405
11636TIP3    H234794   7.666   7.978   3.284
11637TIP3   OH234795   7.354   8.022   1.877
11637TIP3    H134796   7.316   7.990   1.793
11637TIP3    H234797   7.425   8.080   1.845
11638TIP3   OH234798   7.059   7.412   2.179
11638TIP3    H134799   7.026   7.387   2.266
11638TIP3    H234800   7.054   7.329   2.130
11639TIP3   OH234801   6.850   7.861   3.225
11639TIP3    H134802   6.799   7.882   3.306
11639TIP3    H234803   6.834   7.942   3.171
11640TIP3   OH234804   6.734   7.748   2.739
11640TIP3    H134805   6.641   7.723   2.755
11640TIP3    H234806   6.748   7.709   2.650
11641TIP3   OH234807   7.220   7.838   2.471
11641TIP3    H134808   7.168   7.908   2.426
11641TIP3    H234809   7.274   7.804   2.396
11642TIP3   OH234810   7.399   8.112   3.553
11642TIP3    H134811   7.375   8.040   3.615
11642TIP3    H234812   7.492   8.126   3.576
11643TIP3   OH234813   7.380   7.865   2.706
11643TIP3    H134814   7.320   7.894   2.634
11643TIP3    H234815   7.413   7.783   2.664
11644TIP3   OH234816   6.668   7.892   3.434
11644TIP3    H134817   6.695   7.956   3.502
11644TIP3    H234818   6.657   7.810   3.486
11645TIP3   OH234819   6.708   7.360   2.144
11645TIP3    H134820   6.708   7.362   2.242
11645TIP3    H234821   6.636   7.421   2.124
11646TIP3   OH234822   6.261   7.413   3.017
11646TIP3    H134823   6.338   7.445   3.068
11646TIP3    H234824   6.300   7.382   2.934
11647TIP3   OH234825   6.235   7.394   2.535
11647TIP3    H134826   6.280   7.432   2.457
11647TIP3    H234827   6.174   7.467   2.557
11648TIP3   OH234828   7.396   8.109   3.130
11648TIP3    H134829   7.426   8.036   3.071
11648TIP3    H234830   7.363   8.057   3.207
11649TIP3   OH234831   7.062   7.571   2.803
11649TIP3    H134832   6.978   7.568   2.853
11649TIP3    H234833   7.127   7.571   2.875
11650TIP3   OH234834   6.495   7.625   2.811
11650TIP3    H134835   6.400   7.632   2.783
11650TIP3    H234836   6.519   7.535   2.784
11651TIP3   OH234837   6.765   7.626   2.495
11651TIP3    H134838   6.860   7.638   2.475
11651TIP3    H234839   6.721   7.650   2.411
11652TIP3   OH234840   7.553   7.644   3.003
11652TIP3    H134841   7.516   7.657   3.093
11652TIP3    H234842   7.488   7.583   2.965
11653TIP3   OH234843   6.606   7.653   2.269
11653TIP3    H134844   6.535   7.608   2.220
11653TIP3    H234845   6.647   7.704   2.199
11654TIP3   OH234846   7.717   9.329   3.215
11654TIP3    H134847   7.715   9.351   3.120
11654TIP3    H234848   7.782   9.390   3.252
11655TIP3   OH234849   6.678   8.444   3.644
11655TIP3    H134850   6.759   8.475   3.690
11655TIP3    H234851   6.615   8.445   3.717
11656TIP3   OH234852   7.145   7.899   2.898
11656TIP3    H134853   7.214   7.858   2.844
11656TIP3    H234854   7.157   7.855   2.984
11657TIP3   OH234855   6.669   7.387   2.775
11657TIP3    H134856   6.638   7.305   2.817
11657TIP3    H234857   6.717   7.353   2.698
11658TIP3   OH234858   7.120   7.792   3.192
11658TIP3    H134859   7.031   7.830   3.202
11658TIP3    H234860   7.177   7.855   3.240
11659TIP3   OH234861   7.759   8.421   2.913
11659TIP3    H134862   7.781   8.470   2.831
11659TIP3    H234863   7.672   8.381   2.890
11660TIP3   OH234864   7.331   7.500   2.155
11660TIP3    H134865   7.245   7.468   2.120
11660TIP3    H234866   7.314   7.596   2.163
11661TIP3   OH234867   7.249   8.499   3.283
11661TIP3    H134868   7.281   8.486   3.373
11661TIP3    H234869   7.226   8.593   3.282
11662TIP3   OH234870   7.382   7.754   2.263
11662TIP3    H134871   7.479   7.758   2.261
11662TIP3    H234872   7.355   7.828   2.204
11663TIP3   OH234873   6.551   8.209   2.958
11663TIP3    H134874   6.589   8.182   2.873
11663TIP3    H234875   6.589   8.143   3.019
11664TIP3   OH234876   7.028   8.332   2.107
11664TIP3    H134877   6.959   8.401   2.113
11664TIP3    H234878   6.975   8.250   2.123
11665TIP3   OH234879   6.428   8.129   3.572
11665TIP3    H134880   6.449   8.114   3.666
11665TIP3    H234881   6.359   8.062   3.556
11666TIP3   OH234882   7.154   8.238   3.594
11666TIP3    H134883   7.096   8.184   3.540
11666TIP3    H234884   7.242   8.208   3.564
11667TIP3   OH234885   7.425   8.747   3.199
11667TIP3    H134886   7.331   8.770   3.197
11667TIP3    H234887   7.462   8.824   3.247
11668TIP3   OH234888   7.835   7.832   2.073
11668TIP3    H134889   7.769   7.788   2.015
11668TIP3    H234890   7.821   7.924   2.041
11669TIP3   OH234891   8.047   8.692   3.166
11669TIP3    H134892   7.949   8.686   3.157
11669TIP3    H234893   8.073   8.661   3.076
11670TIP3   OH234894   7.527   8.651   1.991
11670TIP3    H134895   7.500   8.583   2.054
11670TIP3    H234896   7.536   8.603   1.907
11671TIP3   OH234897   7.524   8.283   2.833
11671TIP3    H134898   7.430   8.259   2.846
11671TIP3    H234899   7.557   8.203   2.787
11672TIP3   OH234900   6.640   8.519   2.578
11672TIP3    H134901   6.637   8.605   2.530
11672TIP3    H234902   6.548   8.507   2.600
11673TIP3   OH234903   6.212   7.816   2.285
11673TIP3    H134904   6.260   7.899   2.307
11673TIP3    H234905   6.136   7.822   2.347
11674TIP3   OH234906   6.769   8.300   2.488
11674TIP3    H134907   6.736   8.376   2.542
11674TIP3    H234908   6.765   8.229   2.554
11675TIP3   OH234909   6.920   8.855   3.053
11675TIP3    H134910   6.961   8.927   3.002
11675TIP3    H234911   6.996   8.821   3.103
11676TIP3   OH234912   6.570   8.753   2.440
11676TIP3    H134913   6.483   8.762   2.482
11676TIP3    H234914   6.602   8.846   2.440
11677TIP3   OH234915   7.306   8.489   3.013
11677TIP3    H134916   7.298   8.488   3.111
11677TIP3    H234917   7.389   8.439   3.001
11678TIP3   OH234918   7.282   8.379   1.893
11678TIP3    H134919   7.334   8.357   1.973
11678TIP3    H234920   7.194   8.352   1.921
11679TIP3   OH234921   7.604   8.855   1.701
11679TIP3    H134922   7.644   8.924   1.647
11679TIP3    H234923   7.529   8.905   1.741
11680TIP3   OH234924   6.642   7.635   3.582
11680TIP3    H134925   6.545   7.639   3.593
11680TIP3    H234926   6.668   7.572   3.651
11681TIP3   OH234927   7.442   8.320   2.112
11681TIP3    H134928   7.431   8.254   2.183
11681TIP3    H234929   7.539   8.316   2.099
11682TIP3   OH234930   6.358   8.719   3.213
11682TIP3    H134931   6.409   8.643   3.243
11682TIP3    H234932   6.389   8.787   3.274
11683TIP3   OH234933   6.652   8.355   1.897
11683TIP3    H134934   6.678   8.283   1.837
11683TIP3    H234935   6.622   8.303   1.971
11684TIP3   OH234936   6.330   8.061   2.365
11684TIP3    H134937   6.266   8.103   2.427
11684TIP3    H234938   6.342   8.134   2.301
11685TIP3   OH234939   7.477   7.700   3.262
11685TIP3    H134940   7.558   7.735   3.302
11685TIP3    H234941   7.461   7.618   3.314
11686TIP3   OH234942   7.351   7.451   2.425
11686TIP3    H134943   7.337   7.467   2.329
11686TIP3    H234944   7.389   7.536   2.453
11687TIP3   OH234945   6.835   8.523   2.141
11687TIP3    H134946   6.751   8.575   2.155
11687TIP3    H234947   6.874   8.579   2.072
11688TIP3   OH234948   7.048   7.627   2.529
11688TIP3    H134949   7.113   7.698   2.507
11688TIP3    H234950   7.055   7.624   2.626
11689TIP3   OH234951   7.316   7.948   3.336
11689TIP3    H134952   7.336   8.002   3.415
11689TIP3    H234953   7.372   7.869   3.350
11690TIP3   OH234954   7.195   7.358   2.634
11690TIP3    H134955   7.180   7.439   2.686
11690TIP3    H234956   7.253   7.393   2.562
11691TIP3   OH234957   6.594   8.637   2.186
11691TIP3    H134958   6.566   8.704   2.119
11691TIP3    H234959   6.578   8.685   2.270
11692TIP3   OH234960   6.702   7.354   2.423
11692TIP3    H134961   6.702   7.447   2.454
11692TIP3    H234962   6.798   7.334   2.430
11693TIP3   OH234963   7.960   7.847   3.314
11693TIP3    H134964   7.862   7.848   3.325
11693TIP3    H234965   7.965   7.805   3.227
11694TIP3   OH234966   7.609   8.041   2.705
11694TIP3    H134967   7.531   7.983   2.715
11694TIP3    H234968   7.678   7.992   2.753
11695TIP3   OH234969   6.322   8.277   2.179
11695TIP3    H134970   6.348   8.367   2.157
11695TIP3    H234971   6.374   8.225   2.113
11696TIP3   OH234972   6.264   7.546   2.310
11696TIP3    H134973   6.265   7.643   2.304
11696TIP3    H234974   6.182   7.523   2.265
11697TIP3   OH234975   7.551   8.986   2.652
11697TIP3    H134976   7.509   9.038   2.580
11697TIP3    H234977   7.645   9.009   2.633
11698TIP3   OH234978   6.653   7.267   3.183
11698TIP3    H134979   6.622   7.235   3.096
11698TIP3    H234980   6.641   7.187   3.239
11699TIP3   OH234981   6.194   8.487   2.565
11699TIP3    H134982   6.121   8.516   2.621
11699TIP3    H234983   6.167   8.527   2.478
11700TIP3   OH234984   6.348   9.026   3.635
11700TIP3    H134985   6.434   9.024   3.681
11700TIP3    H234986   6.327   8.931   3.632
11701TIP3   OH234987   6.832   8.992   3.678
11701TIP3    H134988   6.926   8.970   3.686
11701TIP3    H234989   6.806   8.934   3.603
11702TIP3   OH234990   6.819   8.565   1.821
11702TIP3    H134991   6.759   8.493   1.850
11702TIP3    H234992   6.884   8.515   1.769
11703TIP3   OH234993   7.250   8.609   1.719
11703TIP3    H134994   7.295   8.542   1.774
11703TIP3    H234995   7.302   8.608   1.636
11704TIP3   OH234996   6.478   8.432   3.835
11704TIP3    H134997   6.496   8.336   3.836
11704TIP3    H234998   6.391   8.435   3.791
11705TIP3   OH234999   6.465   8.096   2.027
11705TIP3    H135000   6.513   8.040   2.089
11705TIP3    H235001   6.529   8.096   1.952
11706TIP3   OH235002   7.084   8.513   3.609
11706TIP3    H135003   7.048   8.534   3.521
11706TIP3    H235004   7.117   8.421   3.598
11707TIP3   OH235005   6.963   8.282   1.831
11707TIP3    H135006   6.967   8.286   1.928
11707TIP3    H235007   6.965   8.184   1.819
11708TIP3   OH235008   7.582   8.521   3.213
11708TIP3    H135009   7.653   8.570   3.168
11708TIP3    H235010   7.512   8.590   3.212
11709TIP3   OH235011   6.596   8.165   3.817
11709TIP3    H135012   6.673   8.111   3.793
11709TIP3    H235013   6.622   8.199   3.905
11710TIP3   OH235014   6.933   8.051   3.478
11710TIP3    H135015   6.856   8.111   3.482
11710TIP3    H235016   6.980   8.084   3.398
11711TIP3   OH235017   7.449   8.453   3.613
11711TIP3    H135018   7.528   8.434   3.562
11711TIP3    H235019   7.450   8.384   3.682
11712TIP3   OH235020   7.601   8.115   1.744
11712TIP3    H135021   7.566   8.064   1.668
11712TIP3    H235022   7.562   8.203   1.723
11713TIP3   OH235023   7.056   7.839   3.605
11713TIP3    H135024   7.056   7.759   3.548
11713TIP3    H235025   7.013   7.905   3.547
11714TIP3   OH235026   7.059   7.625   3.411
11714TIP3    H135027   7.086   7.667   3.327
11714TIP3    H235028   6.965   7.602   3.393
11715TIP3   OH235029   7.087   8.162   3.284
11715TIP3    H135030   7.170   8.171   3.235
11715TIP3    H235031   7.031   8.230   3.242
11716TIP3   OH235032   7.670   8.130   3.668
11716TIP3    H135033   7.718   8.046   3.672
11716TIP3    H235034   7.737   8.189   3.631
11717TIP3   OH235035   7.710   8.382   3.403
11717TIP3    H135036   7.651   8.434   3.344
11717TIP3    H235037   7.796   8.402   3.361
11718TIP3   OH235038   6.935   7.952   3.835
11718TIP3    H135039   6.865   7.884   3.847
11718TIP3    H235040   6.969   7.929   3.746
11719TIP3   OH235041   7.191   7.391   3.478
11719TIP3    H135042   7.143   7.473   3.455
11719TIP3    H235043   7.122   7.323   3.465
11720TIP3   OH235044   7.317   7.894   3.694
11720TIP3    H135045   7.304   7.884   3.790
11720TIP3    H235046   7.228   7.870   3.662
11721TIP3   OH235047   7.558   7.844   3.549
11721TIP3    H135048   7.480   7.845   3.609
11721TIP3    H235049   7.629   7.812   3.608
11722TIP3   OH235050   7.791   7.785   3.702
11722TIP3    H135051   7.799   7.689   3.720
11722TIP3    H235052   7.783   7.823   3.792
11723TIP3   OH235053   6.773   7.733   3.886
11723TIP3    H135054   6.780   7.643   3.850
11723TIP3    H235055   6.808   7.719   3.977
11724TIP3   OH235056   7.285   7.399   3.736
11724TIP3    H135057   7.353   7.329   3.729
11724TIP3    H235058   7.245   7.394   3.646
11725TIP3   OH235059   7.351   7.614   3.895
11725TIP3    H135060   7.328   7.543   3.830
11725TIP3    H235061   7.274   7.674   3.887
11726TIP3   OH235062   6.570   8.836   1.994
11726TIP3    H135063   6.666   8.837   1.976
11726TIP3    H235064   6.539   8.884   1.915
11727TIP3   OH235065   6.053   8.225   2.209
11727TIP3    H135066   6.149   8.243   2.200
11727TIP3    H235067   6.047   8.136   2.168
11728TIP3   OH235068   5.965   8.838   2.625
11728TIP3    H135069   5.898   8.775   2.589
11728TIP3    H235070   6.010   8.780   2.691
11729TIP3   OH235071   6.103   8.690   2.810
11729TIP3    H135072   6.089   8.616   2.871
11729TIP3    H235073   6.152   8.751   2.867
11730TIP3   OH235074   7.792   9.090   2.605
11730TIP3    H135075   7.824   9.110   2.694
11730TIP3    H235076   7.857   9.141   2.554
11731TIP3   OH235077   7.864   9.107   2.883
11731TIP3    H135078   7.811   9.025   2.886
11731TIP3    H235079   7.938   9.081   2.938
11732TIP3   OH235080   7.908   8.797   3.473
11732TIP3    H135081   7.831   8.779   3.532
11732TIP3    H235082   7.890   8.889   3.456
11733TIP3   OH235083   7.723   8.298   2.085
11733TIP3    H135084   7.793   8.361   2.060
11733TIP3    H235085   7.762   8.257   2.166
11734TIP3   OH235086   7.849   8.163   2.287
11734TIP3    H135087   7.783   8.122   2.347
11734TIP3    H235088   7.913   8.204   2.349
11735TIP3   OH235089   7.903   8.558   2.722
11735TIP3    H135090   7.955   8.495   2.668
11735TIP3    H235091   7.891   8.632   2.660
11736TIP3   OH235092   7.727   8.860   2.918
11736TIP3    H135093   7.651   8.895   2.966
11736TIP3    H235094   7.683   8.810   2.847
11737TIP3   OH235095   7.787   8.072   1.938
11737TIP3    H135096   7.716   8.077   1.870
11737TIP3    H235097   7.761   8.149   1.993
11738TIP3   OH235098   7.672   7.742   1.875
11738TIP3    H135099   7.605   7.782   1.817
11738TIP3    H235100   7.642   7.649   1.875
11739TIP3   OH235101   7.666   8.020   2.436
11739TIP3    H135102   7.667   7.922   2.430
11739TIP3    H235103   7.650   8.035   2.532
11740TIP3   OH235104   6.290   8.095   3.183
11740TIP3    H135105   6.288   8.066   3.089
11740TIP3    H235106   6.387   8.098   3.199
11741TIP3   OH235107   7.952   8.447   3.295
11741TIP3    H135108   8.025   8.382   3.285
11741TIP3    H235109   7.974   8.513   3.228
11742TIP3   OH235110   8.139   8.254   3.311
11742TIP3    H135111   8.063   8.205   3.349
11742TIP3    H235112   8.210   8.188   3.326
11743TIP3   OH235113   7.601   7.480   1.882
11743TIP3    H135114   7.669   7.446   1.942
11743TIP3    H235115   7.519   7.437   1.913
11744TIP3   OH235116   7.664   7.739   2.336
11744TIP3    H135117   7.700   7.649   2.351
11744TIP3    H235118   7.720   7.769   2.263
11745TIP3   OH235119   7.823   7.912   2.827
11745TIP3    H135120   7.908   7.940   2.787
11745TIP3    H235121   7.834   7.950   2.916
11746TIP3   OH235122   7.890   8.057   3.059
11746TIP3    H135123   7.811   8.090   3.107
11746TIP3    H235124   7.921   8.139   3.014
11747TIP3   OH235125   6.505   7.783   3.857
11747TIP3    H135126   6.603   7.777   3.858
11747TIP3    H235127   6.482   7.698   3.900
11748TIP3   OH235128   8.344   7.649   3.615
11748TIP3    H135129   8.399   7.581   3.571
11748TIP3    H235130   8.314   7.703   3.539
11749TIP3   OH235131   7.773   7.487   2.367
11749TIP3    H135132   7.814   7.470   2.454
11749TIP3    H235133   7.708   7.413   2.363
11750TIP3   OH235134   6.468   7.475   3.192
11750TIP3    H135135   6.531   7.401   3.199
11750TIP3    H235136   6.530   7.550   3.183
11751TIP3   OH235137   6.272   7.749   3.263
11751TIP3    H135138   6.320   7.740   3.178
11751TIP3    H235139   6.300   7.837   3.290
11752TIP3   OH235140   8.213   7.788   3.421
11752TIP3    H135141   8.126   7.827   3.441
11752TIP3    H235142   8.185   7.716   3.362
11753TIP3   OH235143   7.853   7.424   2.004
11753TIP3    H135144   7.886   7.351   1.948
11753TIP3    H235145   7.917   7.495   1.987
11754TIP3   OH235146   6.254   7.254   2.765
11754TIP3    H135147   6.159   7.251   2.788
11754TIP3    H235148   6.254   7.311   2.684
11755TIP3   OH235149   7.413   8.955   2.271
11755TIP3    H135150   7.462   8.938   2.188
11755TIP3    H235151   7.472   9.018   2.316
11756TIP3   OH235152   6.474   7.333   3.578
11756TIP3    H135153   6.423   7.328   3.660
11756TIP3    H235154   6.408   7.371   3.517
11757TIP3   OH235155   6.513   8.759   3.654
11757TIP3    H135156   6.422   8.731   3.637
11757TIP3    H235157   6.523   8.741   3.748
11758TIP3   OH235158   6.692   8.790   3.202
11758TIP3    H135159   6.644   8.866   3.162
11758TIP3    H235160   6.779   8.804   3.157
11759TIP3   OH235161   7.141   9.040   3.342
11759TIP3    H135162   7.188   9.037   3.429
11759TIP3    H235163   7.208   9.088   3.288
11760TIP3   OH235164   7.311   9.195   3.188
11760TIP3    H135165   7.376   9.124   3.175
11760TIP3    H235166   7.361   9.249   3.253
11761TIP3   OH235167   8.111   7.551   3.298
11761TIP3    H135168   8.020   7.547   3.265
11761TIP3    H235169   8.140   7.458   3.285
11762TIP3   OH235170   6.369   9.050   3.223
11762TIP3    H135171   6.280   9.085   3.200
11762TIP3    H235172   6.376   9.080   3.314
11763TIP3   OH235173   6.605   9.027   3.082
11763TIP3    H135174   6.519   9.040   3.127
11763TIP3    H235175   6.586   9.060   2.992
11764TIP3   OH235176   7.028   9.060   2.880
11764TIP3    H135177   6.960   9.081   2.814
11764TIP3    H235178   7.042   9.147   2.923
11765TIP3   OH235179   7.295   8.987   2.920
11765TIP3    H135180   7.204   9.018   2.905
11765TIP3    H235181   7.348   9.068   2.908
11766TIP3   OH235182   7.514   9.200   2.843
11766TIP3    H135183   7.499   9.279   2.789
11766TIP3    H235184   7.526   9.129   2.777
11767TIP3   OH235185   6.282   8.844   2.969
11767TIP3    H135186   6.308   8.817   3.060
11767TIP3    H235187   6.354   8.800   2.919
11768TIP3   OH235188   6.474   8.713   2.825
11768TIP3    H135189   6.490   8.630   2.875
11768TIP3    H235190   6.565   8.751   2.823
11769TIP3   OH235191   6.739   8.808   2.830
11769TIP3    H135192   6.772   8.717   2.819
11769TIP3    H235193   6.784   8.832   2.913
11770TIP3   OH235194   7.321   7.468   2.924
11770TIP3    H135195   7.273   7.397   2.971
11770TIP3    H235196   7.383   7.418   2.868
11771TIP3   OH235197   7.842   7.351   2.827
11771TIP3    H135198   7.876   7.400   2.749
11771TIP3    H235199   7.746   7.361   2.817
11772TIP3   OH235200   7.937   7.446   2.588
11772TIP3    H135201   8.009   7.396   2.545
11772TIP3    H235202   7.967   7.538   2.572
11773TIP3   OH235203   6.565   7.174   2.936
11773TIP3    H135204   6.473   7.141   2.934
11773TIP3    H235205   6.614   7.090   2.931
11774TIP3   OH235206   6.351   7.043   2.581
11774TIP3    H135207   6.383   7.099   2.508
11774TIP3    H235208   6.322   7.109   2.646
11775TIP3   OH235209   7.007   7.207   2.814
11775TIP3    H135210   7.066   7.255   2.753
11775TIP3    H235211   7.032   7.246   2.899
11776TIP3   OH235212   7.564   7.352   2.796
11776TIP3    H135213   7.549   7.319   2.706
11776TIP3    H235214   7.545   7.272   2.850
11777TIP3   OH235215   7.589   7.276   2.361
11777TIP3    H135216   7.499   7.314   2.357
11777TIP3    H235217   7.570   7.191   2.407
11778TIP3   OH235218   6.070   8.612   2.360
11778TIP3    H135219   5.984   8.579   2.326
11778TIP3    H235220   6.058   8.707   2.344
11779TIP3   OH235221   6.468   7.202   2.347
11779TIP3    H135222   6.517   7.142   2.288
11779TIP3    H235223   6.541   7.258   2.382
11780TIP3   OH235224   6.977   7.374   2.450
11780TIP3    H135225   7.042   7.330   2.506
11780TIP3    H235226   7.001   7.468   2.467
11781TIP3   OH235227   6.840   8.809   1.946
11781TIP3    H135228   6.928   8.828   1.909
11781TIP3    H235229   6.820   8.728   1.893
11782TIP3   OH235230   7.552   8.917   2.035
11782TIP3    H135231   7.545   8.820   2.021
11782TIP3    H235232   7.510   8.951   1.954
11783TIP3   OH235233   6.772   7.455   3.825
11783TIP3    H135234   6.740   7.384   3.883
11783TIP3    H235235   6.867   7.457   3.850
11784TIP3   OH235236   7.021   7.453   3.944
11784TIP3    H135237   7.105   7.428   3.902
11784TIP3    H235238   7.010   7.381   4.009
11785TIP3   OH235239   6.144   8.639   2.000
11785TIP3    H135240   6.145   8.669   2.092
11785TIP3    H235241   6.233   8.599   1.989
11786TIP3   OH235242   7.846   7.513   3.732
11786TIP3    H135243   7.866   7.482   3.823
11786TIP3    H235244   7.933   7.508   3.689
11787TIP3   OH235245   7.799   9.064   3.214
11787TIP3    H135246   7.717   9.023   3.249
11787TIP3    H235247   7.766   9.156   3.212
11788TIP3   OH235248   8.345   8.335   2.745
11788TIP3    H135249   8.385   8.268   2.804
11788TIP3    H235250   8.422   8.390   2.724
11789TIP3   OH235251   8.311   8.713   2.461
11789TIP3    H135252   8.317   8.615   2.463
11789TIP3    H235253   8.402   8.741   2.481
11790TIP3   OH235254   8.031   7.947   2.244
11790TIP3    H135255   7.985   8.032   2.261
11790TIP3    H235256   7.955   7.892   2.217
11791TIP3   OH235257   8.087   8.233   2.414
11791TIP3    H135258   8.138   8.159   2.453
11791TIP3    H235259   8.152   8.272   2.354
11792TIP3   OH235260   8.597   7.825   2.418
11792TIP3    H135261   8.577   7.897   2.354
11792TIP3    H235262   8.550   7.751   2.374
11793TIP3   OH235263   8.233   8.028   2.524
11793TIP3    H135264   8.316   8.005   2.572
11793TIP3    H235265   8.244   7.973   2.444
11794TIP3   OH235266   8.666   8.225   2.319
11794TIP3    H135267   8.761   8.210   2.301
11794TIP3    H235268   8.626   8.143   2.282
11795TIP3   OH235269   8.594   7.807   2.852
11795TIP3    H135270   8.534   7.843   2.784
11795TIP3    H235271   8.542   7.825   2.933
11796TIP3   OH235272   8.467   7.922   2.636
11796TIP3    H135273   8.529   7.994   2.657
11796TIP3    H235274   8.514   7.880   2.560
11797TIP3   OH235275   7.928   8.462   1.976
11797TIP3    H135276   7.870   8.497   1.907
11797TIP3    H235277   7.950   8.544   2.026
11798TIP3   OH235278   8.948   7.517   2.572
11798TIP3    H135279   8.935   7.422   2.591
11798TIP3    H235280   8.870   7.556   2.617
11799TIP3   OH235281   8.438   8.352   2.220
11799TIP3    H135282   8.415   8.312   2.134
11799TIP3    H235283   8.530   8.324   2.231
11800TIP3   OH235284   8.576   8.328   2.558
11800TIP3    H135285   8.598   8.299   2.467
11800TIP3    H235286   8.615   8.419   2.556
11801TIP3   OH235287   8.492   8.444   2.991
11801TIP3    H135288   8.493   8.531   3.036
11801TIP3    H235289   8.396   8.428   2.989
11802TIP3   OH235290   8.336   8.208   1.994
11802TIP3    H135291   8.266   8.256   1.946
11802TIP3    H235292   8.286   8.134   2.032
11803TIP3   OH235293   8.102   8.589   2.921
11803TIP3    H135294   8.036   8.570   2.851
11803TIP3    H235295   8.138   8.501   2.941
11804TIP3   OH235296   7.966   8.788   2.554
11804TIP3    H135297   8.060   8.777   2.533
11804TIP3    H235298   7.965   8.863   2.615
11805TIP3   OH235299   8.300   8.774   2.916
11805TIP3    H135300   8.352   8.743   2.992
11805TIP3    H235301   8.234   8.701   2.908
11806TIP3   OH235302   8.713   7.603   2.693
11806TIP3    H135303   8.623   7.572   2.669
11806TIP3    H235304   8.689   7.686   2.737
11807TIP3   OH235305   9.245   7.716   2.880
11807TIP3    H135306   9.316   7.693   2.944
11807TIP3    H235307   9.164   7.700   2.930
11808TIP3   OH235308   8.851   7.638   1.666
11808TIP3    H135309   8.814   7.644   1.756
11808TIP3    H235310   8.805   7.558   1.634
11809TIP3   OH235311   8.645   8.117   2.713
11809TIP3    H135312   8.589   8.131   2.793
11809TIP3    H235313   8.620   8.194   2.658
11810TIP3   OH235314   8.531   8.004   2.225
11810TIP3    H135315   8.437   7.979   2.242
11810TIP3    H235316   8.544   7.965   2.136
11811TIP3   OH235317   8.471   8.146   2.922
11811TIP3    H135318   8.477   8.213   2.992
11811TIP3    H235319   8.452   8.065   2.973
11812TIP3   OH235320   8.509   7.620   1.637
11812TIP3    H135321   8.505   7.617   1.734
11812TIP3    H235322   8.432   7.674   1.616
11813TIP3   OH235323   8.056   7.673   2.500
11813TIP3    H135324   8.134   7.700   2.553
11813TIP3    H235325   8.095   7.635   2.420
11814TIP3   OH235326   8.032   7.651   2.009
11814TIP3    H135327   8.110   7.697   1.976
11814TIP3    H235328   7.974   7.723   2.042
11815TIP3   OH235329   8.848   7.826   2.288
11815TIP3    H135330   8.768   7.825   2.344
11815TIP3    H235331   8.919   7.815   2.355
11816TIP3   OH235332   8.292   7.884   2.295
11816TIP3    H135333   8.197   7.891   2.271
11816TIP3    H235334   8.313   7.790   2.276
11817TIP3   OH235335   8.561   7.876   1.983
11817TIP3    H135336   8.654   7.902   1.967
11817TIP3    H235337   8.516   7.901   1.899
11818TIP3   OH235338   8.396   7.894   1.756
11818TIP3    H135339   8.322   7.861   1.703
11818TIP3    H235340   8.431   7.963   1.699
11819TIP3   OH235341   8.465   8.684   3.126
11819TIP3    H135342   8.534   8.749   3.143
11819TIP3    H235343   8.407   8.694   3.204
11820TIP3   OH235344   8.463   7.642   2.263
11820TIP3    H135345   8.429   7.562   2.309
11820TIP3    H235346   8.512   7.604   2.189
11821TIP3   OH235347   8.911   8.032   2.696
11821TIP3    H135348   8.821   8.067   2.682
11821TIP3    H235349   8.963   8.113   2.697
11822TIP3   OH235350   8.334   8.439   2.453
11822TIP3    H135351   8.368   8.415   2.364
11822TIP3    H235352   8.390   8.384   2.510
11823TIP3   OH235353   8.227   8.379   3.057
11823TIP3    H135354   8.242   8.368   3.153
11823TIP3    H235355   8.154   8.317   3.041
11824TIP3   OH235356   8.009   8.074   1.775
11824TIP3    H135357   8.057   8.158   1.790
11824TIP3    H235358   7.932   8.085   1.835
11825TIP3   OH235359   8.437   7.892   3.068
11825TIP3    H135360   8.340   7.896   3.080
11825TIP3    H235361   8.462   7.829   3.138
11826TIP3   OH235362   8.141   8.963   2.774
11826TIP3    H135363   8.168   8.879   2.816
11826TIP3    H235364   8.207   9.022   2.816
11827TIP3   OH235365   8.131   8.320   1.851
11827TIP3    H135366   8.066   8.372   1.903
11827TIP3    H235367   8.190   8.389   1.817
11828TIP3   OH235368   8.845   7.876   2.018
11828TIP3    H135369   8.921   7.933   2.000
11828TIP3    H235370   8.844   7.876   2.116
11829TIP3   OH235371   8.984   7.625   2.132
11829TIP3    H135372   8.949   7.696   2.189
11829TIP3    H235373   9.048   7.677   2.080
11830TIP3   OH235374   8.498   7.609   1.913
11830TIP3    H135375   8.501   7.701   1.945
11830TIP3    H235376   8.594   7.587   1.919
11831TIP3   OH235377   8.008   7.807   1.749
11831TIP3    H135378   8.024   7.905   1.757
11831TIP3    H235379   7.966   7.790   1.835
11832TIP3   OH235380   8.450   7.523   2.668
11832TIP3    H135381   8.417   7.490   2.582
11832TIP3    H235382   8.438   7.444   2.726
11833TIP3   OH235383   7.958   8.716   2.068
11833TIP3    H135384   7.892   8.777   2.106
11833TIP3    H235385   7.969   8.755   1.980
11834TIP3   OH235386   8.123   9.256   3.168
11834TIP3    H135387   8.218   9.248   3.150
11834TIP3    H235388   8.093   9.169   3.137
11835TIP3   OH235389   8.272   8.702   3.329
11835TIP3    H135390   8.290   8.607   3.336
11835TIP3    H235391   8.186   8.700   3.280
11836TIP3   OH235392   8.392   8.426   3.303
11836TIP3    H135393   8.462   8.364   3.282
11836TIP3    H235394   8.417   8.455   3.394
11837TIP3   OH235395   8.433   8.194   1.704
11837TIP3    H135396   8.415   8.195   1.799
11837TIP3    H235397   8.517   8.145   1.695
11838TIP3   OH235398   8.732   8.310   2.957
11838TIP3    H135399   8.652   8.363   2.977
11838TIP3    H235400   8.735   8.314   2.861
11839TIP3   OH235401   8.848   8.096   3.088
11839TIP3    H135402   8.842   8.012   3.037
11839TIP3    H235403   8.801   8.159   3.029
11840TIP3   OH235404   8.850   7.878   2.909
11840TIP3    H135405   8.879   7.920   2.825
11840TIP3    H235406   8.758   7.853   2.887
11841TIP3   OH235407   8.731   8.208   3.318
11841TIP3    H135408   8.660   8.143   3.335
11841TIP3    H235409   8.762   8.180   3.230
11842TIP3   OH235410   8.987   7.645   2.965
11842TIP3    H135411   8.937   7.727   2.944
11842TIP3    H235412   8.917   7.577   2.953
11843TIP3   OH235413   9.086   8.170   3.179
11843TIP3    H135414   9.087   8.147   3.271
11843TIP3    H235415   8.996   8.139   3.154
11844TIP3   OH235416   8.572   7.990   3.373
11844TIP3    H135417   8.576   7.899   3.336
11844TIP3    H235418   8.605   7.974   3.463
11845TIP3   OH235419   9.081   7.656   3.221
11845TIP3    H135420   9.149   7.585   3.217
11845TIP3    H235421   9.043   7.648   3.131
11846TIP3   OH235422   9.139   7.868   3.382
11846TIP3    H135423   9.121   7.795   3.317
11846TIP3    H235424   9.059   7.924   3.373
11847TIP3   OH235425   7.846   8.491   1.686
11847TIP3    H135426   7.942   8.505   1.696
11847TIP3    H235427   7.842   8.399   1.652
11848TIP3   OH235428   7.745   9.092   2.115
11848TIP3    H135429   7.685   9.023   2.081
11848TIP3    H235430   7.805   9.039   2.172
11849TIP3   OH235431   7.892   8.940   2.292
11849TIP3    H135432   7.889   8.868   2.357
11849TIP3    H235433   7.929   9.011   2.344
11850TIP3   OH235434   8.084   8.348   2.669
11850TIP3    H135435   8.083   8.324   2.574
11850TIP3    H235436   8.181   8.354   2.686
11851TIP3   OH235437   8.304   8.041   3.348
11851TIP3    H135438   8.402   8.032   3.347
11851TIP3    H235439   8.278   7.956   3.387
11852TIP3   OH235440   8.266   7.730   2.673
11852TIP3    H135441   8.329   7.656   2.684
11852TIP3    H235442   8.326   7.806   2.669
11853TIP3   OH235443   8.070   8.006   2.751
11853TIP3    H135444   8.116   7.998   2.665
11853TIP3    H235445   8.093   8.096   2.777
11854TIP3   OH235446   8.048   7.517   2.250
11854TIP3    H135447   7.956   7.504   2.279
11854TIP3    H235448   8.037   7.566   2.166
11855TIP3   OH235449   8.271   7.589   3.064
11855TIP3    H135450   8.220   7.583   3.146
11855TIP3    H235451   8.204   7.628   3.004
11856TIP3   OH235452   8.306   9.019   3.175
11856TIP3    H135453   8.228   8.995   3.123
11856TIP3    H235454   8.293   8.970   3.256
11857TIP3   OH235455   9.060   7.724   2.421
11857TIP3    H135456   9.035   7.646   2.475
11857TIP3    H235457   9.131   7.690   2.365
11858TIP3   OH235458   8.361   7.431   2.420
11858TIP3    H135459   8.269   7.397   2.420
11858TIP3    H235460   8.410   7.346   2.416
11859TIP3   OH235461   8.156   7.299   2.073
11859TIP3    H135462   8.173   7.358   1.998
11859TIP3    H235463   8.116   7.360   2.138
11860TIP3   OH235464   8.803   7.462   2.300
11860TIP3    H135465   8.865   7.515   2.247
11860TIP3    H235466   8.818   7.497   2.389
11861TIP3   OH235467   9.427   7.504   2.239
11861TIP3    H135468   9.366   7.568   2.199
11861TIP3    H235469   9.372   7.467   2.312
11862TIP3   OH235470   7.834   8.861   1.855
11862TIP3    H135471   7.758   8.811   1.822
11862TIP3    H235472   7.810   8.948   1.820
11863TIP3   OH235473   8.264   7.474   1.818
11863TIP3    H135474   8.309   7.400   1.772
11863TIP3    H235475   8.340   7.516   1.864
11864TIP3   OH235476   8.773   7.629   1.933
11864TIP3    H135477   8.831   7.584   1.995
11864TIP3    H235478   8.792   7.722   1.957
11865TIP3   OH235479   8.569   7.713   3.313
11865TIP3    H135480   8.535   7.642   3.369
11865TIP3    H235481   8.664   7.713   3.338
11866TIP3   OH235482   8.819   7.710   3.431
11866TIP3    H135483   8.902   7.681   3.390
11866TIP3    H235484   8.804   7.639   3.497
11867TIP3   OH235485   9.588   7.753   3.238
11867TIP3    H135486   9.639   7.747   3.321
11867TIP3    H235487   9.658   7.764   3.171
11868TIP3   OH235488   0.535   8.530   4.615
11868TIP3    H135489   0.500   8.616   4.639
11868TIP3    H235490   0.541   8.539   4.519
11869TIP3   OH235491   0.800   8.440   5.314
11869TIP3    H135492   0.851   8.370   5.267
11869TIP3    H235493   0.763   8.490   5.239
11870TIP3   OH235494   0.665   8.577   5.112
11870TIP3    H135495   0.572   8.597   5.126
11870TIP3    H235496   0.659   8.503   5.048
11871TIP3   OH235497   0.298   8.222   3.692
11871TIP3    H135498   0.336   8.144   3.647
11871TIP3    H235499   0.368   8.288   3.683
11872TIP3   OH235500   0.564   8.335   4.985
11872TIP3    H135501   0.471   8.331   4.958
11872TIP3    H235502   0.592   8.242   4.973
11873TIP3   OH235503   0.376   8.226   4.245
11873TIP3    H135504   0.462   8.185   4.224
11873TIP3    H235505   0.402   8.319   4.259
11874TIP3   OH235506   0.462   8.736   3.930
11874TIP3    H135507   0.445   8.822   3.969
11874TIP3    H235508   0.414   8.677   3.990
11875TIP3   OH235509   2.312   8.772   4.104
11875TIP3    H135510   2.345   8.853   4.147
11875TIP3    H235511   2.337   8.788   4.011
11876TIP3   OH235512   1.714   8.954   4.135
11876TIP3    H135513   1.756   8.868   4.157
11876TIP3    H235514   1.677   8.934   4.047
11877TIP3   OH235515   1.050   8.613   4.108
11877TIP3    H135516   1.032   8.685   4.044
11877TIP3    H235517   1.003   8.539   4.063
11878TIP3   OH235518   1.745   8.700   3.730
11878TIP3    H135519   1.818   8.685   3.795
11878TIP3    H235520   1.796   8.737   3.656
11879TIP3   OH235521   0.675   8.800   4.216
11879TIP3    H135522   0.759   8.791   4.264
11879TIP3    H235523   0.698   8.757   4.132
11880TIP3   OH235524   1.138   9.017   3.990
11880TIP3    H135525   1.223   8.981   4.021
11880TIP3    H235526   1.089   8.937   3.964
11881TIP3   OH235527   2.399   8.974   4.276
11881TIP3    H135528   2.318   9.021   4.248
11881TIP3    H235529   2.400   8.997   4.370
11882TIP3   OH235530   1.049   8.596   4.541
11882TIP3    H135531   0.987   8.629   4.473
11882TIP3    H235532   0.998   8.613   4.623
11883TIP3   OH235533   1.956   8.707   3.899
11883TIP3    H135534   1.954   8.654   3.980
11883TIP3    H235535   2.009   8.784   3.926
11884TIP3   OH235536   0.920   8.709   4.327
11884TIP3    H135537   0.982   8.782   4.342
11884TIP3    H235538   0.965   8.665   4.251
11885TIP3   OH235539   2.108   8.675   4.273
11885TIP3    H135540   2.020   8.702   4.242
11885TIP3    H235541   2.167   8.705   4.201
11886TIP3   OH235542   1.406   8.315   4.253
11886TIP3    H135543   1.396   8.220   4.273
11886TIP3    H235544   1.328   8.352   4.301
11887TIP3   OH235545   1.299   8.832   3.257
11887TIP3    H135546   1.352   8.901   3.297
11887TIP3    H235547   1.357   8.797   3.188
11888TIP3   OH235548   1.946   9.196   4.383
11888TIP3    H135549   1.957   9.283   4.343
11888TIP3    H235550   1.855   9.172   4.351
11889TIP3   OH235551   2.038   8.260   3.356
11889TIP3    H135552   1.957   8.278   3.408
11889TIP3    H235553   2.049   8.344   3.307
11890TIP3   OH235554   2.166   9.164   4.568
11890TIP3    H135555   2.086   9.157   4.513
11890TIP3    H235556   2.193   9.070   4.571
11891TIP3   OH235557   1.167   8.392   4.382
11891TIP3    H135558   1.077   8.359   4.358
11891TIP3    H235559   1.142   8.475   4.427
11892TIP3   OH235560   1.699   8.509   4.577
11892TIP3    H135561   1.768   8.479   4.641
11892TIP3    H235562   1.616   8.485   4.623
11893TIP3   OH235563   1.943   8.925   4.501
11893TIP3    H135564   1.894   8.920   4.586
11893TIP3    H235565   1.912   9.008   4.464
11894TIP3   OH235566   1.315   8.440   3.354
11894TIP3    H135567   1.282   8.440   3.446
11894TIP3    H235568   1.276   8.355   3.322
11895TIP3   OH235569   1.093   8.916   4.394
11895TIP3    H135570   1.027   8.924   4.466
11895TIP3    H235571   1.080   8.998   4.343
11896TIP3   OH235572   0.982   8.792   3.916
11896TIP3    H135573   0.889   8.765   3.930
11896TIP3    H235574   0.998   8.755   3.826
11897TIP3   OH235575   1.483   8.881   3.645
11897TIP3    H135576   1.402   8.930   3.619
11897TIP3    H235577   1.525   8.862   3.559
11898TIP3   OH235578   1.649   9.143   4.723
11898TIP3    H135579   1.642   9.066   4.783
11898TIP3    H235580   1.736   9.178   4.748
11899TIP3   OH235581   1.622   8.897   3.883
11899TIP3    H135582   1.563   8.913   3.806
11899TIP3    H235583   1.666   8.817   3.847
11900TIP3   OH235584   0.916   8.930   4.612
11900TIP3    H135585   0.856   8.980   4.667
11900TIP3    H235586   0.896   8.839   4.642
11901TIP3   OH235587   0.969   8.412   3.323
11901TIP3    H135588   0.965   8.410   3.421
11901TIP3    H235589   0.887   8.459   3.303
11902TIP3   OH235590   0.515   8.469   4.166
11902TIP3    H135591   0.578   8.497   4.237
11902TIP3    H235592   0.570   8.409   4.114
11903TIP3   OH235593   0.483   8.452   3.718
11903TIP3    H135594   0.524   8.475   3.631
11903TIP3    H235595   0.452   8.540   3.743
11904TIP3   OH235596   1.691   9.141   4.326
11904TIP3    H135597   1.692   9.074   4.254
11904TIP3    H235598   1.619   9.104   4.381
11905TIP3   OH235599   1.307   8.612   3.977
11905TIP3    H135600   1.226   8.612   4.030
11905TIP3    H235601   1.375   8.620   4.046
11906TIP3   OH235602   0.741   8.673   3.977
11906TIP3    H135603   0.648   8.665   3.950
11906TIP3    H235604   0.775   8.582   3.964
11907TIP3   OH235605   1.016   8.667   3.673
11907TIP3    H135606   1.109   8.687   3.651
11907TIP3    H235607   0.967   8.693   3.592
11908TIP3   OH235608   1.798   8.693   4.181
11908TIP3    H135609   1.762   8.702   4.272
11908TIP3    H235610   1.736   8.628   4.143
11909TIP3   OH235611   0.844   8.682   3.451
11909TIP3    H135612   0.779   8.655   3.384
11909TIP3    H235613   0.894   8.750   3.403
11910TIP3   OH235614   1.386   8.925   4.069
11910TIP3    H135615   1.469   8.900   4.024
11910TIP3    H235616   1.406   8.907   4.162
11911TIP3   OH235617   0.912   8.433   3.953
11911TIP3    H135618   0.882   8.352   3.999
11911TIP3    H235619   0.967   8.398   3.882
11912TIP3   OH235620   1.366   8.831   4.371
11912TIP3    H135621   1.279   8.874   4.372
11912TIP3    H235622   1.424   8.897   4.415
11913TIP3   OH235623   1.562   8.553   3.320
11913TIP3    H135624   1.466   8.531   3.331
11913TIP3    H235625   1.566   8.648   3.342
11914TIP3   OH235626   1.633   8.810   3.410
11914TIP3    H135627   1.724   8.795   3.441
11914TIP3    H235628   1.643   8.893   3.361
11915TIP3   OH235629   1.385   9.158   4.861
11915TIP3    H135630   1.338   9.210   4.790
11915TIP3    H235631   1.456   9.116   4.811
11916TIP3   OH235632   2.071   8.870   3.268
11916TIP3    H135633   2.008   8.830   3.203
11916TIP3    H235634   2.080   8.958   3.230
11917TIP3   OH235635   0.897   8.680   4.761
11917TIP3    H135636   0.803   8.657   4.772
11917TIP3    H235637   0.933   8.614   4.823
11918TIP3   OH235638   1.721   8.748   4.442
11918TIP3    H135639   1.807   8.777   4.477
11918TIP3    H235640   1.707   8.664   4.492
11919TIP3   OH235641   1.605   8.495   3.600
11919TIP3    H135642   1.593   8.521   3.507
11919TIP3    H235643   1.647   8.575   3.639
11920TIP3   OH235644   1.301   8.673   3.706
11920TIP3    H135645   1.370   8.740   3.692
11920TIP3    H235646   1.302   8.664   3.804
11921TIP3   OH235647   1.554   8.988   4.509
11921TIP3    H135648   1.585   9.039   4.586
11921TIP3    H235649   1.610   8.908   4.513
11922TIP3   OH235650   1.441   8.402   3.809
11922TIP3    H135651   1.433   8.478   3.869
11922TIP3    H235652   1.501   8.439   3.740
11923TIP3   OH235653   0.952   8.397   3.599
11923TIP3    H135654   0.949   8.490   3.630
11923TIP3    H235655   1.048   8.380   3.608
11924TIP3   OH235656   2.211   8.896   4.491
11924TIP3    H135657   2.114   8.889   4.503
11924TIP3    H235658   2.220   8.849   4.408
11925TIP3   OH235659   1.847   9.073   3.864
11925TIP3    H135660   1.778   9.012   3.895
11925TIP3    H235661   1.924   9.047   3.920
11926TIP3   OH235662   0.506   8.592   3.488
11926TIP3    H135663   0.523   8.685   3.467
11926TIP3    H235664   0.435   8.566   3.427
11927TIP3   OH235665   0.905   8.306   4.361
11927TIP3    H135666   0.871   8.277   4.274
11927TIP3    H235667   0.892   8.227   4.416
11928TIP3   OH235668   0.876   9.197   4.962
11928TIP3    H135669   0.904   9.111   4.993
11928TIP3    H235670   0.872   9.251   5.044
11929TIP3   OH235671   1.160   9.055   4.648
11929TIP3    H135672   1.085   9.009   4.686
11929TIP3    H235673   1.129   9.069   4.559
11930TIP3   OH235674   1.024   8.832   3.309
11930TIP3    H135675   0.994   8.776   3.235
11930TIP3    H235676   1.122   8.828   3.300
11931TIP3   OH235677   1.314   8.866   4.791
11931TIP3    H135678   1.314   8.784   4.737
11931TIP3    H235679   1.274   8.930   4.728
11932TIP3   OH235680   1.308   8.667   4.590
11932TIP3    H135681   1.335   8.711   4.506
11932TIP3    H235682   1.214   8.645   4.571
11933TIP3   OH235683   1.927   9.182   4.839
11933TIP3    H135684   1.946   9.089   4.861
11933TIP3    H235685   2.016   9.212   4.815
11934TIP3   OH235686   1.154   9.011   5.002
11934TIP3    H135687   1.107   8.926   5.014
11934TIP3    H235688   1.214   8.991   4.929
11935TIP3   OH235689   1.441   8.434   4.653
11935TIP3    H135690   1.392   8.516   4.631
11935TIP3    H235691   1.372   8.366   4.642
11936TIP3   OH235692   1.570   8.932   4.873
11936TIP3    H135693   1.562   8.926   4.970
11936TIP3    H235694   1.480   8.903   4.849
11937TIP3   OH235695   1.810   8.887   4.732
11937TIP3    H135696   1.732   8.878   4.790
11937TIP3    H235697   1.882   8.852   4.788
11938TIP3   OH235698   2.040   8.830   4.880
11938TIP3    H135699   2.050   8.734   4.898
11938TIP3    H235700   2.032   8.868   4.970
11939TIP3   OH235701   1.030   8.775   5.062
11939TIP3    H135702   1.029   8.683   5.027
11939TIP3    H235703   1.062   8.758   5.153
11940TIP3   OH235704   1.534   8.445   4.911
11940TIP3    H135705   1.602   8.375   4.907
11940TIP3    H235706   1.495   8.437   4.822
11941TIP3   OH235707   1.602   8.659   5.070
11941TIP3    H135708   1.578   8.587   5.006
11941TIP3    H235709   1.523   8.717   5.064
11942TIP3   OH235710   1.900   8.799   3.064
11942TIP3    H135711   1.880   8.816   2.971
11942TIP3    H235712   1.879   8.703   3.068
11943TIP3   OH235713   1.939   9.047   3.611
11943TIP3    H135714   1.942   8.951   3.622
11943TIP3    H235715   1.916   9.075   3.703
11944TIP3   OH235716   2.376   9.319   4.493
11944TIP3    H135717   2.303   9.262   4.523
11944TIP3    H235718   2.451   9.256   4.499
11945TIP3   OH235719   1.848   8.534   3.059
11945TIP3    H135720   1.927   8.498   3.106
11945TIP3    H235721   1.778   8.470   3.081
11946TIP3   OH235722   1.899   8.773   3.505
11946TIP3    H135723   1.942   8.686   3.521
11946TIP3    H235724   1.960   8.811   3.440
11947TIP3   OH235725   2.068   8.957   3.993
11947TIP3    H135726   2.153   8.985   3.952
11947TIP3    H235727   2.085   8.991   4.083
11948TIP3   OH235728   2.148   9.086   4.223
11948TIP3    H135729   2.073   9.116   4.278
11948TIP3    H235730   2.195   9.170   4.206
11949TIP3   OH235731   0.765   8.844   5.056
11949TIP3    H135732   0.859   8.822   5.043
11949TIP3    H235733   0.728   8.756   5.074
11950TIP3   OH235734   2.591   8.692   4.791
11950TIP3    H135735   2.647   8.625   4.748
11950TIP3    H235736   2.564   8.749   4.715
11951TIP3   OH235737   2.017   8.531   3.546
11951TIP3    H135738   2.066   8.515   3.629
11951TIP3    H235739   1.957   8.453   3.545
11952TIP3   OH235740   0.714   8.512   4.350
11952TIP3    H135741   0.777   8.442   4.375
11952TIP3    H235742   0.771   8.591   4.356
11953TIP3   OH235743   0.547   8.798   4.462
11953TIP3    H135744   0.579   8.786   4.371
11953TIP3    H235745   0.521   8.890   4.461
11954TIP3   OH235746   2.463   8.835   4.596
11954TIP3    H135747   2.374   8.869   4.613
11954TIP3    H235748   2.441   8.761   4.537
11955TIP3   OH235749   2.097   8.471   3.173
11955TIP3    H135750   2.138   8.395   3.127
11955TIP3    H235751   2.168   8.538   3.170
11956TIP3   OH235752   0.510   8.287   3.927
11956TIP3    H135753   0.429   8.310   3.975
11956TIP3    H235754   0.508   8.351   3.853
11957TIP3   OH235755   0.729   8.461   4.802
11957TIP3    H135756   0.674   8.404   4.858
11957TIP3    H235757   0.674   8.460   4.720
11958TIP3   OH235758   2.359   8.594   4.475
11958TIP3    H135759   2.267   8.585   4.443
11958TIP3    H235760   2.392   8.502   4.463
11959TIP3   OH235761   1.567   8.510   4.093
11959TIP3    H135762   1.521   8.441   4.145
11959TIP3    H235763   1.637   8.459   4.048
11960TIP3   OH235764   2.089   8.393   4.000
11960TIP3    H135765   2.125   8.443   3.924
11960TIP3    H235766   1.993   8.408   3.991
11961TIP3   OH235767   2.183   8.493   3.763
11961TIP3    H135768   2.256   8.440   3.723
11961TIP3    H235769   2.218   8.584   3.747
11962TIP3   OH235770   0.813   8.218   4.110
11962TIP3    H135771   0.723   8.181   4.110
11962TIP3    H235772   0.866   8.136   4.108
11963TIP3   OH235773   0.598   8.083   3.757
11963TIP3    H135774   0.630   8.140   3.685
11963TIP3    H235775   0.571   8.150   3.824
11964TIP3   OH235776   1.254   8.254   3.990
11964TIP3    H135777   1.315   8.303   3.933
11964TIP3    H235778   1.279   8.287   4.078
11965TIP3   OH235779   1.806   8.397   3.974
11965TIP3    H135780   1.803   8.358   3.886
11965TIP3    H235781   1.792   8.317   4.030
11966TIP3   OH235782   1.834   8.319   3.536
11966TIP3    H135783   1.746   8.359   3.548
11966TIP3    H235784   1.821   8.234   3.584
11967TIP3   OH235785   0.717   8.249   3.523
11967TIP3    H135786   0.766   8.186   3.468
11967TIP3    H235787   0.790   8.303   3.559
11968TIP3   OH235788   1.230   8.424   3.619
11968TIP3    H135789   1.289   8.377   3.680
11968TIP3    H235790   1.250   8.516   3.645
11969TIP3   OH235791   1.024   8.501   5.002
11969TIP3    H135792   0.988   8.432   5.060
11969TIP3    H235793   1.118   8.501   5.030
11970TIP3   OH235794   1.271   8.498   5.122
11970TIP3    H135795   1.355   8.471   5.080
11970TIP3    H235796   1.259   8.427   5.188
11971TIP3   OH235797   2.094   8.559   4.908
11971TIP3    H135798   2.114   8.527   4.999
11971TIP3    H235799   2.182   8.552   4.866
11972TIP3   OH235800   2.276   9.006   3.422
11972TIP3    H135801   2.232   9.078   3.468
11972TIP3    H235802   2.204   8.943   3.407
11973TIP3   OH235803   4.110   9.031   3.590
11973TIP3    H135804   4.140   9.116   3.624
11973TIP3    H235805   4.135   9.039   3.496
11974TIP3   OH235806   3.517   9.214   3.622
11974TIP3    H135807   3.552   9.125   3.645
11974TIP3    H235808   3.473   9.195   3.537
11975TIP3   OH235809   2.845   8.869   3.594
11975TIP3    H135810   2.828   8.941   3.529
11975TIP3    H235811   2.799   8.795   3.549
11976TIP3   OH235812   3.542   8.957   3.215
11976TIP3    H135813   3.613   8.941   3.281
11976TIP3    H235814   3.594   8.994   3.142
11977TIP3   OH235815   2.474   9.056   3.710
11977TIP3    H135816   2.562   9.042   3.750
11977TIP3    H235817   2.488   9.019   3.621
11978TIP3   OH235818   2.937   9.274   3.470
11978TIP3    H135819   3.021   9.240   3.507
11978TIP3    H235820   2.887   9.193   3.449
11979TIP3   OH235821   4.196   9.240   3.773
11979TIP3    H135822   4.121   9.285   3.730
11979TIP3    H235823   4.153   9.212   3.856
11980TIP3   OH235824   2.843   8.847   4.029
11980TIP3    H135825   2.784   8.881   3.960
11980TIP3    H235826   2.791   8.867   4.109
11981TIP3   OH235827   3.751   8.964   3.385
11981TIP3    H135828   3.750   8.907   3.463
11981TIP3    H235829   3.804   9.040   3.414
11982TIP3   OH235830   2.717   8.964   3.813
11982TIP3    H135831   2.781   9.036   3.830
11982TIP3    H235832   2.763   8.920   3.738
11983TIP3   OH235833   3.902   8.947   3.763
11983TIP3    H135834   3.812   8.960   3.727
11983TIP3    H235835   3.959   8.967   3.686
11984TIP3   OH235836   3.183   8.577   3.711
11984TIP3    H135837   3.204   8.492   3.752
11984TIP3    H235838   3.120   8.613   3.777
11985TIP3   OH235839   3.098   9.108   2.738
11985TIP3    H135840   3.166   9.128   2.803
11985TIP3    H235841   3.149   9.060   2.670
11986TIP3   OH235842   3.746   9.457   3.862
11986TIP3    H135843   3.747   9.547   3.826
11986TIP3    H235844   3.655   9.428   3.835
11987TIP3   OH235845   3.835   8.517   2.843
11987TIP3    H135846   3.753   8.535   2.894
11987TIP3    H235847   3.845   8.600   2.792
11988TIP3   OH235848   3.968   9.425   4.045
11988TIP3    H135849   3.883   9.424   3.997
11988TIP3    H235850   3.990   9.330   4.043
11989TIP3   OH235851   2.962   8.648   3.874
11989TIP3    H135852   2.874   8.616   3.849
11989TIP3    H235853   2.937   8.729   3.923
11990TIP3   OH235854   3.753   9.198   4.007
11990TIP3    H135855   3.692   9.182   4.082
11990TIP3    H235856   3.699   9.252   3.948
11991TIP3   OH235857   3.110   8.698   2.842
11991TIP3    H135858   3.077   8.694   2.933
11991TIP3    H235859   3.073   8.615   2.807
11992TIP3   OH235860   2.889   9.172   3.883
11992TIP3    H135861   2.822   9.180   3.954
11992TIP3    H235862   2.877   9.252   3.831
11993TIP3   OH235863   2.778   9.050   3.403
11993TIP3    H135864   2.685   9.021   3.419
11993TIP3    H235865   2.792   9.011   3.313
11994TIP3   OH235866   3.282   9.142   3.134
11994TIP3    H135867   3.197   9.185   3.109
11994TIP3    H235868   3.322   9.117   3.048
11995TIP3   OH235869   3.452   9.394   4.203
11995TIP3    H135870   3.437   9.328   4.273
11995TIP3    H235871   3.527   9.443   4.238
11996TIP3   OH235872   3.422   9.155   3.370
11996TIP3    H135873   3.360   9.170   3.296
11996TIP3    H235874   3.464   9.074   3.335
11997TIP3   OH235875   2.712   9.186   4.102
11997TIP3    H135876   2.650   9.237   4.155
11997TIP3    H235877   2.692   9.095   4.131
11998TIP3   OH235878   2.765   8.669   2.810
11998TIP3    H135879   2.761   8.667   2.908
11998TIP3    H235880   2.683   8.716   2.789
11999TIP3   OH235881   2.306   8.718   3.675
11999TIP3    H135882   2.380   8.748   3.731
11999TIP3    H235883   2.351   8.678   3.599
12000TIP3   OH235884   2.281   8.691   3.197
12000TIP3    H135885   2.327   8.731   3.120
12000TIP3    H235886   2.223   8.765   3.222
12001TIP3   OH235887   3.488   9.396   3.819
12001TIP3    H135888   3.490   9.333   3.743
12001TIP3    H235889   3.413   9.358   3.868
12002TIP3   OH235890   3.103   8.874   3.464
12002TIP3    H135891   3.023   8.869   3.519
12002TIP3    H235892   3.173   8.867   3.531
12003TIP3   OH235893   2.539   8.930   3.469
12003TIP3    H135894   2.445   8.932   3.442
12003TIP3    H235895   2.566   8.839   3.449
12004TIP3   OH235896   2.812   8.924   3.161
12004TIP3    H135897   2.905   8.944   3.138
12004TIP3    H235898   2.762   8.948   3.080
12005TIP3   OH235899   3.593   8.949   3.674
12005TIP3    H135900   3.552   8.953   3.763
12005TIP3    H235901   3.535   8.883   3.631
12006TIP3   OH235902   2.640   8.940   2.940
12006TIP3    H135903   2.576   8.910   2.873
12006TIP3    H235904   2.690   9.007   2.890
12007TIP3   OH235905   3.184   9.191   3.559
12007TIP3    H135906   3.261   9.146   3.520
12007TIP3    H235907   3.189   9.163   3.653
12008TIP3   OH235908   2.709   8.689   3.439
12008TIP3    H135909   2.679   8.608   3.486
12008TIP3    H235910   2.766   8.653   3.370
12009TIP3   OH235911   3.169   9.106   3.825
12009TIP3    H135912   3.077   9.119   3.857
12009TIP3    H235913   3.221   9.152   3.893
12010TIP3   OH235914   3.359   8.805   2.815
12010TIP3    H135915   3.264   8.781   2.819
12010TIP3    H235916   3.359   8.902   2.827
12011TIP3   OH235917   3.426   9.071   2.899
12011TIP3    H135918   3.514   9.047   2.935
12011TIP3    H235919   3.452   9.132   2.829
12012TIP3   OH235920   3.182   9.417   4.349
12012TIP3    H135921   3.128   9.464   4.280
12012TIP3    H235922   3.248   9.373   4.296
12013TIP3   OH235923   3.863   9.119   2.758
12013TIP3    H135924   3.801   9.083   2.691
12013TIP3    H235925   3.890   9.201   2.714
12014TIP3   OH235926   2.681   8.935   4.241
12014TIP3    H135927   2.585   8.935   4.256
12014TIP3    H235928   2.712   8.874   4.310
12015TIP3   OH235929   3.510   9.008   3.944
12015TIP3    H135930   3.599   8.993   3.976
12015TIP3    H235931   3.469   8.920   3.966
12016TIP3   OH235932   3.401   8.751   3.089
12016TIP3    H135933   3.390   8.774   2.994
12016TIP3    H235934   3.444   8.831   3.126
12017TIP3   OH235935   3.098   8.931   3.193
12017TIP3    H135936   3.170   8.996   3.185
12017TIP3    H235937   3.095   8.919   3.291
12018TIP3   OH235938   3.348   9.240   3.995
12018TIP3    H135939   3.385   9.289   4.071
12018TIP3    H235940   3.403   9.160   3.991
12019TIP3   OH235941   3.237   8.657   3.295
12019TIP3    H135942   3.237   8.729   3.361
12019TIP3    H235943   3.297   8.695   3.226
12020TIP3   OH235944   2.748   8.653   3.085
12020TIP3    H135945   2.745   8.745   3.118
12020TIP3    H235946   2.844   8.636   3.095
12021TIP3   OH235947   4.012   9.149   3.966
12021TIP3    H135948   3.916   9.158   3.986
12021TIP3    H235949   4.005   9.083   3.895
12022TIP3   OH235950   3.645   9.329   3.352
12022TIP3    H135951   3.574   9.270   3.383
12022TIP3    H235952   3.720   9.301   3.408
12023TIP3   OH235953   2.304   8.851   2.976
12023TIP3    H135954   2.320   8.945   2.960
12023TIP3    H235955   2.224   8.831   2.928
12024TIP3   OH235956   2.695   8.569   3.847
12024TIP3    H135957   2.667   8.534   3.760
12024TIP3    H235958   2.688   8.489   3.904
12025TIP3   OH235959   2.683   9.451   4.448
12025TIP3    H135960   2.725   9.372   4.485
12025TIP3    H235961   2.669   9.508   4.527
12026TIP3   OH235962   2.954   9.315   4.135
12026TIP3    H135963   2.879   9.264   4.166
12026TIP3    H235964   2.934   9.321   4.041
12027TIP3   OH235965   2.822   9.089   2.797
12027TIP3    H135966   2.790   9.035   2.723
12027TIP3    H235967   2.920   9.088   2.783
12028TIP3   OH235968   3.108   9.131   4.283
12028TIP3    H135969   3.108   9.050   4.226
12028TIP3    H235970   3.069   9.194   4.220
12029TIP3   OH235971   3.093   8.953   4.083
12029TIP3    H135972   3.149   8.931   4.007
12029TIP3    H235973   3.011   8.903   4.063
12030TIP3   OH235974   3.719   9.446   4.324
12030TIP3    H135975   3.724   9.350   4.327
12030TIP3    H235976   3.809   9.471   4.302
12031TIP3   OH235977   2.954   9.264   4.492
12031TIP3    H135978   2.902   9.182   4.503
12031TIP3    H235979   3.010   9.243   4.415
12032TIP3   OH235980   3.365   9.191   4.359
12032TIP3    H135981   3.346   9.184   4.454
12032TIP3    H235982   3.277   9.160   4.326
12033TIP3   OH235983   3.616   9.144   4.239
12033TIP3    H135984   3.523   9.156   4.267
12033TIP3    H235985   3.633   9.058   4.278
12034TIP3   OH235986   2.816   9.033   4.549
12034TIP3    H135987   2.821   8.942   4.514
12034TIP3    H235988   2.851   9.019   4.639
12035TIP3   OH235989   3.333   8.704   4.381
12035TIP3    H135990   3.399   8.632   4.379
12035TIP3    H235991   3.320   8.715   4.285
12036TIP3   OH235992   3.397   8.909   4.553
12036TIP3    H135993   3.373   8.842   4.485
12036TIP3    H235994   3.321   8.970   4.548
12037TIP3   OH235995   3.686   9.067   2.548
12037TIP3    H135996   3.681   9.074   2.452
12037TIP3    H235997   3.667   8.971   2.559
12038TIP3   OH235998   3.731   9.305   3.098
12038TIP3    H135999   3.737   9.209   3.108
12038TIP3    H236000   3.709   9.331   3.191
12039TIP3   OH236001   4.207   9.556   4.000
12039TIP3    H136002   4.112   9.532   4.015
12039TIP3    H236003   4.237   9.475   3.958
12040TIP3   OH236004   3.643   8.801   2.556
12040TIP3    H136005   3.722   8.758   2.596
12040TIP3    H236006   3.573   8.734   2.567
12041TIP3   OH236007   3.694   9.030   2.990
12041TIP3    H136008   3.737   8.942   3.007
12041TIP3    H236009   3.757   9.065   2.924
12042TIP3   OH236010   3.866   9.212   3.480
12042TIP3    H136011   3.950   9.242   3.440
12042TIP3    H236012   3.882   9.246   3.571
12043TIP3   OH236013   3.946   9.342   3.709
12043TIP3    H136014   3.870   9.373   3.762
12043TIP3    H236015   3.991   9.427   3.689
12044TIP3   OH236016   2.547   9.097   4.529
12044TIP3    H136017   2.644   9.085   4.523
12044TIP3    H236018   2.523   9.010   4.565
12045TIP3   OH236019   4.392   8.952   4.278
12045TIP3    H136020   4.448   8.883   4.237
12045TIP3    H236021   4.366   9.005   4.199
12046TIP3   OH236022   3.812   8.788   3.033
12046TIP3    H136023   3.861   8.772   3.117
12046TIP3    H236024   3.752   8.710   3.032
12047TIP3   OH236025   2.509   8.774   3.856
12047TIP3    H136026   2.574   8.701   3.864
12047TIP3    H236027   2.570   8.850   3.846
12048TIP3   OH236028   2.315   9.058   3.932
12048TIP3    H136029   2.364   9.045   3.847
12048TIP3    H236030   2.337   9.150   3.949
12049TIP3   OH236031   4.264   9.104   4.080
12049TIP3    H136032   4.168   9.121   4.087
12049TIP3    H236033   4.260   9.024   4.024
12050TIP3   OH236034   3.895   8.726   2.661
12050TIP3    H136035   3.933   8.651   2.611
12050TIP3    H236036   3.966   8.793   2.656
12051TIP3   OH236037   2.299   8.552   3.427
12051TIP3    H136038   2.205   8.551   3.453
12051TIP3    H236039   2.298   8.609   3.347
12052TIP3   OH236040   2.518   8.639   4.244
12052TIP3    H136041   2.465   8.628   4.324
12052TIP3    H236042   2.451   8.673   4.181
12053TIP3   OH236043   4.156   8.848   3.959
12053TIP3    H136044   4.064   8.833   3.930
12053TIP3    H236045   4.192   8.757   3.951
12054TIP3   OH236046   3.358   8.767   3.573
12054TIP3    H136047   3.313   8.706   3.635
12054TIP3    H236048   3.430   8.712   3.538
12055TIP3   OH236049   3.886   8.653   3.489
12055TIP3    H136050   3.921   8.701   3.411
12055TIP3    H236051   3.790   8.663   3.478
12056TIP3   OH236052   3.979   8.750   3.250
12056TIP3    H136053   4.052   8.696   3.210
12056TIP3    H236054   4.014   8.840   3.233
12057TIP3   OH236055   2.609   8.475   3.597
12057TIP3    H136056   2.518   8.440   3.598
12057TIP3    H236057   2.661   8.391   3.594
12058TIP3   OH236058   2.391   8.345   3.243
12058TIP3    H136059   2.426   8.402   3.172
12058TIP3    H236060   2.366   8.409   3.312
12059TIP3   OH236061   3.049   8.511   3.478
12059TIP3    H136062   3.110   8.560   3.421
12059TIP3    H236063   3.083   8.536   3.566
12060TIP3   OH236064   3.608   8.653   3.460
12060TIP3    H136065   3.596   8.615   3.372
12060TIP3    H236066   3.590   8.575   3.518
12061TIP3   OH236067   3.630   8.575   3.024
12061TIP3    H136068   3.541   8.615   3.034
12061TIP3    H236069   3.617   8.490   3.071
12062TIP3   OH236070   2.513   8.507   3.006
12062TIP3    H136071   2.562   8.442   2.952
12062TIP3    H236072   2.586   8.560   3.044
12063TIP3   OH236073   3.026   8.681   3.107
12063TIP3    H136074   3.084   8.634   3.168
12063TIP3    H236075   3.046   8.773   3.133
12064TIP3   OH236076   2.816   8.758   4.492
12064TIP3    H136077   2.786   8.685   4.548
12064TIP3    H236078   2.912   8.759   4.513
12065TIP3   OH236079   3.069   8.757   4.608
12065TIP3    H136080   3.145   8.725   4.557
12065TIP3    H236081   3.054   8.684   4.672
12066TIP3   OH236082   4.070   9.264   2.905
12066TIP3    H136083   4.030   9.334   2.957
12066TIP3    H236084   3.999   9.198   2.902
12067TIP3   OH236085   5.906   9.285   3.078
12067TIP3    H136086   5.937   9.367   3.120
12067TIP3    H236087   5.930   9.302   2.985
12068TIP3   OH236088   5.305   9.464   3.106
12068TIP3    H136089   5.345   9.378   3.128
12068TIP3    H236090   5.266   9.445   3.020
12069TIP3   OH236091   4.640   9.127   3.081
12069TIP3    H136092   4.625   9.198   3.016
12069TIP3    H236093   4.596   9.052   3.036
12070TIP3   OH236094   5.338   9.214   2.703
12070TIP3    H136095   5.410   9.198   2.768
12070TIP3    H236096   5.389   9.249   2.628
12071TIP3   OH236097   4.261   9.297   3.199
12071TIP3    H136098   4.349   9.315   3.234
12071TIP3    H236099   4.283   9.268   3.108
12072TIP3   OH236100   4.721   9.525   2.990
12072TIP3    H136101   4.813   9.493   3.002
12072TIP3    H236102   4.678   9.450   2.945
12073TIP3   OH236103   5.993   9.488   3.250
12073TIP3    H136104   5.910   9.533   3.220
12073TIP3    H236105   5.991   9.508   3.344
12074TIP3   OH236106   4.636   9.111   3.523
12074TIP3    H136107   4.580   9.143   3.450
12074TIP3    H236108   4.580   9.127   3.601
12075TIP3   OH236109   5.548   9.220   2.873
12075TIP3    H136110   5.550   9.165   2.952
12075TIP3    H236111   5.602   9.297   2.900
12076TIP3   OH236112   4.515   9.217   3.304
12076TIP3    H136113   4.572   9.296   3.318
12076TIP3    H236114   4.559   9.178   3.225
12077TIP3   OH236115   5.700   9.195   3.251
12077TIP3    H136116   5.611   9.214   3.216
12077TIP3    H236117   5.758   9.218   3.175
12078TIP3   OH236118   4.974   8.833   3.192
12078TIP3    H136119   5.012   8.754   3.233
12078TIP3    H236120   4.913   8.863   3.262
12079TIP3   OH236121   4.890   9.344   2.232
12079TIP3    H136122   4.943   9.416   2.269
12079TIP3    H236123   4.949   9.310   2.162
12080TIP3   OH236124   5.544   9.718   3.358
12080TIP3    H136125   5.552   9.800   3.304
12080TIP3    H236126   5.454   9.688   3.332
12081TIP3   OH236127   5.631   8.773   2.330
12081TIP3    H136128   5.550   8.790   2.382
12081TIP3    H236129   5.641   8.857   2.281
12082TIP3   OH236130   5.757   9.676   3.547
12082TIP3    H136131   5.682   9.674   3.485
12082TIP3    H236132   5.785   9.582   3.544
12083TIP3   OH236133   4.757   8.904   3.361
12083TIP3    H136134   4.669   8.872   3.333
12083TIP3    H236135   4.732   8.990   3.400
12084TIP3   OH236136   5.292   9.041   3.564
12084TIP3    H136137   5.360   8.996   3.618
12084TIP3    H236138   5.210   8.996   3.590
12085TIP3   OH236139   5.537   9.441   3.469
12085TIP3    H136140   5.494   9.419   3.557
12085TIP3    H236141   5.499   9.526   3.446
12086TIP3   OH236142   4.906   8.953   2.327
12086TIP3    H136143   4.874   8.953   2.419
12086TIP3    H236144   4.869   8.868   2.296
12087TIP3   OH236145   4.687   9.428   3.374
12087TIP3    H136146   4.610   9.446   3.432
12087TIP3    H236147   4.679   9.499   3.308
12088TIP3   OH236148   4.575   9.307   2.888
12088TIP3    H136149   4.483   9.277   2.904
12088TIP3    H236150   4.590   9.268   2.799
12089TIP3   OH236151   5.075   9.395   2.618
12089TIP3    H136152   4.994   9.443   2.590
12089TIP3    H236153   5.118   9.375   2.533
12090TIP3   OH236154   5.274   9.645   3.707
12090TIP3    H136155   5.311   9.605   3.754
12090TIP3    H236156   5.301   9.573   3.614
12091TIP3   OH236157   5.214   9.410   2.855
12091TIP3    H136158   5.156   9.426   2.777
12091TIP3    H236159   5.257   9.329   2.820
12092TIP3   OH236160   4.471   9.455   3.546
12092TIP3    H136161   4.531   9.499   3.608
12092TIP3    H236162   4.442   9.377   3.594
12093TIP3   OH236163   4.562   8.925   2.297
12093TIP3    H136164   4.559   8.923   2.395
12093TIP3    H236165   4.479   8.971   2.278
12094TIP3   OH236166   4.101   8.976   3.162
12094TIP3    H136167   4.176   9.007   3.217
12094TIP3    H236168   4.144   8.934   3.086
12095TIP3   OH236169   4.080   8.946   2.686
12095TIP3    H136170   4.122   8.987   2.608
12095TIP3    H236171   4.020   9.019   2.712
12096TIP3   OH236172   5.287   9.634   3.316
12096TIP3    H136173   5.293   9.571   3.237
12096TIP3    H236174   5.197   9.668   3.301
12097TIP3   OH236175   4.901   9.136   2.952
12097TIP3    H136176   4.821   9.125   3.007
12097TIP3    H236177   4.971   9.122   3.018
12098TIP3   OH236178   4.336   9.187   2.953
12098TIP3    H136179   4.242   9.188   2.926
12098TIP3    H236180   4.365   9.095   2.935
12099TIP3   OH236181   4.608   9.181   2.647
12099TIP3    H136182   4.702   9.199   2.626
12099TIP3    H236183   4.561   9.207   2.565
12100TIP3   OH236184   5.392   9.206   3.155
12100TIP3    H136185   5.353   9.212   3.245
12100TIP3    H236186   5.336   9.136   3.116
12101TIP3   OH236187   4.433   9.196   2.424
12101TIP3    H136188   4.371   9.169   2.355
12101TIP3    H236189   4.487   9.263   2.377
12102TIP3   OH236190   4.985   9.453   3.043
12102TIP3    H136191   5.057   9.417   2.990
12102TIP3    H236192   4.990   9.401   3.125
12103TIP3   OH236193   4.505   8.946   2.925
12103TIP3    H136194   4.477   8.864   2.971
12103TIP3    H236195   4.564   8.911   2.856
12104TIP3   OH236196   4.948   9.315   3.311
12104TIP3    H136197   4.864   9.361   3.330
12104TIP3    H236198   5.010   9.359   3.374
12105TIP3   OH236199   5.154   9.067   2.294
12105TIP3    H136200   5.059   9.045   2.305
12105TIP3    H236201   5.159   9.162   2.316
12106TIP3   OH236202   5.225   9.324   2.384
12106TIP3    H136203   5.317   9.309   2.414
12106TIP3    H236204   5.234   9.407   2.335
12107TIP3   OH236205   5.119   9.664   4.151
12107TIP3    H136206   5.194   9.610   4.125
12107TIP3    H236207   5.132   9.743   4.097
12108TIP3   OH236208   5.664   9.384   2.242
12108TIP3    H136209   5.601   9.344   2.177
12108TIP3    H236210   5.673   9.471   2.203
12109TIP3   OH236211   4.477   9.204   3.771
12109TIP3    H136212   4.383   9.186   3.754
12109TIP3    H236213   4.507   9.122   3.814
12110TIP3   OH236214   5.302   9.270   3.413
12110TIP3    H136215   5.388   9.298   3.445
12110TIP3    H236216   5.287   9.188   3.464
12111TIP3   OH236217   5.197   9.009   2.574
12111TIP3    H136218   5.186   9.034   2.480
12111TIP3    H236219   5.239   9.089   2.612
12112TIP3   OH236220   4.892   9.187   2.679
12112TIP3    H136221   4.962   9.252   2.664
12112TIP3    H236222   4.895   9.177   2.777
12113TIP3   OH236223   5.099   9.486   3.497
12113TIP3    H136224   5.131   9.577   3.505
12113TIP3    H236225   5.188   9.444   3.481
12114TIP3   OH236226   5.032   8.915   2.779
12114TIP3    H136227   5.035   8.985   2.847
12114TIP3    H236228   5.094   8.951   2.712
12115TIP3   OH236229   4.545   8.911   2.572
12115TIP3    H136230   4.542   9.003   2.604
12115TIP3    H236231   4.641   8.893   2.582
12116TIP3   OH236232   5.803   9.410   3.463
12116TIP3    H136233   5.706   9.404   3.472
12116TIP3    H236234   5.814   9.359   3.382
12117TIP3   OH236235   5.437   9.588   2.842
12117TIP3    H136236   5.371   9.521   2.866
12117TIP3    H236237   5.515   9.559   2.894
12118TIP3   OH236238   4.093   9.111   2.470
12118TIP3    H136239   4.119   9.199   2.442
12118TIP3    H236240   4.031   9.081   2.403
12119TIP3   OH236241   4.491   8.825   3.334
12119TIP3    H136242   4.463   8.792   3.246
12119TIP3    H236243   4.484   8.745   3.390
12120TIP3   OH236244   4.688   9.565   3.674
12120TIP3    H136245   4.745   9.499   3.717
12120TIP3    H236246   4.744   9.592   3.600
12121TIP3   OH236247   4.616   9.344   2.283
12121TIP3    H136248   4.587   9.287   2.207
12121TIP3    H236249   4.713   9.341   2.275
12122TIP3   OH236250   4.885   9.386   3.748
12122TIP3    H136251   4.880   9.290   3.729
12122TIP3    H236252   4.932   9.414   3.668
12123TIP3   OH236253   4.895   9.180   3.558
12123TIP3    H136254   4.919   9.201   3.465
12123TIP3    H236255   4.800   9.156   3.548
12124TIP3   OH236256   5.574   9.716   3.852
12124TIP3    H136257   5.587   9.618   3.858
12124TIP3    H236258   5.635   9.737   3.779
12125TIP3   OH236259   5.029   8.954   3.643
12125TIP3    H136260   4.982   9.032   3.605
12125TIP3    H236261   4.973   8.881   3.611
12126TIP3   OH236262   5.168   9.454   3.860
12126TIP3    H136263   5.129   9.462   3.953
12126TIP3    H236264   5.083   9.436   3.811
12127TIP3   OH236265   5.420   9.371   3.701
12127TIP3    H136266   5.339   9.361   3.753
12127TIP3    H236267   5.489   9.344   3.760
12128TIP3   OH236268   5.644   9.344   3.864
12128TIP3    H136269   5.653   9.248   3.879
12128TIP3    H236270   5.634   9.380   3.957
12129TIP3   OH236271   5.126   8.957   3.894
12129TIP3    H136272   5.194   8.887   3.884
12129TIP3    H236273   5.087   8.955   3.804
12130TIP3   OH236274   5.194   9.172   4.047
12130TIP3    H136275   5.175   9.099   3.985
12130TIP3    H236276   5.118   9.232   4.031
12131TIP3   OH236277   5.492   9.312   2.039
12131TIP3    H136278   5.474   9.331   1.946
12131TIP3    H236279   5.471   9.216   2.042
12132TIP3   OH236280   5.531   9.561   2.587
12132TIP3    H136281   5.533   9.465   2.597
12132TIP3    H236282   5.508   9.588   2.679
12133TIP3   OH236283   5.967   9.833   3.469
12133TIP3    H136284   5.895   9.774   3.498
12133TIP3    H236285   6.043   9.770   3.473
12134TIP3   OH236286   5.441   9.047   2.034
12134TIP3    H136287   5.519   9.011   2.081
12134TIP3    H236288   5.371   8.982   2.055
12135TIP3   OH236289   5.492   9.287   2.480
12135TIP3    H136290   5.535   9.199   2.494
12135TIP3    H236291   5.553   9.324   2.414
12136TIP3   OH236292   5.660   9.471   2.965
12136TIP3    H136293   5.745   9.498   2.925
12136TIP3    H236294   5.678   9.503   3.056
12137TIP3   OH236295   5.741   9.597   3.197
12137TIP3    H136296   5.668   9.627   3.253
12137TIP3    H236297   5.788   9.683   3.178
12138TIP3   OH236298   4.410   9.350   4.021
12138TIP3    H136299   4.441   9.299   3.943
12138TIP3    H236300   4.354   9.279   4.062
12139TIP3   OH236301   6.179   9.204   3.764
12139TIP3    H136302   6.239   9.138   3.722
12139TIP3    H236303   6.156   9.261   3.688
12140TIP3   OH236304   5.609   9.043   2.519
12140TIP3    H136305   5.657   9.028   2.603
12140TIP3    H236306   5.549   8.966   2.519
12141TIP3   OH236307   4.305   9.030   3.349
12141TIP3    H136308   4.371   8.958   3.351
12141TIP3    H236309   4.362   9.107   3.330
12142TIP3   OH236310   4.113   9.316   3.425
12142TIP3    H136311   4.158   9.297   3.339
12142TIP3    H236312   4.143   9.407   3.438
12143TIP3   OH236313   6.055   9.349   3.568
12143TIP3    H136314   5.965   9.383   3.584
12143TIP3    H236315   6.034   9.273   3.511
12144TIP3   OH236316   5.690   8.983   2.148
12144TIP3    H136317   5.730   8.909   2.099
12144TIP3    H236318   5.760   9.051   2.143
12145TIP3   OH236319   4.095   8.812   2.918
12145TIP3    H136320   4.000   8.806   2.939
12145TIP3    H236321   4.095   8.865   2.836
12146TIP3   OH236322   4.318   8.907   3.733
12146TIP3    H136323   4.262   8.884   3.810
12146TIP3    H236324   4.249   8.932   3.668
12147TIP3   OH236325   5.953   9.108   3.449
12147TIP3    H136326   5.862   9.095   3.416
12147TIP3    H236327   5.986   9.016   3.437
12148TIP3   OH236328   5.155   9.021   3.058
12148TIP3    H136329   5.110   8.956   3.115
12148TIP3    H236330   5.231   8.968   3.026
12149TIP3   OH236331   5.685   8.910   2.978
12149TIP3    H136332   5.715   8.957   2.898
12149TIP3    H236333   5.587   8.915   2.971
12150TIP3   OH236334   5.776   9.006   2.736
12150TIP3    H136335   5.848   8.953   2.697
12150TIP3    H236336   5.810   9.097   2.721
12151TIP3   OH236337   4.406   8.732   3.086
12151TIP3    H136338   4.314   8.697   3.085
12151TIP3    H236339   4.457   8.648   3.082
12152TIP3   OH236340   4.189   8.601   2.730
12152TIP3    H136341   4.223   8.658   2.659
12152TIP3    H236342   4.164   8.666   2.799
12153TIP3   OH236343   4.842   8.769   2.963
12153TIP3    H136344   4.905   8.815   2.904
12153TIP3    H236345   4.881   8.792   3.050
12154TIP3   OH236346   5.399   8.891   2.962
12154TIP3    H136347   5.398   8.845   2.877
12154TIP3    H236348   5.396   8.816   3.026
12155TIP3   OH236349   5.426   8.830   2.509
12155TIP3    H136350   5.338   8.871   2.523
12155TIP3    H236351   5.414   8.747   2.559
12156TIP3   OH236352   4.309   8.764   2.494
12156TIP3    H136353   4.358   8.699   2.440
12156TIP3    H236354   4.383   8.816   2.532
12157TIP3   OH236355   4.822   8.937   2.593
12157TIP3    H136356   4.882   8.891   2.654
12157TIP3    H236357   4.842   9.029   2.619
12158TIP3   OH236358   4.600   9.009   3.980
12158TIP3    H136359   4.583   8.934   4.039
12158TIP3    H236360   4.693   9.028   4.001
12159TIP3   OH236361   4.861   9.020   4.096
12159TIP3    H136362   4.940   8.989   4.049
12159TIP3    H236363   4.848   8.948   4.160
12160TIP3   OH236364   5.686   9.073   3.882
12160TIP3    H136365   5.707   9.038   3.972
12160TIP3    H236366   5.773   9.066   3.838
12161TIP3   OH236367   5.869   9.517   2.397
12161TIP3    H136368   5.824   9.592   2.439
12161TIP3    H236369   5.796   9.457   2.378
12162TIP3   OH236370   7.103   9.731   2.599
12162TIP3    H136371   7.141   9.644   2.618
12162TIP3    H236372   7.076   9.720   2.506
12163TIP3   OH236373   6.439   9.382   2.567
12163TIP3    H136374   6.421   9.455   2.504
12163TIP3    H236375   6.392   9.309   2.522
12164TIP3   OH236376   7.134   9.467   2.198
12164TIP3    H136377   7.205   9.450   2.264
12164TIP3    H236378   7.187   9.505   2.128
12165TIP3   OH236379   6.065   9.568   2.685
12165TIP3    H136380   6.154   9.557   2.722
12165TIP3    H236381   6.078   9.532   2.595
12166TIP3   OH236382   6.525   9.784   2.455
12166TIP3    H136383   6.612   9.747   2.482
12166TIP3    H236384   6.477   9.706   2.425
12167TIP3   OH236385   6.438   9.366   3.003
12167TIP3    H136386   6.377   9.398   2.933
12167TIP3    H236387   6.384   9.383   3.082
12168TIP3   OH236388   7.353   9.473   2.363
12168TIP3    H136389   7.332   9.420   2.441
12168TIP3    H236390   7.434   9.520   2.389
12169TIP3   OH236391   6.310   9.477   2.786
12169TIP3    H136392   6.371   9.551   2.802
12169TIP3    H236393   6.356   9.434   2.710
12170TIP3   OH236394   7.495   9.458   2.723
12170TIP3    H136395   7.400   9.474   2.712
12170TIP3    H236396   7.529   9.475   2.634
12171TIP3   OH236397   6.794   9.087   2.713
12171TIP3    H136398   6.783   8.992   2.731
12171TIP3    H236399   6.716   9.123   2.760
12172TIP3   OH236400   6.684   9.601   1.714
12172TIP3    H136401   6.744   9.657   1.763
12172TIP3    H236402   6.740   9.563   1.646
12173TIP3   OH236403   7.421   9.027   1.813
12173TIP3    H136404   7.343   9.038   1.871
12173TIP3    H236405   7.423   9.113   1.769
12174TIP3   OH236406   6.555   9.160   2.843
12174TIP3    H136407   6.465   9.130   2.818
12174TIP3    H236408   6.532   9.244   2.887
12175TIP3   OH236409   7.087   9.281   3.036
12175TIP3    H136410   7.160   9.251   3.096
12175TIP3    H236411   7.007   9.255   3.085
12176TIP3   OH236412   7.340   9.710   2.960
12176TIP3    H136413   7.291   9.698   3.045
12176TIP3    H236414   7.287   9.778   2.916
12177TIP3   OH236415   6.703   9.209   1.814
12177TIP3    H136416   6.667   9.206   1.905
12177TIP3    H236417   6.666   9.125   1.779
12178TIP3   OH236418   6.481   9.685   2.853
12178TIP3    H136419   6.415   9.695   2.924
12178TIP3    H236420   6.471   9.767   2.801
12179TIP3   OH236421   6.371   9.561   2.376
12179TIP3    H136422   6.278   9.535   2.392
12179TIP3    H236423   6.385   9.524   2.286
12180TIP3   OH236424   6.875   9.652   2.106
12180TIP3    H136425   6.791   9.699   2.084
12180TIP3    H236426   6.914   9.633   2.019
12181TIP3   OH236427   7.034   9.914   3.186
12181TIP3    H136428   7.027   9.835   3.244
12181TIP3    H236429   7.125   9.940   3.203
12182TIP3   OH236430   7.005   9.671   2.347
12182TIP3    H136431   6.949   9.684   2.268
12182TIP3    H236432   7.054   9.592   2.315
12183TIP3   OH236433   6.302   9.700   3.070
12183TIP3    H136434   6.241   9.752   3.123
12183TIP3    H236435   6.280   9.609   3.099
12184TIP3   OH236436   6.358   9.184   1.783
12184TIP3    H136437   6.352   9.181   1.881
12184TIP3    H236438   6.276   9.230   1.760
12185TIP3   OH236439   5.898   9.231   2.649
12185TIP3    H136440   5.973   9.262   2.704
12185TIP3    H236441   5.941   9.193   2.572
12186TIP3   OH236442   5.874   9.205   2.172
12186TIP3    H136443   5.918   9.245   2.094
12186TIP3    H236444   5.814   9.278   2.197
12187TIP3   OH236445   7.058   9.918   2.795
12187TIP3    H136446   7.080   9.856   2.722
12187TIP3    H236447   6.998   9.862   2.848
12188TIP3   OH236448   6.696   9.377   2.437
12188TIP3    H136449   6.613   9.380   2.489
12188TIP3    H236450   6.762   9.398   2.505
12189TIP3   OH236451   6.132   9.444   2.443
12189TIP3    H136452   6.037   9.448   2.417
12189TIP3    H236453   6.157   9.352   2.422
12190TIP3   OH236454   6.405   9.437   2.133
12190TIP3    H136455   6.497   9.458   2.109
12190TIP3    H236456   6.353   9.461   2.054
12191TIP3   OH236457   7.188   9.461   2.642
12191TIP3    H136458   7.151   9.474   2.732
12191TIP3    H236459   7.122   9.400   2.604
12192TIP3   OH236460   6.232   9.453   1.915
12192TIP3    H136461   6.170   9.421   1.847
12192TIP3    H236462   6.283   9.520   1.865
12193TIP3   OH236463   6.775   9.687   2.527
12193TIP3    H136464   6.861   9.678   2.482
12193TIP3    H236465   6.799   9.680   2.620
12194TIP3   OH236466   6.303   9.202   2.413
12194TIP3    H136467   6.272   9.120   2.457
12194TIP3    H236468   6.352   9.167   2.337
12195TIP3   OH236469   6.754   9.598   2.835
12195TIP3    H136470   6.668   9.644   2.831
12195TIP3    H236471   6.812   9.665   2.878
12196TIP3   OH236472   6.949   9.320   1.797
12196TIP3    H136473   6.856   9.288   1.795
12196TIP3    H236474   6.938   9.416   1.798
12197TIP3   OH236475   7.023   9.590   1.868
12197TIP3    H136476   7.107   9.544   1.878
12197TIP3    H236477   7.034   9.636   1.784
12198TIP3   OH236478   6.774   9.927   3.323
12198TIP3    H136479   6.724   9.977   3.253
12198TIP3    H236480   6.845   9.888   3.270
12199TIP3   OH236481   6.275   9.446   3.215
12199TIP3    H136482   6.178   9.448   3.230
12199TIP3    H236483   6.304   9.386   3.286
12200TIP3   OH236484   7.113   9.520   2.904
12200TIP3    H136485   7.199   9.545   2.942
12200TIP3    H236486   7.095   9.435   2.950
12201TIP3   OH236487   6.993   9.260   2.066
12201TIP3    H136488   6.978   9.284   1.972
12201TIP3    H236489   7.035   9.341   2.102
12202TIP3   OH236490   6.692   9.442   2.167
12202TIP3    H136491   6.761   9.510   2.156
12202TIP3    H236492   6.689   9.432   2.264
12203TIP3   OH236493   6.940   9.751   2.975
12203TIP3    H136494   6.974   9.806   3.048
12203TIP3    H236495   7.000   9.674   2.975
12204TIP3   OH236496   6.829   9.169   2.272
12204TIP3    H136497   6.817   9.247   2.330
12204TIP3    H236498   6.889   9.206   2.203
12205TIP3   OH236499   6.340   9.167   2.060
12205TIP3    H136500   6.337   9.259   2.090
12205TIP3    H236501   6.437   9.150   2.068
12206TIP3   OH236502   7.615   9.668   2.925
12206TIP3    H136503   7.524   9.686   2.954
12206TIP3    H236504   7.598   9.604   2.854
12207TIP3   OH236505   5.894   9.365   1.953
12207TIP3    H136506   5.914   9.457   1.932
12207TIP3    H236507   5.819   9.343   1.898
12208TIP3   OH236508   6.290   9.082   2.820
12208TIP3    H136509   6.259   9.049   2.733
12208TIP3    H236510   6.280   9.002   2.876
12209TIP3   OH236511   6.274   9.963   3.422
12209TIP3    H136512   6.319   9.885   3.457
12209TIP3    H236513   6.264  10.020   3.502
12210TIP3   OH236514   6.549   9.823   3.110
12210TIP3    H136515   6.473   9.781   3.151
12210TIP3    H236516   6.515   9.839   3.022
12211TIP3   OH236517   6.412   9.601   1.770
12211TIP3    H136518   6.379   9.549   1.695
12211TIP3    H236519   6.509   9.595   1.758
12212TIP3   OH236520   6.701   9.635   3.252
12212TIP3    H136521   6.703   9.553   3.197
12212TIP3    H236522   6.664   9.698   3.188
12213TIP3   OH236523   6.696   9.436   3.052
12213TIP3    H136524   6.724   9.481   2.969
12213TIP3    H236525   6.603   9.414   3.032
12214TIP3   OH236526   7.326   9.951   3.309
12214TIP3    H136527   7.337   9.855   3.319
12214TIP3    H236528   7.407   9.973   3.261
12215TIP3   OH236529   6.541   9.779   3.462
12215TIP3    H136530   6.494   9.694   3.474
12215TIP3    H236531   6.602   9.759   3.389
12216TIP3   OH236532   6.829   9.203   3.116
12216TIP3    H136533   6.781   9.285   3.092
12216TIP3    H236534   6.760   9.135   3.103
12217TIP3   OH236535   6.959   9.700   3.334
12217TIP3    H136536   6.948   9.694   3.431
12217TIP3    H236537   6.868   9.672   3.307
12218TIP3   OH236538   7.200   9.662   3.189
12218TIP3    H136539   7.122   9.647   3.246
12218TIP3    H236540   7.272   9.626   3.244
12219TIP3   OH236541   7.422   9.608   3.343
12219TIP3    H136542   7.438   9.511   3.354
12219TIP3    H236543   7.421   9.640   3.435
12220TIP3   OH236544   6.409   9.546   3.523
12220TIP3    H136545   6.415   9.455   3.488
12220TIP3    H236546   6.446   9.532   3.613
12221TIP3   OH236547   6.923   9.214   3.373
12221TIP3    H136548   6.993   9.145   3.368
12221TIP3    H236549   6.885   9.206   3.283
12222TIP3   OH236550   6.990   9.429   3.530
12222TIP3    H136551   6.968   9.357   3.467
12222TIP3    H236552   6.911   9.487   3.524
12223TIP3   OH236553   7.225   9.331   1.530
12223TIP3    H136554   7.308   9.292   1.561
12223TIP3    H236555   7.161   9.258   1.535
12224TIP3   OH236556   6.140   9.611   3.504
12224TIP3    H136557   6.237   9.599   3.497
12224TIP3    H236558   6.115   9.523   3.538
12225TIP3   OH236559   7.971   9.472   3.231
12225TIP3    H136560   8.016   9.386   3.213
12225TIP3    H236561   7.919   9.485   3.150
12226TIP3   OH236562   7.376   9.314   2.023
12226TIP3    H136563   7.438   9.294   2.096
12226TIP3    H236564   7.327   9.230   2.016
12227TIP3   OH236565   6.103   9.286   2.830
12227TIP3    H136566   6.168   9.214   2.837
12227TIP3    H236567   6.161   9.363   2.818
12228TIP3   OH236568   5.908   9.571   2.906
12228TIP3    H136569   5.956   9.558   2.822
12228TIP3    H236570   5.928   9.664   2.922
12229TIP3   OH236571   5.891   9.066   2.402
12229TIP3    H136572   5.797   9.063   2.426
12229TIP3    H236573   5.890   9.122   2.322
12230TIP3   OH236574   6.111   9.149   3.216
12230TIP3    H136575   6.058   9.140   3.297
12230TIP3    H236576   6.045   9.185   3.154
12231TIP3   OH236577   7.756   9.364   2.940
12231TIP3    H136578   7.665   9.364   2.907
12231TIP3    H236579   7.784   9.274   2.914
12232TIP3   OH236580   6.961   9.282   2.558
12232TIP3    H136581   6.909   9.214   2.606
12232TIP3    H236582   7.025   9.228   2.509
12233TIP3   OH236583   7.476   9.167   2.458
12233TIP3    H136584   7.512   9.216   2.381
12233TIP3    H236585   7.379   9.178   2.447
12234TIP3   OH236586   7.576   9.274   2.219
12234TIP3    H136587   7.640   9.209   2.181
12234TIP3    H236588   7.628   9.355   2.213
12235TIP3   OH236589   6.202   8.988   2.572
12235TIP3    H136590   6.110   8.954   2.572
12235TIP3    H236591   6.252   8.904   2.568
12236TIP3   OH236592   5.987   8.858   2.217
12236TIP3    H136593   6.019   8.916   2.145
12236TIP3    H236594   5.960   8.922   2.284
12237TIP3   OH236595   6.645   9.021   2.451
12237TIP3    H136596   6.703   9.072   2.392
12237TIP3    H236597   6.666   9.059   2.537
12238TIP3   OH236598   7.198   9.166   2.432
12238TIP3    H136599   7.188   9.128   2.344
12238TIP3    H236600   7.181   9.087   2.489
12239TIP3   OH236601   7.221   9.083   1.996
12239TIP3    H136602   7.132   9.123   2.003
12239TIP3    H236603   7.206   8.998   2.044
12240TIP3   OH236604   6.105   9.018   1.982
12240TIP3    H136605   6.154   8.955   1.925
12240TIP3    H236606   6.178   9.072   2.018
12241TIP3   OH236607   6.618   9.193   2.081
12241TIP3    H136608   6.678   9.147   2.141
12241TIP3    H236609   6.638   9.286   2.106
12242TIP3   OH236610   6.409   9.270   3.464
12242TIP3    H136611   6.378   9.198   3.520
12242TIP3    H236612   6.504   9.271   3.488
12243TIP3   OH236613   6.659   9.267   3.581
12243TIP3    H136614   6.743   9.242   3.539
12243TIP3    H236615   6.648   9.196   3.647
12244TIP3   OH236616   7.479   9.343   3.370
12244TIP3    H136617   7.492   9.292   3.453
12244TIP3    H236618   7.556   9.311   3.318
12245TIP3   OH236619   2.218   0.667   7.841
12245TIP3    H136620   2.285   0.615   7.885
12245TIP3    H236621   2.232   0.754   7.884
12246TIP3   OH236622   1.843   1.095   7.859
12246TIP3    H136623   1.886   1.021   7.811
12246TIP3    H236624   1.869   1.078   7.951
12247TIP3   OH236625   2.259   0.887   8.012
12247TIP3    H136626   2.180   0.894   8.066
12247TIP3    H236627   2.268   0.978   7.976
12248TIP3   OH236628   1.978   0.931   7.681
12248TIP3    H136629   2.025   0.849   7.659
12248TIP3    H236630   2.041   0.998   7.646
12249TIP3   OH236631   2.093   0.694   7.590
12249TIP3    H136632   2.128   0.628   7.527
12249TIP3    H236633   2.154   0.686   7.666
12250TIP3   OH236634   2.515   0.806   8.360
12250TIP3    H136635   2.490   0.723   8.316
12250TIP3    H236636   2.493   0.875   8.295
12251TIP3   OH236637   2.723   0.450   8.203
12251TIP3    H136638   2.629   0.467   8.219
12251TIP3    H236639   2.731   0.465   8.107
12252TIP3   OH236640   2.298   0.748   7.003
12252TIP3    H136641   2.313   0.845   6.996
12252TIP3    H236642   2.391   0.715   6.994
12253TIP3   OH236643   2.744   1.144   8.400
12253TIP3    H136644   2.745   1.048   8.418
12253TIP3    H236645   2.662   1.170   8.448
12254TIP3   OH236646   1.613   1.069   7.481
12254TIP3    H136647   1.561   1.053   7.401
12254TIP3    H236648   1.581   1.156   7.511
12255TIP3   OH236649   1.815   0.959   7.134
12255TIP3    H136650   1.873   0.889   7.100
12255TIP3    H236651   1.849   0.970   7.227
12256TIP3   OH236652   1.867   1.014   7.403
12256TIP3    H136653   1.778   1.022   7.444
12256TIP3    H236654   1.925   1.009   7.481
12257TIP3   OH236655   2.429   1.496   8.500
12257TIP3    H136656   2.431   1.520   8.406
12257TIP3    H236657   2.510   1.540   8.533
12258TIP3   OH236658   2.463   0.578   8.192
12258TIP3    H136659   2.511   0.627   8.121
12258TIP3    H236660   2.371   0.593   8.167
12259TIP3   OH236661   2.760   0.853   8.452
12259TIP3    H136662   2.662   0.846   8.439
12259TIP3    H236663   2.788   0.823   8.363
12260TIP3   OH236664   2.237   0.813   7.270
12260TIP3    H136665   2.215   0.738   7.326
12260TIP3    H236666   2.250   0.771   7.183
12261TIP3   OH236667   2.020   0.555   7.171
12261TIP3    H136668   2.054   0.519   7.256
12261TIP3    H236669   1.924   0.545   7.183
12262TIP3   OH236670   2.271   1.177   8.338
12262TIP3    H136671   2.183   1.136   8.326
12262TIP3    H236672   2.263   1.254   8.277
12263TIP3   OH236673   2.331   1.020   6.997
12263TIP3    H136674   2.370   1.093   6.945
12263TIP3    H236675   2.252   1.067   7.031
12264TIP3   OH236676   2.162   0.481   7.420
12264TIP3    H136677   2.151   0.391   7.455
12264TIP3    H236678   2.256   0.476   7.392
12265TIP3   OH236679   2.288   1.150   7.933
12265TIP3    H136680   2.247   1.200   7.859
12265TIP3    H236681   2.382   1.174   7.917
12266TIP3   OH236682   1.973   0.771   7.006
12266TIP3    H136683   2.007   0.704   7.068
12266TIP3    H236684   2.054   0.798   6.957
12267TIP3   OH236685   2.336   0.290   7.016
12267TIP3    H136686   2.308   0.234   6.942
12267TIP3    H236687   2.286   0.372   6.995
12268TIP3   OH236688   2.535   1.253   7.892
12268TIP3    H136689   2.565   1.283   7.981
12268TIP3    H236690   2.602   1.294   7.835
12269TIP3   OH236691   2.570   1.270   8.173
12269TIP3    H136692   2.532   1.180   8.172
12269TIP3    H236693   2.646   1.254   8.232
12270TIP3   OH236694   2.432   0.464   7.373
12270TIP3    H136695   2.504   0.523   7.342
12270TIP3    H236696   2.476   0.419   7.448
12271TIP3   OH236697   2.558   0.332   7.580
12271TIP3    H136698   2.494   0.340   7.652
12271TIP3    H236699   2.640   0.368   7.621
12272TIP3   OH236700   2.602   0.712   7.997
12272TIP3    H136701   2.667   0.652   7.956
12272TIP3    H236702   2.611   0.792   7.941
12273TIP3   OH236703   2.447   1.018   8.196
12273TIP3    H136704   2.382   1.064   8.253
12273TIP3    H236705   2.391   0.972   8.131
12274TIP3   OH236706   2.502   0.238   7.219
12274TIP3    H136707   2.437   0.252   7.146
12274TIP3    H236708   2.473   0.309   7.279
12275TIP3   OH236709   2.647   0.601   8.566
12275TIP3    H136710   2.723   0.542   8.577
12275TIP3    H236711   2.687   0.683   8.534
12276TIP3   OH236712   2.841   0.408   8.598
12276TIP3    H136713   2.775   0.342   8.622
12276TIP3    H236714   2.925   0.365   8.617
12277TIP3   OH236715   2.123   1.111   7.548
12277TIP3    H136716   2.179   1.104   7.468
12277TIP3    H236717   2.169   1.181   7.598
12278TIP3   OH236718   2.025   1.369   8.457
12278TIP3    H136719   2.078   1.288   8.454
12278TIP3    H236720   2.067   1.415   8.531
12279TIP3   OH236721   1.780   1.231   8.145
12279TIP3    H136722   1.686   1.229   8.121
12279TIP3    H236723   1.783   1.312   8.200
12280TIP3   OH236724   2.028   1.151   8.203
12280TIP3    H136725   1.937   1.179   8.180
12280TIP3    H236726   2.077   1.231   8.177
12281TIP3   OH236727   2.218   1.348   8.128
12281TIP3    H136728   2.204   1.435   8.084
12281TIP3    H236729   2.248   1.293   8.053
12282TIP3   OH236730   1.553   0.944   7.209
12282TIP3    H136731   1.646   0.970   7.190
12282TIP3    H236732   1.550   0.862   7.158
12283TIP3   OH236733   2.270   1.081   7.317
12283TIP3    H136734   2.261   0.984   7.301
12283TIP3    H236735   2.225   1.117   7.238
12284TIP3   OH236736   2.499   1.228   8.498
12284TIP3    H136737   2.417   1.194   8.458
12284TIP3    H236738   2.478   1.323   8.506
12285TIP3   OH236739   3.765   0.597   7.271
12285TIP3    H136740   3.739   0.690   7.255
12285TIP3    H236741   3.684   0.551   7.242
12286TIP3   OH236742   3.761   0.596   7.651
12286TIP3    H136743   3.792   0.572   7.740
12286TIP3    H236744   3.718   0.513   7.623
12287TIP3   OH236745   3.058   0.497   8.015
12287TIP3    H136746   3.093   0.430   8.077
12287TIP3    H236747   3.135   0.556   8.009
12288TIP3   OH236748   4.004   0.901   7.333
12288TIP3    H136749   3.993   0.832   7.400
12288TIP3    H236750   4.033   0.977   7.387
12289TIP3   OH236751   3.029   0.899   7.744
12289TIP3    H136752   3.025   0.801   7.747
12289TIP3    H236753   3.126   0.912   7.734
12290TIP3   OH236754   2.731   0.098   7.535
12290TIP3    H136755   2.695   0.187   7.549
12290TIP3    H236756   2.656   0.055   7.493
12291TIP3   OH236757   2.802   0.390   7.688
12291TIP3    H136758   2.850   0.317   7.734
12291TIP3    H236759   2.873   0.428   7.635
12292TIP3   OH236760   3.563   0.821   7.701
12292TIP3    H136761   3.601   0.745   7.655
12292TIP3    H236762   3.646   0.867   7.725
12293TIP3   OH236763   3.976   0.335   7.734
12293TIP3    H136764   4.006   0.249   7.766
12293TIP3    H236765   3.944   0.314   7.644
12294TIP3   OH236766   2.946   0.188   7.804
12294TIP3    H136767   3.024   0.162   7.858
12294TIP3    H236768   2.964   0.132   7.726
12295TIP3   OH236769   3.387   0.387   7.602
12295TIP3    H136770   3.478   0.355   7.617
12295TIP3    H236771   3.342   0.304   7.571
12296TIP3   OH236772   4.623   0.326   7.885
12296TIP3    H136773   4.560   0.398   7.864
12296TIP3    H236774   4.666   0.359   7.966
12297TIP3   OH236775   3.661   0.824   7.140
12297TIP3    H136776   3.610   0.798   7.062
12297TIP3    H236777   3.618   0.908   7.163
12298TIP3   OH236778   3.413   0.742   7.929
12298TIP3    H136779   3.350   0.808   7.966
12298TIP3    H236780   3.455   0.793   7.857
12299TIP3   OH236781   3.183   0.092   7.904
12299TIP3    H136782   3.248   0.160   7.931
12299TIP3    H236783   3.227   0.050   7.829
12300TIP3   OH236784   3.241   0.936   8.025
12300TIP3    H136785   3.216   1.022   7.985
12300TIP3    H236786   3.163   0.922   8.083
12301TIP3   OH236787   2.635   0.627   7.265
12301TIP3    H136788   2.597   0.656   7.180
12301TIP3    H236789   2.668   0.712   7.301
12302TIP3   OH236790   4.079   1.141   7.497
12302TIP3    H136791   3.992   1.133   7.542
12302TIP3    H236792   4.070   1.229   7.455
12303TIP3   OH236793   3.771   1.190   7.161
12303TIP3    H136794   3.831   1.113   7.149
12303TIP3    H236795   3.831   1.263   7.136
12304TIP3   OH236796   3.926   0.974   7.078
12304TIP3    H136797   3.872   0.898   7.052
12304TIP3    H236798   3.960   0.944   7.166
12305TIP3   OH236799   4.300   1.057   7.846
12305TIP3    H136800   4.293   0.980   7.787
12305TIP3    H236801   4.287   1.132   7.784
12306TIP3   OH236802   3.592   0.449   7.101
12306TIP3    H136803   3.511   0.498   7.078
12306TIP3    H236804   3.639   0.446   7.016
12307TIP3   OH236805   3.546   0.240   6.822
12307TIP3    H136806   3.621   0.281   6.868
12307TIP3    H236807   3.593   0.169   6.773
12308TIP3   OH236808   4.487   0.673   7.677
12308TIP3    H136809   4.414   0.737   7.692
12308TIP3    H236810   4.525   0.710   7.595
12309TIP3   OH236811   3.941   0.532   7.074
12309TIP3    H136812   3.887   0.558   7.152
12309TIP3    H236813   4.024   0.504   7.119
12310TIP3   OH236814   4.172   0.576   7.981
12310TIP3    H136815   4.173   0.662   8.027
12310TIP3    H236816   4.086   0.583   7.933
12311TIP3   OH236817   3.176   0.531   7.491
12311TIP3    H136818   3.134   0.472   7.424
12311TIP3    H236819   3.251   0.475   7.521
12312TIP3   OH236820   3.299   0.918   7.647
12312TIP3    H136821   3.289   0.882   7.558
12312TIP3    H236822   3.394   0.900   7.665
12313TIP3   OH236823   3.311   0.498   7.848
12313TIP3    H136824   3.343   0.477   7.757
12313TIP3    H236825   3.353   0.585   7.866
12314TIP3   OH236826   3.848   1.138   7.630
12314TIP3    H136827   3.814   1.216   7.676
12314TIP3    H236828   3.824   1.064   7.689
12315TIP3   OH236829   3.445   1.059   8.169
12315TIP3    H136830   3.385   1.122   8.215
12315TIP3    H236831   3.380   1.006   8.119
12316TIP3   OH236832   3.786   0.382   6.904
12316TIP3    H136833   3.844   0.440   6.957
12316TIP3    H236834   3.811   0.409   6.812
12317TIP3   OH236835   3.191   0.628   8.263
12317TIP3    H136836   3.197   0.712   8.313
12317TIP3    H236837   3.098   0.604   8.280
12318TIP3   OH236838   3.522   1.077   7.169
12318TIP3    H136839   3.605   1.122   7.196
12318TIP3    H236840   3.459   1.149   7.176
12319TIP3   OH236841   3.241   1.230   8.257
12319TIP3    H136842   3.207   1.227   8.166
12319TIP3    H236843   3.163   1.206   8.311
12320TIP3   OH236844   3.039   0.380   7.295
12320TIP3    H136845   2.968   0.412   7.237
12320TIP3    H236846   3.015   0.288   7.310
12321TIP3   OH236847   4.095   0.999   6.494
12321TIP3    H136848   4.104   1.096   6.483
12321TIP3    H236849   4.189   0.970   6.483
12322TIP3   OH236850   2.823   0.755   8.205
12322TIP3    H136851   2.760   0.728   8.136
12322TIP3    H236852   2.860   0.669   8.233
12323TIP3   OH236853   2.675   0.947   7.840
12323TIP3    H136854   2.771   0.938   7.826
12323TIP3    H236855   2.673   1.027   7.894
12324TIP3   OH236856   4.533   1.400   7.885
12324TIP3    H136857   4.540   1.303   7.900
12324TIP3    H236858   4.452   1.421   7.936
12325TIP3   OH236859   3.648   1.187   8.028
12325TIP3    H136860   3.646   1.280   8.062
12325TIP3    H236861   3.574   1.148   8.079
12326TIP3   OH236862   3.371   1.312   6.973
12326TIP3    H136863   3.369   1.311   6.876
12326TIP3    H236864   3.371   1.407   6.997
12327TIP3   OH236865   2.842   1.165   7.360
12327TIP3    H136866   2.892   1.157   7.444
12327TIP3    H236867   2.783   1.089   7.369
12328TIP3   OH236868   3.601   1.213   6.623
12328TIP3    H136869   3.663   1.146   6.586
12328TIP3    H236870   3.638   1.225   6.713
12329TIP3   OH236871   3.646   1.266   6.898
12329TIP3    H136872   3.566   1.260   6.952
12329TIP3    H236873   3.712   1.233   6.962
12330TIP3   OH236874   4.420   0.512   8.188
12330TIP3    H136875   4.364   0.561   8.125
12330TIP3    H236876   4.454   0.440   8.134
12331TIP3   OH236877   3.026   0.940   8.193
12331TIP3    H136878   3.076   0.926   8.276
12331TIP3    H236879   2.953   0.876   8.202
12332TIP3   OH236880   4.101   0.394   8.181
12332TIP3    H136881   4.151   0.313   8.168
12332TIP3    H236882   4.124   0.448   8.104
12333TIP3   OH236883   3.859   0.433   6.644
12333TIP3    H136884   3.825   0.411   6.556
12333TIP3    H236885   3.935   0.490   6.622
12334TIP3   OH236886   3.365   0.274   8.000
12334TIP3    H136887   3.306   0.298   8.076
12334TIP3    H236888   3.351   0.353   7.942
12335TIP3   OH236889   3.226   0.189   7.500
12335TIP3    H136890   3.152   0.135   7.533
12335TIP3    H236891   3.251   0.140   7.419
12336TIP3   OH236892   3.736   0.254   7.233
12336TIP3    H136893   3.681   0.326   7.194
12336TIP3    H236894   3.783   0.221   7.154
12337TIP3   OH236895   3.910   0.583   8.294
12337TIP3    H136896   3.897   0.525   8.373
12337TIP3    H236897   4.004   0.568   8.279
12338TIP3   OH236898   3.893   0.280   7.475
12338TIP3    H136899   3.834   0.313   7.404
12338TIP3    H236900   3.924   0.198   7.435
12339TIP3   OH236901   3.175   0.315   8.197
12339TIP3    H136902   3.202   0.375   8.268
12339TIP3    H236903   3.117   0.253   8.243
12340TIP3   OH236904   3.901   0.533   7.897
12340TIP3    H136905   3.932   0.462   7.836
12340TIP3    H236906   3.871   0.479   7.972
12341TIP3   OH236907   2.999   0.040   7.577
12341TIP3    H136908   2.905   0.055   7.552
12341TIP3    H236909   3.011  -0.054   7.557
12342TIP3   OH236910   3.286   0.058   7.266
12342TIP3    H136911   3.374   0.037   7.232
12342TIP3    H236912   3.230   0.052   7.186
12343TIP3   OH236913   3.099   0.077   7.043
12343TIP3    H136914   3.041   0.027   6.984
12343TIP3    H236915   3.163   0.112   6.977
12344TIP3   OH236916   4.228   1.753   7.990
12344TIP3    H136917   4.226   1.775   7.895
12344TIP3    H236918   4.308   1.801   8.020
12345TIP3   OH236919   3.186   0.864   8.415
12345TIP3    H136920   3.267   0.895   8.462
12345TIP3    H236921   3.122   0.865   8.489
12346TIP3   OH236922   3.654   0.320   7.673
12346TIP3    H136923   3.714   0.265   7.622
12346TIP3    H236924   3.651   0.272   7.759
12347TIP3   OH236925   3.637   0.212   7.955
12347TIP3    H136926   3.546   0.243   7.975
12347TIP3    H236927   3.692   0.266   8.015
12348TIP3   OH236928   3.362   0.604   7.048
12348TIP3    H136929   3.291   0.536   7.041
12348TIP3    H236930   3.348   0.636   7.141
12349TIP3   OH236931   4.266   0.839   7.683
12349TIP3    H136932   4.293   0.887   7.601
12349TIP3    H236933   4.181   0.799   7.657
12350TIP3   OH236934   3.764   0.921   8.050
12350TIP3    H136935   3.781   0.898   8.142
12350TIP3    H236936   3.725   1.010   8.056
12351TIP3   OH236937   3.883   0.136   7.008
12351TIP3    H136938   3.980   0.148   7.020
12351TIP3    H236939   3.860   0.216   6.956
12352TIP3   OH236940   3.051   0.616   7.726
12352TIP3    H136941   3.097   0.595   7.642
12352TIP3    H236942   3.098   0.559   7.789
12353TIP3   OH236943   3.510   0.748   6.868
12353TIP3    H136944   3.463   0.835   6.877
12353TIP3    H236945   3.458   0.693   6.930
12354TIP3   OH236946   2.940   0.544   8.343
12354TIP3    H136947   2.948   0.525   8.438
12354TIP3    H236948   2.864   0.489   8.317
12355TIP3   OH236949   3.660   0.673   8.359
12355TIP3    H136950   3.604   0.615   8.305
12355TIP3    H236951   3.749   0.650   8.325
12356TIP3   OH236952   3.926   1.179   7.949
12356TIP3    H136953   3.829   1.178   7.957
12356TIP3    H236954   3.950   1.234   8.026
12357TIP3   OH236955   4.338   0.248   6.850
12357TIP3    H136956   4.278   0.200   6.789
12357TIP3    H236957   4.334   0.337   6.809
12358TIP3   OH236958   4.552   1.115   7.932
12358TIP3    H136959   4.455   1.103   7.921
12358TIP3    H236960   4.583   1.082   7.844
12359TIP3   OH236961   4.028   1.072   6.759
12359TIP3    H136962   4.010   1.005   6.827
12359TIP3    H236963   4.046   1.020   6.679
12360TIP3   OH236964   4.030   0.700   7.602
12360TIP3    H136965   3.937   0.674   7.613
12360TIP3    H236966   4.066   0.622   7.556
12361TIP3   OH236967   3.155   0.920   7.344
12361TIP3    H136968   3.167   1.008   7.306
12361TIP3    H236969   3.062   0.922   7.370
12362TIP3   OH236970   2.719   0.230   7.053
12362TIP3    H136971   2.768   0.312   7.074
12362TIP3    H236972   2.645   0.236   7.117
12363TIP3   OH236973   3.299   0.692   7.296
12363TIP3    H136974   3.260   0.780   7.313
12363TIP3    H236975   3.265   0.641   7.371
12364TIP3   OH236976   3.427   1.267   7.834
12364TIP3    H136977   3.455   1.339   7.777
12364TIP3    H236978   3.511   1.239   7.875
12365TIP3   OH236979   3.068   1.172   7.194
12365TIP3    H136980   2.988   1.178   7.250
12365TIP3    H236981   3.112   1.257   7.215
12366TIP3   OH236982   3.815   0.905   7.781
12366TIP3    H136983   3.807   0.903   7.879
12366TIP3    H236984   3.897   0.855   7.767
12367TIP3   OH236985   3.787   0.797   6.663
12367TIP3    H136986   3.843   0.773   6.740
12367TIP3    H236987   3.700   0.772   6.698
12368TIP3   OH236988   4.062   1.442   7.833
12368TIP3    H136989   3.984   1.384   7.823
12368TIP3    H236990   4.048   1.505   7.759
12369TIP3   OH236991   4.129   1.275   6.483
12369TIP3    H136992   4.172   1.349   6.436
12369TIP3    H236993   4.049   1.321   6.515
12370TIP3   OH236994   3.949   0.727   6.873
12370TIP3    H136995   3.938   0.666   6.949
12370TIP3    H236996   4.046   0.730   6.867
12371TIP3   OH236997   2.861   1.134   7.983
12371TIP3    H136998   2.919   1.062   8.013
12371TIP3    H236999   2.892   1.206   8.039
12372TIP3   OH237000   3.148   0.784   6.664
12372TIP3    H137001   3.168   0.694   6.633
12372TIP3    H237002   3.138   0.768   6.760
12373TIP3   OH237003   3.100   0.781   6.938
12373TIP3    H137004   3.170   0.747   6.995
12373TIP3    H237005   3.111   0.878   6.948
12374TIP3   OH237006   2.832   0.475   7.135
12374TIP3    H137007   2.770   0.522   7.195
12374TIP3    H237008   2.855   0.547   7.074
12375TIP3   OH237009   3.365   0.976   6.876
12375TIP3    H137010   3.289   1.010   6.926
12375TIP3    H237011   3.396   1.056   6.832
12376TIP3   OH237012   3.579   0.038   7.297
12376TIP3    H137013   3.621   0.124   7.278
12376TIP3    H237014   3.539   0.053   7.384
12377TIP3   OH237015   3.828   0.370   8.103
12377TIP3    H137016   3.820   0.434   8.175
12377TIP3    H237017   3.916   0.333   8.123
12378TIP3   OH237018   3.112   1.053   6.955
12378TIP3    H137019   3.068   1.116   6.898
12378TIP3    H237020   3.099   1.093   7.044
12379TIP3   OH237021   4.116   0.463   7.472
12379TIP3    H137022   4.044   0.400   7.490
12379TIP3    H237023   4.192   0.421   7.520
12380TIP3   OH237024   2.827   0.694   6.940
12380TIP3    H137025   2.901   0.756   6.956
12380TIP3    H237026   2.872   0.634   6.877
12381TIP3   OH237027   2.753  -0.058   7.061
12381TIP3    H137028   2.797   0.029   7.063
12381TIP3    H237029   2.668  -0.034   7.099
12382TIP3   OH237030   4.085   1.415   7.425
12382TIP3    H137031   4.042   1.460   7.349
12382TIP3    H237032   4.179   1.434   7.404
12383TIP3   OH237033   2.696   0.898   7.332
12383TIP3    H137034   2.628   0.935   7.388
12383TIP3    H237035   2.677   0.941   7.246
12384TIP3   OH237036   2.856   1.442   8.401
12384TIP3    H137037   2.941   1.442   8.449
12384TIP3    H237038   2.835   1.347   8.402
12385TIP3   OH237039   3.347   1.414   8.442
12385TIP3    H137040   3.437   1.381   8.451
12385TIP3    H237041   3.313   1.356   8.371
12386TIP3   OH237042   3.316   0.988   6.576
12386TIP3    H137043   3.263   0.916   6.619
12386TIP3    H237044   3.394   0.937   6.549
12387TIP3   OH237045   3.970   1.321   8.185
12387TIP3    H137046   3.965   1.247   8.249
12387TIP3    H237047   4.053   1.365   8.210
12388TIP3   OH237048   3.754   1.026   6.486
12388TIP3    H137049   3.799   0.965   6.547
12388TIP3    H237050   3.814   1.027   6.410
12389TIP3   OH237051   2.989   0.837   8.605
12389TIP3    H137052   3.003   0.741   8.596
12389TIP3    H237053   2.900   0.848   8.563
12390TIP3   OH237054   2.963   0.502   6.797
12390TIP3    H137055   3.017   0.464   6.869
12390TIP3    H237056   3.032   0.509   6.727
12391TIP3   OH237057   3.598   0.946   8.375
12391TIP3    H137058   3.551   0.959   8.291
12391TIP3    H237059   3.626   0.851   8.371
12392TIP3   OH237060   3.465   0.700   6.601
12392TIP3    H137061   3.474   0.713   6.698
12392TIP3    H237062   3.470   0.602   6.598
12393TIP3   OH237063   4.088   0.941   7.984
12393TIP3    H137064   4.161   0.986   7.938
12393TIP3    H237065   4.017   1.006   7.971
12394TIP3   OH237066   3.103   0.569   8.594
12394TIP3    H137067   3.184   0.525   8.565
12394TIP3    H237068   3.125   0.591   8.685
12395TIP3   OH237069   3.169   0.405   7.017
12395TIP3    H137070   3.148   0.364   7.104
12395TIP3    H237071   3.206   0.328   6.968
12396TIP3   OH237072   3.423   0.486   8.235
12396TIP3    H137073   3.343   0.547   8.241
12396TIP3    H237074   3.471   0.524   8.160
12397TIP3   OH237075   3.269   0.199   6.861
12397TIP3    H137076   3.246   0.199   6.766
12397TIP3    H237077   3.367   0.203   6.855
12398TIP3   OH237078   3.962   0.876   8.388
12398TIP3    H137079   4.032   0.845   8.329
12398TIP3    H237080   3.954   0.801   8.449
12399TIP3   OH237081   4.096   0.529   6.519
12399TIP3    H137082   4.071   0.484   6.436
12399TIP3    H237083   4.065   0.620   6.497
12400TIP3   OH237084   3.609   0.318   8.326
12400TIP3    H137085   3.574   0.231   8.293
12400TIP3    H237086   3.546   0.380   8.290
12401TIP3   OH237087   3.597   0.585   8.055
12401TIP3    H137088   3.677   0.586   8.001
12401TIP3    H237089   3.541   0.651   8.008
12402TIP3   OH237090   4.190   0.557   8.448
12402TIP3    H137091   4.213   0.466   8.425
12402TIP3    H237092   4.251   0.608   8.394
12403TIP3   OH237093   4.221   0.796   8.168
12403TIP3    H137094   4.162   0.851   8.111
12403TIP3    H237095   4.308   0.821   8.129
12404TIP3   OH237096   3.412   0.392   8.596
12404TIP3    H137097   3.350   0.317   8.608
12404TIP3    H237098   3.477   0.356   8.534
12405TIP3   OH237099   3.866   0.413   8.491
12405TIP3    H137100   3.820   0.393   8.573
12405TIP3    H237101   3.847   0.334   8.438
12406TIP3   OH237102   2.558   0.644   6.977
12406TIP3    H137103   2.653   0.666   6.966
12406TIP3    H237104   2.555   0.554   6.939
12407TIP3   OH237105   2.475   1.253   7.392
12407TIP3    H137106   2.406   1.191   7.359
12407TIP3    H237107   2.519   1.198   7.460
12408TIP3   OH237108   2.609   1.106   7.580
12408TIP3    H137109   2.603   1.033   7.643
12408TIP3    H237110   2.662   1.169   7.633
12409TIP3   OH237111   4.336   1.509   7.378
12409TIP3    H137112   4.363   1.539   7.467
12409TIP3    H237113   4.401   1.552   7.321
12410TIP3   OH237114   4.367   1.526   7.662
12410TIP3    H137115   4.324   1.438   7.657
12410TIP3    H237116   4.443   1.503   7.719
12411TIP3   OH237117   4.412   1.204   8.236
12411TIP3    H137118   4.339   1.214   8.300
12411TIP3    H237119   4.455   1.292   8.239
12412TIP3   OH237120   4.231   0.715   6.853
12412TIP3    H137121   4.300   0.779   6.828
12412TIP3    H237122   4.271   0.676   6.934
12413TIP3   OH237123   4.356   0.581   7.056
12413TIP3    H137124   4.292   0.541   7.118
12413TIP3    H237125   4.423   0.620   7.117
12414TIP3   OH237126   4.404   0.970   7.486
12414TIP3    H137127   4.464   0.910   7.438
12414TIP3    H237128   4.398   1.047   7.426
12415TIP3   OH237129   4.242   1.275   7.685
12415TIP3    H137130   4.170   1.315   7.737
12415TIP3    H237131   4.193   1.226   7.616
12416TIP3   OH237132   4.293   0.487   6.705
12416TIP3    H137133   4.222   0.498   6.638
12416TIP3    H237134   4.272   0.563   6.763
12417TIP3   OH237135   4.176   0.157   6.650
12417TIP3    H137136   4.129   0.229   6.605
12417TIP3    H237137   4.128   0.080   6.618
12418TIP3   OH237138   4.171   0.439   7.207
12418TIP3    H137139   4.182   0.343   7.213
12418TIP3    H237140   4.156   0.462   7.301
12419TIP3   OH237141   2.795   0.524   7.941
12419TIP3    H137142   2.800   0.490   7.849
12419TIP3    H237143   2.891   0.521   7.965
12420TIP3   OH237144   4.464   0.862   8.061
12420TIP3    H137145   4.535   0.795   8.048
12420TIP3    H237146   4.492   0.930   7.998
12421TIP3   OH237147   4.637   0.653   8.087
12421TIP3    H137148   4.591   0.591   8.145
12421TIP3    H237149   4.731   0.640   8.109
12422TIP3   OH237150   4.152   0.152   7.049
12422TIP3    H137151   4.197   0.117   7.130
12422TIP3    H237152   4.226   0.193   7.001
12423TIP3   OH237153   4.333   0.359   7.600
12423TIP3    H137154   4.422   0.370   7.560
12423TIP3    H237155   4.352   0.384   7.692
12424TIP3   OH237156   4.395   0.480   7.848
12424TIP3    H137157   4.312   0.523   7.878
12424TIP3    H237158   4.430   0.549   7.787
12425TIP3   OH237159   2.797   0.160   8.036
12425TIP3    H137160   2.842   0.164   7.949
12425TIP3    H237161   2.804   0.250   8.068
12426TIP3   OH237162   3.916   1.378   7.031
12426TIP3    H137163   3.976   1.360   6.956
12426TIP3    H237164   3.970   1.438   7.086
12427TIP3   OH237165   3.023   1.174   8.428
12427TIP3    H137166   2.930   1.148   8.411
12427TIP3    H237167   3.030   1.157   8.523
12428TIP3   OH237168   3.197   1.207   7.973
12428TIP3    H137169   3.152   1.283   7.931
12428TIP3    H237170   3.283   1.216   7.926
12429TIP3   OH237171   3.650   1.452   8.117
12429TIP3    H137172   3.693   1.461   8.204
12429TIP3    H237173   3.712   1.501   8.059
12430TIP3   OH237174   3.825   1.599   7.970
12430TIP3    H137175   3.895   1.553   7.922
12430TIP3    H237176   3.876   1.661   8.025
12431TIP3   OH237177   2.874   1.463   7.992
12431TIP3    H137178   2.786   1.500   7.971
12431TIP3    H237179   2.888   1.500   8.080
12432TIP3   OH237180   3.114   1.443   7.850
12432TIP3    H137181   3.027   1.458   7.892
12432TIP3    H237182   3.098   1.476   7.759
12433TIP3   OH237183   3.796   1.420   7.698
12433TIP3    H137184   3.712   1.425   7.651
12433TIP3    H237185   3.844   1.495   7.660
12434TIP3   OH237186   4.017   1.606   7.617
12434TIP3    H137187   4.001   1.690   7.569
12434TIP3    H237188   4.041   1.545   7.544
12435TIP3   OH237189   2.785   1.259   7.739
12435TIP3    H137190   2.814   1.238   7.830
12435TIP3    H237191   2.858   1.215   7.689
12436TIP3   OH237192   2.968   1.120   7.594
12436TIP3    H137193   2.986   1.038   7.645
12436TIP3    H237194   3.058   1.160   7.595
12437TIP3   OH237195   3.218   1.208   7.604
12437TIP3    H137196   3.286   1.142   7.584
12437TIP3    H237197   3.271   1.276   7.647
12438TIP3   OH237198   2.578   1.030   7.126
12438TIP3    H137199   2.492   0.999   7.094
12438TIP3    H237200   2.565   1.126   7.119
12439TIP3   OH237201   3.337   1.239   6.701
12439TIP3    H137202   3.432   1.244   6.674
12439TIP3    H237203   3.315   1.154   6.657
12440TIP3   OH237204   4.069   1.338   6.802
12440TIP3    H137205   4.057   1.240   6.790
12440TIP3    H237206   4.023   1.371   6.723
12441TIP3   OH237207   2.657   1.064   6.772
12441TIP3    H137208   2.642   1.076   6.867
12441TIP3    H237209   2.740   1.012   6.770
12442TIP3   OH237210   4.288   1.483   8.000
12442TIP3    H137211   4.212   1.451   7.946
12442TIP3    H237212   4.273   1.579   7.995
12443TIP3   OH237213   5.561   0.854   6.757
12443TIP3    H137214   5.534   0.947   6.740
12443TIP3    H237215   5.480   0.808   6.730
12444TIP3   OH237216   5.561   0.851   7.137
12444TIP3    H137217   5.588   0.829   7.227
12444TIP3    H237218   5.514   0.771   7.110
12445TIP3   OH237219   4.861   0.758   7.502
12445TIP3    H137220   4.894   0.692   7.566
12445TIP3    H237221   4.914   0.835   7.530
12446TIP3   OH237222   5.802   1.156   6.821
12446TIP3    H137223   5.786   1.089   6.889
12446TIP3    H237224   5.828   1.233   6.874
12447TIP3   OH237225   4.826   1.158   7.227
12447TIP3    H137226   4.818   1.060   7.231
12447TIP3    H237227   4.922   1.168   7.235
12448TIP3   OH237228   4.530   0.353   7.023
12448TIP3    H137229   4.485   0.438   7.038
12448TIP3    H237230   4.464   0.308   6.966
12449TIP3   OH237231   4.596   0.647   7.182
12449TIP3    H137232   4.646   0.573   7.224
12449TIP3    H237233   4.662   0.683   7.122
12450TIP3   OH237234   5.447   1.617   6.835
12450TIP3    H137235   5.497   1.545   6.791
12450TIP3    H237236   5.443   1.586   6.926
12451TIP3   OH237237   5.357   1.082   7.183
12451TIP3    H137238   5.394   1.005   7.138
12451TIP3    H237239   5.441   1.125   7.210
12452TIP3   OH237240   5.779   0.592   7.220
12452TIP3    H137241   5.794   0.505   7.259
12452TIP3    H237242   5.740   0.571   7.133
12453TIP3   OH237243   4.741   0.441   7.293
12453TIP3    H137244   4.821   0.417   7.344
12453TIP3    H237245   4.758   0.387   7.213
12454TIP3   OH237246   5.185   0.643   7.080
12454TIP3    H137247   5.274   0.610   7.102
12454TIP3    H237248   5.138   0.560   7.054
12455TIP3   OH237249   6.419   0.584   7.372
12455TIP3    H137250   6.354   0.654   7.350
12455TIP3    H237251   6.461   0.617   7.453
12456TIP3   OH237252   5.458   1.080   6.625
12456TIP3    H137253   5.406   1.053   6.548
12456TIP3    H237254   5.411   1.162   6.650
12457TIP3   OH237255   5.210   0.996   7.417
12457TIP3    H137256   5.144   1.054   7.462
12457TIP3    H237257   5.247   1.056   7.350
12458TIP3   OH237258   4.979   0.346   7.389
12458TIP3    H137259   5.038   0.415   7.423
12458TIP3    H237260   5.028   0.312   7.313
12459TIP3   OH237261   5.036   1.192   7.506
12459TIP3    H137262   5.000   1.280   7.483
12459TIP3    H237263   4.970   1.162   7.572
12460TIP3   OH237264   4.434   0.885   6.750
12460TIP3    H137265   4.393   0.913   6.667
12460TIP3    H237266   4.465   0.969   6.788
12461TIP3   OH237267   5.872   1.397   6.987
12461TIP3    H137268   5.783   1.390   7.028
12461TIP3    H237269   5.865   1.485   6.944
12462TIP3   OH237270   5.578   1.445   6.664
12462TIP3    H137271   5.629   1.364   6.642
12462TIP3    H237272   5.635   1.513   6.622
12463TIP3   OH237273   5.720   1.229   6.567
12463TIP3    H137274   5.667   1.153   6.539
12463TIP3    H237275   5.756   1.197   6.652
12464TIP3   OH237276   6.099   1.313   7.333
12464TIP3    H137277   6.087   1.236   7.273
12464TIP3    H237278   6.080   1.388   7.273
12465TIP3   OH237279   5.389   0.705   6.589
12465TIP3    H137280   5.307   0.755   6.569
12465TIP3    H237281   5.433   0.704   6.502
12466TIP3   OH237282   5.342   0.496   6.309
12466TIP3    H137283   5.416   0.538   6.356
12466TIP3    H237284   5.392   0.426   6.262
12467TIP3   OH237285   6.294   0.945   7.177
12467TIP3    H137286   6.211   0.998   7.183
12467TIP3    H237287   6.323   0.971   7.087
12468TIP3   OH237288   5.738   0.788   6.561
12468TIP3    H137289   5.682   0.814   6.638
12468TIP3    H237290   5.820   0.762   6.607
12469TIP3   OH237291   5.971   0.832   7.467
12469TIP3    H137292   5.969   0.917   7.516
12469TIP3    H237293   5.884   0.837   7.421
12470TIP3   OH237294   4.972   0.787   6.976
12470TIP3    H137295   4.930   0.729   6.910
12470TIP3    H237296   5.048   0.732   7.006
12471TIP3   OH237297   5.103   1.204   7.122
12471TIP3    H137298   5.080   1.150   7.045
12471TIP3    H237299   5.192   1.170   7.145
12472TIP3   OH237300   5.119   0.748   7.332
12472TIP3    H137301   5.146   0.738   7.238
12472TIP3    H237302   5.150   0.839   7.354
12473TIP3   OH237303   5.633   1.395   7.109
12473TIP3    H137304   5.617   1.475   7.161
12473TIP3    H237305   5.617   1.323   7.173
12474TIP3   OH237306   5.241   1.317   7.651
12474TIP3    H137307   5.181   1.377   7.700
12474TIP3    H237308   5.175   1.259   7.607
12475TIP3   OH237309   5.584   0.635   6.391
12475TIP3    H137310   5.641   0.696   6.444
12475TIP3    H237311   5.608   0.663   6.299
12476TIP3   OH237312   5.322   1.326   6.659
12476TIP3    H137313   5.398   1.381   6.683
12476TIP3    H237314   5.258   1.392   6.627
12477TIP3   OH237315   5.037   1.487   7.743
12477TIP3    H137316   5.002   1.480   7.652
12477TIP3    H237317   4.958   1.466   7.797
12478TIP3   OH237318   4.838   0.635   6.777
12478TIP3    H137319   4.765   0.671   6.723
12478TIP3    H237320   4.807   0.547   6.799
12479TIP3   OH237321   5.891   1.255   5.981
12479TIP3    H137322   5.899   1.353   5.970
12479TIP3    H237323   5.984   1.228   5.970
12480TIP3   OH237324   4.617   1.021   7.683
12480TIP3    H137325   4.555   0.985   7.619
12480TIP3    H237326   4.655   0.940   7.726
12481TIP3   OH237327   4.471   1.207   7.319
12481TIP3    H137328   4.567   1.198   7.315
12481TIP3    H237329   4.462   1.284   7.379
12482TIP3   OH237330   6.337   1.657   7.379
12482TIP3    H137331   6.334   1.561   7.395
12482TIP3    H237332   6.254   1.685   7.423
12483TIP3   OH237333   5.441   1.444   7.511
12483TIP3    H137334   5.441   1.537   7.545
12483TIP3    H237335   5.369   1.405   7.565
12484TIP3   OH237336   5.200   1.574   6.464
12484TIP3    H137337   5.154   1.556   6.380
12484TIP3    H237338   5.170   1.663   6.487
12485TIP3   OH237339   4.639   1.423   6.848
12485TIP3    H137340   4.689   1.414   6.933
12485TIP3    H237341   4.580   1.346   6.855
12486TIP3   OH237342   5.403   1.473   6.105
12486TIP3    H137343   5.462   1.404   6.070
12486TIP3    H237344   5.437   1.484   6.197
12487TIP3   OH237345   5.452   1.521   6.375
12487TIP3    H137346   5.365   1.531   6.419
12487TIP3    H237347   5.505   1.483   6.448
12488TIP3   OH237348   6.229   0.786   7.668
12488TIP3    H137349   6.154   0.824   7.622
12488TIP3    H237350   6.239   0.700   7.626
12489TIP3   OH237351   4.825   1.199   7.695
12489TIP3    H137352   4.887   1.140   7.743
12489TIP3    H237353   4.750   1.137   7.687
12490TIP3   OH237354   5.901   0.650   7.667
12490TIP3    H137355   5.943   0.565   7.654
12490TIP3    H237356   5.919   0.700   7.586
12491TIP3   OH237357   5.658   0.685   6.131
12491TIP3    H137358   5.622   0.667   6.042
12491TIP3    H237359   5.728   0.750   6.110
12492TIP3   OH237360   5.159   0.528   7.488
12492TIP3    H137361   5.103   0.555   7.564
12492TIP3    H237362   5.146   0.607   7.430
12493TIP3   OH237363   5.023   0.442   6.988
12493TIP3    H137364   4.946   0.391   7.019
12493TIP3    H237365   5.047   0.393   6.907
12494TIP3   OH237366   5.532   0.510   6.719
12494TIP3    H137367   5.476   0.583   6.682
12494TIP3    H237368   5.577   0.478   6.639
12495TIP3   OH237369   5.705   0.834   7.782
12495TIP3    H137370   5.696   0.773   7.859
12495TIP3    H237371   5.802   0.829   7.772
12496TIP3   OH237372   5.692   0.537   6.960
12496TIP3    H137373   5.630   0.577   6.896
12496TIP3    H237374   5.712   0.454   6.915
12497TIP3   OH237375   4.973   0.570   7.691
12497TIP3    H137376   5.004   0.640   7.752
12497TIP3    H237377   4.917   0.516   7.747
12498TIP3   OH237378   5.703   0.790   7.385
12498TIP3    H137379   5.732   0.719   7.323
12498TIP3    H237380   5.668   0.736   7.459
12499TIP3   OH237381   4.794   0.297   7.062
12499TIP3    H137382   4.699   0.315   7.041
12499TIP3    H237383   4.799   0.201   7.047
12500TIP3   OH237384   5.082   0.312   6.752
12500TIP3    H137385   5.168   0.294   6.712
12500TIP3    H237386   5.022   0.309   6.675
12501TIP3   OH237387   4.899   0.330   6.531
12501TIP3    H137388   4.838   0.282   6.472
12501TIP3    H237389   4.960   0.367   6.464
12502TIP3   OH237390   6.025   2.007   7.477
12502TIP3    H137391   6.023   2.033   7.383
12502TIP3    H237392   6.104   2.056   7.508
12503TIP3   OH237393   5.454   0.578   7.163
12503TIP3    H137394   5.502   0.512   7.112
12503TIP3    H237395   5.446   0.534   7.250
12504TIP3   OH237396   5.433   0.474   7.435
12504TIP3    H137397   5.342   0.498   7.460
12504TIP3    H237398   5.487   0.523   7.500
12505TIP3   OH237399   5.161   0.858   6.538
12505TIP3    H137400   5.088   0.794   6.528
12505TIP3    H237401   5.144   0.892   6.629
12506TIP3   OH237402   6.063   1.093   7.169
12506TIP3    H137403   6.087   1.143   7.088
12506TIP3    H237404   5.976   1.055   7.145
12507TIP3   OH237405   5.566   1.181   7.536
12507TIP3    H137406   5.574   1.152   7.627
12507TIP3    H237407   5.520   1.266   7.544
12508TIP3   OH237408   5.679   0.390   6.494
12508TIP3    H137409   5.776   0.402   6.506
12508TIP3    H237410   5.656   0.470   6.442
12509TIP3   OH237411   4.850   0.877   7.216
12509TIP3    H137412   4.894   0.848   7.134
12509TIP3    H237413   4.890   0.819   7.283
12510TIP3   OH237414   5.305   1.008   6.358
12510TIP3    H137415   5.258   1.095   6.366
12510TIP3    H237416   5.251   0.953   6.418
12511TIP3   OH237417   4.685   0.820   7.850
12511TIP3    H137418   4.767   0.816   7.903
12511TIP3    H237419   4.664   0.727   7.837
12512TIP3   OH237420   5.457   0.930   7.850
12512TIP3    H137421   5.394   0.879   7.795
12512TIP3    H237422   5.543   0.904   7.811
12513TIP3   OH237423   5.722   1.437   7.430
12513TIP3    H137424   5.625   1.434   7.443
12513TIP3    H237425   5.749   1.488   7.509
12514TIP3   OH237426   6.135   0.503   6.337
12514TIP3    H137427   6.076   0.455   6.275
12514TIP3    H237428   6.131   0.592   6.296
12515TIP3   OH237429   6.348   1.361   7.424
12515TIP3    H137430   6.250   1.360   7.414
12515TIP3    H237431   6.374   1.336   7.332
12516TIP3   OH237432   5.829   1.328   6.247
12516TIP3    H137433   5.805   1.261   6.312
12516TIP3    H237434   5.842   1.278   6.165
12517TIP3   OH237435   5.827   0.957   7.088
12517TIP3    H137436   5.734   0.931   7.101
12517TIP3    H237437   5.861   0.877   7.042
12518TIP3   OH237438   4.952   1.181   6.833
12518TIP3    H137439   4.953   1.266   6.784
12518TIP3    H237440   4.858   1.172   6.852
12519TIP3   OH237441   4.516   0.487   6.541
12519TIP3    H137442   4.565   0.569   6.561
12519TIP3    H237443   4.441   0.495   6.603
12520TIP3   OH237444   5.096   0.951   6.783
12520TIP3    H137445   5.057   1.039   6.801
12520TIP3    H237446   5.060   0.899   6.858
12521TIP3   OH237447   5.221   1.529   7.309
12521TIP3    H137448   5.264   1.601   7.259
12521TIP3    H237449   5.297   1.494   7.359
12522TIP3   OH237450   4.873   1.424   6.691
12522TIP3    H137451   4.787   1.431   6.738
12522TIP3    H237452   4.904   1.517   6.696
12523TIP3   OH237453   5.612   1.162   7.267
12523TIP3    H137454   5.602   1.164   7.365
12523TIP3    H237455   5.693   1.110   7.257
12524TIP3   OH237456   5.584   1.051   6.149
12524TIP3    H137457   5.637   1.028   6.228
12524TIP3    H237458   5.495   1.030   6.181
12525TIP3   OH237459   5.861   1.696   7.317
12525TIP3    H137460   5.782   1.640   7.310
12525TIP3    H237461   5.845   1.762   7.246
12526TIP3   OH237462   5.925   1.531   5.970
12526TIP3    H137463   5.965   1.605   5.921
12526TIP3    H237464   5.845   1.577   6.003
12527TIP3   OH237465   5.745   0.983   6.361
12527TIP3    H137466   5.735   0.922   6.436
12527TIP3    H237467   5.842   0.987   6.354
12528TIP3   OH237468   4.661   1.392   7.469
12528TIP3    H137469   4.711   1.315   7.501
12528TIP3    H237470   4.690   1.459   7.532
12529TIP3   OH237471   4.951   1.038   6.149
12529TIP3    H137472   4.966   0.945   6.121
12529TIP3    H237473   4.934   1.026   6.245
12530TIP3   OH237474   4.897   1.041   6.421
12530TIP3    H137475   4.965   1.013   6.484
12530TIP3    H237476   4.902   1.139   6.429
12531TIP3   OH237477   4.629   0.733   6.622
12531TIP3    H137478   4.566   0.779   6.682
12531TIP3    H237479   4.648   0.804   6.559
12532TIP3   OH237480   5.162   1.238   6.368
12532TIP3    H137481   5.076   1.266   6.406
12532TIP3    H237482   5.181   1.315   6.311
12533TIP3   OH237483   5.378   0.293   6.790
12533TIP3    H137484   5.417   0.380   6.769
12533TIP3    H237485   5.330   0.310   6.872
12534TIP3   OH237486   5.627   0.626   7.589
12534TIP3    H137487   5.609   0.692   7.658
12534TIP3    H237488   5.715   0.596   7.618
12535TIP3   OH237489   4.904   1.314   6.437
12535TIP3    H137490   4.875   1.384   6.375
12535TIP3    H237491   4.889   1.357   6.524
12536TIP3   OH237492   5.914   0.718   6.959
12536TIP3    H137493   5.840   0.658   6.977
12536TIP3    H237494   5.987   0.674   7.009
12537TIP3   OH237495   4.623   0.948   6.430
12537TIP3    H137496   4.688   1.019   6.441
12537TIP3    H237497   4.670   0.893   6.364
12538TIP3   OH237498   4.546   0.197   6.546
12538TIP3    H137499   4.586   0.286   6.548
12538TIP3    H237500   4.464   0.214   6.594
12539TIP3   OH237501   5.881   1.668   6.910
12539TIP3    H137502   5.838   1.715   6.834
12539TIP3    H237503   5.975   1.689   6.890
12540TIP3   OH237504   4.496   1.157   6.819
12540TIP3    H137505   4.426   1.190   6.877
12540TIP3    H237506   4.472   1.198   6.734
12541TIP3   OH237507   4.651   1.697   7.891
12541TIP3    H137508   4.738   1.696   7.935
12541TIP3    H237509   4.633   1.602   7.886
12542TIP3   OH237510   5.135   1.668   7.932
12542TIP3    H137511   5.228   1.643   7.942
12542TIP3    H237512   5.108   1.609   7.859
12543TIP3   OH237513   5.114   1.241   6.061
12543TIP3    H137514   5.058   1.171   6.102
12543TIP3    H237515   5.190   1.187   6.033
12544TIP3   OH237516   5.775   1.570   7.664
12544TIP3    H137517   5.765   1.502   7.734
12544TIP3    H237518   5.851   1.622   7.697
12545TIP3   OH237519   5.551   1.281   5.973
12545TIP3    H137520   5.598   1.220   6.032
12545TIP3    H237521   5.610   1.284   5.895
12546TIP3   OH237522   4.774   1.111   8.101
12546TIP3    H137523   4.824   1.036   8.067
12546TIP3    H237524   4.694   1.108   8.044
12547TIP3   OH237525   4.759   0.758   6.282
12547TIP3    H137526   4.813   0.723   6.356
12547TIP3    H237527   4.828   0.766   6.213
12548TIP3   OH237528   5.392   1.202   7.860
12548TIP3    H137529   5.340   1.210   7.778
12548TIP3    H237530   5.419   1.108   7.859
12549TIP3   OH237531   5.268   0.958   6.089
12549TIP3    H137532   5.270   0.972   6.186
12549TIP3    H237533   5.267   0.859   6.086
12550TIP3   OH237534   5.885   1.195   7.469
12550TIP3    H137535   5.954   1.247   7.425
12550TIP3    H237536   5.809   1.256   7.462
12551TIP3   OH237537   4.895   0.809   8.079
12551TIP3    H137538   4.981   0.799   8.036
12551TIP3    H237539   4.920   0.855   8.161
12552TIP3   OH237540   4.967   0.660   6.505
12552TIP3    H137541   4.943   0.623   6.591
12552TIP3    H237542   5.002   0.582   6.458
12553TIP3   OH237543   5.224   0.740   7.728
12553TIP3    H137544   5.154   0.808   7.745
12553TIP3    H237545   5.264   0.778   7.646
12554TIP3   OH237546   5.066   0.451   6.347
12554TIP3    H137547   5.040   0.458   6.252
12554TIP3    H237548   5.163   0.460   6.340
12555TIP3   OH237549   5.755   1.132   7.873
12555TIP3    H137550   5.831   1.103   7.822
12555TIP3    H237551   5.746   1.061   7.939
12556TIP3   OH237552   5.896   0.785   6.004
12556TIP3    H137553   5.867   0.742   5.921
12556TIP3    H237554   5.864   0.877   5.985
12557TIP3   OH237555   5.412   0.569   7.817
12557TIP3    H137556   5.373   0.488   7.784
12557TIP3    H237557   5.348   0.636   7.782
12558TIP3   OH237558   5.398   0.844   7.542
12558TIP3    H137559   5.473   0.848   7.481
12558TIP3    H237560   5.334   0.905   7.499
12559TIP3   OH237561   5.976   0.816   7.932
12559TIP3    H137562   6.011   0.726   7.920
12559TIP3    H237563   6.044   0.872   7.892
12560TIP3   OH237564   6.017   1.050   7.653
12560TIP3    H137565   5.955   1.104   7.599
12560TIP3    H237566   6.103   1.077   7.613
12561TIP3   OH237567   5.221   0.647   8.088
12561TIP3    H137568   5.150   0.580   8.093
12561TIP3    H237569   5.279   0.610   8.022
12562TIP3   OH237570   5.655   0.656   7.971
12562TIP3    H137571   5.615   0.658   8.060
12562TIP3    H237572   5.584   0.620   7.916
12563TIP3   OH237573   4.874   1.516   6.249
12563TIP3    H137574   4.970   1.513   6.231
12563TIP3    H237575   4.845   1.566   6.170
12564TIP3   OH237576   4.355   0.900   6.464
12564TIP3    H137577   4.450   0.922   6.454
12564TIP3    H237578   4.352   0.810   6.425
12565TIP3   OH237579   4.270   1.510   6.880
12565TIP3    H137580   4.202   1.448   6.846
12565TIP3    H237581   4.314   1.454   6.948
12566TIP3   OH237582   4.406   1.363   7.066
12566TIP3    H137583   4.396   1.289   7.129
12566TIP3    H237584   4.457   1.425   7.123
12567TIP3   OH237585   6.134   1.760   6.866
12567TIP3    H137586   6.156   1.795   6.954
12567TIP3    H237587   6.190   1.813   6.808
12568TIP3   OH237588   6.162   1.782   7.147
12568TIP3    H137589   6.121   1.693   7.145
12568TIP3    H237590   6.237   1.765   7.205
12569TIP3   OH237591   6.211   1.457   7.723
12569TIP3    H137592   6.136   1.468   7.785
12569TIP3    H237593   6.251   1.547   7.726
12570TIP3   OH237594   6.028   0.970   6.339
12570TIP3    H137595   6.095   1.037   6.314
12570TIP3    H237596   6.069   0.932   6.420
12571TIP3   OH237597   6.154   0.835   6.543
12571TIP3    H137598   6.088   0.797   6.604
12571TIP3    H237599   6.218   0.877   6.604
12572TIP3   OH237600   6.207   1.231   6.979
12572TIP3    H137601   6.259   1.170   6.923
12572TIP3    H237602   6.196   1.308   6.919
12573TIP3   OH237603   6.038   1.530   7.174
12573TIP3    H137604   5.968   1.576   7.225
12573TIP3    H237605   5.986   1.484   7.105
12574TIP3   OH237606   6.088   0.741   6.193
12574TIP3    H137607   6.019   0.755   6.124
12574TIP3    H237608   6.068   0.818   6.250
12575TIP3   OH237609   5.972   0.411   6.132
12575TIP3    H137610   5.932   0.494   6.102
12575TIP3    H237611   5.910   0.346   6.098
12576TIP3   OH237612   5.969   0.695   6.694
12576TIP3    H137613   5.975   0.599   6.701
12576TIP3    H237614   5.953   0.720   6.788
12577TIP3   OH237615   4.596   0.770   7.438
12577TIP3    H137616   4.595   0.741   7.344
12577TIP3    H237617   4.693   0.774   7.455
12578TIP3   OH237618   6.260   1.116   7.547
12578TIP3    H137619   6.334   1.053   7.532
12578TIP3    H237620   6.282   1.191   7.489
12579TIP3   OH237621   6.445   0.913   7.556
12579TIP3    H137622   6.376   0.868   7.610
12579TIP3    H237623   6.526   0.878   7.594
12580TIP3   OH237624   5.951   0.406   6.535
12580TIP3    H137625   5.997   0.374   6.616
12580TIP3    H237626   6.022   0.453   6.488
12581TIP3   OH237627   6.132   0.610   7.087
12581TIP3    H137628   6.221   0.625   7.049
12581TIP3    H237629   6.146   0.640   7.178
12582TIP3   OH237630   6.192   0.738   7.331
12582TIP3    H137631   6.109   0.779   7.364
12582TIP3    H237632   6.227   0.811   7.275
12583TIP3   OH237633   4.586   0.422   7.520
12583TIP3    H137634   4.635   0.418   7.435
12583TIP3    H237635   4.600   0.514   7.546
12584TIP3   OH237636   5.715   1.628   6.522
12584TIP3    H137637   5.770   1.616   6.442
12584TIP3    H237638   5.765   1.695   6.571
12585TIP3   OH237639   4.816   1.446   7.912
12585TIP3    H137640   4.735   1.399   7.886
12585TIP3    H237641   4.837   1.403   7.996
12586TIP3   OH237642   4.992   1.464   7.459
12586TIP3    H137643   4.947   1.542   7.419
12586TIP3    H237644   5.079   1.474   7.415
12587TIP3   OH237645   5.442   1.710   7.595
12587TIP3    H137646   5.483   1.711   7.684
12587TIP3    H237647   5.509   1.761   7.544
12588TIP3   OH237648   5.621   1.861   7.452
12588TIP3    H137649   5.694   1.810   7.413
12588TIP3    H237650   5.671   1.919   7.513
12589TIP3   OH237651   4.673   1.724   7.478
12589TIP3    H137652   4.583   1.759   7.457
12589TIP3    H237653   4.683   1.754   7.569
12590TIP3   OH237654   4.909   1.702   7.337
12590TIP3    H137655   4.823   1.714   7.383
12590TIP3    H237656   4.888   1.735   7.248
12591TIP3   OH237657   5.336   1.732   7.134
12591TIP3    H137658   5.265   1.753   7.070
12591TIP3    H237659   5.349   1.818   7.178
12592TIP3   OH237660   5.604   1.669   7.184
12592TIP3    H137661   5.509   1.687   7.167
12592TIP3    H237662   5.646   1.748   7.146
12593TIP3   OH237663   5.810   1.861   7.103
12593TIP3    H137664   5.797   1.947   7.057
12593TIP3    H237665   5.836   1.802   7.029
12594TIP3   OH237666   4.585   1.516   7.225
12594TIP3    H137667   4.611   1.491   7.317
12594TIP3    H237668   4.657   1.472   7.175
12595TIP3   OH237669   4.778   1.387   7.080
12595TIP3    H137670   4.793   1.303   7.129
12595TIP3    H237671   4.869   1.424   7.079
12596TIP3   OH237672   5.044   1.482   7.084
12596TIP3    H137673   5.074   1.390   7.075
12596TIP3    H237674   5.087   1.505   7.169
12597TIP3   OH237675   4.373   1.286   6.616
12597TIP3    H137676   4.288   1.254   6.581
12597TIP3    H237677   4.361   1.381   6.606
12598TIP3   OH237678   5.143   1.477   6.198
12598TIP3    H137679   5.232   1.500   6.163
12598TIP3    H237680   5.122   1.402   6.139
12599TIP3   OH237681   5.863   1.595   6.290
12599TIP3    H137682   5.853   1.498   6.277
12599TIP3    H237683   5.818   1.630   6.211
12600TIP3   OH237684   4.447   1.314   6.257
12600TIP3    H137685   4.448   1.338   6.350
12600TIP3    H237686   4.536   1.273   6.245
12601TIP3   OH237687   6.091   1.739   7.478
12601TIP3    H137688   6.010   1.708   7.431
12601TIP3    H237689   6.072   1.836   7.482
12602TIP3   OH237690   7.355   1.112   6.246
12602TIP3    H137691   7.327   1.203   6.225
12602TIP3    H237692   7.279   1.062   6.214
12603TIP3   OH237693   7.357   1.112   6.625
12603TIP3    H137694   7.383   1.080   6.712
12603TIP3    H237695   7.312   1.034   6.588
12604TIP3   OH237696   6.655   1.008   6.989
12604TIP3    H137697   6.692   0.944   7.052
12604TIP3    H237698   6.727   1.072   6.983
12605TIP3   OH237699   7.602   1.410   6.307
12605TIP3    H137700   7.580   1.340   6.370
12605TIP3    H237701   7.618   1.486   6.363
12606TIP3   OH237702   6.624   1.415   6.715
12606TIP3    H137703   6.615   1.317   6.719
12606TIP3    H237704   6.721   1.424   6.713
12607TIP3   OH237705   6.326   0.607   6.511
12607TIP3    H137706   6.283   0.693   6.526
12607TIP3    H237707   6.260   0.565   6.452
12608TIP3   OH237708   6.393   0.904   6.670
12608TIP3    H137709   6.445   0.831   6.710
12608TIP3    H237710   6.456   0.940   6.606
12609TIP3   OH237711   7.244   1.876   6.321
12609TIP3    H137712   7.293   1.803   6.277
12609TIP3    H237713   7.235   1.842   6.411
12610TIP3   OH237714   7.153   1.336   6.675
12610TIP3    H137715   7.189   1.260   6.626
12610TIP3    H237716   7.237   1.381   6.697
12611TIP3   OH237717   7.567   0.846   6.707
12611TIP3    H137718   7.602   0.760   6.733
12611TIP3    H237719   7.536   0.829   6.616
12612TIP3   OH237720   6.539   0.697   6.781
12612TIP3    H137721   6.620   0.672   6.830
12612TIP3    H237722   6.554   0.645   6.700
12613TIP3   OH237723   6.979   0.900   6.575
12613TIP3    H137724   7.070   0.868   6.591
12613TIP3    H237725   6.934   0.817   6.545
12614TIP3   OH237726   8.216   0.841   6.860
12614TIP3    H137727   8.153   0.912   6.839
12614TIP3    H237728   8.259   0.873   6.941
12615TIP3   OH237729   7.248   1.333   6.117
12615TIP3    H137730   7.206   1.311   6.033
12615TIP3    H237731   7.204   1.418   6.138
12616TIP3   OH237732   7.007   1.255   6.904
12616TIP3    H137733   6.942   1.320   6.941
12616TIP3    H237734   7.046   1.307   6.831
12617TIP3   OH237735   6.779   0.596   6.869
12617TIP3    H137736   6.835   0.665   6.909
12617TIP3    H237737   6.831   0.571   6.792
12618TIP3   OH237738   6.833   1.448   6.996
12618TIP3    H137739   6.808   1.535   6.959
12618TIP3    H237740   6.756   1.434   7.055
12619TIP3   OH237741   6.230   1.141   6.237
12619TIP3    H137742   6.188   1.169   6.154
12619TIP3    H237743   6.260   1.227   6.274
12620TIP3   OH237744   7.678   1.660   6.484
12620TIP3    H137745   7.587   1.648   6.521
12620TIP3    H237746   7.664   1.742   6.433
12621TIP3   OH237747   7.375   1.702   6.155
12621TIP3    H137748   7.423   1.620   6.128
12621TIP3    H237749   7.432   1.769   6.110
12622TIP3   OH237750   7.513   1.487   6.055
12622TIP3    H137751   7.478   1.409   6.012
12622TIP3    H237752   7.549   1.450   6.139
12623TIP3   OH237753   7.967   1.569   6.781
12623TIP3    H137754   7.921   1.483   6.768
12623TIP3    H237755   7.894   1.628   6.805
12624TIP3   OH237756   7.186   0.963   6.076
12624TIP3    H137757   7.105   1.014   6.054
12624TIP3    H237758   7.233   0.960   5.991
12625TIP3   OH237759   7.141   0.747   5.795
12625TIP3    H137760   7.211   0.794   5.844
12625TIP3    H237761   7.196   0.684   5.744
12626TIP3   OH237762   8.090   1.206   6.669
12626TIP3    H137763   8.006   1.256   6.670
12626TIP3    H237764   8.122   1.226   6.579
12627TIP3   OH237765   7.533   1.045   6.048
12627TIP3    H137766   7.479   1.070   6.126
12627TIP3    H237767   7.616   1.017   6.091
12628TIP3   OH237768   7.766   1.091   6.952
12628TIP3    H137769   7.760   1.173   7.004
12628TIP3    H237770   7.679   1.094   6.906
12629TIP3   OH237771   6.767   1.044   6.465
12629TIP3    H137772   6.724   0.986   6.398
12629TIP3    H237773   6.843   0.988   6.493
12630TIP3   OH237774   6.895   1.455   6.613
12630TIP3    H137775   6.874   1.410   6.529
12630TIP3    H237776   6.986   1.422   6.631
12631TIP3   OH237777   6.907   1.010   6.822
12631TIP3    H137778   6.936   0.990   6.730
12631TIP3    H237779   6.946   1.098   6.838
12632TIP3   OH237780   7.435   1.651   6.596
12632TIP3    H137781   7.411   1.732   6.646
12632TIP3    H237782   7.413   1.579   6.659
12633TIP3   OH237783   7.040   1.567   7.141
12633TIP3    H137784   6.981   1.631   7.188
12633TIP3    H237785   6.972   1.516   7.092
12634TIP3   OH237786   7.374   0.898   5.876
12634TIP3    H137787   7.435   0.955   5.928
12634TIP3    H237788   7.400   0.923   5.784
12635TIP3   OH237789   6.780   1.142   7.236
12635TIP3    H137790   6.786   1.226   7.286
12635TIP3    H237791   6.685   1.120   7.251
12636TIP3   OH237792   7.118   1.584   6.148
12636TIP3    H137793   7.194   1.640   6.170
12636TIP3    H237794   7.054   1.647   6.111
12637TIP3   OH237795   6.836   1.731   7.227
12637TIP3    H137796   6.797   1.735   7.138
12637TIP3    H237797   6.757   1.715   7.284
12638TIP3   OH237798   6.631   0.892   6.269
12638TIP3    H137799   6.562   0.931   6.212
12638TIP3    H237800   6.600   0.802   6.280
12639TIP3   OH237801   7.688   1.513   5.472
12639TIP3    H137802   7.696   1.609   5.456
12639TIP3    H237803   7.781   1.484   5.458
12640TIP3   OH237804   6.412   1.270   7.177
12640TIP3    H137805   6.346   1.250   7.108
12640TIP3    H237806   6.448   1.181   7.198
12641TIP3   OH237807   6.267   1.462   6.812
12641TIP3    H137808   6.363   1.462   6.803
12641TIP3    H237809   6.253   1.543   6.863
12642TIP3   OH237810   7.240   1.698   7.000
12642TIP3    H137811   7.240   1.791   7.031
12642TIP3    H237812   7.167   1.660   7.054
12643TIP3   OH237813   6.997   1.830   5.952
12643TIP3    H137814   6.953   1.811   5.867
12643TIP3    H237815   6.965   1.919   5.974
12644TIP3   OH237816   6.436   1.679   6.334
12644TIP3    H137817   6.485   1.670   6.419
12644TIP3    H237818   6.372   1.606   6.343
12645TIP3   OH237819   7.201   1.731   5.592
12645TIP3    H137820   7.258   1.661   5.555
12645TIP3    H237821   7.235   1.739   5.683
12646TIP3   OH237822   7.250   1.779   5.863
12646TIP3    H137823   7.161   1.788   5.904
12646TIP3    H237824   7.300   1.737   5.934
12647TIP3   OH237825   8.024   1.044   7.151
12647TIP3    H137826   7.947   1.070   7.098
12647TIP3    H237827   8.041   0.954   7.121
12648TIP3   OH237828   6.620   1.451   7.163
12648TIP3    H137829   6.666   1.442   7.249
12648TIP3    H237830   6.544   1.389   7.174
12649TIP3   OH237831   7.704   0.908   7.157
12649TIP3    H137832   7.737   0.820   7.140
12649TIP3    H237833   7.715   0.954   7.072
12650TIP3   OH237834   7.453   0.948   5.620
12650TIP3    H137835   7.417   0.925   5.532
12650TIP3    H237836   7.530   1.003   5.594
12651TIP3   OH237837   6.952   0.783   6.971
12651TIP3    H137838   6.899   0.808   7.049
12651TIP3    H237839   6.939   0.863   6.914
12652TIP3   OH237840   6.821   0.698   6.476
12652TIP3    H137841   6.743   0.649   6.507
12652TIP3    H237842   6.843   0.649   6.394
12653TIP3   OH237843   7.329   0.767   6.207
12653TIP3    H137844   7.275   0.839   6.166
12653TIP3    H237845   7.377   0.732   6.130
12654TIP3   OH237846   7.503   1.089   7.266
12654TIP3    H137847   7.497   1.039   7.350
12654TIP3    H237848   7.599   1.086   7.254
12655TIP3   OH237849   7.486   0.794   6.447
12655TIP3    H137850   7.426   0.824   6.375
12655TIP3    H237851   7.520   0.713   6.409
12656TIP3   OH237852   6.770   0.826   7.176
12656TIP3    H137853   6.794   0.892   7.243
12656TIP3    H237854   6.706   0.770   7.222
12657TIP3   OH237855   7.501   1.048   6.870
12657TIP3    H137856   7.528   0.976   6.808
12657TIP3    H237857   7.466   0.994   6.944
12658TIP3   OH237858   6.590   0.553   6.552
12658TIP3    H137859   6.496   0.572   6.529
12658TIP3    H237860   6.600   0.463   6.520
12659TIP3   OH237861   6.876   0.562   6.243
12659TIP3    H137862   6.966   0.553   6.210
12659TIP3    H237863   6.822   0.570   6.162
12660TIP3   OH237864   6.684   0.603   6.023
12660TIP3    H137865   6.626   0.537   5.981
12660TIP3    H237866   6.750   0.617   5.953
12661TIP3   OH237867   7.822   2.264   6.963
12661TIP3    H137868   7.817   2.292   6.869
12661TIP3    H237869   7.895   2.319   6.996
12662TIP3   OH237870   6.779   1.374   7.388
12662TIP3    H137871   6.859   1.406   7.435
12662TIP3    H237872   6.714   1.381   7.461
12663TIP3   OH237873   7.247   0.834   6.647
12663TIP3    H137874   7.309   0.781   6.596
12663TIP3    H237875   7.244   0.785   6.732
12664TIP3   OH237876   7.228   0.725   6.929
12664TIP3    H137877   7.137   0.749   6.951
12664TIP3    H237878   7.278   0.773   6.997
12665TIP3   OH237879   6.958   1.117   6.026
12665TIP3    H137880   6.883   1.054   6.016
12665TIP3    H237881   6.942   1.151   6.118
12666TIP3   OH237882   7.853   1.353   6.661
12666TIP3    H137883   7.871   1.395   6.575
12666TIP3    H237884   7.769   1.306   6.641
12667TIP3   OH237885   7.372   1.441   7.023
12667TIP3    H137886   7.372   1.411   7.115
12667TIP3    H237887   7.319   1.523   7.028
12668TIP3   OH237888   7.472   0.657   5.991
12668TIP3    H137889   7.570   0.663   5.999
12668TIP3    H237890   7.453   0.730   5.929
12669TIP3   OH237891   6.648   1.133   6.702
12669TIP3    H137892   6.688   1.108   6.616
12669TIP3    H237893   6.690   1.070   6.762
12670TIP3   OH237894   7.103   1.266   5.846
12670TIP3    H137895   7.056   1.352   5.853
12670TIP3    H237896   7.049   1.211   5.906
12671TIP3   OH237897   6.528   1.055   7.313
12671TIP3    H137898   6.550   1.043   7.408
12671TIP3    H237899   6.454   0.993   7.302
12672TIP3   OH237900   7.253   1.183   7.335
12672TIP3    H137901   7.194   1.135   7.274
12672TIP3    H237902   7.341   1.162   7.297
12673TIP3   OH237903   7.523   1.694   6.915
12673TIP3    H137904   7.426   1.690   6.926
12673TIP3    H237905   7.547   1.744   6.996
12674TIP3   OH237906   7.929   0.762   5.826
12674TIP3    H137907   7.871   0.713   5.763
12674TIP3    H237908   7.925   0.850   5.783
12675TIP3   OH237909   7.629   1.584   5.736
12675TIP3    H137910   7.602   1.512   5.794
12675TIP3    H237911   7.640   1.540   5.650
12676TIP3   OH237912   7.625   1.212   6.579
12676TIP3    H137913   7.531   1.187   6.589
12676TIP3    H237914   7.659   1.134   6.530
12677TIP3   OH237915   6.749   1.440   6.324
12677TIP3    H137916   6.751   1.523   6.273
12677TIP3    H237917   6.654   1.428   6.337
12678TIP3   OH237918   6.311   0.743   6.026
12678TIP3    H137919   6.361   0.824   6.046
12678TIP3    H237920   6.237   0.752   6.089
12679TIP3   OH237921   6.891   1.209   6.272
12679TIP3    H137922   6.853   1.297   6.289
12679TIP3    H237923   6.853   1.157   6.346
12680TIP3   OH237924   7.019   1.785   6.795
12680TIP3    H137925   7.057   1.859   6.746
12680TIP3    H237926   7.095   1.755   6.847
12681TIP3   OH237927   6.671   1.680   6.180
12681TIP3    H137928   6.584   1.688   6.224
12681TIP3    H237929   6.702   1.773   6.183
12682TIP3   OH237930   7.409   1.420   6.753
12682TIP3    H137931   7.400   1.420   6.851
12682TIP3    H237932   7.482   1.358   6.740
12683TIP3   OH237933   7.380   1.309   5.637
12683TIP3    H137934   7.434   1.287   5.716
12683TIP3    H237935   7.292   1.288   5.669
12684TIP3   OH237936   7.668   1.943   6.792
12684TIP3    H137937   7.583   1.894   6.794
12684TIP3    H237938   7.645   2.015   6.729
12685TIP3   OH237939   7.721   1.788   5.457
12685TIP3    H137940   7.759   1.859   5.402
12685TIP3    H237941   7.641   1.834   5.489
12686TIP3   OH237942   7.541   1.248   5.855
12686TIP3    H137943   7.531   1.179   5.924
12686TIP3    H237944   7.638   1.245   5.841
12687TIP3   OH237945   6.459   1.648   6.954
12687TIP3    H137946   6.512   1.576   6.991
12687TIP3    H237947   6.481   1.721   7.014
12688TIP3   OH237948   6.740   1.325   5.659
12688TIP3    H137949   6.750   1.232   5.631
12688TIP3    H237950   6.724   1.313   5.755
12689TIP3   OH237951   6.690   1.300   5.927
12689TIP3    H137952   6.763   1.273   5.984
12689TIP3    H237953   6.695   1.398   5.933
12690TIP3   OH237954   6.426   0.989   6.110
12690TIP3    H137955   6.362   1.036   6.168
12690TIP3    H237956   6.444   1.060   6.045
12691TIP3   OH237957   6.958   1.495   5.857
12691TIP3    H137958   6.871   1.524   5.891
12691TIP3    H237959   6.977   1.567   5.795
12692TIP3   OH237960   7.169   0.553   6.267
12692TIP3    H137961   7.214   0.638   6.248
12692TIP3    H237962   7.136   0.568   6.357
12693TIP3   OH237963   7.427   0.888   7.075
12693TIP3    H137964   7.424   0.955   7.146
12693TIP3    H237965   7.511   0.844   7.097
12694TIP3   OH237966   6.701   1.572   5.926
12694TIP3    H137967   6.672   1.640   5.861
12694TIP3    H237968   6.685   1.617   6.011
12695TIP3   OH237969   7.707   0.978   6.447
12695TIP3    H137970   7.636   0.913   6.459
12695TIP3    H237971   7.782   0.934   6.494
12696TIP3   OH237972   6.419   1.201   5.916
12696TIP3    H137973   6.483   1.273   5.932
12696TIP3    H237974   6.468   1.152   5.847
12697TIP3   OH237975   6.337   0.447   6.044
12697TIP3    H137976   6.381   0.533   6.037
12697TIP3    H237977   6.250   0.473   6.073
12698TIP3   OH237978   7.680   1.926   6.397
12698TIP3    H137979   7.633   1.973   6.323
12698TIP3    H237980   7.772   1.947   6.372
12699TIP3   OH237981   6.290   1.410   6.306
12699TIP3    H137982   6.221   1.446   6.363
12699TIP3    H237983   6.268   1.454   6.221
12700TIP3   OH237984   6.451   1.959   7.377
12700TIP3    H137985   6.535   1.960   7.428
12700TIP3    H237986   6.430   1.864   7.379
12701TIP3   OH237987   6.928   1.936   7.397
12701TIP3    H137988   7.016   1.916   7.432
12701TIP3    H237989   6.914   1.863   7.334
12702TIP3   OH237990   6.914   1.507   5.551
12702TIP3    H137991   6.860   1.437   5.594
12702TIP3    H237992   6.986   1.454   5.509
12703TIP3   OH237993   7.578   1.822   7.148
12703TIP3    H137994   7.563   1.757   7.221
12703TIP3    H237995   7.647   1.880   7.185
12704TIP3   OH237996   7.349   1.540   5.460
12704TIP3    H137997   7.396   1.476   5.516
12704TIP3    H237998   7.402   1.540   5.378
12705TIP3   OH237999   6.578   1.361   7.578
12705TIP3    H138000   6.594   1.265   7.580
12705TIP3    H238001   6.490   1.366   7.535
12706TIP3   OH238002   6.564   1.016   5.758
12706TIP3    H138003   6.615   0.983   5.834
12706TIP3    H238004   6.635   1.033   5.693
12707TIP3   OH238005   7.196   1.459   7.347
12707TIP3    H138006   7.144   1.474   7.265
12707TIP3    H238007   7.219   1.364   7.342
12708TIP3   OH238008   7.050   1.208   5.580
12708TIP3    H138009   7.063   1.227   5.675
12708TIP3    H238010   7.063   1.111   5.578
12709TIP3   OH238011   7.682   1.452   6.958
12709TIP3    H138012   7.725   1.518   6.903
12709TIP3    H238013   7.593   1.492   6.964
12710TIP3   OH238014   6.695   1.085   7.562
12710TIP3    H138015   6.777   1.040   7.539
12710TIP3    H238016   6.719   1.124   7.649
12711TIP3   OH238017   6.759   0.925   5.996
12711TIP3    H138018   6.733   0.885   6.081
12711TIP3    H238019   6.794   0.847   5.948
12712TIP3   OH238020   7.016   1.010   7.221
12712TIP3    H138021   6.934   1.066   7.223
12712TIP3    H238022   7.060   1.043   7.139
12713TIP3   OH238023   6.866   0.727   5.828
12713TIP3    H138024   6.843   0.738   5.735
12713TIP3    H238025   6.964   0.739   5.824
12714TIP3   OH238026   7.548   1.386   7.357
12714TIP3    H138027   7.629   1.361   7.311
12714TIP3    H238028   7.544   1.319   7.428
12715TIP3   OH238029   7.689   1.041   5.494
12715TIP3    H138030   7.666   0.997   5.410
12715TIP3    H238031   7.659   1.132   5.472
12716TIP3   OH238032   7.173   0.796   7.244
12716TIP3    H138033   7.201   0.793   7.338
12716TIP3    H238034   7.123   0.879   7.237
12717TIP3   OH238035   7.190   1.104   7.035
12717TIP3    H138036   7.265   1.093   6.975
12717TIP3    H238037   7.131   1.164   6.985
12718TIP3   OH238038   7.775   1.071   7.420
12718TIP3    H138039   7.803   0.981   7.402
12718TIP3    H238040   7.842   1.125   7.378
12719TIP3   OH238041   7.814   1.309   7.143
12719TIP3    H138042   7.754   1.363   7.087
12719TIP3    H238043   7.900   1.332   7.103
12720TIP3   OH238044   7.012   0.906   7.575
12720TIP3    H138045   6.942   0.838   7.574
12720TIP3    H238046   7.082   0.863   7.524
12721TIP3   OH238047   7.461   0.923   7.464
12721TIP3    H138048   7.404   0.918   7.542
12721TIP3    H238049   7.417   0.865   7.400
12722TIP3   OH238050   6.671   1.772   5.736
12722TIP3    H138051   6.767   1.770   5.717
12722TIP3    H238052   6.641   1.821   5.658
12723TIP3   OH238053   6.151   1.155   5.953
12723TIP3    H138054   6.246   1.178   5.941
12723TIP3    H238055   6.148   1.066   5.911
12724TIP3   OH238056   6.067   1.766   6.365
12724TIP3    H138057   5.998   1.705   6.332
12724TIP3    H238058   6.110   1.709   6.433
12725TIP3   OH238059   6.204   1.618   6.552
12725TIP3    H138060   6.190   1.547   6.615
12725TIP3    H238061   6.253   1.682   6.608
12726TIP3   OH238062   7.935   2.009   6.351
12726TIP3    H138063   7.952   2.055   6.436
12726TIP3    H238064   7.979   2.067   6.288
12727TIP3   OH238065   7.949   2.051   6.629
12727TIP3    H138066   7.910   1.961   6.628
12727TIP3    H238067   8.018   2.041   6.695
12728TIP3   OH238068   8.008   1.714   7.205
12728TIP3    H138069   7.933   1.722   7.268
12728TIP3    H238070   8.046   1.804   7.209
12729TIP3   OH238071   7.821   1.228   5.828
12729TIP3    H138072   7.889   1.292   5.799
12729TIP3    H238073   7.864   1.189   5.907
12730TIP3   OH238074   7.949   1.097   6.031
12730TIP3    H138075   7.884   1.054   6.091
12730TIP3    H238076   8.015   1.133   6.094
12731TIP3   OH238077   8.011   1.509   6.482
12731TIP3    H138078   8.062   1.433   6.448
12731TIP3    H238079   7.999   1.561   6.399
12732TIP3   OH238080   7.852   1.781   6.652
12732TIP3    H138081   7.789   1.833   6.709
12732TIP3    H238082   7.786   1.744   6.588
12733TIP3   OH238083   7.885   1.000   5.680
12733TIP3    H138084   7.815   1.010   5.611
12733TIP3    H238085   7.862   1.077   5.736
12734TIP3   OH238086   7.768   0.671   5.625
12734TIP3    H138087   7.723   0.742   5.578
12734TIP3    H238088   7.721   0.593   5.593
12735TIP3   OH238089   7.764   0.954   6.180
12735TIP3    H138090   7.772   0.857   6.178
12735TIP3    H238091   7.749   0.971   6.276
12736TIP3   OH238092   6.390   1.020   6.926
12736TIP3    H138093   6.388   0.995   6.831
12736TIP3    H238094   6.487   1.026   6.941
12737TIP3   OH238095   8.055   1.379   7.029
12737TIP3    H138096   8.126   1.312   7.021
12737TIP3    H238097   8.065   1.429   6.947
12738TIP3   OH238098   8.241   1.178   7.050
12738TIP3    H138099   8.173   1.125   7.097
12738TIP3    H238100   8.322   1.133   7.079
12739TIP3   OH238101   7.744   0.673   6.026
12739TIP3    H138102   7.790   0.633   6.104
12739TIP3    H238103   7.818   0.704   5.972
12740TIP3   OH238104   7.925   0.877   6.573
12740TIP3    H138105   8.014   0.886   6.532
12740TIP3    H238106   7.947   0.893   6.666
12741TIP3   OH238107   7.990   0.995   6.822
12741TIP3    H138108   7.906   1.036   6.851
12741TIP3    H238109   8.026   1.065   6.763
12742TIP3   OH238110   6.384   0.682   7.009
12742TIP3    H138111   6.430   0.676   6.922
12742TIP3    H238112   6.397   0.775   7.031
12743TIP3   OH238113   7.515   1.882   6.012
12743TIP3    H138114   7.564   1.868   5.928
12743TIP3    H238115   7.565   1.955   6.052
12744TIP3   OH238116   6.616   1.681   7.395
12744TIP3    H138117   6.521   1.661   7.383
12744TIP3    H238118   6.625   1.680   7.491
12745TIP3   OH238119   6.791   1.718   6.941
12745TIP3    H138120   6.741   1.794   6.905
12745TIP3    H238121   6.877   1.735   6.897
12746TIP3   OH238122   7.239   1.962   7.079
12746TIP3    H138123   7.277   1.967   7.170
12746TIP3    H238124   7.303   2.018   7.030
12747TIP3   OH238125   7.416   2.118   6.940
12747TIP3    H138126   7.488   2.068   6.901
12747TIP3    H238127   7.465   2.177   7.002
12748TIP3   OH238128   6.470   1.977   6.969
12748TIP3    H138129   6.381   2.010   6.944
12748TIP3    H238130   6.480   2.018   7.055
12749TIP3   OH238131   6.705   1.956   6.824
12749TIP3    H138132   6.619   1.969   6.871
12749TIP3    H238133   6.683   1.992   6.735
12750TIP3   OH238134   7.133   1.987   6.621
12750TIP3    H138135   7.062   2.007   6.557
12750TIP3    H238136   7.144   2.074   6.665
12751TIP3   OH238137   7.400   1.926   6.672
12751TIP3    H138138   7.304   1.942   6.656
12751TIP3    H238139   7.438   2.006   6.633
12752TIP3   OH238140   7.611   2.120   6.590
12752TIP3    H138141   7.594   2.205   6.545
12752TIP3    H238142   7.631   2.061   6.515
12753TIP3   OH238143   6.380   1.773   6.711
12753TIP3    H138144   6.405   1.748   6.802
12753TIP3    H238145   6.454   1.729   6.661
12754TIP3   OH238146   6.574   1.643   6.567
12754TIP3    H138147   6.590   1.560   6.617
12754TIP3    H238148   6.664   1.682   6.564
12755TIP3   OH238149   6.840   1.739   6.570
12755TIP3    H138150   6.871   1.648   6.560
12755TIP3    H238151   6.880   1.762   6.655
12756TIP3   OH238152   6.169   1.543   6.104
12756TIP3    H138153   6.084   1.512   6.069
12756TIP3    H238154   6.158   1.638   6.092
12757TIP3   OH238155   6.941   1.738   5.687
12757TIP3    H138156   7.029   1.760   5.650
12757TIP3    H238157   6.919   1.663   5.628
12758TIP3   OH238158   7.658   1.851   5.778
12758TIP3    H138159   7.650   1.754   5.764
12758TIP3    H238160   7.614   1.885   5.698
12759TIP3   OH238161   6.243   1.568   5.743
12759TIP3    H138162   6.242   1.598   5.835
12759TIP3    H238163   6.333   1.530   5.734
12760TIP3   OH238164   7.888   1.997   6.961
12760TIP3    H138165   7.808   1.966   6.916
12760TIP3    H238166   7.870   2.093   6.967
12761TIP3   OH238167   9.153   1.369   5.726
12761TIP3    H138168   9.127   1.462   5.715
12761TIP3    H238169   9.071   1.324   5.698
12762TIP3   OH238170   9.137   1.362   6.116
12762TIP3    H138171   9.176   1.339   6.202
12762TIP3    H238172   9.100   1.276   6.089
12763TIP3   OH238173   8.447   1.270   6.477
12763TIP3    H138174   8.479   1.203   6.541
12763TIP3    H238175   8.531   1.310   6.451
12764TIP3   OH238176   9.391   1.669   5.794
12764TIP3    H138177   9.388   1.600   5.863
12764TIP3    H238178   9.422   1.745   5.847
12765TIP3   OH238179   8.424   1.673   6.214
12765TIP3    H138180   8.415   1.575   6.212
12765TIP3    H238181   8.520   1.681   6.197
12766TIP3   OH238182   8.120   0.867   5.998
12766TIP3    H138183   8.073   0.952   6.008
12766TIP3    H238184   8.058   0.820   5.939
12767TIP3   OH238185   8.190   1.163   6.161
12767TIP3    H138186   8.239   1.086   6.198
12767TIP3    H238187   8.247   1.187   6.087
12768TIP3   OH238188   9.042   2.128   5.811
12768TIP3    H138189   9.087   2.055   5.762
12768TIP3    H238190   9.041   2.094   5.901
12769TIP3   OH238191   8.949   1.593   6.163
12769TIP3    H138192   8.986   1.514   6.119
12769TIP3    H238193   9.033   1.639   6.183
12770TIP3   OH238194   9.370   1.112   6.188
12770TIP3    H138195   9.388   1.026   6.228
12770TIP3    H238196   9.338   1.088   6.099
12771TIP3   OH238197   8.334   0.954   6.268
12771TIP3    H138198   8.415   0.929   6.317
12771TIP3    H238199   8.349   0.900   6.187
12772TIP3   OH238200   8.773   1.156   6.068
12772TIP3    H138201   8.865   1.124   6.080
12772TIP3    H238202   8.729   1.074   6.034
12773TIP3   OH238203   9.058   1.602   5.591
12773TIP3    H138204   9.003   1.567   5.519
12773TIP3    H238205   9.003   1.678   5.621
12774TIP3   OH238206   8.801   1.514   6.390
12774TIP3    H138207   8.738   1.580   6.426
12774TIP3    H238208   8.844   1.563   6.317
12775TIP3   OH238209   8.571   0.863   6.367
12775TIP3    H138210   8.641   0.928   6.387
12775TIP3    H238211   8.609   0.813   6.294
12776TIP3   OH238212   8.624   1.708   6.495
12776TIP3    H138213   8.600   1.790   6.448
12776TIP3    H238214   8.542   1.690   6.544
12777TIP3   OH238215   8.024   1.397   5.723
12777TIP3    H138216   7.985   1.421   5.638
12777TIP3    H238217   8.054   1.483   5.758
12778TIP3   OH238218   9.454   1.896   5.955
12778TIP3    H138219   9.363   1.899   5.992
12778TIP3    H238220   9.461   1.984   5.913
12779TIP3   OH238221   9.164   1.948   5.639
12779TIP3    H138222   9.224   1.874   5.619
12779TIP3    H238223   9.218   2.024   5.607
12780TIP3   OH238224   9.317   1.725   5.535
12780TIP3    H138225   9.236   1.670   5.533
12780TIP3    H238226   9.352   1.704   5.624
12781TIP3   OH238227   8.977   1.224   5.564
12781TIP3    H138228   8.895   1.271   5.539
12781TIP3    H238229   9.022   1.214   5.478
12782TIP3   OH238230   8.937   1.009   5.282
12782TIP3    H138231   9.014   1.053   5.325
12782TIP3    H238232   8.982   0.935   5.237
12783TIP3   OH238233   9.340   1.298   5.545
12783TIP3    H138234   9.272   1.326   5.611
12783TIP3    H238235   9.418   1.296   5.604
12784TIP3   OH238236   9.571   1.351   6.429
12784TIP3    H138237   9.557   1.426   6.488
12784TIP3    H238238   9.483   1.341   6.388
12785TIP3   OH238239   8.564   1.302   5.952
12785TIP3    H138240   8.519   1.243   5.886
12785TIP3    H238241   8.637   1.244   5.981
12786TIP3   OH238242   8.687   1.706   6.104
12786TIP3    H138243   8.669   1.667   6.017
12786TIP3    H238244   8.779   1.675   6.120
12787TIP3   OH238245   8.695   1.269   6.311
12787TIP3    H138246   8.727   1.243   6.222
12787TIP3    H238247   8.741   1.354   6.325
12788TIP3   OH238248   9.215   1.913   6.080
12788TIP3    H138249   9.207   1.990   6.139
12788TIP3    H238250   9.208   1.837   6.142
12789TIP3   OH238251   8.835   1.828   6.630
12789TIP3    H138252   8.776   1.892   6.675
12789TIP3    H238253   8.770   1.773   6.583
12790TIP3   OH238254   9.169   1.153   5.370
12790TIP3    H138255   9.236   1.203   5.421
12790TIP3    H238256   9.199   1.171   5.278
12791TIP3   OH238257   8.574   1.405   6.723
12791TIP3    H138258   8.583   1.483   6.782
12791TIP3    H238259   8.483   1.377   6.740
12792TIP3   OH238260   8.909   1.839   5.640
12792TIP3    H138261   8.991   1.890   5.654
12792TIP3    H238262   8.851   1.904   5.598
12793TIP3   OH238263   8.630   1.998   6.715
12793TIP3    H138264   8.597   2.000   6.623
12793TIP3    H238265   8.549   1.981   6.767
12794TIP3   OH238266   8.425   1.152   5.761
12794TIP3    H138267   8.356   1.184   5.699
12794TIP3    H238268   8.403   1.058   5.768
12795TIP3   OH238269   8.062   1.722   6.318
12795TIP3    H138270   8.152   1.717   6.283
12795TIP3    H238271   8.053   1.816   6.337
12796TIP3   OH238272   9.035   1.958   6.487
12796TIP3    H138273   9.034   2.051   6.518
12796TIP3    H238274   8.963   1.918   6.541
12797TIP3   OH238275   8.792   2.085   5.439
12797TIP3    H138276   8.748   2.066   5.354
12797TIP3    H238277   8.762   2.176   5.460
12798TIP3   OH238278   8.232   1.936   5.821
12798TIP3    H138279   8.279   1.925   5.906
12798TIP3    H238280   8.174   1.858   5.823
12799TIP3   OH238281   8.997   1.988   5.080
12799TIP3    H138282   9.058   1.918   5.046
12799TIP3    H238283   9.030   1.998   5.172
12800TIP3   OH238284   9.044   2.035   5.350
12800TIP3    H138285   8.956   2.044   5.393
12800TIP3    H238286   9.097   1.998   5.422
12801TIP3   OH238287   8.394   1.684   6.666
12801TIP3    H138288   8.455   1.696   6.742
12801TIP3    H238289   8.387   1.588   6.665
12802TIP3   OH238290   9.250   1.200   5.109
12802TIP3    H138291   9.220   1.179   5.018
12802TIP3    H238292   9.293   1.286   5.095
12803TIP3   OH238293   8.752   1.046   6.462
12803TIP3    H138294   8.692   1.070   6.535
12803TIP3    H238295   8.739   1.123   6.403
12804TIP3   OH238296   8.613   0.961   5.961
12804TIP3    H138297   8.540   0.905   5.993
12804TIP3    H238298   8.640   0.912   5.880
12805TIP3   OH238299   9.121   1.028   5.685
12805TIP3    H138300   9.057   1.099   5.663
12805TIP3    H238301   9.171   1.025   5.602
12806TIP3   OH238302   9.294   1.328   6.747
12806TIP3    H138303   9.287   1.285   6.835
12806TIP3    H238304   9.386   1.358   6.746
12807TIP3   OH238305   9.266   1.041   5.942
12807TIP3    H138306   9.221   1.083   5.867
12807TIP3    H238307   9.301   0.962   5.900
12808TIP3   OH238308   8.555   1.090   6.658
12808TIP3    H138309   8.604   1.134   6.729
12808TIP3    H238310   8.526   1.007   6.698
12809TIP3   OH238311   9.284   1.304   6.354
12809TIP3    H138312   9.322   1.235   6.294
12809TIP3    H238313   9.257   1.248   6.430
12810TIP3   OH238314   8.386   0.810   6.039
12810TIP3    H138315   8.291   0.824   6.015
12810TIP3    H238316   8.397   0.716   6.022
12811TIP3   OH238317   8.675   0.833   5.725
12811TIP3    H138318   8.761   0.805   5.689
12811TIP3    H238319   8.616   0.824   5.648
12812TIP3   OH238320   8.489   0.847   5.504
12812TIP3    H138321   8.430   0.796   5.446
12812TIP3    H238322   8.552   0.882   5.437
12813TIP3   OH238323   9.609   2.527   6.448
12813TIP3    H138324   9.609   2.541   6.351
12813TIP3    H238325   9.680   2.587   6.474
12814TIP3   OH238326   8.574   1.642   6.873
12814TIP3    H138327   8.656   1.666   6.921
12814TIP3    H238328   8.511   1.635   6.947
12815TIP3   OH238329   9.043   1.089   6.133
12815TIP3    H138330   9.108   1.040   6.082
12815TIP3    H238331   9.040   1.037   6.216
12816TIP3   OH238332   9.023   0.988   6.411
12816TIP3    H138333   8.932   1.013   6.436
12816TIP3    H238334   9.078   1.040   6.473
12817TIP3   OH238335   8.750   1.375   5.511
12817TIP3    H138336   8.679   1.307   5.501
12817TIP3    H238337   8.732   1.406   5.603
12818TIP3   OH238338   9.159   1.690   6.509
12818TIP3    H138339   9.173   1.667   6.602
12818TIP3    H238340   9.118   1.778   6.514
12819TIP3   OH238341   8.446   1.396   6.187
12819TIP3    H138342   8.483   1.370   6.100
12819TIP3    H238343   8.485   1.329   6.245
12820TIP3   OH238344   8.899   1.522   5.334
12820TIP3    H138345   8.852   1.609   5.341
12820TIP3    H238346   8.842   1.466   5.392
12821TIP3   OH238347   8.315   1.343   6.808
12821TIP3    H138348   8.341   1.309   6.896
12821TIP3    H238349   8.253   1.276   6.776
12822TIP3   OH238350   9.050   1.438   6.819
12822TIP3    H138351   8.991   1.385   6.764
12822TIP3    H238352   9.136   1.415   6.779
12823TIP3   OH238353   9.312   1.948   6.407
12823TIP3    H138354   9.215   1.948   6.416
12823TIP3    H238355   9.337   2.006   6.482
12824TIP3   OH238356   9.439   1.809   5.199
12824TIP3    H138357   9.411   1.791   5.290
12824TIP3    H238358   9.363   1.779   5.148
12825TIP3   OH238359   9.388   1.481   6.058
12825TIP3    H138360   9.304   1.433   6.067
12825TIP3    H238361   9.453   1.410   6.048
12826TIP3   OH238362   8.545   1.699   5.818
12826TIP3    H138363   8.550   1.779   5.762
12826TIP3    H238364   8.450   1.680   5.815
12827TIP3   OH238365   8.110   0.999   5.516
12827TIP3    H138366   8.158   1.082   5.534
12827TIP3    H238367   8.033   1.008   5.577
12828TIP3   OH238368   8.687   1.466   5.759
12828TIP3    H138369   8.651   1.554   5.780
12828TIP3    H238370   8.651   1.413   5.832
12829TIP3   OH238371   8.814   2.041   6.285
12829TIP3    H138372   8.853   2.114   6.232
12829TIP3    H238373   8.893   2.007   6.329
12830TIP3   OH238374   8.467   1.937   5.667
12830TIP3    H138375   8.380   1.946   5.711
12830TIP3    H238376   8.499   2.030   5.669
12831TIP3   OH238377   9.206   1.679   6.236
12831TIP3    H138378   9.204   1.669   6.333
12831TIP3    H238379   9.280   1.622   6.210
12832TIP3   OH238380   9.170   1.574   5.128
12832TIP3    H138381   9.225   1.539   5.201
12832TIP3    H238382   9.081   1.547   5.157
12833TIP3   OH238383   9.442   2.211   6.294
12833TIP3    H138384   9.362   2.157   6.276
12833TIP3    H238385   9.437   2.275   6.220
12834TIP3   OH238386   9.339   1.482   5.328
12834TIP3    H138387   9.329   1.425   5.406
12834TIP3    H238388   9.415   1.536   5.355
12835TIP3   OH238389   8.248   1.905   6.460
12835TIP3    H138390   8.320   1.840   6.462
12835TIP3    H238391   8.290   1.983   6.498
12836TIP3   OH238392   8.545   1.551   5.123
12836TIP3    H138393   8.557   1.459   5.093
12836TIP3    H238394   8.526   1.537   5.218
12837TIP3   OH238395   8.489   1.554   5.396
12837TIP3    H138396   8.561   1.526   5.454
12837TIP3    H238397   8.495   1.652   5.402
12838TIP3   OH238398   8.222   1.246   5.595
12838TIP3    H138399   8.159   1.292   5.654
12838TIP3    H238400   8.240   1.316   5.530
12839TIP3   OH238401   8.755   1.752   5.345
12839TIP3    H138402   8.669   1.781   5.379
12839TIP3    H238403   8.773   1.822   5.280
12840TIP3   OH238404   8.971   0.806   5.756
12840TIP3    H138405   9.010   0.894   5.739
12840TIP3    H238406   8.927   0.819   5.841
12841TIP3   OH238407   9.212   1.139   6.557
12841TIP3    H138408   9.234   1.195   6.633
12841TIP3    H238409   9.288   1.077   6.551
12842TIP3   OH238410   8.498   1.827   5.411
12842TIP3    H138411   8.468   1.896   5.347
12842TIP3    H238412   8.482   1.872   5.497
12843TIP3   OH238413   8.216   1.460   5.405
12843TIP3    H138414   8.282   1.531   5.412
12843TIP3    H238415   8.261   1.404   5.338
12844TIP3   OH238416   8.139   0.709   5.521
12844TIP3    H138417   8.180   0.798   5.522
12844TIP3    H238418   8.054   0.728   5.561
12845TIP3   OH238419   9.488   2.188   5.894
12845TIP3    H138420   9.452   2.238   5.818
12845TIP3    H238421   9.568   2.144   5.854
12846TIP3   OH238422   8.090   1.677   5.796
12846TIP3    H138423   8.011   1.706   5.843
12846TIP3    H238424   8.071   1.712   5.707
12847TIP3   OH238425   8.249   2.221   6.865
12847TIP3    H138426   8.336   2.228   6.911
12847TIP3    H238427   8.230   2.128   6.880
12848TIP3   OH238428   8.727   2.177   6.910
12848TIP3    H138429   8.822   2.161   6.916
12848TIP3    H238430   8.704   2.122   6.833
12849TIP3   OH238431   8.708   1.755   5.038
12849TIP3    H138432   8.652   1.683   5.075
12849TIP3    H238433   8.782   1.702   5.002
12850TIP3   OH238434   9.358   2.089   6.644
12850TIP3    H138435   9.353   2.015   6.708
12850TIP3    H238436   9.439   2.135   6.672
12851TIP3   OH238437   9.149   1.794   4.959
12851TIP3    H138438   9.178   1.710   5.000
12851TIP3    H238439   9.187   1.791   4.869
12852TIP3   OH238440   8.374   1.612   7.062
12852TIP3    H138441   8.406   1.520   7.063
12852TIP3    H238442   8.279   1.599   7.074
12853TIP3   OH238443   8.351   1.272   5.257
12853TIP3    H138444   8.406   1.235   5.328
12853TIP3    H238445   8.419   1.279   5.186
12854TIP3   OH238446   8.983   1.712   6.838
12854TIP3    H138447   8.942   1.727   6.751
12854TIP3    H238448   9.016   1.619   6.831
12855TIP3   OH238449   8.861   1.470   5.064
12855TIP3    H138450   8.862   1.483   5.161
12855TIP3    H238451   8.860   1.372   5.060
12856TIP3   OH238452   9.483   1.719   6.441
12856TIP3    H138453   9.531   1.755   6.364
12856TIP3    H238454   9.402   1.773   6.437
12857TIP3   OH238455   8.496   1.350   7.045
12857TIP3    H138456   8.569   1.290   7.026
12857TIP3    H238457   8.520   1.378   7.136
12858TIP3   OH238458   8.562   1.173   5.481
12858TIP3    H138459   8.538   1.129   5.564
12858TIP3    H238460   8.596   1.098   5.428
12859TIP3   OH238461   8.804   1.257   6.694
12859TIP3    H138462   8.726   1.320   6.696
12859TIP3    H238463   8.856   1.293   6.620
12860TIP3   OH238464   8.658   0.969   5.320
12860TIP3    H138465   8.633   0.969   5.226
12860TIP3    H238466   8.755   0.973   5.313
12861TIP3   OH238467   9.343   1.641   6.840
12861TIP3    H138468   9.429   1.630   6.798
12861TIP3    H238469   9.349   1.578   6.915
12862TIP3   OH238470   8.988   1.092   6.791
12862TIP3    H138471   8.955   1.004   6.757
12862TIP3    H238472   8.930   1.152   6.747
12863TIP3   OH238473   8.984   1.358   6.522
12863TIP3    H138474   9.064   1.346   6.468
12863TIP3    H238475   8.932   1.422   6.468
12864TIP3   OH238476   9.615   1.576   6.626
12864TIP3    H138477   9.556   1.630   6.569
12864TIP3    H238478   9.696   1.579   6.573
12865TIP3   OH238479   8.811   1.157   7.054
12865TIP3    H138480   8.744   1.086   7.054
12865TIP3    H238481   8.870   1.128   6.983
12866TIP3   OH238482   9.275   1.178   6.970
12866TIP3    H138483   9.189   1.164   7.012
12866TIP3    H238484   9.281   1.098   6.914
12867TIP3   OH238485   8.467   2.029   5.224
12867TIP3    H138486   8.563   2.027   5.204
12867TIP3    H238487   8.436   2.077   5.145
12868TIP3   OH238488   7.948   1.410   5.443
12868TIP3    H138489   8.043   1.433   5.427
12868TIP3    H238490   7.943   1.322   5.400
12869TIP3   OH238491   7.860   2.025   5.851
12869TIP3    H138492   7.793   1.963   5.816
12869TIP3    H238493   7.905   1.968   5.917
12870TIP3   OH238494   7.996   1.880   6.037
12870TIP3    H138495   7.981   1.804   6.095
12870TIP3    H238496   8.048   1.938   6.095
12871TIP3   OH238497   9.607   1.994   6.174
12871TIP3    H138498   9.541   2.060   6.201
12871TIP3    H238499   9.565   1.953   6.096
12872TIP3   OH238500   8.180   1.289   6.413
12872TIP3    H138501   8.180   1.255   6.321
12872TIP3    H238502   8.277   1.290   6.430
12873TIP3   OH238503   8.177   0.941   6.493
12873TIP3    H138504   8.223   0.923   6.409
12873TIP3    H238505   8.210   1.030   6.511
12874TIP3   OH238506   9.288   2.156   5.527
12874TIP3    H138507   9.324   2.127   5.439
12874TIP3    H238508   9.359   2.214   5.558
12875TIP3   OH238509   8.405   1.947   6.887
12875TIP3    H138510   8.332   1.885   6.882
12875TIP3    H238511   8.433   1.937   6.979
12876TIP3   OH238512   8.583   1.979   6.430
12876TIP3    H138513   8.541   2.058   6.390
12876TIP3    H238514   8.670   1.987   6.388
12877TIP3   OH238515   9.034   2.223   6.571
12877TIP3    H138516   9.078   2.227   6.659
12877TIP3    H238517   9.099   2.272   6.516
12878TIP3   OH238518   9.211   2.372   6.427
12878TIP3    H138519   9.281   2.324   6.380
12878TIP3    H238520   9.265   2.431   6.485
12879TIP3   OH238521   8.263   2.227   6.458
12879TIP3    H138522   8.175   2.262   6.432
12879TIP3    H238523   8.277   2.276   6.540
12880TIP3   OH238524   8.499   2.212   6.312
12880TIP3    H138525   8.413   2.228   6.356
12880TIP3    H238526   8.482   2.247   6.222
12881TIP3   OH238527   8.925   2.242   6.111
12881TIP3    H138528   8.859   2.265   6.042
12881TIP3    H238529   8.940   2.330   6.152
12882TIP3   OH238530   9.193   2.183   6.163
12882TIP3    H138531   9.100   2.201   6.140
12882TIP3    H238532   9.240   2.256   6.119
12883TIP3   OH238533   9.394   2.369   6.079
12883TIP3    H138534   9.381   2.456   6.036
12883TIP3    H238535   9.430   2.315   6.005
12884TIP3   OH238536   8.176   2.029   6.197
12884TIP3    H138537   8.204   2.016   6.289
12884TIP3    H238538   8.250   1.986   6.148
12885TIP3   OH238539   8.370   1.900   6.057
12885TIP3    H138540   8.390   1.815   6.101
12885TIP3    H238541   8.460   1.939   6.049
12886TIP3   OH238542   8.634   1.997   6.059
12886TIP3    H138543   8.668   1.907   6.041
12886TIP3    H238544   8.680   2.017   6.142
12887TIP3   OH238545   7.963   1.800   5.592
12887TIP3    H138546   7.879   1.767   5.556
12887TIP3    H238547   7.953   1.895   5.572
12888TIP3   OH238548   8.736   1.991   5.173
12888TIP3    H138549   8.824   2.014   5.136
12888TIP3    H238550   8.714   1.916   5.114
12889TIP3   OH238551   9.377   2.071   5.291
12889TIP3    H138552   9.429   1.998   5.254
12889TIP3    H238553   9.366   2.127   5.212
12890TIP3   OH238554   8.040   1.826   5.230
12890TIP3    H138555   8.042   1.855   5.322
12890TIP3    H238556   8.129   1.785   5.219
12891TIP3   OH238557   9.650   2.258   6.468
12891TIP3    H138558   9.587   2.217   6.405
12891TIP3    H238559   9.628   2.353   6.454
12892TIP3   OH238560   1.605   2.155   7.422
12892TIP3    H138561   1.578   2.248   7.403
12892TIP3    H238562   1.526   2.108   7.391
12893TIP3   OH238563   1.600   2.155   7.803
12893TIP3    H138564   1.634   2.129   7.891
12893TIP3    H238565   1.559   2.073   7.772
12894TIP3   OH238566   0.943   2.089   8.174
12894TIP3    H138567   0.974   2.010   8.222
12894TIP3    H238568   1.026   2.136   8.157
12895TIP3   OH238569   1.844   2.458   7.485
12895TIP3    H138570   1.834   2.389   7.552
12895TIP3    H238571   1.875   2.534   7.538
12896TIP3   OH238572   0.873   2.457   7.895
12896TIP3    H138573   0.864   2.359   7.898
12896TIP3    H238574   0.970   2.466   7.886
12897TIP3   OH238575   1.494   2.920   7.500
12897TIP3    H138576   1.541   2.848   7.452
12897TIP3    H238577   1.490   2.885   7.589
12898TIP3   OH238578   1.402   2.380   7.852
12898TIP3    H138579   1.440   2.304   7.805
12898TIP3    H238580   1.485   2.426   7.876
12899TIP3   OH238581   2.412   1.703   7.848
12899TIP3    H138582   2.441   1.784   7.896
12899TIP3    H238583   2.436   1.727   7.757
12900TIP3   OH238584   1.816   1.885   7.884
12900TIP3    H138585   1.857   1.799   7.904
12900TIP3    H238586   1.783   1.869   7.793
12901TIP3   OH238587   1.846   1.632   7.474
12901TIP3    H138588   1.920   1.618   7.538
12901TIP3    H238589   1.896   1.670   7.399
12902TIP3   OH238590   1.239   1.953   7.745
12902TIP3    H138591   1.330   1.922   7.765
12902TIP3    H238592   1.196   1.869   7.716
12903TIP3   OH238593   2.484   1.906   8.021
12903TIP3    H138594   2.402   1.958   8.004
12903TIP3    H238595   2.507   1.936   8.110
12904TIP3   OH238596   1.498   2.378   7.291
12904TIP3    H138597   1.453   2.356   7.208
12904TIP3    H238598   1.453   2.462   7.314
12905TIP3   OH238599   1.255   2.302   8.080
12905TIP3    H138600   1.193   2.368   8.117
12905TIP3    H238601   1.300   2.353   8.010
12906TIP3   OH238602   2.059   1.633   7.645
12906TIP3    H138603   2.042   1.594   7.732
12906TIP3    H238604   2.111   1.712   7.669
12907TIP3   OH238605   1.079   2.494   8.180
12907TIP3    H138606   1.054   2.579   8.139
12907TIP3    H238607   0.999   2.475   8.232
12908TIP3   OH238608   0.520   2.196   7.402
12908TIP3    H138609   0.444   2.211   7.345
12908TIP3    H238610   0.512   2.269   7.466
12909TIP3   OH238611   1.915   2.699   7.650
12909TIP3    H138612   1.825   2.692   7.689
12909TIP3    H238613   1.911   2.786   7.607
12910TIP3   OH238614   2.207   1.597   8.010
12910TIP3    H138615   2.121   1.637   7.987
12910TIP3    H238616   2.267   1.634   7.942
12911TIP3   OH238617   1.619   2.747   7.326
12911TIP3    H138618   1.670   2.666   7.305
12911TIP3    H238619   1.678   2.814   7.285
12912TIP3   OH238620   1.762   2.532   7.231
12912TIP3    H138621   1.720   2.453   7.196
12912TIP3    H238622   1.798   2.499   7.317
12913TIP3   OH238623   2.142   2.614   7.997
12913TIP3    H138624   2.134   2.537   7.937
12913TIP3    H238625   2.128   2.689   7.936
12914TIP3   OH238626   1.433   2.007   7.252
12914TIP3    H138627   1.353   2.058   7.230
12914TIP3    H238628   1.480   2.005   7.166
12915TIP3   OH238629   1.394   1.790   6.974
12915TIP3    H138630   1.463   1.841   7.020
12915TIP3    H238631   1.450   1.729   6.923
12916TIP3   OH238632   2.337   2.247   7.838
12916TIP3    H138633   2.256   2.302   7.845
12916TIP3    H238634   2.368   2.274   7.749
12917TIP3   OH238635   1.782   2.090   7.225
12917TIP3    H138636   1.727   2.115   7.303
12917TIP3    H238637   1.865   2.064   7.270
12918TIP3   OH238638   2.017   2.130   8.137
12918TIP3    H138639   2.016   2.213   8.188
12918TIP3    H238640   1.931   2.136   8.091
12919TIP3   OH238641   1.025   2.098   7.648
12919TIP3    H138642   0.990   2.043   7.576
12919TIP3    H238643   1.102   2.045   7.677
12920TIP3   OH238644   1.142   2.496   7.792
12920TIP3    H138645   1.123   2.455   7.706
12920TIP3    H238646   1.233   2.466   7.810
12921TIP3   OH238647   1.146   2.074   7.973
12921TIP3    H138648   1.188   2.046   7.889
12921TIP3    H238649   1.198   2.153   7.998
12922TIP3   OH238650   1.674   2.698   7.772
12922TIP3    H138651   1.661   2.777   7.827
12922TIP3    H238652   1.662   2.624   7.835
12923TIP3   OH238653   1.287   2.618   8.320
12923TIP3    H138654   1.226   2.680   8.365
12923TIP3    H238655   1.223   2.563   8.271
12924TIP3   OH238656   1.625   1.946   7.052
12924TIP3    H138657   1.683   2.006   7.104
12924TIP3    H238658   1.650   1.971   6.960
12925TIP3   OH238659   1.046   2.184   8.424
12925TIP3    H138660   1.036   2.268   8.473
12925TIP3    H238661   0.955   2.167   8.395
12926TIP3   OH238662   1.365   2.628   7.326
12926TIP3    H138663   1.444   2.682   7.345
12926TIP3    H238664   1.304   2.693   7.288
12927TIP3   OH238665   1.082   2.786   8.405
12927TIP3    H138666   1.050   2.787   8.313
12927TIP3    H238667   1.001   2.765   8.456
12928TIP3   OH238668   2.137   1.189   7.099
12928TIP3    H138669   2.057   1.210   7.150
12928TIP3    H238670   2.151   1.273   7.050
12929TIP3   OH238671   0.902   1.941   7.445
12929TIP3    H138672   0.839   1.998   7.395
12929TIP3    H238673   0.847   1.917   7.521
12930TIP3   OH238674   1.936   2.557   6.645
12930TIP3    H138675   1.944   2.654   6.634
12930TIP3    H238676   2.029   2.529   6.634
12931TIP3   OH238677   0.504   2.507   7.994
12931TIP3    H138678   0.596   2.482   7.974
12931TIP3    H238679   0.520   2.589   8.044
12932TIP3   OH238680   2.384   2.958   8.049
12932TIP3    H138681   2.380   2.861   8.057
12932TIP3    H238682   2.299   2.983   8.089
12933TIP3   OH238683   1.487   2.746   8.176
12933TIP3    H138684   1.485   2.839   8.207
12933TIP3    H238685   1.415   2.706   8.230
12934TIP3   OH238686   1.246   2.874   7.128
12934TIP3    H138687   1.200   2.856   7.044
12934TIP3    H238688   1.214   2.964   7.151
12935TIP3   OH238689   0.686   2.725   7.511
12935TIP3    H138690   0.733   2.715   7.596
12935TIP3    H238691   0.625   2.648   7.516
12936TIP3   OH238692   1.449   2.775   6.769
12936TIP3    H138693   1.507   2.705   6.733
12936TIP3    H238694   1.482   2.784   6.860
12937TIP3   OH238695   1.498   2.823   7.039
12937TIP3    H138696   1.410   2.832   7.081
12937TIP3    H238697   1.549   2.783   7.111
12938TIP3   OH238698   2.272   2.091   8.315
12938TIP3    H138699   2.190   2.102   8.266
12938TIP3    H238700   2.286   1.994   8.309
12939TIP3   OH238701   0.860   2.480   8.350
12939TIP3    H138702   0.919   2.475   8.428
12939TIP3    H238703   0.784   2.430   8.382
12940TIP3   OH238704   1.789   1.429   8.334
12940TIP3    H138705   1.876   1.409   8.376
12940TIP3    H238706   1.735   1.444   8.412
12941TIP3   OH238707   2.036   1.864   8.233
12941TIP3    H138708   1.992   1.861   8.321
12941TIP3    H238709   2.015   1.954   8.202
12942TIP3   OH238710   1.701   1.994   6.796
12942TIP3    H138711   1.666   1.970   6.708
12942TIP3    H238712   1.778   2.048   6.771
12943TIP3   OH238713   1.403   1.373   7.106
12943TIP3    H138714   1.367   1.385   7.197
12943TIP3    H238715   1.391   1.278   7.097
12944TIP3   OH238716   1.242   1.866   8.125
12944TIP3    H138717   1.173   1.861   8.194
12944TIP3    H238718   1.205   1.936   8.067
12945TIP3   OH238719   1.098   1.738   7.653
12945TIP3    H138720   1.057   1.672   7.710
12945TIP3    H238721   1.113   1.690   7.570
12946TIP3   OH238722   1.575   1.812   7.384
12946TIP3    H138723   1.521   1.883   7.344
12946TIP3    H238724   1.628   1.782   7.307
12947TIP3   OH238725   1.747   2.089   8.473
12947TIP3    H138726   1.731   2.016   8.537
12947TIP3    H238727   1.841   2.107   8.492
12948TIP3   OH238728   1.730   1.837   7.626
12948TIP3    H138729   1.671   1.870   7.555
12948TIP3    H238730   1.761   1.755   7.582
12949TIP3   OH238731   1.739   2.086   8.046
12949TIP3    H138732   1.773   2.013   7.988
12949TIP3    H238733   1.713   2.034   8.125
12950TIP3   OH238734   1.412   1.561   7.720
12950TIP3    H138735   1.330   1.561   7.772
12950TIP3    H238736   1.479   1.558   7.791
12951TIP3   OH238737   1.118   1.621   7.404
12951TIP3    H138738   1.215   1.611   7.414
12951TIP3    H238739   1.111   1.649   7.312
12952TIP3   OH238740   1.899   1.620   7.917
12952TIP3    H138741   1.872   1.632   8.011
12952TIP3    H238742   1.830   1.559   7.887
12953TIP3   OH238743   2.069   3.311   8.142
12953TIP3    H138744   2.069   3.330   8.046
12953TIP3    H238745   2.151   3.357   8.171
12954TIP3   OH238746   1.017   2.420   8.573
12954TIP3    H138747   1.104   2.449   8.607
12954TIP3    H238748   0.967   2.420   8.655
12955TIP3   OH238749   1.496   1.875   7.819
12955TIP3    H138750   1.567   1.831   7.771
12955TIP3    H238751   1.502   1.834   7.908
12956TIP3   OH238752   1.486   1.762   8.087
12956TIP3    H138753   1.400   1.804   8.113
12956TIP3    H238754   1.546   1.803   8.152
12957TIP3   OH238755   1.206   2.161   7.200
12957TIP3    H138756   1.131   2.098   7.187
12957TIP3    H238757   1.188   2.194   7.292
12958TIP3   OH238758   2.108   2.397   7.831
12958TIP3    H138759   2.133   2.446   7.750
12958TIP3    H238760   2.021   2.358   7.807
12959TIP3   OH238761   1.659   1.473   7.062
12959TIP3    H138762   1.562   1.463   7.071
12959TIP3    H238763   1.673   1.568   7.083
12960TIP3   OH238764   1.601   2.476   8.199
12960TIP3    H138765   1.630   2.454   8.288
12960TIP3    H238766   1.569   2.568   8.208
12961TIP3   OH238767   1.734   1.717   7.164
12961TIP3    H138768   1.830   1.727   7.182
12961TIP3    H238769   1.714   1.798   7.113
12962TIP3   OH238770   0.891   2.175   7.882
12962TIP3    H138771   0.930   2.153   7.795
12962TIP3    H238772   0.956   2.136   7.943
12963TIP3   OH238773   1.351   2.311   7.023
12963TIP3    H138774   1.304   2.397   7.030
12963TIP3    H238775   1.297   2.255   7.082
12964TIP3   OH238776   1.504   2.219   8.508
12964TIP3    H138777   1.450   2.162   8.450
12964TIP3    H238778   1.593   2.186   8.486
12965TIP3   OH238779   1.765   2.737   8.097
12965TIP3    H138780   1.669   2.737   8.108
12965TIP3    H238781   1.793   2.791   8.174
12966TIP3   OH238782   2.178   1.807   7.001
12966TIP3    H138783   2.114   1.763   6.940
12966TIP3    H238784   2.172   1.898   6.963
12967TIP3   OH238785   2.392   2.664   8.088
12967TIP3    H138786   2.294   2.661   8.078
12967TIP3    H238787   2.419   2.637   7.997
12968TIP3   OH238788   1.874   2.630   6.911
12968TIP3    H138789   1.850   2.561   6.974
12968TIP3    H238790   1.886   2.581   6.828
12969TIP3   OH238791   1.870   2.260   7.750
12969TIP3    H138792   1.777   2.233   7.764
12969TIP3    H238793   1.906   2.180   7.706
12970TIP3   OH238794   0.998   2.486   7.503
12970TIP3    H138795   1.000   2.568   7.450
12970TIP3    H238796   0.903   2.472   7.511
12971TIP3   OH238797   1.138   2.254   7.445
12971TIP3    H138798   1.103   2.344   7.463
12971TIP3    H238799   1.107   2.207   7.525
12972TIP3   OH238800   1.267   2.830   7.973
12972TIP3    H138801   1.306   2.902   7.921
12972TIP3    H238802   1.345   2.796   8.020
12973TIP3   OH238803   0.919   2.724   7.356
12973TIP3    H138804   0.833   2.733   7.401
12973TIP3    H238805   0.951   2.817   7.358
12974TIP3   OH238806   1.657   2.465   7.930
12974TIP3    H138807   1.648   2.462   8.028
12974TIP3    H238808   1.738   2.414   7.917
12975TIP3   OH238809   1.629   2.355   6.813
12975TIP3    H138810   1.682   2.331   6.892
12975TIP3    H238811   1.541   2.330   6.843
12976TIP3   OH238812   1.903   3.001   7.983
12976TIP3    H138813   1.825   2.943   7.971
12976TIP3    H238814   1.891   3.065   7.910
12977TIP3   OH238815   1.970   2.833   6.633
12977TIP3    H138816   2.009   2.907   6.584
12977TIP3    H238817   1.889   2.878   6.666
12978TIP3   OH238818   1.790   2.289   7.028
12978TIP3    H138819   1.780   2.224   7.101
12978TIP3    H238820   1.887   2.289   7.018
12979TIP3   OH238821   0.700   2.687   8.133
12979TIP3    H138822   0.764   2.621   8.163
12979TIP3    H238823   0.724   2.763   8.188
12980TIP3   OH238824   0.997   2.338   6.813
12980TIP3    H138825   1.011   2.246   6.783
12980TIP3    H238826   0.978   2.325   6.908
12981TIP3   OH238827   0.942   2.342   7.086
12981TIP3    H138828   1.013   2.317   7.147
12981TIP3    H238829   0.945   2.440   7.091
12982TIP3   OH238830   0.698   2.029   7.291
12982TIP3    H138831   0.632   2.078   7.346
12982TIP3    H238832   0.707   2.092   7.218
12983TIP3   OH238833   1.831   1.662   8.177
12983TIP3    H138834   1.904   1.711   8.219
12983TIP3    H238835   1.815   1.589   8.238
12984TIP3   OH238836   1.713   1.427   7.338
12984TIP3    H138837   1.694   1.453   7.246
12984TIP3    H238838   1.749   1.510   7.377
12985TIP3   OH238839   1.207   2.540   7.034
12985TIP3    H138840   1.120   2.568   7.069
12985TIP3    H238841   1.225   2.612   6.972
12986TIP3   OH238842   1.394   1.618   7.455
12986TIP3    H138843   1.460   1.687   7.434
12986TIP3    H238844   1.404   1.610   7.553
12987TIP3   OH238845   1.673   1.924   8.254
12987TIP3    H138846   1.680   1.981   8.333
12987TIP3    H238847   1.728   1.848   8.279
12988TIP3   OH238848   1.550   1.332   7.544
12988TIP3    H138849   1.527   1.405   7.604
12988TIP3    H238850   1.609   1.376   7.478
12989TIP3   OH238851   0.949   2.615   7.101
12989TIP3    H138852   0.920   2.684   7.037
12989TIP3    H238853   0.934   2.659   7.187
12990TIP3   OH238854   2.304   1.822   8.237
12990TIP3    H138855   2.206   1.819   8.241
12990TIP3    H238856   2.319   1.789   8.148
12991TIP3   OH238857   1.957   2.017   7.623
12991TIP3    H138858   1.881   1.958   7.639
12991TIP3    H238859   2.029   1.972   7.672
12992TIP3   OH238860   0.664   2.248   7.091
12992TIP3    H138861   0.729   2.319   7.104
12992TIP3    H238862   0.713   2.195   7.025
12993TIP3   OH238863   1.932   2.975   7.573
12993TIP3    H138864   1.888   3.020   7.498
12993TIP3    H238865   2.026   2.995   7.552
12994TIP3   OH238866   0.544   2.473   7.502
12994TIP3    H138867   0.456   2.503   7.529
12994TIP3    H238868   0.539   2.493   7.407
12995TIP3   OH238869   0.717   3.011   8.530
12995TIP3    H138870   0.790   3.010   8.594
12995TIP3    H238871   0.677   2.924   8.543
12996TIP3   OH238872   1.178   2.969   8.596
12996TIP3    H138873   1.273   2.949   8.604
12996TIP3    H238874   1.154   2.912   8.521
12997TIP3   OH238875   1.160   2.542   6.726
12997TIP3    H138876   1.104   2.471   6.765
12997TIP3    H238877   1.235   2.489   6.693
12998TIP3   OH238878   1.813   2.877   8.333
12998TIP3    H138879   1.808   2.802   8.396
12998TIP3    H238880   1.896   2.922   8.360
12999TIP3   OH238881   1.597   2.583   6.637
12999TIP3    H138882   1.641   2.520   6.695
12999TIP3    H238883   1.654   2.584   6.558
13000TIP3   OH238884   0.809   2.059   6.948
13000TIP3    H138885   0.865   2.027   7.021
13000TIP3    H238886   0.876   2.062   6.876
13001TIP3   OH238887   1.438   2.491   8.524
13001TIP3    H138888   1.398   2.505   8.436
13001TIP3    H238889   1.471   2.399   8.518
13002TIP3   OH238890   1.313   2.258   6.753
13002TIP3    H138891   1.315   2.271   6.850
13002TIP3    H238892   1.313   2.159   6.749
13003TIP3   OH238893   1.927   2.500   8.131
13003TIP3    H138894   2.003   2.543   8.088
13003TIP3    H238895   1.858   2.568   8.118
13004TIP3   OH238896   1.009   1.965   7.164
13004TIP3    H138897   0.993   1.932   7.254
13004TIP3    H238898   1.046   1.886   7.118
13005TIP3   OH238899   1.267   2.023   8.395
13005TIP3    H138900   1.203   2.096   8.406
13005TIP3    H238901   1.322   2.053   8.319
13006TIP3   OH238902   1.116   1.753   7.020
13006TIP3    H138903   1.083   1.750   6.928
13006TIP3    H238904   1.212   1.763   7.005
13007TIP3   OH238905   1.798   2.426   8.531
13007TIP3    H138906   1.881   2.406   8.486
13007TIP3    H238907   1.800   2.362   8.604
13008TIP3   OH238908   1.939   2.088   6.669
13008TIP3    H138909   1.912   2.041   6.588
13008TIP3    H238910   1.906   2.178   6.647
13009TIP3   OH238911   1.444   1.824   8.502
13009TIP3    H138912   1.391   1.751   8.467
13009TIP3    H238913   1.379   1.896   8.491
13010TIP3   OH238914   1.436   2.142   8.214
13010TIP3    H138915   1.515   2.137   8.159
13010TIP3    H238916   1.381   2.207   8.165
13011TIP3   OH238917   2.014   2.103   8.579
13011TIP3    H138918   2.063   2.026   8.612
13011TIP3    H238919   2.087   2.163   8.555
13012TIP3   OH238920   2.058   2.356   8.319
13012TIP3    H138921   2.001   2.410   8.260
13012TIP3    H238922   2.146   2.375   8.280
13013TIP3   OH238923   1.682   1.870   8.624
13013TIP3    H138924   1.649   1.894   8.712
13013TIP3    H238925   1.598   1.850   8.577
13014TIP3   OH238926   1.902   1.808   8.461
13014TIP3    H138927   1.833   1.820   8.529
13014TIP3    H238928   1.980   1.784   8.516
13015TIP3   OH238929   2.128   1.750   8.611
13015TIP3    H138930   2.147   1.658   8.638
13015TIP3    H238931   2.118   1.796   8.698
13016TIP3   OH238932   0.920   2.816   6.913
13016TIP3    H138933   1.015   2.815   6.893
13016TIP3    H238934   0.888   2.866   6.835
13017TIP3   OH238935   0.402   2.169   7.143
13017TIP3    H138936   0.489   2.214   7.134
13017TIP3    H238937   0.422   2.083   7.101
13018TIP3   OH238938   0.322   2.806   7.529
13018TIP3    H138939   0.234   2.769   7.525
13018TIP3    H238940   0.361   2.759   7.606
13019TIP3   OH238941   0.440   2.674   7.735
13019TIP3    H138942   0.444   2.595   7.790
13019TIP3    H238943   0.496   2.735   7.787
13020TIP3   OH238944   2.185   3.085   7.525
13020TIP3    H138945   2.210   3.086   7.619
13020TIP3    H238946   2.260   3.132   7.486
13021TIP3   OH238947   2.203   3.084   7.808
13021TIP3    H138948   2.169   2.992   7.813
13021TIP3    H238949   2.293   3.070   7.842
13022TIP3   OH238950   2.253   2.762   8.384
13022TIP3    H138951   2.180   2.770   8.448
13022TIP3    H238952   2.295   2.849   8.389
13023TIP3   OH238953   2.071   2.273   7.004
13023TIP3    H138954   2.139   2.338   6.979
13023TIP3    H238955   2.112   2.234   7.084
13024TIP3   OH238956   2.197   2.140   7.207
13024TIP3    H138957   2.132   2.099   7.269
13024TIP3    H238958   2.263   2.179   7.268
13025TIP3   OH238959   2.247   2.532   7.638
13025TIP3    H138960   2.305   2.472   7.588
13025TIP3    H238961   2.242   2.610   7.579
13026TIP3   OH238962   2.082   2.831   7.837
13026TIP3    H138963   2.011   2.874   7.888
13026TIP3    H238964   2.032   2.783   7.768
13027TIP3   OH238965   2.136   2.047   6.856
13027TIP3    H138966   2.064   2.053   6.789
13027TIP3    H238967   2.111   2.124   6.912
13028TIP3   OH238968   2.011   1.720   6.806
13028TIP3    H138969   1.961   1.763   6.736
13028TIP3    H238970   1.982   1.627   6.795
13029TIP3   OH238971   2.011   1.996   7.355
13029TIP3    H138972   2.020   1.900   7.354
13029TIP3    H238973   1.998   2.014   7.451
13030TIP3   OH238974   2.299   2.421   8.211
13030TIP3    H138975   2.373   2.356   8.203
13030TIP3    H238976   2.330   2.493   8.153
13031TIP3   OH238977   2.486   2.229   8.229
13031TIP3    H138978   2.412   2.178   8.269
13031TIP3    H238979   2.560   2.166   8.243
13032TIP3   OH238980   1.951   1.454   6.793
13032TIP3    H138981   2.023   1.425   6.852
13032TIP3    H238982   1.875   1.398   6.819
13033TIP3   OH238983   2.006   1.712   7.251
13033TIP3    H138984   2.048   1.624   7.266
13033TIP3    H238985   2.065   1.748   7.183
13034TIP3   OH238986   2.169   1.887   7.744
13034TIP3    H138987   2.255   1.914   7.705
13034TIP3    H238988   2.181   1.925   7.834
13035TIP3   OH238989   2.235   2.030   7.977
13035TIP3    H138990   2.159   2.066   8.027
13035TIP3    H238991   2.269   2.111   7.932
13036TIP3   OH238992   2.679   1.612   8.532
13036TIP3    H138993   2.744   1.553   8.488
13036TIP3    H238994   2.661   1.679   8.464
13037TIP3   OH238995   2.119   1.463   7.286
13037TIP3    H138996   2.166   1.448   7.371
13037TIP3    H238997   2.057   1.387   7.286
13038TIP3   OH238998   2.563   1.766   8.339
13038TIP3    H138999   2.477   1.803   8.367
13038TIP3    H239000   2.533   1.692   8.283
13039TIP3   OH239001   2.197   1.399   6.920
13039TIP3    H139002   2.237   1.327   6.868
13039TIP3    H239003   2.264   1.470   6.913
13040TIP3   OH239004   1.760   2.930   7.187
13040TIP3    H139005   1.814   2.915   7.106
13040TIP3    H239006   1.814   2.995   7.235
13041TIP3   OH239007   0.857   2.723   8.565
13041TIP3    H139008   0.776   2.673   8.548
13041TIP3    H239009   0.864   2.724   8.661
13042TIP3   OH239010   1.040   2.766   8.121
13042TIP3    H139011   0.992   2.842   8.082
13042TIP3    H239012   1.125   2.779   8.076
13043TIP3   OH239013   1.487   3.012   8.258
13043TIP3    H139014   1.530   3.015   8.345
13043TIP3    H239015   1.552   3.061   8.204
13044TIP3   OH239016   1.666   3.161   8.116
13044TIP3    H139017   1.738   3.111   8.074
13044TIP3    H239018   1.718   3.220   8.176
13045TIP3   OH239019   2.460   1.526   8.217
13045TIP3    H139020   2.369   1.520   8.186
13045TIP3    H239021   2.491   1.433   8.204
13046TIP3   OH239022   0.717   3.020   8.146
13046TIP3    H139023   0.628   3.054   8.122
13046TIP3    H239024   0.726   3.057   8.235
13047TIP3   OH239025   0.953   3.001   8.001
13047TIP3    H139026   0.867   3.015   8.047
13047TIP3    H239027   0.933   3.036   7.912
13048TIP3   OH239028   1.379   3.032   7.799
13048TIP3    H139029   1.310   3.053   7.733
13048TIP3    H239030   1.393   3.119   7.842
13049TIP3   OH239031   1.648   2.970   7.851
13049TIP3    H139032   1.554   2.988   7.830
13049TIP3    H239033   1.692   3.046   7.809
13050TIP3   OH239034   1.852   3.162   7.766
13050TIP3    H139035   1.839   3.247   7.718
13050TIP3    H239036   1.883   3.103   7.693
13051TIP3   OH239037   0.626   2.812   7.885
13051TIP3    H139038   0.649   2.795   7.979
13051TIP3    H239039   0.702   2.770   7.840
13052TIP3   OH239040   0.824   2.687   7.745
13052TIP3    H139041   0.841   2.603   7.793
13052TIP3    H239042   0.913   2.726   7.740
13053TIP3   OH239043   1.088   2.784   7.748
13053TIP3    H139044   1.120   2.693   7.735
13053TIP3    H239045   1.131   2.806   7.832
13054TIP3   OH239046   1.671   1.437   7.832
13054TIP3    H139047   1.629   1.353   7.853
13054TIP3    H239048   1.748   1.407   7.780
13055TIP3   OH239049   2.187   1.311   7.736
13055TIP3    H139050   2.227   1.369   7.668
13055TIP3    H239051   2.094   1.342   7.737
13056TIP3   OH239052   2.284   1.420   7.504
13056TIP3    H139053   2.359   1.371   7.465
13056TIP3    H239054   2.316   1.512   7.491
13057TIP3   OH239055   1.902   1.325   7.719
13057TIP3    H139056   1.896   1.293   7.628
13057TIP3    H239057   1.888   1.243   7.771
13058TIP3   OH239058   1.933   1.252   7.276
13058TIP3    H139059   1.848   1.299   7.290
13058TIP3    H239060   1.914   1.167   7.321
13059TIP3   OH239061   0.404   2.587   7.289
13059TIP3    H139062   0.348   2.548   7.221
13059TIP3    H239063   0.396   2.682   7.266
13060TIP3   OH239064   1.308   1.379   7.367
13060TIP3    H139065   1.366   1.315   7.411
13060TIP3    H239066   1.345   1.464   7.400
13061TIP3   OH239067   1.189   2.779   6.862
13061TIP3    H139068   1.277   2.801   6.826
13061TIP3    H239069   1.166   2.703   6.803
13062TIP3   OH239070   1.908   2.896   6.954
13062TIP3    H139071   1.899   2.799   6.941
13062TIP3    H239072   1.862   2.930   6.875
13063TIP3   OH239073   0.492   2.610   6.923
13063TIP3    H139074   0.496   2.655   7.008
13063TIP3    H239075   0.583   2.574   6.912
13064TIP3   OH239076   2.198   1.481   8.654
13064TIP3    H139077   2.226   1.422   8.726
13064TIP3    H239078   2.280   1.485   8.600
13065TIP3   OH239079   2.132   3.040   8.146
13065TIP3    H139080   2.055   3.010   8.095
13065TIP3    H239081   2.117   3.137   8.145
13066TIP3   OH239082   3.402   2.412   6.906
13066TIP3    H139083   3.376   2.505   6.890
13066TIP3    H239084   3.318   2.366   6.888
13067TIP3   OH239085   3.397   2.410   7.290
13067TIP3    H139086   3.431   2.387   7.378
13067TIP3    H239087   3.356   2.326   7.263
13068TIP3   OH239088   2.699   2.308   7.655
13068TIP3    H139089   2.730   2.241   7.719
13068TIP3    H239090   2.773   2.369   7.655
13069TIP3   OH239091   3.640   2.715   6.972
13069TIP3    H139092   3.631   2.646   7.039
13069TIP3    H239093   3.670   2.790   7.025
13070TIP3   OH239094   2.666   2.713   7.382
13070TIP3    H139095   2.660   2.616   7.386
13070TIP3    H239096   2.763   2.726   7.380
13071TIP3   OH239097   2.378   1.921   7.164
13071TIP3    H139098   2.333   2.006   7.182
13071TIP3    H239099   2.304   1.868   7.130
13072TIP3   OH239100   2.435   2.206   7.333
13072TIP3    H139101   2.485   2.133   7.374
13072TIP3    H239102   2.502   2.246   7.275
13073TIP3   OH239103   3.290   3.177   6.985
13073TIP3    H139104   3.339   3.104   6.942
13073TIP3    H239105   3.282   3.144   7.076
13074TIP3   OH239106   3.199   2.637   7.335
13074TIP3    H139107   3.240   2.559   7.293
13074TIP3    H239108   3.282   2.683   7.361
13075TIP3   OH239109   4.209   1.960   7.335
13075TIP3    H139110   4.238   2.041   7.382
13075TIP3    H239111   4.232   1.982   7.243
13076TIP3   OH239112   3.613   2.142   7.370
13076TIP3    H139113   3.651   2.056   7.394
13076TIP3    H239114   3.580   2.124   7.280
13077TIP3   OH239115   2.939   1.800   7.337
13077TIP3    H139116   2.927   1.873   7.272
13077TIP3    H239117   2.886   1.730   7.295
13078TIP3   OH239118   3.640   1.884   6.957
13078TIP3    H139119   3.711   1.870   7.025
13078TIP3    H239120   3.694   1.924   6.886
13079TIP3   OH239121   2.582   2.003   7.442
13079TIP3    H139122   2.664   1.984   7.492
13079TIP3    H239123   2.596   1.946   7.364
13080TIP3   OH239124   3.024   2.199   7.231
13080TIP3    H139125   3.117   2.174   7.249
13080TIP3    H239126   2.986   2.114   7.202
13081TIP3   OH239127   4.282   2.165   7.505
13081TIP3    H139128   4.199   2.213   7.489
13081TIP3    H239129   4.300   2.191   7.597
13082TIP3   OH239130   2.943   1.787   7.772
13082TIP3    H139131   2.883   1.824   7.705
13082TIP3    H239132   2.892   1.804   7.854
13083TIP3   OH239133   3.295   2.636   6.777
13083TIP3    H139134   3.247   2.614   6.696
13083TIP3    H239135   3.252   2.720   6.802
13084TIP3   OH239136   3.050   2.557   7.565
13084TIP3    H139137   2.987   2.622   7.604
13084TIP3    H239138   3.094   2.611   7.497
13085TIP3   OH239139   3.851   1.892   7.129
13085TIP3    H139140   3.840   1.844   7.212
13085TIP3    H239141   3.905   1.968   7.157
13086TIP3   OH239142   2.813   1.899   7.556
13086TIP3    H139143   2.875   1.972   7.580
13086TIP3    H239144   2.864   1.857   7.483
13087TIP3   OH239145   2.879   2.751   7.659
13087TIP3    H139146   2.853   2.838   7.624
13087TIP3    H239147   2.802   2.735   7.718
13088TIP3   OH239148   2.276   2.441   6.900
13088TIP3    H139149   2.232   2.471   6.818
13088TIP3    H239150   2.305   2.527   6.938
13089TIP3   OH239151   3.712   2.956   7.137
13089TIP3    H139152   3.623   2.947   7.178
13089TIP3    H239153   3.705   3.043   7.095
13090TIP3   OH239154   4.004   1.858   7.501
13090TIP3    H139155   3.916   1.889   7.475
13090TIP3    H239156   4.062   1.890   7.429
13091TIP3   OH239157   3.417   3.004   6.813
13091TIP3    H139158   3.468   2.923   6.792
13091TIP3    H239159   3.475   3.071   6.772
13092TIP3   OH239160   3.560   2.788   6.718
13092TIP3    H139161   3.514   2.709   6.686
13092TIP3    H239162   3.595   2.756   6.804
13093TIP3   OH239163   3.939   2.872   7.482
13093TIP3    H139164   3.929   2.794   7.424
13093TIP3    H239165   3.923   2.946   7.420
13094TIP3   OH239166   3.225   2.256   6.735
13094TIP3    H139167   3.148   2.315   6.717
13094TIP3    H239168   3.280   2.268   6.655
13095TIP3   OH239169   3.190   2.045   6.451
13095TIP3    H139170   3.247   2.094   6.513
13095TIP3    H239171   3.257   1.991   6.405
13096TIP3   OH239172   4.134   2.505   7.325
13096TIP3    H139173   4.052   2.559   7.333
13096TIP3    H239174   4.164   2.530   7.235
13097TIP3   OH239175   3.578   2.344   6.711
13097TIP3    H139176   3.523   2.370   6.789
13097TIP3    H239177   3.661   2.319   6.756
13098TIP3   OH239178   3.813   2.387   7.622
13098TIP3    H139179   3.812   2.469   7.675
13098TIP3    H239180   3.726   2.394   7.577
13099TIP3   OH239181   2.812   2.343   7.126
13099TIP3    H139182   2.775   2.284   7.058
13099TIP3    H239183   2.890   2.292   7.157
13100TIP3   OH239184   2.942   2.758   7.276
13100TIP3    H139185   2.922   2.709   7.195
13100TIP3    H239186   3.033   2.726   7.296
13101TIP3   OH239187   2.946   2.317   7.479
13101TIP3    H139188   2.984   2.298   7.391
13101TIP3    H239189   2.990   2.402   7.504
13102TIP3   OH239190   3.472   2.953   7.259
13102TIP3    H139191   3.458   3.033   7.313
13102TIP3    H239192   3.458   2.880   7.323
13103TIP3   OH239193   3.083   2.873   7.805
13103TIP3    H139194   3.024   2.935   7.852
13103TIP3    H239195   3.017   2.820   7.756
13104TIP3   OH239196   3.420   2.205   6.537
13104TIP3    H139197   3.479   2.263   6.591
13104TIP3    H239198   3.447   2.232   6.446
13105TIP3   OH239199   2.837   2.430   7.904
13105TIP3    H139200   2.843   2.516   7.951
13105TIP3    H239201   2.742   2.411   7.916
13106TIP3   OH239202   3.163   2.884   6.807
13106TIP3    H139203   3.240   2.938   6.832
13106TIP3    H239204   3.098   2.950   6.780
13107TIP3   OH239205   2.879   3.042   7.893
13107TIP3    H139206   2.842   3.040   7.802
13107TIP3    H239207   2.800   3.020   7.947
13108TIP3   OH239208   3.933   1.446   6.584
13108TIP3    H139209   3.854   1.465   6.638
13108TIP3    H239210   3.946   1.531   6.537
13109TIP3   OH239211   2.682   2.184   6.920
13109TIP3    H139212   2.611   2.232   6.872
13109TIP3    H239213   2.634   2.108   6.955
13110TIP3   OH239214   3.733   2.813   6.133
13110TIP3    H139215   3.741   2.910   6.120
13110TIP3    H239216   3.826   2.784   6.120
13111TIP3   OH239217   2.456   2.571   7.843
13111TIP3    H139218   2.395   2.549   7.770
13111TIP3    H239219   2.495   2.484   7.866
13112TIP3   OH239220   2.316   2.769   7.474
13112TIP3    H139221   2.411   2.755   7.462
13112TIP3    H239222   2.320   2.839   7.542
13113TIP3   OH239223   4.177   3.214   7.526
13113TIP3    H139224   4.176   3.118   7.543
13113TIP3    H239225   4.095   3.240   7.573
13114TIP3   OH239226   3.282   3.003   7.662
13114TIP3    H139227   3.282   3.095   7.696
13114TIP3    H239228   3.211   2.963   7.717
13115TIP3   OH239229   3.042   3.132   6.614
13115TIP3    H139230   2.995   3.114   6.531
13115TIP3    H239231   3.009   3.221   6.638
13116TIP3   OH239232   2.477   2.980   6.992
13116TIP3    H139233   2.533   2.969   7.073
13116TIP3    H239234   2.415   2.906   7.006
13117TIP3   OH239235   3.244   3.031   6.256
13117TIP3    H139236   3.304   2.961   6.220
13117TIP3    H239237   3.278   3.041   6.347
13118TIP3   OH239238   3.294   3.079   6.526
13118TIP3    H139239   3.206   3.089   6.569
13118TIP3    H239240   3.346   3.040   6.598
13119TIP3   OH239241   4.069   2.347   7.802
13119TIP3    H139242   3.986   2.360   7.755
13119TIP3    H239243   4.082   2.251   7.793
13120TIP3   OH239244   2.669   2.748   7.830
13120TIP3    H139245   2.716   2.733   7.915
13120TIP3    H239246   2.590   2.692   7.838
13121TIP3   OH239247   3.047   1.576   7.621
13121TIP3    H139248   2.957   1.550   7.596
13121TIP3    H239249   3.031   1.662   7.663
13122TIP3   OH239250   3.598   1.709   7.816
13122TIP3    H139251   3.662   1.663   7.872
13122TIP3    H239252   3.513   1.668   7.841
13123TIP3   OH239253   3.838   2.124   7.726
13123TIP3    H139254   3.788   2.119   7.810
13123TIP3    H239255   3.811   2.211   7.690
13124TIP3   OH239256   3.488   2.252   6.277
13124TIP3    H139257   3.464   2.225   6.187
13124TIP3    H239258   3.571   2.301   6.260
13125TIP3   OH239259   3.201   1.647   6.568
13125TIP3    H139260   3.224   1.658   6.661
13125TIP3    H239261   3.184   1.552   6.557
13126TIP3   OH239262   2.992   2.094   7.630
13126TIP3    H139263   2.945   2.116   7.713
13126TIP3    H239264   2.976   2.175   7.577
13127TIP3   OH239265   2.876   1.979   7.141
13127TIP3    H139266   2.784   1.951   7.160
13127TIP3    H239267   2.893   1.931   7.057
13128TIP3   OH239268   3.368   2.064   6.871
13128TIP3    H139269   3.313   2.135   6.831
13128TIP3    H239270   3.425   2.039   6.796
13129TIP3   OH239271   3.542   2.343   7.957
13129TIP3    H139272   3.521   2.272   8.021
13129TIP3    H239273   3.634   2.363   7.983
13130TIP3   OH239274   3.528   2.093   7.112
13130TIP3    H139275   3.467   2.123   7.042
13130TIP3    H239276   3.557   2.009   7.072
13131TIP3   OH239277   2.811   2.123   7.841
13131TIP3    H139278   2.841   2.186   7.908
13131TIP3    H239279   2.802   2.041   7.894
13132TIP3   OH239280   2.845   1.600   6.584
13132TIP3    H139281   2.841   1.671   6.649
13132TIP3    H239282   2.779   1.635   6.521
13133TIP3   OH239283   2.407   1.644   7.417
13133TIP3    H139284   2.477   1.679   7.476
13133TIP3    H239285   2.456   1.612   7.341
13134TIP3   OH239286   2.382   1.629   6.935
13134TIP3    H139287   2.425   1.673   6.859
13134TIP3    H239288   2.320   1.699   6.963
13135TIP3   OH239289   3.533   2.342   7.533
13135TIP3    H139290   3.568   2.269   7.477
13135TIP3    H239291   3.507   2.290   7.613
13136TIP3   OH239292   3.200   1.806   7.203
13136TIP3    H139293   3.126   1.800   7.266
13136TIP3    H239294   3.277   1.793   7.263
13137TIP3   OH239295   2.639   1.856   7.213
13137TIP3    H139296   2.544   1.865   7.189
13137TIP3    H239297   2.661   1.764   7.188
13138TIP3   OH239298   2.919   1.842   6.907
13138TIP3    H139299   3.014   1.857   6.892
13138TIP3    H239300   2.875   1.869   6.824
13139TIP3   OH239301   3.695   1.877   7.407
13139TIP3    H139302   3.664   1.889   7.500
13139TIP3    H239303   3.629   1.815   7.374
13140TIP3   OH239304   2.757   1.864   6.678
13140TIP3    H139305   2.671   1.847   6.638
13140TIP3    H239306   2.802   1.916   6.608
13141TIP3   OH239307   3.861   3.566   7.627
13141TIP3    H139308   3.865   3.587   7.532
13141TIP3    H239309   3.945   3.607   7.658
13142TIP3   OH239310   2.826   2.673   8.053
13142TIP3    H139311   2.905   2.705   8.099
13142TIP3    H239312   2.760   2.677   8.125
13143TIP3   OH239313   3.288   2.131   7.305
13143TIP3    H139314   3.359   2.084   7.258
13143TIP3    H239315   3.293   2.090   7.394
13144TIP3   OH239316   2.808   1.613   7.177
13144TIP3    H139317   2.776   1.536   7.229
13144TIP3    H239318   2.898   1.586   7.153
13145TIP3   OH239319   3.265   2.030   7.589
13145TIP3    H139320   3.175   2.064   7.610
13145TIP3    H239321   3.323   2.085   7.644
13146TIP3   OH239322   3.003   2.416   6.688
13146TIP3    H139323   2.928   2.354   6.678
13146TIP3    H239324   2.986   2.452   6.779
13147TIP3   OH239325   3.903   2.654   7.318
13147TIP3    H139326   3.928   2.702   7.237
13147TIP3    H239327   3.817   2.614   7.295
13148TIP3   OH239328   3.462   1.735   6.541
13148TIP3    H139329   3.364   1.737   6.541
13148TIP3    H239330   3.485   1.827   6.567
13149TIP3   OH239331   3.400   2.735   7.686
13149TIP3    H139332   3.426   2.712   7.777
13149TIP3    H239333   3.362   2.823   7.696
13150TIP3   OH239334   3.533   1.974   6.646
13150TIP3    H139335   3.628   1.982   6.670
13150TIP3    H239336   3.516   2.058   6.599
13151TIP3   OH239337   2.688   2.430   7.365
13151TIP3    H139338   2.733   2.407   7.281
13151TIP3    H239339   2.737   2.376   7.429
13152TIP3   OH239340   3.143   2.565   6.504
13152TIP3    H139341   3.099   2.652   6.513
13152TIP3    H239342   3.091   2.512   6.568
13153TIP3   OH239343   2.574   2.359   7.978
13153TIP3    H139344   2.598   2.348   8.072
13153TIP3    H239345   2.506   2.291   7.967
13154TIP3   OH239346   3.300   2.473   7.998
13154TIP3    H139347   3.243   2.414   7.946
13154TIP3    H239348   3.389   2.442   7.972
13155TIP3   OH239349   3.561   2.996   7.580
13155TIP3    H139350   3.465   2.994   7.594
13155TIP3    H239351   3.590   3.046   7.659
13156TIP3   OH239352   3.972   2.065   6.491
13156TIP3    H139353   3.908   2.021   6.430
13156TIP3    H239354   3.969   2.154   6.450
13157TIP3   OH239355   4.189   2.923   7.572
13157TIP3    H139356   4.091   2.919   7.565
13157TIP3    H239357   4.215   2.894   7.482
13158TIP3   OH239358   3.667   2.887   6.397
13158TIP3    H139359   3.649   2.818   6.462
13158TIP3    H239360   3.684   2.837   6.315
13159TIP3   OH239361   3.667   2.517   7.234
13159TIP3    H139362   3.575   2.490   7.251
13159TIP3    H239363   3.702   2.436   7.193
13160TIP3   OH239364   2.791   2.737   6.979
13160TIP3    H139365   2.794   2.823   6.935
13160TIP3    H239366   2.703   2.738   7.018
13161TIP3   OH239367   2.359   2.047   6.695
13161TIP3    H139368   2.403   2.132   6.714
13161TIP3    H239369   2.280   2.054   6.754
13162TIP3   OH239370   2.935   2.508   6.932
13162TIP3    H139371   2.897   2.596   6.947
13162TIP3    H239372   2.900   2.459   7.009
13163TIP3   OH239373   3.057   3.093   7.461
13163TIP3    H139374   3.104   3.160   7.408
13163TIP3    H239375   3.130   3.054   7.512
13164TIP3   OH239376   2.713   2.982   6.839
13164TIP3    H139377   2.628   2.987   6.887
13164TIP3    H239378   2.744   3.075   6.846
13165TIP3   OH239379   3.453   2.721   7.418
13165TIP3    H139380   3.443   2.720   7.515
13165TIP3    H239381   3.535   2.671   7.407
13166TIP3   OH239382   3.425   2.609   6.301
13166TIP3    H139383   3.480   2.586   6.379
13166TIP3    H239384   3.337   2.590   6.336
13167TIP3   OH239385   3.701   3.254   7.469
13167TIP3    H139386   3.623   3.196   7.462
13167TIP3    H239387   3.684   3.318   7.397
13168TIP3   OH239388   3.766   3.089   6.120
13168TIP3    H139389   3.807   3.162   6.071
13168TIP3    H239390   3.686   3.135   6.153
13169TIP3   OH239391   2.787   1.866   7.988
13169TIP3    H139392   2.691   1.871   8.006
13169TIP3    H239393   2.817   1.807   8.060
13170TIP3   OH239394   3.585   2.542   6.514
13170TIP3    H139395   3.577   2.479   6.588
13170TIP3    H239396   3.683   2.545   6.504
13171TIP3   OH239397   2.471   2.925   7.656
13171TIP3    H139398   2.555   2.884   7.682
13171TIP3    H239399   2.501   3.010   7.617
13172TIP3   OH239400   2.794   2.595   6.298
13172TIP3    H139401   2.807   2.502   6.272
13172TIP3    H239402   2.777   2.586   6.394
13173TIP3   OH239403   2.742   2.598   6.570
13173TIP3    H139404   2.805   2.574   6.639
13173TIP3    H239405   2.742   2.696   6.577
13174TIP3   OH239406   2.473   2.293   6.774
13174TIP3    H139407   2.408   2.337   6.833
13174TIP3    H239408   2.487   2.364   6.709
13175TIP3   OH239409   3.623   1.933   7.665
13175TIP3    H139410   3.701   1.968   7.709
13175TIP3    H239411   3.604   1.853   7.719
13176TIP3   OH239412   3.502   1.685   6.822
13176TIP3    H139413   3.502   1.718   6.731
13176TIP3    H239414   3.543   1.760   6.870
13177TIP3   OH239415   3.003   2.796   6.517
13177TIP3    H139416   2.918   2.823   6.556
13177TIP3    H239417   3.022   2.873   6.463
13178TIP3   OH239418   3.194   1.854   6.924
13178TIP3    H139419   3.259   1.926   6.915
13178TIP3    H239420   3.197   1.838   7.021
13179TIP3   OH239421   3.462   2.179   7.742
13179TIP3    H139422   3.483   2.233   7.821
13179TIP3    H239423   3.517   2.101   7.756
13180TIP3   OH239424   3.340   1.585   7.028
13180TIP3    H139425   3.342   1.647   7.103
13180TIP3    H239426   3.395   1.634   6.963
13181TIP3   OH239427   2.745   2.871   6.587
13181TIP3    H139428   2.716   2.942   6.526
13181TIP3    H239429   2.730   2.913   6.674
13182TIP3   OH239430   4.104   2.078   7.722
13182TIP3    H139431   4.006   2.078   7.731
13182TIP3    H239432   4.113   2.038   7.635
13183TIP3   OH239433   3.753   2.274   7.110
13183TIP3    H139434   3.678   2.214   7.126
13183TIP3    H239435   3.825   2.228   7.159
13184TIP3   OH239436   2.464   2.504   6.583
13184TIP3    H139437   2.525   2.579   6.594
13184TIP3    H239438   2.512   2.453   6.514
13185TIP3   OH239439   2.415   1.778   6.701
13185TIP3    H139440   2.408   1.876   6.707
13185TIP3    H239441   2.323   1.754   6.682
13186TIP3   OH239442   3.721   3.228   7.060
13186TIP3    H139443   3.679   3.275   6.985
13186TIP3    H239444   3.815   3.248   7.041
13187TIP3   OH239445   2.784   1.498   7.591
13187TIP3    H139446   2.762   1.461   7.503
13187TIP3    H239447   2.784   1.418   7.648
13188TIP3   OH239448   2.333   2.708   6.969
13188TIP3    H139449   2.265   2.745   7.026
13188TIP3    H239450   2.314   2.754   6.884
13189TIP3   OH239451   2.487   3.253   8.051
13189TIP3    H139452   2.577   3.253   8.089
13189TIP3    H239453   2.472   3.158   8.037
13190TIP3   OH239454   2.977   3.225   8.082
13190TIP3    H139455   3.070   3.201   8.092
13190TIP3    H239456   2.950   3.165   8.009
13191TIP3   OH239457   2.955   2.800   6.211
13191TIP3    H139458   2.900   2.730   6.252
13191TIP3    H239459   3.031   2.748   6.179
13192TIP3   OH239460   3.616   3.128   7.815
13192TIP3    H139461   3.605   3.058   7.883
13192TIP3    H239462   3.693   3.178   7.847
13193TIP3   OH239463   3.392   2.839   6.122
13193TIP3    H139464   3.440   2.779   6.182
13193TIP3    H239465   3.449   2.841   6.044
13194TIP3   OH239466   2.623   2.664   8.242
13194TIP3    H139467   2.641   2.569   8.244
13194TIP3    H239468   2.535   2.666   8.197
13195TIP3   OH239469   2.601   2.314   6.432
13195TIP3    H139470   2.655   2.287   6.509
13195TIP3    H239471   2.671   2.323   6.364
13196TIP3   OH239472   3.231   2.748   8.014
13196TIP3    H139473   3.190   2.763   7.927
13196TIP3    H239474   3.264   2.656   8.007
13197TIP3   OH239475   3.109   2.505   6.237
13197TIP3    H139476   3.112   2.526   6.333
13197TIP3    H239477   3.097   2.409   6.239
13198TIP3   OH239478   3.723   2.755   7.616
13198TIP3    H139479   3.798   2.803   7.575
13198TIP3    H239480   3.652   2.821   7.607
13199TIP3   OH239481   2.741   2.396   8.221
13199TIP3    H139482   2.818   2.340   8.202
13199TIP3    H239483   2.765   2.430   8.310
13200TIP3   OH239484   2.805   2.218   6.654
13200TIP3    H139485   2.780   2.188   6.744
13200TIP3    H239486   2.843   2.138   6.615
13201TIP3   OH239487   3.075   2.280   7.881
13201TIP3    H139488   3.001   2.343   7.887
13201TIP3    H239489   3.125   2.315   7.804
13202TIP3   OH239490   2.910   2.005   6.499
13202TIP3    H139491   2.882   2.020   6.406
13202TIP3    H239492   3.006   2.022   6.493
13203TIP3   OH239493   3.591   2.682   8.016
13203TIP3    H139494   3.679   2.666   7.978
13203TIP3    H239495   3.591   2.619   8.091
13204TIP3   OH239496   3.729   2.343   6.159
13204TIP3    H139497   3.710   2.297   6.075
13204TIP3    H239498   3.700   2.434   6.135
13205TIP3   OH239499   3.200   2.070   8.011
13205TIP3    H139500   3.202   1.990   7.954
13205TIP3    H239501   3.157   2.135   7.952
13206TIP3   OH239502   3.204   1.858   7.817
13206TIP3    H139503   3.233   1.893   7.730
13206TIP3    H239504   3.111   1.833   7.798
13207TIP3   OH239505   3.230   2.392   7.690
13207TIP3    H139506   3.314   2.399   7.643
13207TIP3    H239507   3.176   2.461   7.646
13208TIP3   OH239508   3.814   2.360   8.071
13208TIP3    H139509   3.865   2.279   8.078
13208TIP3    H239510   3.882   2.425   8.047
13209TIP3   OH239511   3.855   2.610   7.802
13209TIP3    H139512   3.796   2.664   7.745
13209TIP3    H239513   3.942   2.632   7.763
13210TIP3   OH239514   3.079   2.183   8.239
13210TIP3    H139515   3.009   2.116   8.254
13210TIP3    H239516   3.114   2.157   8.152
13211TIP3   OH239517   3.338   1.621   7.885
13211TIP3    H139518   3.292   1.703   7.860
13211TIP3    H239519   3.268   1.554   7.869
13212TIP3   OH239520   3.461   2.126   8.100
13212TIP3    H139521   3.446   2.118   8.196
13212TIP3    H239522   3.372   2.100   8.068
13213TIP3   OH239523   3.701   2.074   7.952
13213TIP3    H139524   3.624   2.076   8.013
13213TIP3    H239525   3.773   2.044   8.010
13214TIP3   OH239526   3.933   2.015   8.101
13214TIP3    H139527   3.943   1.920   8.122
13214TIP3    H239528   3.925   2.056   8.191
13215TIP3   OH239529   2.917   1.964   8.292
13215TIP3    H139530   2.925   1.873   8.258
13215TIP3    H239531   2.952   1.953   8.382
13216TIP3   OH239532   3.431   1.629   8.143
13216TIP3    H139533   3.497   1.558   8.135
13216TIP3    H239534   3.393   1.627   8.053
13217TIP3   OH239535   3.499   1.846   8.295
13217TIP3    H139536   3.474   1.775   8.232
13217TIP3    H239537   3.421   1.905   8.291
13218TIP3   OH239538   2.715   3.073   6.398
13218TIP3    H139539   2.811   3.071   6.381
13218TIP3    H239540   2.686   3.123   6.320
13219TIP3   OH239541   2.195   2.457   6.614
13219TIP3    H139542   2.291   2.479   6.605
13219TIP3    H239543   2.191   2.368   6.574
13220TIP3   OH239544   2.110   3.068   7.031
13220TIP3    H139545   2.042   3.005   6.997
13220TIP3    H239546   2.155   3.011   7.098
13221TIP3   OH239547   2.246   2.919   7.219
13221TIP3    H139548   2.241   2.842   7.277
13221TIP3    H239549   2.288   2.982   7.279
13222TIP3   OH239550   3.972   3.324   7.015
13222TIP3    H139551   3.999   3.352   7.105
13222TIP3    H239552   4.039   3.366   6.959
13223TIP3   OH239553   4.005   3.341   7.297
13223TIP3    H139554   3.961   3.253   7.295
13223TIP3    H239555   4.078   3.322   7.357
13224TIP3   OH239556   4.049   3.017   7.871
13224TIP3    H139557   3.976   3.025   7.936
13224TIP3    H239558   4.090   3.106   7.877
13225TIP3   OH239559   3.866   2.531   6.491
13225TIP3    H139560   3.935   2.594   6.465
13225TIP3    H239561   3.907   2.491   6.571
13226TIP3   OH239562   3.992   2.398   6.694
13226TIP3    H139563   3.929   2.356   6.756
13226TIP3    H239564   4.060   2.436   6.755
13227TIP3   OH239565   4.045   2.788   7.125
13227TIP3    H139566   4.102   2.726   7.076
13227TIP3    H239567   4.037   2.863   7.063
13228TIP3   OH239568   3.879   3.091   7.321
13228TIP3    H139569   3.810   3.131   7.377
13228TIP3    H239570   3.827   3.041   7.255
13229TIP3   OH239571   3.931   2.305   6.343
13229TIP3    H139572   3.858   2.310   6.276
13229TIP3    H239573   3.907   2.381   6.399
13230TIP3   OH239574   3.799   1.979   6.299
13230TIP3    H139575   3.763   2.019   6.219
13230TIP3    H239576   3.775   1.885   6.287
13231TIP3   OH239577   3.806   2.253   6.842
13231TIP3    H139578   3.819   2.157   6.842
13231TIP3    H239579   3.793   2.271   6.938
13232TIP3   OH239580   2.435   2.328   7.588
13232TIP3    H139581   2.434   2.300   7.495
13232TIP3    H239582   2.532   2.329   7.605
13233TIP3   OH239583   4.097   2.679   7.697
13233TIP3    H139584   4.170   2.613   7.689
13233TIP3    H239585   4.127   2.750   7.639
13234TIP3   OH239586   4.283   2.486   7.715
13234TIP3    H139587   4.209   2.436   7.755
13234TIP3    H239588   4.356   2.422   7.729
13235TIP3   OH239589   3.747   1.712   6.283
13235TIP3    H139590   3.829   1.687   6.332
13235TIP3    H239591   3.682   1.649   6.316
13236TIP3   OH239592   3.801   1.968   6.735
13236TIP3    H139593   3.843   1.880   6.752
13236TIP3    H239594   3.862   2.003   6.669
13237TIP3   OH239595   3.966   2.145   7.231
13237TIP3    H139596   4.052   2.172   7.192
13237TIP3    H239597   3.978   2.181   7.321
13238TIP3   OH239598   4.032   2.287   7.464
13238TIP3    H139599   3.956   2.321   7.514
13238TIP3    H239600   4.065   2.369   7.420
13239TIP3   OH239601   2.650   2.014   8.258
13239TIP3    H139602   2.748   2.009   8.263
13239TIP3    H239603   2.626   1.931   8.304
13240TIP3   OH239604   4.485   1.876   8.021
13240TIP3    H139605   4.544   1.811   7.978
13240TIP3    H239606   4.459   1.933   7.946
13241TIP3   OH239607   3.912   1.719   6.774
13241TIP3    H139608   3.962   1.705   6.858
13241TIP3    H239609   3.853   1.640   6.775
13242TIP3   OH239610   2.609   1.709   7.591
13242TIP3    H139611   2.670   1.633   7.604
13242TIP3    H239612   2.673   1.783   7.589
13243TIP3   OH239613   2.415   1.980   7.666
13243TIP3    H139614   2.467   1.976   7.584
13243TIP3    H239615   2.443   2.065   7.702
13244TIP3   OH239616   4.358   2.019   7.829
13244TIP3    H139617   4.271   2.059   7.850
13244TIP3    H239618   4.330   1.948   7.768
13245TIP3   OH239619   3.993   1.659   6.402
13245TIP3    H139620   4.038   1.584   6.358
13245TIP3    H239621   4.062   1.727   6.402
13246TIP3   OH239622   2.396   1.476   7.160
13246TIP3    H139623   2.306   1.481   7.195
13246TIP3    H239624   2.395   1.541   7.087
13247TIP3   OH239625   3.556   3.188   6.672
13247TIP3    H139626   3.610   3.172   6.593
13247TIP3    H239627   3.610   3.251   6.722
13248TIP3   OH239628   2.617   1.563   7.982
13248TIP3    H139629   2.569   1.560   8.067
13248TIP3    H239630   2.549   1.603   7.924
13249TIP3   OH239631   2.661   2.988   8.061
13249TIP3    H139632   2.569   2.964   8.040
13249TIP3    H239633   2.665   2.973   8.156
13250TIP3   OH239634   2.825   3.020   7.611
13250TIP3    H139635   2.752   3.073   7.572
13250TIP3    H239636   2.901   3.051   7.558
13251TIP3   OH239637   3.283   3.269   7.744
13251TIP3    H139638   3.324   3.268   7.833
13251TIP3    H239639   3.351   3.319   7.694
13252TIP3   OH239640   3.463   3.420   7.601
13252TIP3    H139641   3.536   3.366   7.566
13252TIP3    H239642   3.512   3.477   7.664
13253TIP3   OH239643   4.256   1.781   7.704
13253TIP3    H139644   4.165   1.775   7.671
13253TIP3    H239645   4.287   1.688   7.691
13254TIP3   OH239646   3.177   3.290   7.283
13254TIP3    H139647   3.104   3.308   7.222
13254TIP3    H239648   3.188   3.376   7.328
13255TIP3   OH239649   3.444   3.227   7.334
13255TIP3    H139650   3.350   3.244   7.316
13255TIP3    H239651   3.486   3.307   7.297
13256TIP3   OH239652   3.653   3.421   7.253
13256TIP3    H139653   3.639   3.505   7.205
13256TIP3    H239654   3.678   3.360   7.181
13257TIP3   OH239655   2.628   2.926   7.205
13257TIP3    H139656   2.628   2.860   7.277
13257TIP3    H239657   2.696   2.988   7.236
13258TIP3   OH239658   2.894   3.048   7.229
13258TIP3    H139659   2.911   2.952   7.220
13258TIP3    H239660   2.932   3.063   7.318
13259TIP3   OH239661   3.459   1.713   7.301
13259TIP3    H139662   3.432   1.640   7.360
13259TIP3    H239663   3.534   1.667   7.261
13260TIP3   OH239664   3.986   1.572   7.225
13260TIP3    H139665   4.019   1.629   7.151
13260TIP3    H239666   3.890   1.590   7.223
13261TIP3   OH239667   4.079   1.680   6.989
13261TIP3    H139668   4.153   1.627   6.952
13261TIP3    H239669   4.114   1.771   6.976
13262TIP3   OH239670   2.711   1.404   7.335
13262TIP3    H139671   2.620   1.370   7.339
13262TIP3    H239672   2.762   1.321   7.336
13263TIP3   OH239673   2.493   1.273   6.988
13263TIP3    H139674   2.513   1.332   6.913
13263TIP3    H239675   2.463   1.338   7.056
13264TIP3   OH239676   3.141   1.454   7.212
13264TIP3    H139677   3.220   1.486   7.167
13264TIP3    H239678   3.172   1.457   7.304
13265TIP3   OH239679   3.704   1.573   7.212
13265TIP3    H139680   3.696   1.529   7.127
13265TIP3    H239681   3.665   1.507   7.273
13266TIP3   OH239682   3.728   1.503   6.763
13266TIP3    H139683   3.644   1.549   6.782
13266TIP3    H239684   3.717   1.422   6.817
13267TIP3   OH239685   2.215   2.843   6.765
13267TIP3    H139686   2.129   2.813   6.732
13267TIP3    H239687   2.203   2.939   6.755
13268TIP3   OH239688   2.592   1.429   6.747
13268TIP3    H139689   2.652   1.375   6.692
13268TIP3    H239690   2.650   1.495   6.786
13269TIP3   OH239691   2.984   3.036   6.348
13269TIP3    H139692   3.073   3.057   6.313
13269TIP3    H239693   2.963   2.960   6.290
13270TIP3   OH239694   3.704   3.153   6.441
13270TIP3    H139695   3.694   3.055   6.428
13270TIP3    H239696   3.659   3.186   6.361
13271TIP3   OH239697   2.918   1.686   8.229
13271TIP3    H139698   2.885   1.616   8.288
13271TIP3    H239699   3.012   1.688   8.256
13272TIP3   OH239700   3.168   1.685   8.350
13272TIP3    H139701   3.248   1.653   8.305
13272TIP3    H239702   3.152   1.613   8.415
13273TIP3   OH239703   2.288   2.872   6.407
13273TIP3    H139704   2.286   2.897   6.501
13273TIP3    H239705   2.378   2.832   6.398
13274TIP3   OH239706   3.991   1.746   8.139
13274TIP3    H139707   4.012   1.712   8.227
13274TIP3    H239708   4.078   1.742   8.093
13275TIP3   OH239709   3.933   3.299   7.625
13275TIP3    H139710   3.851   3.266   7.583
13275TIP3    H239711   3.912   3.394   7.633
13276TIP3   OH239712   5.195   2.667   6.396
13276TIP3    H139713   5.170   2.760   6.376
13276TIP3    H239714   5.116   2.621   6.364
13277TIP3   OH239715   5.189   2.669   6.778
13277TIP3    H139716   5.224   2.642   6.864
13277TIP3    H239717   5.151   2.586   6.744
13278TIP3   OH239718   4.494   2.565   7.142
13278TIP3    H139719   4.525   2.498   7.206
13278TIP3    H239720   4.572   2.623   7.137
13279TIP3   OH239721   5.435   2.972   6.459
13279TIP3    H139722   5.430   2.901   6.523
13279TIP3    H239723   5.473   3.044   6.512
13280TIP3   OH239724   4.465   2.973   6.866
13280TIP3    H139725   4.456   2.875   6.869
13280TIP3    H239726   4.561   2.982   6.864
13281TIP3   OH239727   4.173   2.178   6.652
13281TIP3    H139728   4.126   2.262   6.667
13281TIP3    H239729   4.100   2.124   6.616
13282TIP3   OH239730   4.231   2.463   6.820
13282TIP3    H139731   4.281   2.388   6.860
13282TIP3    H239732   4.296   2.497   6.756
13283TIP3   OH239733   5.088   3.435   6.475
13283TIP3    H139734   5.133   3.363   6.426
13283TIP3    H239735   5.083   3.396   6.564
13284TIP3   OH239736   4.995   2.895   6.825
13284TIP3    H139737   5.033   2.818   6.780
13284TIP3    H239738   5.078   2.940   6.848
13285TIP3   OH239739   6.007   2.215   6.822
13285TIP3    H139740   6.030   2.296   6.871
13285TIP3    H239741   6.024   2.243   6.730
13286TIP3   OH239742   5.404   2.397   6.859
13286TIP3    H139743   5.449   2.313   6.879
13286TIP3    H239744   5.375   2.381   6.767
13287TIP3   OH239745   4.742   2.056   6.824
13287TIP3    H139746   4.723   2.129   6.761
13287TIP3    H239747   4.693   1.983   6.779
13288TIP3   OH239748   5.438   2.145   6.446
13288TIP3    H139749   5.510   2.131   6.512
13288TIP3    H239750   5.488   2.183   6.372
13289TIP3   OH239751   4.378   2.259   6.930
13289TIP3    H139752   4.460   2.239   6.978
13289TIP3    H239753   4.391   2.203   6.850
13290TIP3   OH239754   4.819   2.456   6.721
13290TIP3    H139755   4.913   2.431   6.735
13290TIP3    H239756   4.780   2.372   6.690
13291TIP3   OH239757   6.073   2.416   6.998
13291TIP3    H139758   6.006   2.479   6.966
13291TIP3    H239759   6.103   2.462   7.079
13292TIP3   OH239760   4.741   2.039   7.256
13292TIP3    H139761   4.680   2.077   7.190
13292TIP3    H239762   4.690   2.056   7.338
13293TIP3   OH239763   5.085   2.886   6.268
13293TIP3    H139764   5.054   2.867   6.178
13293TIP3    H239765   5.041   2.971   6.285
13294TIP3   OH239766   4.847   2.814   7.053
13294TIP3    H139767   4.784   2.879   7.091
13294TIP3    H239768   4.891   2.866   6.983
13295TIP3   OH239769   5.650   2.149   6.618
13295TIP3    H139770   5.638   2.106   6.703
13295TIP3    H239771   5.704   2.226   6.642
13296TIP3   OH239772   4.610   2.155   7.042
13296TIP3    H139773   4.672   2.228   7.065
13296TIP3    H239774   4.660   2.113   6.968
13297TIP3   OH239775   4.674   3.007   7.149
13297TIP3    H139776   4.648   3.094   7.111
13297TIP3    H239777   4.596   2.992   7.207
13298TIP3   OH239778   4.071   2.699   6.387
13298TIP3    H139779   4.030   2.727   6.303
13298TIP3    H239780   4.102   2.784   6.424
13299TIP3   OH239781   5.506   3.218   6.628
13299TIP3    H139782   5.416   3.205   6.664
13299TIP3    H239783   5.496   3.305   6.584
13300TIP3   OH239784   5.800   2.109   6.984
13300TIP3    H139785   5.714   2.149   6.960
13300TIP3    H239786   5.860   2.146   6.916
13301TIP3   OH239787   5.098   1.758   6.970
13301TIP3    H139788   5.086   1.664   6.990
13301TIP3    H239789   5.020   1.796   7.017
13302TIP3   OH239790   5.209   3.263   6.300
13302TIP3    H139791   5.258   3.180   6.281
13302TIP3    H239792   5.270   3.327   6.256
13303TIP3   OH239793   5.349   3.049   6.205
13303TIP3    H139794   5.331   2.968   6.154
13303TIP3    H239795   5.383   3.011   6.290
13304TIP3   OH239796   5.737   3.132   6.973
13304TIP3    H139797   5.721   3.052   6.917
13304TIP3    H239798   5.721   3.203   6.907
13305TIP3   OH239799   5.022   2.520   6.224
13305TIP3    H139800   4.944   2.575   6.203
13305TIP3    H239801   5.074   2.526   6.142
13306TIP3   OH239802   4.984   2.304   5.947
13306TIP3    H139803   5.051   2.354   5.998
13306TIP3    H239804   5.042   2.244   5.896
13307TIP3   OH239805   5.373   2.598   6.200
13307TIP3    H139806   5.319   2.627   6.277
13307TIP3    H239807   5.457   2.575   6.245
13308TIP3   OH239808   5.610   2.642   7.111
13308TIP3    H139809   5.610   2.727   7.158
13308TIP3    H239810   5.527   2.650   7.061
13309TIP3   OH239811   4.606   2.601   6.616
13309TIP3    H139812   4.567   2.543   6.548
13309TIP3    H239813   4.684   2.549   6.645
13310TIP3   OH239814   4.737   3.014   6.763
13310TIP3    H139815   4.718   2.968   6.680
13310TIP3    H239816   4.827   2.982   6.783
13311TIP3   OH239817   4.742   2.573   6.968
13311TIP3    H139818   4.778   2.553   6.879
13311TIP3    H239819   4.786   2.658   6.990
13312TIP3   OH239820   5.262   3.211   6.745
13312TIP3    H139821   5.255   3.288   6.804
13312TIP3    H239822   5.254   3.135   6.806
13313TIP3   OH239823   4.880   3.130   7.292
13313TIP3    H139824   4.821   3.192   7.340
13313TIP3    H239825   4.814   3.076   7.245
13314TIP3   OH239826   5.216   2.458   6.026
13314TIP3    H139827   5.273   2.518   6.080
13314TIP3    H239828   5.243   2.483   5.935
13315TIP3   OH239829   4.634   2.687   7.392
13315TIP3    H139830   4.639   2.773   7.438
13315TIP3    H239831   4.539   2.667   7.403
13316TIP3   OH239832   4.954   3.145   6.300
13316TIP3    H139833   5.037   3.193   6.318
13316TIP3    H239834   4.897   3.213   6.264
13317TIP3   OH239835   4.675   3.299   7.380
13317TIP3    H139836   4.639   3.294   7.290
13317TIP3    H239837   4.596   3.277   7.435
13318TIP3   OH239838   5.730   1.703   6.072
13318TIP3    H139839   5.649   1.722   6.124
13318TIP3    H239840   5.742   1.787   6.024
13319TIP3   OH239841   4.474   2.443   6.418
13319TIP3    H139842   4.408   2.488   6.362
13319TIP3    H239843   4.432   2.359   6.435
13320TIP3   OH239844   5.532   3.071   5.619
13320TIP3    H139845   5.539   3.168   5.605
13320TIP3    H239846   5.624   3.041   5.606
13321TIP3   OH239847   4.254   2.828   7.327
13321TIP3    H139848   4.189   2.802   7.258
13321TIP3    H239849   4.292   2.741   7.354
13322TIP3   OH239850   4.108   3.022   6.957
13322TIP3    H139851   4.205   3.013   6.951
13322TIP3    H239852   4.100   3.098   7.016
13323TIP3   OH239853   5.973   3.471   7.013
13323TIP3    H139854   5.973   3.374   7.024
13323TIP3    H239855   5.889   3.494   7.060
13324TIP3   OH239856   5.078   3.260   7.149
13324TIP3    H139857   5.078   3.352   7.183
13324TIP3    H239858   5.008   3.219   7.204
13325TIP3   OH239859   4.836   3.388   6.101
13325TIP3    H139860   4.791   3.368   6.017
13325TIP3    H239861   4.805   3.477   6.123
13326TIP3   OH239862   4.276   3.237   6.486
13326TIP3    H139863   4.326   3.228   6.570
13326TIP3    H239864   4.219   3.159   6.490
13327TIP3   OH239865   5.047   3.276   5.742
13327TIP3    H139866   5.093   3.192   5.727
13327TIP3    H239867   5.076   3.296   5.834
13328TIP3   OH239868   5.089   3.337   6.010
13328TIP3    H139869   5.002   3.345   6.055
13328TIP3    H239870   5.141   3.291   6.078
13329TIP3   OH239871   5.862   2.601   7.287
13329TIP3    H139872   5.785   2.615   7.230
13329TIP3    H239873   5.876   2.505   7.278
13330TIP3   OH239874   4.459   3.011   7.316
13330TIP3    H139875   4.509   2.996   7.399
13330TIP3    H239876   4.385   2.947   7.325
13331TIP3   OH239877   4.858   1.835   7.098
13331TIP3    H139878   4.768   1.805   7.074
13331TIP3    H239879   4.835   1.918   7.144
13332TIP3   OH239880   5.392   1.949   7.294
13332TIP3    H139881   5.460   1.923   7.359
13332TIP3    H239882   5.308   1.929   7.340
13333TIP3   OH239883   5.629   2.376   7.208
13333TIP3    H139884   5.584   2.375   7.295
13333TIP3    H239885   5.610   2.466   7.175
13334TIP3   OH239886   5.292   2.497   5.768
13334TIP3    H139887   5.258   2.480   5.679
13334TIP3    H239888   5.352   2.572   5.753
13335TIP3   OH239889   5.004   1.884   6.070
13335TIP3    H139890   4.973   1.883   6.163
13335TIP3    H239891   4.966   1.800   6.039
13336TIP3   OH239892   4.789   2.350   7.117
13336TIP3    H139893   4.740   2.372   7.199
13336TIP3    H239894   4.773   2.431   7.064
13337TIP3   OH239895   4.674   2.236   6.631
13337TIP3    H139896   4.581   2.209   6.649
13337TIP3    H239897   4.688   2.194   6.543
13338TIP3   OH239898   5.162   2.321   6.357
13338TIP3    H139899   5.109   2.393   6.317
13338TIP3    H239900   5.218   2.295   6.282
13339TIP3   OH239901   5.338   2.602   7.447
13339TIP3    H139902   5.317   2.528   7.508
13339TIP3    H239903   5.433   2.615   7.467
13340TIP3   OH239904   5.321   2.349   6.600
13340TIP3    H139905   5.264   2.384   6.529
13340TIP3    H239906   5.352   2.268   6.557
13341TIP3   OH239907   4.608   2.379   7.327
13341TIP3    H139908   4.637   2.442   7.395
13341TIP3    H239909   4.597   2.297   7.379
13342TIP3   OH239910   4.657   1.854   6.036
13342TIP3    H139911   4.653   1.853   6.134
13342TIP3    H239912   4.579   1.909   6.015
13343TIP3   OH239913   4.203   1.903   6.904
13343TIP3    H139914   4.276   1.935   6.962
13343TIP3    H239915   4.250   1.868   6.827
13344TIP3   OH239916   4.175   1.881   6.425
13344TIP3    H139917   4.222   1.921   6.349
13344TIP3    H239918   4.116   1.956   6.449
13345TIP3   OH239919   5.324   2.597   7.020
13345TIP3    H139920   5.361   2.526   6.964
13345TIP3    H239921   5.301   2.546   7.100
13346TIP3   OH239922   4.998   2.057   6.693
13346TIP3    H139923   4.918   2.056   6.748
13346TIP3    H239924   5.069   2.059   6.761
13347TIP3   OH239925   4.436   2.114   6.702
13347TIP3    H139926   4.341   2.120   6.676
13347TIP3    H239927   4.461   2.022   6.679
13348TIP3   OH239928   4.706   2.109   6.389
13348TIP3    H139929   4.801   2.126   6.371
13348TIP3    H239930   4.661   2.134   6.306
13349TIP3   OH239931   5.492   2.134   6.893
13349TIP3    H139932   5.459   2.146   6.985
13349TIP3    H239933   5.425   2.073   6.858
13350TIP3   OH239934   4.544   2.143   6.168
13350TIP3    H139935   4.472   2.100   6.118
13350TIP3    H239936   4.597   2.180   6.094
13351TIP3   OH239937   5.662   3.824   7.114
13351TIP3    H139938   5.661   3.845   7.019
13351TIP3    H239939   5.741   3.871   7.145
13352TIP3   OH239940   4.620   2.933   7.536
13352TIP3    H139941   4.700   2.964   7.584
13352TIP3    H239942   4.555   2.932   7.609
13353TIP3   OH239943   5.084   2.384   6.789
13353TIP3    H139944   5.159   2.348   6.740
13353TIP3    H239945   5.097   2.345   6.877
13354TIP3   OH239946   4.605   1.875   6.668
13354TIP3    H139947   4.575   1.794   6.715
13354TIP3    H239948   4.664   1.838   6.600
13355TIP3   OH239949   5.061   2.281   7.083
13355TIP3    H139950   4.972   2.319   7.096
13355TIP3    H239951   5.120   2.341   7.133
13356TIP3   OH239952   4.790   2.670   6.175
13356TIP3    H139953   4.716   2.605   6.168
13356TIP3    H239954   4.776   2.705   6.267
13357TIP3   OH239955   5.675   2.923   6.820
13357TIP3    H139956   5.735   2.938   6.744
13357TIP3    H239957   5.604   2.870   6.780
13358TIP3   OH239958   5.255   1.990   6.029
13358TIP3    H139959   5.159   1.974   6.043
13358TIP3    H239960   5.268   2.082   6.059
13359TIP3   OH239961   5.195   2.990   7.173
13359TIP3    H139962   5.221   2.969   7.263
13359TIP3    H239963   5.158   3.080   7.181
13360TIP3   OH239964   5.327   2.230   6.138
13360TIP3    H139965   5.423   2.239   6.157
13360TIP3    H239966   5.308   2.313   6.089
13361TIP3   OH239967   4.487   2.692   6.852
13361TIP3    H139968   4.528   2.666   6.768
13361TIP3    H239969   4.531   2.634   6.915
13362TIP3   OH239970   4.957   2.831   6.030
13362TIP3    H139971   4.903   2.911   6.014
13362TIP3    H239972   4.892   2.770   6.069
13363TIP3   OH239973   4.369   2.617   7.465
13363TIP3    H139974   4.392   2.604   7.559
13363TIP3    H239975   4.301   2.549   7.452
13364TIP3   OH239976   5.095   2.730   7.485
13364TIP3    H139977   5.037   2.671   7.433
13364TIP3    H239978   5.184   2.697   7.458
13365TIP3   OH239979   5.357   3.257   7.065
13365TIP3    H139980   5.261   3.251   7.079
13365TIP3    H239981   5.384   3.305   7.146
13366TIP3   OH239982   5.768   2.321   5.977
13366TIP3    H139983   5.706   2.277   5.915
13366TIP3    H239984   5.764   2.411   5.938
13367TIP3   OH239985   5.992   3.182   7.042
13367TIP3    H139986   5.894   3.178   7.051
13367TIP3    H239987   6.003   3.121   6.967
13368TIP3   OH239988   5.467   3.141   5.885
13368TIP3    H139989   5.439   3.070   5.945
13368TIP3    H239990   5.476   3.094   5.800
13369TIP3   OH239991   5.458   2.770   6.719
13369TIP3    H139992   5.366   2.742   6.732
13369TIP3    H239993   5.497   2.691   6.677
13370TIP3   OH239994   4.590   2.998   6.477
13370TIP3    H139995   4.594   3.079   6.423
13370TIP3    H239996   4.495   2.986   6.485
13371TIP3   OH239997   4.152   2.304   6.177
13371TIP3    H139998   4.201   2.387   6.199
13371TIP3    H239999   4.077   2.311   6.240
13372TIP3   OH240000   4.728   2.764   6.421
13372TIP3    H140001   4.696   2.855   6.439
13372TIP3    H240002   4.693   2.716   6.498
13373TIP3   OH240003   4.860   3.343   6.946
13373TIP3    H140004   4.902   3.415   6.895
13373TIP3    H240005   4.935   3.308   6.995
13374TIP3   OH240006   4.509   3.239   6.328
13374TIP3    H140007   4.424   3.246   6.375
13374TIP3    H240008   4.540   3.332   6.333
13375TIP3   OH240009   5.251   2.980   6.903
13375TIP3    H140010   5.243   2.974   7.001
13375TIP3    H240011   5.331   2.928   6.887
13376TIP3   OH240012   5.496   3.515   6.960
13376TIP3    H140013   5.420   3.453   6.952
13376TIP3    H240014   5.480   3.575   6.885
13377TIP3   OH240015   5.564   3.348   5.606
13377TIP3    H140016   5.603   3.423   5.558
13377TIP3    H240017   5.483   3.391   5.639
13378TIP3   OH240018   4.584   2.122   7.473
13378TIP3    H140019   4.488   2.127   7.489
13378TIP3    H240020   4.612   2.062   7.544
13379TIP3   OH240021   5.391   2.818   6.025
13379TIP3    H140022   5.376   2.741   6.082
13379TIP3    H240023   5.484   2.805   5.998
13380TIP3   OH240024   4.298   3.207   7.106
13380TIP3    H140025   4.351   3.131   7.137
13380TIP3    H240026   4.324   3.274   7.169
13381TIP3   OH240027   4.592   2.849   5.785
13381TIP3    H140028   4.603   2.756   5.759
13381TIP3    H240029   4.575   2.840   5.881
13382TIP3   OH240030   4.534   2.855   6.059
13382TIP3    H140031   4.609   2.826   6.113
13382TIP3    H240032   4.540   2.953   6.067
13383TIP3   OH240033   4.269   2.548   6.261
13383TIP3    H140034   4.205   2.594   6.319
13383TIP3    H240035   4.288   2.618   6.196
13384TIP3   OH240036   5.418   2.185   7.152
13384TIP3    H140037   5.497   2.226   7.190
13384TIP3    H240038   5.406   2.105   7.208
13385TIP3   OH240039   5.301   1.939   6.316
13385TIP3    H140040   5.286   1.967   6.224
13385TIP3    H240041   5.340   2.019   6.356
13386TIP3   OH240042   4.793   3.049   6.003
13386TIP3    H140043   4.709   3.082   6.040
13386TIP3    H240044   4.819   3.124   5.948
13387TIP3   OH240045   4.987   2.116   6.420
13387TIP3    H140046   5.052   2.187   6.402
13387TIP3    H240047   4.994   2.109   6.518
13388TIP3   OH240048   5.257   2.435   7.231
13388TIP3    H140049   5.277   2.490   7.309
13388TIP3    H240050   5.315   2.358   7.244
13389TIP3   OH240051   5.134   1.845   6.523
13389TIP3    H140052   5.130   1.919   6.586
13389TIP3    H240053   5.195   1.883   6.455
13390TIP3   OH240054   4.538   3.130   6.074
13390TIP3    H140055   4.510   3.201   6.012
13390TIP3    H240056   4.525   3.173   6.161
13391TIP3   OH240057   4.645   1.841   6.312
13391TIP3    H140058   4.642   1.932   6.349
13391TIP3    H240059   4.741   1.823   6.322
13392TIP3   OH240060   5.897   2.333   7.216
13392TIP3    H140061   5.799   2.329   7.213
13392TIP3    H240062   5.919   2.317   7.123
13393TIP3   OH240063   5.549   2.529   6.598
13393TIP3    H140064   5.476   2.468   6.614
13393TIP3    H240065   5.623   2.486   6.647
13394TIP3   OH240066   4.261   2.762   6.067
13394TIP3    H140067   4.329   2.831   6.079
13394TIP3    H240068   4.307   2.706   6.001
13395TIP3   OH240069   4.207   2.035   6.200
13395TIP3    H140070   4.208   2.132   6.195
13395TIP3    H240071   4.121   2.013   6.163
13396TIP3   OH240072   5.515   3.490   6.548
13396TIP3    H140073   5.475   3.536   6.471
13396TIP3    H240074   5.610   3.506   6.528
13397TIP3   OH240075   4.593   1.755   7.076
13397TIP3    H140076   4.562   1.720   6.989
13397TIP3    H240077   4.584   1.676   7.134
13398TIP3   OH240078   4.134   2.973   6.457
13398TIP3    H140079   4.062   3.005   6.513
13398TIP3    H240080   4.110   3.013   6.370
13399TIP3   OH240081   4.291   3.515   7.522
13399TIP3    H140082   4.375   3.517   7.573
13399TIP3    H240083   4.269   3.421   7.526
13400TIP3   OH240084   4.777   3.483   7.567
13400TIP3    H140085   4.869   3.456   7.577
13400TIP3    H240086   4.748   3.423   7.495
13401TIP3   OH240087   4.763   3.050   5.697
13401TIP3    H140088   4.704   2.982   5.738
13401TIP3    H240089   4.845   2.999   5.688
13402TIP3   OH240090   5.409   3.386   7.304
13402TIP3    H140091   5.401   3.315   7.372
13402TIP3    H240092   5.488   3.434   7.335
13403TIP3   OH240093   4.421   2.920   7.726
13403TIP3    H140094   4.437   2.824   7.732
13403TIP3    H240095   4.332   2.923   7.685
13404TIP3   OH240096   4.396   2.571   5.921
13404TIP3    H140097   4.451   2.538   5.995
13404TIP3    H240098   4.463   2.576   5.850
13405TIP3   OH240099   5.029   3.005   7.499
13405TIP3    H140100   4.987   3.019   7.413
13405TIP3    H240101   5.060   2.912   7.493
13406TIP3   OH240102   5.519   3.015   7.110
13406TIP3    H140103   5.593   3.052   7.058
13406TIP3    H240104   5.450   3.081   7.092
13407TIP3   OH240105   4.539   2.653   7.708
13407TIP3    H140106   4.613   2.595   7.690
13407TIP3    H240107   4.562   2.687   7.797
13408TIP3   OH240108   4.595   2.472   6.140
13408TIP3    H140109   4.578   2.432   6.227
13408TIP3    H240110   4.637   2.398   6.091
13409TIP3   OH240111   4.872   2.538   7.369
13409TIP3    H140112   4.797   2.600   7.373
13409TIP3    H240113   4.922   2.572   7.290
13410TIP3   OH240114   4.705   2.267   5.984
13410TIP3    H140115   4.680   2.270   5.890
13410TIP3    H240116   4.803   2.275   5.978
13411TIP3   OH240117   5.390   2.941   7.504
13411TIP3    H140118   5.471   2.919   7.455
13411TIP3    H240119   5.390   2.874   7.574
13412TIP3   OH240120   5.540   2.600   5.634
13412TIP3    H140121   5.504   2.554   5.557
13412TIP3    H240122   5.503   2.691   5.620
13413TIP3   OH240123   4.996   2.327   7.498
13413TIP3    H140124   4.997   2.247   7.442
13413TIP3    H240125   4.953   2.392   7.439
13414TIP3   OH240126   4.999   2.113   7.304
13414TIP3    H140127   5.027   2.155   7.220
13414TIP3    H240128   4.906   2.090   7.285
13415TIP3   OH240129   5.028   2.649   7.176
13415TIP3    H140130   5.111   2.655   7.127
13415TIP3    H240131   4.973   2.717   7.132
13416TIP3   OH240132   5.612   2.618   7.560
13416TIP3    H140133   5.659   2.534   7.566
13416TIP3    H240134   5.679   2.675   7.522
13417TIP3   OH240135   5.650   2.869   7.297
13417TIP3    H140136   5.594   2.923   7.236
13417TIP3    H240137   5.739   2.887   7.257
13418TIP3   OH240138   4.874   2.441   7.726
13418TIP3    H140139   4.805   2.373   7.740
13418TIP3    H240140   4.910   2.414   7.639
13419TIP3   OH240141   5.132   1.878   7.369
13419TIP3    H140142   5.083   1.960   7.348
13419TIP3    H240143   5.062   1.810   7.359
13420TIP3   OH240144   5.258   2.383   7.587
13420TIP3    H140145   5.248   2.372   7.683
13420TIP3    H240146   5.168   2.358   7.558
13421TIP3   OH240147   5.498   2.332   7.441
13421TIP3    H140148   5.422   2.333   7.503
13421TIP3    H240149   5.571   2.301   7.499
13422TIP3   OH240150   5.724   2.271   7.595
13422TIP3    H140151   5.738   2.176   7.613
13422TIP3    H240152   5.722   2.311   7.684
13423TIP3   OH240153   4.714   2.220   7.779
13423TIP3    H140154   4.722   2.130   7.744
13423TIP3    H240155   4.750   2.208   7.869
13424TIP3   OH240156   5.227   1.889   7.627
13424TIP3    H140157   5.294   1.817   7.622
13424TIP3    H240158   5.187   1.881   7.538
13425TIP3   OH240159   5.291   2.102   7.787
13425TIP3    H140160   5.269   2.031   7.722
13425TIP3    H240161   5.214   2.161   7.780
13426TIP3   OH240162   4.514   3.333   5.886
13426TIP3    H140163   4.609   3.327   5.867
13426TIP3    H240164   4.484   3.381   5.807
13427TIP3   OH240165   3.992   2.713   6.102
13427TIP3    H140166   4.087   2.736   6.091
13427TIP3    H240167   3.989   2.624   6.062
13428TIP3   OH240168   3.906   3.325   6.517
13428TIP3    H140169   3.839   3.262   6.483
13428TIP3    H240170   3.951   3.269   6.584
13429TIP3   OH240171   4.042   3.178   6.704
13429TIP3    H140172   4.033   3.104   6.766
13429TIP3    H240173   4.093   3.239   6.760
13430TIP3   OH240174   5.767   3.585   6.501
13430TIP3    H140175   5.796   3.609   6.591
13430TIP3    H240176   5.837   3.622   6.446
13431TIP3   OH240177   5.801   3.597   6.784
13431TIP3    H140178   5.755   3.511   6.780
13431TIP3    H240179   5.874   3.574   6.844
13432TIP3   OH240180   5.845   3.276   7.355
13432TIP3    H140181   5.773   3.281   7.421
13432TIP3    H240182   5.887   3.364   7.364
13433TIP3   OH240183   5.665   2.785   5.974
13433TIP3    H140184   5.735   2.849   5.952
13433TIP3    H240185   5.703   2.744   6.056
13434TIP3   OH240186   5.783   2.652   6.177
13434TIP3    H140187   5.723   2.612   6.244
13434TIP3    H240188   5.856   2.688   6.233
13435TIP3   OH240189   5.820   3.042   6.605
13435TIP3    H140190   5.894   2.984   6.585
13435TIP3    H240191   5.826   3.112   6.538
13436TIP3   OH240192   5.677   3.349   6.806
13436TIP3    H140193   5.603   3.381   6.861
13436TIP3    H240194   5.630   3.294   6.739
13437TIP3   OH240195   5.730   2.559   5.829
13437TIP3    H140196   5.659   2.566   5.762
13437TIP3    H240197   5.705   2.635   5.886
13438TIP3   OH240198   5.602   2.232   5.782
13438TIP3    H140199   5.553   2.277   5.713
13438TIP3    H240200   5.574   2.139   5.769
13439TIP3   OH240201   5.602   2.509   6.331
13439TIP3    H140202   5.615   2.413   6.331
13439TIP3    H240203   5.591   2.528   6.426
13440TIP3   OH240204   4.231   2.586   7.073
13440TIP3    H140205   4.230   2.555   6.981
13440TIP3    H240206   4.328   2.587   7.092
13441TIP3   OH240207   5.894   2.932   7.188
13441TIP3    H140208   5.968   2.868   7.183
13441TIP3    H240209   5.905   2.981   7.106
13442TIP3   OH240210   6.084   2.749   7.248
13442TIP3    H140211   6.005   2.692   7.261
13442TIP3    H240212   6.151   2.682   7.225
13443TIP3   OH240213   5.544   1.965   5.764
13443TIP3    H140214   5.620   1.941   5.821
13443TIP3    H240215   5.471   1.911   5.798
13444TIP3   OH240216   5.598   2.224   6.224
13444TIP3    H140217   5.641   2.137   6.239
13444TIP3    H240218   5.658   2.261   6.157
13445TIP3   OH240219   5.764   2.403   6.719
13445TIP3    H140220   5.849   2.431   6.678
13445TIP3    H240221   5.776   2.447   6.806
13446TIP3   OH240222   5.832   2.559   6.942
13446TIP3    H140223   5.756   2.598   6.990
13446TIP3    H240224   5.875   2.639   6.905
13447TIP3   OH240225   4.447   2.271   7.747
13447TIP3    H140226   4.545   2.265   7.751
13447TIP3    H240227   4.423   2.187   7.792
13448TIP3   OH240228   6.276   2.133   7.506
13448TIP3    H140229   6.339   2.070   7.464
13448TIP3    H240230   6.252   2.192   7.432
13449TIP3   OH240231   5.710   1.975   6.260
13449TIP3    H140232   5.758   1.961   6.345
13449TIP3    H240233   5.649   1.899   6.261
13450TIP3   OH240234   4.408   1.963   7.079
13450TIP3    H140235   4.471   1.889   7.092
13450TIP3    H240236   4.470   2.038   7.075
13451TIP3   OH240237   4.212   2.237   7.153
13451TIP3    H140238   4.262   2.232   7.070
13451TIP3    H240239   4.241   2.322   7.189
13452TIP3   OH240240   6.153   2.278   7.314
13452TIP3    H140241   6.065   2.316   7.333
13452TIP3    H240242   6.126   2.206   7.254
13453TIP3   OH240243   5.789   1.914   5.891
13453TIP3    H140244   5.833   1.841   5.844
13453TIP3    H240245   5.856   1.985   5.889
13454TIP3   OH240246   4.194   1.735   6.651
13454TIP3    H140247   4.102   1.739   6.683
13454TIP3    H240248   4.193   1.797   6.575
13455TIP3   OH240249   5.350   3.447   6.158
13455TIP3    H140250   5.405   3.426   6.079
13455TIP3    H240251   5.409   3.504   6.210
13456TIP3   OH240252   4.414   1.821   7.470
13456TIP3    H140253   4.365   1.814   7.553
13456TIP3    H240254   4.346   1.859   7.411
13457TIP3   OH240255   4.456   3.244   7.547
13457TIP3    H140256   4.363   3.219   7.531
13457TIP3    H240257   4.464   3.230   7.642
13458TIP3   OH240258   4.632   3.278   7.094
13458TIP3    H140259   4.585   3.354   7.056
13458TIP3    H240260   4.719   3.292   7.050
13459TIP3   OH240261   5.079   3.525   7.232
13459TIP3    H140262   5.121   3.525   7.321
13459TIP3    H240263   5.146   3.575   7.180
13460TIP3   OH240264   5.258   3.676   7.088
13460TIP3    H140265   5.329   3.623   7.049
13460TIP3    H240266   5.309   3.733   7.150
13461TIP3   OH240267   6.053   2.040   7.191
13461TIP3    H140268   5.962   2.039   7.157
13461TIP3    H240269   6.080   1.946   7.176
13462TIP3   OH240270   4.310   3.538   7.115
13462TIP3    H140271   4.220   3.573   7.096
13462TIP3    H240272   4.321   3.568   7.206
13463TIP3   OH240273   4.546   3.516   6.975
13463TIP3    H140274   4.460   3.528   7.021
13463TIP3    H240275   4.525   3.548   6.885
13464TIP3   OH240276   4.972   3.546   6.772
13464TIP3    H140277   4.903   3.568   6.707
13464TIP3    H240278   4.985   3.632   6.817
13465TIP3   OH240279   5.241   3.487   6.825
13465TIP3    H140280   5.146   3.500   6.804
13465TIP3    H240281   5.282   3.563   6.783
13466TIP3   OH240282   5.451   3.678   6.741
13466TIP3    H140283   5.436   3.761   6.691
13466TIP3    H240284   5.475   3.616   6.669
13467TIP3   OH240285   4.222   3.331   6.863
13467TIP3    H140286   4.248   3.305   6.954
13467TIP3    H240287   4.294   3.287   6.812
13468TIP3   OH240288   4.415   3.202   6.718
13468TIP3    H140289   4.430   3.117   6.766
13468TIP3    H240290   4.506   3.238   6.716
13469TIP3   OH240291   4.681   3.298   6.721
13469TIP3    H140292   4.712   3.206   6.709
13469TIP3    H240293   4.725   3.319   6.806
13470TIP3   OH240294   5.254   1.952   6.804
13470TIP3    H140295   5.213   1.884   6.861
13470TIP3    H240296   5.329   1.905   6.765
13471TIP3   OH240297   5.780   1.828   6.712
13471TIP3    H140298   5.818   1.884   6.640
13471TIP3    H240299   5.687   1.854   6.711
13472TIP3   OH240300   5.876   1.933   6.478
13472TIP3    H140301   5.950   1.883   6.438
13472TIP3    H240302   5.908   2.025   6.464
13473TIP3   OH240303   4.506   1.661   6.826
13473TIP3    H140304   4.414   1.626   6.828
13473TIP3    H240305   4.557   1.578   6.824
13474TIP3   OH240306   4.283   1.532   6.470
13474TIP3    H140307   4.320   1.590   6.401
13474TIP3    H240308   4.260   1.596   6.540
13475TIP3   OH240309   4.947   1.697   6.706
13475TIP3    H140310   5.007   1.747   6.649
13475TIP3    H240311   4.970   1.730   6.794
13476TIP3   OH240312   5.495   1.841   6.693
13476TIP3    H140313   5.494   1.806   6.603
13476TIP3    H240314   5.482   1.759   6.746
13477TIP3   OH240315   5.526   1.762   6.252
13477TIP3    H140316   5.440   1.807   6.265
13477TIP3    H240317   5.510   1.678   6.300
13478TIP3   OH240318   4.009   3.100   6.254
13478TIP3    H140319   3.924   3.068   6.219
13478TIP3    H240320   3.998   3.196   6.241
13479TIP3   OH240321   4.409   1.694   6.236
13479TIP3    H140322   4.459   1.630   6.181
13479TIP3    H240323   4.481   1.748   6.274
13480TIP3   OH240324   4.922   1.865   6.336
13480TIP3    H140325   4.982   1.820   6.398
13480TIP3    H240326   4.941   1.958   6.361
13481TIP3   OH240327   4.782   3.291   5.832
13481TIP3    H140328   4.871   3.313   5.797
13481TIP3    H240329   4.762   3.214   5.775
13482TIP3   OH240330   5.502   3.407   5.928
13482TIP3    H140331   5.494   3.309   5.916
13482TIP3    H240332   5.456   3.438   5.848
13483TIP3   OH240333   4.713   1.943   7.718
13483TIP3    H140334   4.681   1.872   7.775
13483TIP3    H240335   4.808   1.944   7.743
13484TIP3   OH240336   4.962   1.941   7.836
13484TIP3    H140337   5.047   1.914   7.797
13484TIP3    H240338   4.949   1.871   7.903
13485TIP3   OH240339   4.085   3.129   5.894
13485TIP3    H140340   4.086   3.153   5.988
13485TIP3    H240341   4.174   3.087   5.882
13486TIP3   OH240342   5.786   2.001   7.624
13486TIP3    H140343   5.807   1.970   7.715
13486TIP3    H240344   5.875   1.997   7.582
13487TIP3   OH240345   5.728   3.555   7.116
13487TIP3    H140346   5.648   3.521   7.070
13487TIP3    H240347   5.706   3.650   7.120
13488TIP3   OH240348   6.994   2.926   5.882
13488TIP3    H140349   6.966   3.018   5.863
13488TIP3    H240350   6.915   2.877   5.853
13489TIP3   OH240351   6.993   2.924   6.262
13489TIP3    H140352   7.022   2.896   6.350
13489TIP3    H240353   6.947   2.846   6.230
13490TIP3   OH240354   6.320   2.817   6.591
13490TIP3    H140355   6.285   2.761   6.663
13490TIP3    H240356   6.369   2.883   6.640
13491TIP3   OH240357   7.235   3.227   5.945
13491TIP3    H140358   7.220   3.158   6.010
13491TIP3    H240359   7.262   3.302   6.000
13492TIP3   OH240360   6.262   3.234   6.356
13492TIP3    H140361   6.252   3.135   6.358
13492TIP3    H240362   6.358   3.240   6.353
13493TIP3   OH240363   5.973   2.430   6.137
13493TIP3    H140364   5.935   2.517   6.160
13493TIP3    H240365   5.894   2.385   6.102
13494TIP3   OH240366   6.023   2.711   6.287
13494TIP3    H140367   6.066   2.658   6.357
13494TIP3    H240368   6.098   2.758   6.249
13495TIP3   OH240369   6.882   3.690   5.960
13495TIP3    H140370   6.930   3.618   5.913
13495TIP3    H240371   6.877   3.654   6.050
13496TIP3   OH240372   6.790   3.153   6.310
13496TIP3    H140373   6.826   3.075   6.264
13496TIP3    H240374   6.875   3.196   6.334
13497TIP3   OH240375   7.805   2.471   6.309
13497TIP3    H140376   7.831   2.555   6.353
13497TIP3    H240377   7.823   2.492   6.216
13498TIP3   OH240378   7.205   2.654   6.345
13498TIP3    H140379   7.245   2.567   6.364
13498TIP3    H240380   7.172   2.639   6.254
13499TIP3   OH240381   6.542   2.312   6.308
13499TIP3    H140382   6.518   2.386   6.249
13499TIP3    H240383   6.490   2.240   6.266
13500TIP3   OH240384   7.234   2.402   5.933
13500TIP3    H140385   7.307   2.387   5.997
13500TIP3    H240386   7.284   2.439   5.858
13501TIP3   OH240387   6.172   2.518   6.422
13501TIP3    H140388   6.255   2.498   6.468
13501TIP3    H240389   6.184   2.464   6.341
13502TIP3   OH240390   6.618   2.714   6.191
13502TIP3    H140391   6.708   2.687   6.220
13502TIP3    H240392   6.576   2.628   6.171
13503TIP3   OH240393   7.876   2.679   6.480
13503TIP3    H140394   7.793   2.727   6.460
13503TIP3    H240395   7.892   2.708   6.571
13504TIP3   OH240396   6.537   2.294   6.745
13504TIP3    H140397   6.478   2.335   6.678
13504TIP3    H240398   6.485   2.314   6.826
13505TIP3   OH240399   6.887   3.148   5.752
13505TIP3    H140400   6.841   3.123   5.671
13505TIP3    H240401   6.842   3.232   5.774
13506TIP3   OH240402   6.644   3.074   6.543
13506TIP3    H140403   6.578   3.136   6.580
13506TIP3    H240404   6.684   3.126   6.471
13507TIP3   OH240405   7.447   2.404   6.103
13507TIP3    H140406   7.431   2.359   6.187
13507TIP3    H240407   7.499   2.482   6.131
13508TIP3   OH240408   6.408   2.410   6.529
13508TIP3    H140409   6.466   2.486   6.553
13508TIP3    H240410   6.459   2.371   6.455
13509TIP3   OH240411   6.470   3.265   6.637
13509TIP3    H140412   6.443   3.351   6.599
13509TIP3    H240413   6.392   3.247   6.693
13510TIP3   OH240414   5.870   2.955   5.872
13510TIP3    H140415   5.822   2.983   5.792
13510TIP3    H240416   5.898   3.040   5.911
13511TIP3   OH240417   7.306   3.470   6.113
13511TIP3    H140418   7.216   3.461   6.153
13511TIP3    H240419   7.298   3.556   6.068
13512TIP3   OH240420   7.597   2.371   6.476
13512TIP3    H140421   7.508   2.401   6.448
13512TIP3    H240422   7.653   2.403   6.402
13513TIP3   OH240423   6.896   2.016   6.459
13513TIP3    H140424   6.880   1.921   6.475
13513TIP3    H240425   6.818   2.055   6.504
13514TIP3   OH240426   7.009   3.518   5.788
13514TIP3    H140427   7.059   3.436   5.767
13514TIP3    H240428   7.068   3.584   5.745
13515TIP3   OH240429   7.151   3.303   5.692
13515TIP3    H140430   7.110   3.224   5.655
13515TIP3    H240431   7.186   3.268   5.777
13516TIP3   OH240432   7.532   3.385   6.456
13516TIP3    H140433   7.521   3.307   6.398
13516TIP3    H240434   7.515   3.459   6.394
13517TIP3   OH240435   6.822   2.777   5.712
13517TIP3    H140436   6.741   2.827   5.691
13517TIP3    H240437   6.869   2.775   5.627
13518TIP3   OH240438   6.782   2.563   5.430
13518TIP3    H140439   6.850   2.611   5.480
13518TIP3    H240440   6.838   2.498   5.383
13519TIP3   OH240441   7.727   3.020   6.300
13519TIP3    H140442   7.644   3.072   6.307
13519TIP3    H240443   7.756   3.044   6.210
13520TIP3   OH240444   7.170   2.860   5.685
13520TIP3    H140445   7.115   2.885   5.763
13520TIP3    H240446   7.253   2.833   5.730
13521TIP3   OH240447   7.406   2.900   6.595
13521TIP3    H140448   7.402   2.984   6.645
13521TIP3    H240449   7.319   2.903   6.551
13522TIP3   OH240450   6.404   2.857   6.099
13522TIP3    H140451   6.362   2.799   6.032
13522TIP3    H240452   6.482   2.804   6.126
13523TIP3   OH240453   6.535   3.275   6.248
13523TIP3    H140454   6.511   3.222   6.170
13523TIP3    H240455   6.624   3.240   6.268
13524TIP3   OH240456   6.585   2.820   6.451
13524TIP3    H140457   6.587   2.818   6.354
13524TIP3    H240458   6.594   2.915   6.473
13525TIP3   OH240459   7.064   3.467   6.233
13525TIP3    H140460   7.051   3.545   6.288
13525TIP3    H240461   7.051   3.393   6.295
13526TIP3   OH240462   6.676   3.387   6.779
13526TIP3    H140463   6.617   3.449   6.827
13526TIP3    H240464   6.610   3.332   6.731
13527TIP3   OH240465   7.012   2.717   5.511
13527TIP3    H140466   7.071   2.776   5.564
13527TIP3    H240467   7.038   2.743   5.419
13528TIP3   OH240468   6.420   2.941   6.871
13528TIP3    H140469   6.428   3.021   6.928
13528TIP3    H240470   6.325   2.924   6.875
13529TIP3   OH240471   6.754   3.398   5.784
13529TIP3    H140472   6.832   3.452   5.806
13529TIP3    H240473   6.692   3.463   5.749
13530TIP3   OH240474   6.471   3.556   6.867
13530TIP3    H140475   6.436   3.552   6.776
13530TIP3    H240476   6.391   3.535   6.921
13531TIP3   OH240477   7.528   1.960   5.560
13531TIP3    H140478   7.446   1.979   5.610
13531TIP3    H240479   7.539   2.043   5.509
13532TIP3   OH240480   6.272   2.699   5.900
13532TIP3    H140481   6.203   2.743   5.847
13532TIP3    H240482   6.227   2.619   5.928
13533TIP3   OH240483   7.325   3.327   5.108
13533TIP3    H140484   7.334   3.424   5.094
13533TIP3    H240485   7.418   3.298   5.095
13534TIP3   OH240486   5.906   3.283   6.436
13534TIP3    H140487   6.001   3.266   6.435
13534TIP3    H240488   5.898   3.353   6.503
13535TIP3   OH240489   7.769   3.728   6.501
13535TIP3    H140490   7.768   3.631   6.515
13535TIP3    H240491   7.686   3.753   6.547
13536TIP3   OH240492   6.874   3.516   6.635
13536TIP3    H140493   6.874   3.608   6.669
13536TIP3    H240494   6.803   3.476   6.691
13537TIP3   OH240495   6.633   3.644   5.588
13537TIP3    H140496   6.588   3.625   5.504
13537TIP3    H240497   6.602   3.734   5.609
13538TIP3   OH240498   6.073   3.494   5.972
13538TIP3    H140499   6.120   3.484   6.058
13538TIP3    H240500   6.019   3.413   5.972
13539TIP3   OH240501   6.837   3.544   5.230
13539TIP3    H140502   6.895   3.475   5.193
13539TIP3    H240503   6.871   3.553   5.321
13540TIP3   OH240504   6.886   3.593   5.500
13540TIP3    H140505   6.798   3.601   5.543
13540TIP3    H240506   6.938   3.551   5.570
13541TIP3   OH240507   7.660   2.860   6.776
13541TIP3    H140508   7.578   2.875   6.727
13541TIP3    H240509   7.672   2.764   6.766
13542TIP3   OH240510   6.254   3.262   6.805
13542TIP3    H140511   6.310   3.255   6.886
13542TIP3    H240512   6.189   3.194   6.822
13543TIP3   OH240513   6.656   2.092   6.585
13543TIP3    H140514   6.566   2.061   6.561
13543TIP3    H240515   6.631   2.175   6.631
13544TIP3   OH240516   7.187   2.206   6.780
13544TIP3    H140517   7.253   2.181   6.848
13544TIP3    H240518   7.101   2.187   6.825
13545TIP3   OH240519   7.432   2.638   6.702
13545TIP3    H140520   7.381   2.632   6.786
13545TIP3    H240521   7.402   2.723   6.664
13546TIP3   OH240522   7.086   2.767   5.255
13546TIP3    H140523   7.055   2.739   5.166
13546TIP3    H240524   7.168   2.815   5.231
13547TIP3   OH240525   6.800   2.141   5.556
13547TIP3    H140526   6.768   2.140   5.649
13547TIP3    H240527   6.762   2.057   5.525
13548TIP3   OH240528   6.588   2.602   6.607
13548TIP3    H140529   6.532   2.624   6.685
13548TIP3    H240530   6.578   2.683   6.552
13549TIP3   OH240531   6.470   2.492   6.118
13549TIP3    H140532   6.377   2.467   6.137
13549TIP3    H240533   6.482   2.450   6.030
13550TIP3   OH240534   6.961   2.578   5.846
13550TIP3    H140535   6.906   2.650   5.805
13550TIP3    H240536   7.015   2.550   5.770
13551TIP3   OH240537   7.135   2.858   6.933
13551TIP3    H140538   7.111   2.786   6.995
13551TIP3    H240539   7.228   2.871   6.957
13552TIP3   OH240540   7.120   2.608   6.086
13552TIP3    H140541   7.059   2.639   6.016
13552TIP3    H240542   7.151   2.525   6.042
13553TIP3   OH240543   6.419   2.627   6.820
13553TIP3    H140544   6.411   2.699   6.884
13553TIP3    H240545   6.391   2.549   6.870
13554TIP3   OH240546   6.454   2.112   5.523
13554TIP3    H140547   6.448   2.110   5.621
13554TIP3    H240548   6.376   2.166   5.501
13555TIP3   OH240549   5.998   2.156   6.392
13555TIP3    H140550   6.069   2.192   6.450
13555TIP3    H240551   6.046   2.128   6.313
13556TIP3   OH240552   5.972   2.139   5.911
13556TIP3    H140553   6.019   2.180   5.836
13556TIP3    H240554   5.913   2.213   5.937
13557TIP3   OH240555   7.132   2.855   6.508
13557TIP3    H140556   7.163   2.782   6.451
13557TIP3    H240557   7.101   2.804   6.586
13558TIP3   OH240558   6.797   2.312   6.180
13558TIP3    H140559   6.712   2.312   6.230
13558TIP3    H240560   6.862   2.317   6.252
13559TIP3   OH240561   6.233   2.372   6.188
13559TIP3    H140562   6.138   2.381   6.163
13559TIP3    H240563   6.254   2.280   6.166
13560TIP3   OH240564   6.503   2.364   5.876
13560TIP3    H140565   6.596   2.383   5.856
13560TIP3    H240566   6.455   2.390   5.794
13561TIP3   OH240567   7.290   2.388   6.380
13561TIP3    H140568   7.258   2.401   6.472
13561TIP3    H240569   7.222   2.329   6.345
13562TIP3   OH240570   6.341   2.398   5.655
13562TIP3    H140571   6.268   2.356   5.607
13562TIP3    H240572   6.393   2.435   5.580
13563TIP3   OH240573   7.458   4.080   6.601
13563TIP3    H140574   7.458   4.102   6.506
13563TIP3    H240575   7.537   4.127   6.632
13564TIP3   OH240576   6.415   3.194   7.022
13564TIP3    H140577   6.495   3.220   7.071
13564TIP3    H240578   6.352   3.184   7.097
13565TIP3   OH240579   6.881   2.643   6.278
13565TIP3    H140580   6.953   2.600   6.231
13565TIP3    H240581   6.887   2.604   6.367
13566TIP3   OH240582   6.404   2.130   6.156
13566TIP3    H140583   6.370   2.050   6.202
13566TIP3    H240584   6.456   2.092   6.084
13567TIP3   OH240585   6.857   2.539   6.566
13567TIP3    H140586   6.766   2.573   6.580
13567TIP3    H240587   6.912   2.601   6.618
13568TIP3   OH240588   6.594   2.931   5.661
13568TIP3    H140589   6.522   2.865   5.651
13568TIP3    H240590   6.577   2.964   5.753
13569TIP3   OH240591   7.495   3.166   6.293
13569TIP3    H140592   7.519   3.215   6.211
13569TIP3    H240593   7.409   3.126   6.269
13570TIP3   OH240594   7.052   2.243   5.523
13570TIP3    H140595   6.955   2.228   5.532
13570TIP3    H240596   7.062   2.338   5.547
13571TIP3   OH240597   7.000   3.252   6.658
13571TIP3    H140598   7.011   3.221   6.749
13571TIP3    H240599   6.954   3.337   6.669
13572TIP3   OH240600   7.122   2.489   5.627
13572TIP3    H140601   7.218   2.496   5.642
13572TIP3    H240602   7.103   2.569   5.573
13573TIP3   OH240603   6.291   2.960   6.344
13573TIP3    H140604   6.330   2.915   6.267
13573TIP3    H240605   6.302   2.894   6.417
13574TIP3   OH240606   6.738   3.079   5.481
13574TIP3    H140607   6.692   3.166   5.490
13574TIP3    H240608   6.685   3.024   5.542
13575TIP3   OH240609   6.890   2.987   6.973
13575TIP3    H140610   6.827   2.928   6.927
13575TIP3    H240611   6.976   2.952   6.941
13576TIP3   OH240612   7.155   3.513   6.552
13576TIP3    H140613   7.059   3.506   6.566
13576TIP3    H240614   7.182   3.561   6.633
13577TIP3   OH240615   7.565   2.579   5.464
13577TIP3    H140616   7.502   2.533   5.403
13577TIP3    H240617   7.561   2.668   5.422
13578TIP3   OH240618   7.782   3.437   6.545
13578TIP3    H140619   7.684   3.432   6.537
13578TIP3    H240620   7.808   3.407   6.455
13579TIP3   OH240621   7.262   3.399   5.372
13579TIP3    H140622   7.240   3.328   5.433
13579TIP3    H240623   7.276   3.352   5.287
13580TIP3   OH240624   7.260   3.028   6.211
13580TIP3    H140625   7.167   3.002   6.225
13580TIP3    H240626   7.294   2.949   6.166
13581TIP3   OH240627   6.385   3.254   5.961
13581TIP3    H140628   6.385   3.337   5.909
13581TIP3    H240629   6.291   3.239   5.974
13582TIP3   OH240630   5.947   2.562   5.662
13582TIP3    H140631   5.996   2.643   5.685
13582TIP3    H240632   5.872   2.566   5.726
13583TIP3   OH240633   6.528   3.023   5.908
13583TIP3    H140634   6.491   3.112   5.927
13583TIP3    H240635   6.492   2.971   5.982
13584TIP3   OH240636   6.655   3.600   6.434
13584TIP3    H140637   6.697   3.672   6.382
13584TIP3    H240638   6.731   3.565   6.483
13585TIP3   OH240639   6.305   3.496   5.815
13585TIP3    H140640   6.220   3.501   5.862
13585TIP3    H240641   6.336   3.589   5.820
13586TIP3   OH240642   7.047   3.235   6.390
13586TIP3    H140643   7.037   3.234   6.488
13586TIP3    H240644   7.125   3.179   6.378
13587TIP3   OH240645   7.017   3.126   5.274
13587TIP3    H140646   7.071   3.102   5.353
13587TIP3    H240647   6.929   3.100   5.305
13588TIP3   OH240648   7.294   3.769   6.443
13588TIP3    H140649   7.216   3.710   6.437
13588TIP3    H240650   7.276   3.832   6.370
13589TIP3   OH240651   7.359   3.602   5.094
13589TIP3    H140652   7.398   3.674   5.041
13589TIP3    H240653   7.279   3.649   5.126
13590TIP3   OH240654   6.379   2.372   6.963
13590TIP3    H140655   6.283   2.380   6.977
13590TIP3    H240656   6.406   2.314   7.036
13591TIP3   OH240657   7.178   3.060   5.490
13591TIP3    H140658   7.168   2.994   5.561
13591TIP3    H240659   7.275   3.059   5.478
13592TIP3   OH240660   6.094   3.465   6.592
13592TIP3    H140661   6.147   3.388   6.616
13592TIP3    H240662   6.123   3.529   6.658
13593TIP3   OH240663   6.384   3.108   5.273
13593TIP3    H140664   6.400   3.016   5.244
13593TIP3    H240665   6.367   3.095   5.368
13594TIP3   OH240666   6.331   3.112   5.545
13594TIP3    H140667   6.400   3.083   5.607
13594TIP3    H240668   6.336   3.210   5.553
13595TIP3   OH240669   6.066   2.805   5.747
13595TIP3    H140670   6.001   2.848   5.806
13595TIP3    H240671   6.082   2.876   5.683
13596TIP3   OH240672   7.219   2.439   6.638
13596TIP3    H140673   7.292   2.480   6.685
13596TIP3    H240674   7.199   2.360   6.692
13597TIP3   OH240675   7.095   2.194   5.804
13597TIP3    H140676   7.080   2.219   5.710
13597TIP3    H240677   7.134   2.277   5.841
13598TIP3   OH240678   6.596   3.310   5.494
13598TIP3    H140679   6.509   3.338   5.530
13598TIP3    H240680   6.613   3.382   5.432
13599TIP3   OH240681   6.786   2.372   5.907
13599TIP3    H140682   6.850   2.444   5.890
13599TIP3    H240683   6.789   2.366   6.005
13600TIP3   OH240684   7.055   2.694   6.715
13600TIP3    H140685   7.069   2.750   6.794
13600TIP3    H240686   7.108   2.615   6.736
13601TIP3   OH240687   6.931   2.102   6.012
13601TIP3    H140688   6.919   2.180   6.070
13601TIP3    H240689   6.990   2.139   5.943
13602TIP3   OH240690   6.338   3.386   5.561
13602TIP3    H140691   6.308   3.456   5.499
13602TIP3    H240692   6.322   3.429   5.648
13603TIP3   OH240693   6.441   2.097   5.800
13603TIP3    H140694   6.437   2.188   5.836
13603TIP3    H240695   6.537   2.080   5.809
13604TIP3   OH240696   7.696   2.589   6.696
13604TIP3    H140697   7.598   2.590   6.706
13604TIP3    H240698   7.704   2.557   6.605
13605TIP3   OH240699   7.346   2.786   6.084
13605TIP3    H140700   7.269   2.728   6.097
13605TIP3    H240701   7.417   2.739   6.133
13606TIP3   OH240702   6.059   3.018   5.554
13606TIP3    H140703   6.126   3.088   5.564
13606TIP3    H240704   6.104   2.963   5.487
13607TIP3   OH240705   6.004   2.292   5.683
13607TIP3    H140706   6.003   2.389   5.681
13607TIP3    H240707   5.914   2.270   5.657
13608TIP3   OH240708   7.313   3.742   6.035
13608TIP3    H140709   7.271   3.789   5.959
13608TIP3    H240710   7.407   3.761   6.014
13609TIP3   OH240711   6.394   2.010   6.561
13609TIP3    H140712   6.358   1.979   6.475
13609TIP3    H240713   6.380   1.932   6.619
13610TIP3   OH240714   5.934   3.238   5.944
13610TIP3    H140715   5.859   3.261   6.001
13610TIP3    H240716   5.904   3.273   5.858
13611TIP3   OH240717   6.084   3.770   7.013
13611TIP3    H140718   6.170   3.768   7.060
13611TIP3    H240719   6.062   3.675   7.012
13612TIP3   OH240720   6.569   3.739   7.055
13612TIP3    H140721   6.662   3.715   7.066
13612TIP3    H240722   6.543   3.679   6.982
13613TIP3   OH240723   6.548   3.312   5.187
13613TIP3    H140724   6.492   3.241   5.226
13613TIP3    H240725   6.624   3.260   5.155
13614TIP3   OH240726   7.207   3.642   6.790
13614TIP3    H140727   7.197   3.571   6.858
13614TIP3    H240728   7.284   3.692   6.822
13615TIP3   OH240729   6.984   3.353   5.097
13615TIP3    H140730   7.030   3.290   5.155
13615TIP3    H240731   7.041   3.354   5.018
13616TIP3   OH240732   6.214   3.178   7.215
13616TIP3    H140733   6.238   3.083   7.216
13616TIP3    H240734   6.127   3.176   7.170
13617TIP3   OH240735   6.193   2.829   5.406
13617TIP3    H140736   6.246   2.795   5.479
13617TIP3    H240737   6.261   2.833   5.335
13618TIP3   OH240738   6.825   3.261   6.986
13618TIP3    H140739   6.781   3.274   6.900
13618TIP3    H240740   6.855   3.168   6.981
13619TIP3   OH240741   6.700   3.026   5.213
13619TIP3    H140742   6.703   3.039   5.310
13619TIP3    H240743   6.700   2.927   5.209
13620TIP3   OH240744   7.318   3.267   6.593
13620TIP3    H140745   7.389   3.317   6.549
13620TIP3    H240746   7.243   3.329   6.583
13621TIP3   OH240747   6.343   2.933   7.191
13621TIP3    H140748   6.386   2.849   7.173
13621TIP3    H240749   6.366   2.949   7.284
13622TIP3   OH240750   6.401   2.732   5.629
13622TIP3    H140751   6.373   2.694   5.714
13622TIP3    H240752   6.436   2.654   5.581
13623TIP3   OH240753   6.677   2.805   6.864
13623TIP3    H140754   6.592   2.851   6.862
13623TIP3    H240755   6.717   2.831   6.779
13624TIP3   OH240756   6.501   2.523   5.470
13624TIP3    H140757   6.474   2.526   5.376
13624TIP3    H240758   6.598   2.532   5.462
13625TIP3   OH240759   7.187   3.199   6.992
13625TIP3    H140760   7.267   3.175   6.945
13625TIP3    H240761   7.183   3.131   7.062
13626TIP3   OH240762   7.324   2.857   5.132
13626TIP3    H140763   7.302   2.810   5.049
13626TIP3    H240764   7.293   2.947   5.107
13627TIP3   OH240765   6.796   2.584   6.983
13627TIP3    H140766   6.790   2.504   6.928
13627TIP3    H240767   6.750   2.651   6.927
13628TIP3   OH240768   6.796   2.367   6.788
13628TIP3    H140769   6.820   2.412   6.704
13628TIP3    H240770   6.701   2.347   6.772
13629TIP3   OH240771   6.830   2.911   6.663
13629TIP3    H140772   6.906   2.915   6.605
13629TIP3    H240773   6.767   2.973   6.620
13630TIP3   OH240774   7.405   2.874   7.045
13630TIP3    H140775   7.454   2.791   7.057
13630TIP3    H240776   7.474   2.934   7.012
13631TIP3   OH240777   7.448   3.125   6.781
13631TIP3    H140778   7.389   3.178   6.722
13631TIP3    H240779   7.535   3.145   6.740
13632TIP3   OH240780   6.675   2.695   7.216
13632TIP3    H140781   6.603   2.631   7.228
13632TIP3    H240782   6.706   2.672   7.126
13633TIP3   OH240783   6.927   2.133   6.854
13633TIP3    H140784   6.880   2.217   6.833
13633TIP3    H240785   6.856   2.067   6.845
13634TIP3   OH240786   7.055   2.640   7.073
13634TIP3    H140787   7.041   2.627   7.169
13634TIP3    H240788   6.965   2.615   7.042
13635TIP3   OH240789   7.293   2.584   6.927
13635TIP3    H140790   7.216   2.589   6.987
13635TIP3    H240791   7.364   2.555   6.988
13636TIP3   OH240792   7.530   2.529   7.080
13636TIP3    H140793   7.535   2.433   7.101
13636TIP3    H240794   7.519   2.569   7.169
13637TIP3   OH240795   6.509   2.477   7.266
13637TIP3    H140796   6.518   2.387   7.230
13637TIP3    H240797   6.546   2.465   7.356
13638TIP3   OH240798   7.027   2.147   7.110
13638TIP3    H140799   7.089   2.072   7.107
13638TIP3    H240800   6.983   2.138   7.023
13639TIP3   OH240801   7.092   2.363   7.265
13639TIP3    H140802   7.066   2.290   7.205
13639TIP3    H240803   7.012   2.420   7.265
13640TIP3   OH240804   6.309   3.591   5.375
13640TIP3    H140805   6.404   3.584   5.356
13640TIP3    H240806   6.279   3.636   5.294
13641TIP3   OH240807   5.790   2.973   5.585
13641TIP3    H140808   5.886   2.992   5.577
13641TIP3    H240809   5.786   2.882   5.547
13642TIP3   OH240810   5.701   3.583   6.004
13642TIP3    H140811   5.635   3.519   5.970
13642TIP3    H240812   5.747   3.527   6.071
13643TIP3   OH240813   5.836   3.437   6.192
13643TIP3    H140814   5.828   3.360   6.251
13643TIP3    H240815   5.888   3.496   6.250
13644TIP3   OH240816   7.565   3.836   5.989
13644TIP3    H140817   7.593   3.867   6.077
13644TIP3    H240818   7.629   3.878   5.930
13645TIP3   OH240819   7.597   3.855   6.272
13645TIP3    H140820   7.552   3.767   6.268
13645TIP3    H240821   7.671   3.832   6.330
13646TIP3   OH240822   7.642   3.530   6.845
13646TIP3    H140823   7.569   3.538   6.909
13646TIP3    H240824   7.683   3.619   6.850
13647TIP3   OH240825   7.458   3.044   5.465
13647TIP3    H140826   7.527   3.107   5.438
13647TIP3    H240827   7.500   3.004   5.544
13648TIP3   OH240828   7.586   2.911   5.668
13648TIP3    H140829   7.520   2.868   5.728
13648TIP3    H240830   7.650   2.950   5.731
13649TIP3   OH240831   7.640   3.302   6.102
13649TIP3    H140832   7.693   3.239   6.050
13649TIP3    H240833   7.630   3.377   6.039
13650TIP3   OH240834   7.472   3.604   6.296
13650TIP3    H140835   7.401   3.645   6.349
13650TIP3    H240836   7.421   3.555   6.228
13651TIP3   OH240837   7.524   2.818   5.316
13651TIP3    H140838   7.452   2.822   5.249
13651TIP3    H240839   7.498   2.895   5.372
13652TIP3   OH240840   7.395   2.492   5.271
13652TIP3    H140841   7.354   2.531   5.194
13652TIP3    H240842   7.369   2.398   5.261
13653TIP3   OH240843   7.400   2.767   5.815
13653TIP3    H140844   7.408   2.670   5.811
13653TIP3    H240845   7.387   2.782   5.911
13654TIP3   OH240846   7.689   3.192   6.672
13654TIP3    H140847   7.762   3.127   6.663
13654TIP3    H240848   7.716   3.262   6.611
13655TIP3   OH240849   7.875   2.999   6.689
13655TIP3    H140850   7.800   2.949   6.729
13655TIP3    H240851   7.947   2.934   6.704
13656TIP3   OH240852   7.339   2.226   5.258
13656TIP3    H140853   7.414   2.195   5.312
13656TIP3    H240854   7.266   2.167   5.283
13657TIP3   OH240855   7.396   2.483   5.711
13657TIP3    H140856   7.437   2.395   5.727
13657TIP3    H240857   7.454   2.517   5.641
13658TIP3   OH240858   7.559   2.656   6.206
13658TIP3    H140859   7.645   2.684   6.166
13658TIP3    H240860   7.571   2.695   6.295
13659TIP3   OH240861   7.626   2.801   6.439
13659TIP3    H140862   7.548   2.834   6.487
13659TIP3    H240863   7.657   2.882   6.393
13660TIP3   OH240864   6.242   2.525   7.225
13660TIP3    H140865   6.339   2.520   7.232
13660TIP3    H240866   6.217   2.444   7.273
13661TIP3   OH240867   8.082   2.397   6.996
13661TIP3    H140868   8.139   2.332   6.949
13661TIP3    H240869   8.049   2.451   6.922
13662TIP3   OH240870   7.506   2.233   5.749
13662TIP3    H140871   7.553   2.217   5.833
13662TIP3    H240872   7.445   2.156   5.747
13663TIP3   OH240873   6.205   2.216   6.563
13663TIP3    H140874   6.272   2.147   6.577
13663TIP3    H240875   6.261   2.296   6.562
13664TIP3   OH240876   6.008   2.502   6.650
13664TIP3    H140877   6.062   2.511   6.569
13664TIP3    H240878   6.021   2.590   6.692
13665TIP3   OH240879   7.950   2.533   6.804
13665TIP3    H140880   7.864   2.574   6.828
13665TIP3    H240881   7.918   2.465   6.742
13666TIP3   OH240882   7.587   2.168   5.381
13666TIP3    H140883   7.626   2.096   5.328
13666TIP3    H240884   7.654   2.239   5.372
13667TIP3   OH240885   5.990   1.989   6.136
13667TIP3    H140886   5.899   1.995   6.169
13667TIP3    H240887   5.988   2.053   6.061
13668TIP3   OH240888   7.149   3.701   5.647
13668TIP3    H140889   7.200   3.684   5.566
13668TIP3    H240890   7.205   3.766   5.693
13669TIP3   OH240891   6.210   2.072   6.954
13669TIP3    H140892   6.161   2.072   7.038
13669TIP3    H240893   6.145   2.116   6.895
13670TIP3   OH240894   6.250   3.505   7.033
13670TIP3    H140895   6.159   3.476   7.017
13670TIP3    H240896   6.262   3.482   7.126
13671TIP3   OH240897   6.428   3.535   6.582
13671TIP3    H140898   6.380   3.611   6.543
13671TIP3    H240899   6.514   3.548   6.537
13672TIP3   OH240900   6.875   3.782   6.719
13672TIP3    H140901   6.917   3.781   6.807
13672TIP3    H240902   6.942   3.832   6.667
13673TIP3   OH240903   7.054   3.933   6.575
13673TIP3    H140904   7.125   3.880   6.537
13673TIP3    H240905   7.105   3.990   6.637
13674TIP3   OH240906   7.845   2.302   6.676
13674TIP3    H140907   7.753   2.304   6.644
13674TIP3    H240908   7.869   2.208   6.659
13675TIP3   OH240909   6.107   3.797   6.601
13675TIP3    H140910   6.017   3.831   6.581
13675TIP3    H240911   6.114   3.823   6.694
13676TIP3   OH240912   6.343   3.773   6.462
13676TIP3    H140913   6.257   3.786   6.508
13676TIP3    H240914   6.321   3.804   6.372
13677TIP3   OH240915   6.769   3.802   6.258
13677TIP3    H140916   6.699   3.823   6.194
13677TIP3    H240917   6.781   3.889   6.303
13678TIP3   OH240918   7.037   3.742   6.310
13678TIP3    H140919   6.942   3.757   6.291
13678TIP3    H240920   7.078   3.819   6.269
13679TIP3   OH240921   7.246   3.934   6.227
13679TIP3    H140922   7.231   4.018   6.178
13679TIP3    H240923   7.271   3.873   6.154
13680TIP3   OH240924   6.018   3.590   6.351
13680TIP3    H140925   6.044   3.561   6.441
13680TIP3    H240926   6.088   3.544   6.299
13681TIP3   OH240927   6.211   3.459   6.206
13681TIP3    H140928   6.225   3.375   6.254
13681TIP3    H240929   6.302   3.494   6.203
13682TIP3   OH240930   6.478   3.555   6.208
13682TIP3    H140931   6.508   3.462   6.196
13682TIP3    H240932   6.521   3.574   6.293
13683TIP3   OH240933   7.056   2.211   6.299
13683TIP3    H140934   7.009   2.143   6.351
13683TIP3    H240935   7.124   2.159   6.252
13684TIP3   OH240936   7.579   2.090   6.204
13684TIP3    H140937   7.614   2.143   6.129
13684TIP3    H240938   7.483   2.107   6.198
13685TIP3   OH240939   7.672   2.190   5.967
13685TIP3    H140940   7.744   2.140   5.923
13685TIP3    H240941   7.704   2.282   5.952
13686TIP3   OH240942   6.302   1.918   6.312
13686TIP3    H140943   6.210   1.885   6.314
13686TIP3    H240944   6.352   1.834   6.310
13687TIP3   OH240945   6.084   1.787   5.958
13687TIP3    H140946   6.116   1.847   5.889
13687TIP3    H240947   6.055   1.851   6.027
13688TIP3   OH240948   6.745   1.950   6.192
13688TIP3    H140949   6.804   2.003   6.136
13688TIP3    H240950   6.760   1.990   6.279
13689TIP3   OH240951   7.299   2.097   6.177
13689TIP3    H140952   7.287   2.063   6.087
13689TIP3    H240953   7.281   2.016   6.231
13690TIP3   OH240954   7.322   2.020   5.740
13690TIP3    H140955   7.235   2.063   5.750
13690TIP3    H240956   7.306   1.935   5.786
13691TIP3   OH240957   5.807   3.355   5.738
13691TIP3    H140958   5.722   3.321   5.705
13691TIP3    H240959   5.793   3.450   5.725
13692TIP3   OH240960   6.204   1.950   5.723
13692TIP3    H140961   6.255   1.887   5.668
13692TIP3    H240962   6.276   2.004   5.761
13693TIP3   OH240963   6.719   2.122   5.823
13693TIP3    H140964   6.778   2.076   5.884
13693TIP3    H240965   6.738   2.215   5.848
13694TIP3   OH240966   6.576   3.549   5.322
13694TIP3    H140967   6.665   3.570   5.286
13694TIP3    H240968   6.555   3.473   5.263
13695TIP3   OH240969   7.295   3.666   5.415
13695TIP3    H140970   7.287   3.568   5.402
13695TIP3    H240971   7.252   3.699   5.334
13696TIP3   OH240972   6.511   2.197   7.203
13696TIP3    H140973   6.477   2.128   7.263
13696TIP3    H240974   6.605   2.199   7.231
13697TIP3   OH240975   6.757   2.192   7.326
13697TIP3    H140976   6.844   2.165   7.291
13697TIP3    H240977   6.745   2.125   7.397
13698TIP3   OH240978   5.883   3.389   5.381
13698TIP3    H140979   5.880   3.405   5.476
13698TIP3    H240980   5.970   3.345   5.370
13699TIP3   OH240981   7.582   2.255   7.111
13699TIP3    H140982   7.602   2.228   7.203
13699TIP3    H240983   7.671   2.252   7.070
13700TIP3   OH240984   7.524   3.811   6.602
13700TIP3    H140985   7.444   3.778   6.556
13700TIP3    H240986   7.503   3.906   6.607
13701TIP3   OH240987   8.788   3.182   5.371
13701TIP3    H140988   8.760   3.273   5.350
13701TIP3    H240989   8.712   3.133   5.336
13702TIP3   OH240990   8.786   3.184   5.750
13702TIP3    H140991   8.818   3.152   5.837
13702TIP3    H240992   8.746   3.104   5.712
13703TIP3   OH240993   8.088   3.079   6.115
13703TIP3    H140994   8.120   3.012   6.179
13703TIP3    H240995   8.165   3.135   6.107
13704TIP3   OH240996   9.032   3.483   5.431
13704TIP3    H140997   9.017   3.414   5.497
13704TIP3    H240998   9.058   3.559   5.486
13705TIP3   OH240999   8.058   3.487   5.842
13705TIP3    H141000   8.049   3.389   5.844
13705TIP3    H241001   8.155   3.495   5.835
13706TIP3   OH241002   7.765   2.692   5.628
13706TIP3    H141003   7.715   2.775   5.640
13706TIP3    H241004   7.695   2.637   5.588
13707TIP3   OH241005   7.825   2.978   5.796
13707TIP3    H141006   7.874   2.902   5.834
13707TIP3    H241007   7.884   3.006   5.725
13708TIP3   OH241008   8.678   3.945   5.447
13708TIP3    H141009   8.725   3.875   5.398
13708TIP3    H241010   8.675   3.909   5.536
13709TIP3   OH241011   8.586   3.407   5.799
13709TIP3    H141012   8.624   3.331   5.751
13709TIP3    H241013   8.670   3.453   5.823
13710TIP3   OH241014   9.530   2.753   5.807
13710TIP3    H141015   9.595   2.803   5.861
13710TIP3    H241016   9.577   2.751   5.722
13711TIP3   OH241017   8.995   2.910   5.833
13711TIP3    H141018   9.041   2.826   5.852
13711TIP3    H241019   8.968   2.896   5.740
13712TIP3   OH241020   8.335   2.569   5.798
13712TIP3    H141021   8.316   2.642   5.735
13712TIP3    H241022   8.288   2.496   5.753
13713TIP3   OH241023   9.030   2.660   5.420
13713TIP3    H141024   9.103   2.645   5.484
13713TIP3    H241025   9.081   2.696   5.345
13714TIP3   OH241026   7.970   2.771   5.904
13714TIP3    H141027   8.053   2.751   5.951
13714TIP3    H241028   7.981   2.716   5.824
13715TIP3   OH241029   8.411   2.969   5.696
13715TIP3    H141030   8.505   2.943   5.709
13715TIP3    H241031   8.372   2.885   5.664
13716TIP3   OH241032   9.667   2.931   5.967
13716TIP3    H141033   9.585   2.985   5.961
13716TIP3    H241034   9.711   2.969   6.045
13717TIP3   OH241035   8.332   2.552   6.232
13717TIP3    H141036   8.274   2.589   6.163
13717TIP3    H241037   8.279   2.573   6.312
13718TIP3   OH241038   8.679   3.402   5.242
13718TIP3    H141039   8.640   3.382   5.156
13718TIP3    H241040   8.637   3.488   5.263
13719TIP3   OH241041   8.439   3.327   6.027
13719TIP3    H141042   8.376   3.393   6.064
13719TIP3    H241043   8.482   3.378   5.956
13720TIP3   OH241044   9.241   2.661   5.591
13720TIP3    H141045   9.238   2.611   5.674
13720TIP3    H241046   9.298   2.737   5.616
13721TIP3   OH241047   8.204   2.667   6.016
13721TIP3    H141048   8.265   2.741   6.038
13721TIP3    H241049   8.252   2.627   5.940
13722TIP3   OH241050   8.267   3.521   6.124
13722TIP3    H141051   8.241   3.606   6.084
13722TIP3    H241052   8.188   3.506   6.181
13723TIP3   OH241053   7.663   3.211   5.360
13723TIP3    H141054   7.622   3.237   5.276
13723TIP3    H241055   7.693   3.297   5.396
13724TIP3   OH241056   9.103   3.726   5.600
13724TIP3    H141057   9.012   3.718   5.639
13724TIP3    H241058   9.095   3.812   5.554
13725TIP3   OH241059   9.371   2.619   5.976
13725TIP3    H141060   9.284   2.649   5.945
13725TIP3    H241061   9.430   2.661   5.909
13726TIP3   OH241062   8.691   2.273   5.943
13726TIP3    H141063   8.678   2.177   5.959
13726TIP3    H241064   8.613   2.309   5.990
13727TIP3   OH241065   8.804   3.774   5.275
13727TIP3    H141066   8.854   3.692   5.252
13727TIP3    H241067   8.864   3.840   5.233
13728TIP3   OH241068   8.945   3.559   5.179
13728TIP3    H141069   8.913   3.479   5.136
13728TIP3    H241070   8.981   3.523   5.264
13729TIP3   OH241071   9.326   3.640   5.943
13729TIP3    H141072   9.314   3.563   5.883
13729TIP3    H241073   9.308   3.715   5.883
13730TIP3   OH241074   8.619   3.034   5.200
13730TIP3    H141075   8.539   3.085   5.176
13730TIP3    H241076   8.667   3.031   5.115
13731TIP3   OH241077   8.578   2.818   4.918
13731TIP3    H141078   8.647   2.868   4.966
13731TIP3    H241079   8.634   2.754   4.870
13732TIP3   OH241080   9.522   3.277   5.789
13732TIP3    H141081   9.438   3.329   5.792
13732TIP3    H241082   9.550   3.293   5.697
13733TIP3   OH241083   8.965   3.117   5.173
13733TIP3    H141084   8.911   3.142   5.251
13733TIP3    H241085   9.048   3.089   5.216
13734TIP3   OH241086   9.200   3.157   6.084
13734TIP3    H141087   9.198   3.241   6.133
13734TIP3    H241088   9.114   3.161   6.037
13735TIP3   OH241089   8.198   3.115   5.589
13735TIP3    H141090   8.157   3.057   5.521
13735TIP3    H241091   8.276   3.061   5.617
13736TIP3   OH241092   8.328   3.525   5.738
13736TIP3    H141093   8.308   3.482   5.653
13736TIP3    H241094   8.418   3.492   5.756
13737TIP3   OH241095   8.336   3.085   5.943
13737TIP3    H141096   8.369   3.065   5.853
13737TIP3    H241097   8.379   3.172   5.963
13738TIP3   OH241098   8.861   3.724   5.720
13738TIP3    H141099   8.846   3.803   5.774
13738TIP3    H241100   8.847   3.650   5.783
13739TIP3   OH241101   8.472   3.642   6.268
13739TIP3    H141102   8.413   3.705   6.313
13739TIP3    H241103   8.406   3.589   6.218
13740TIP3   OH241104   8.807   2.974   4.998
13740TIP3    H141105   8.867   3.033   5.051
13740TIP3    H241106   8.833   2.999   4.906
13741TIP3   OH241107   8.227   3.198   6.368
13741TIP3    H141108   8.231   3.285   6.412
13741TIP3    H241109   8.131   3.180   6.375
13742TIP3   OH241110   8.549   3.656   5.274
13742TIP3    H141111   8.629   3.709   5.292
13742TIP3    H241112   8.489   3.720   5.234
13743TIP3   OH241113   8.267   3.812   6.353
13743TIP3    H141114   8.233   3.809   6.262
13743TIP3    H241115   8.188   3.790   6.407
13744TIP3   OH241116   9.334   2.234   5.074
13744TIP3    H141117   9.244   2.248   5.110
13744TIP3    H241118   9.337   2.299   5.002
13745TIP3   OH241119   8.065   2.957   5.395
13745TIP3    H141120   8.000   3.003   5.337
13745TIP3    H241121   8.023   2.871   5.405
13746TIP3   OH241122   9.120   3.585   4.593
13746TIP3    H141123   9.127   3.682   4.580
13746TIP3    H241124   9.214   3.558   4.580
13747TIP3   OH241125   7.846   3.341   6.300
13747TIP3    H141126   7.781   3.319   6.231
13747TIP3    H241127   7.883   3.254   6.325
13748TIP3   OH241128   7.700   3.534   5.934
13748TIP3    H141129   7.796   3.527   5.924
13748TIP3    H241130   7.692   3.613   5.988
13749TIP3   OH241131   9.561   3.989   5.986
13749TIP3    H141132   9.563   3.893   5.997
13749TIP3    H241133   9.478   4.011   6.034
13750TIP3   OH241134   8.672   3.772   6.124
13750TIP3    H141135   8.671   3.864   6.156
13750TIP3    H241136   8.600   3.732   6.178
13751TIP3   OH241137   8.429   3.900   5.076
13751TIP3    H141138   8.386   3.881   4.991
13751TIP3    H241139   8.399   3.990   5.096
13752TIP3   OH241140   7.868   3.750   5.458
13752TIP3    H141141   7.917   3.740   5.543
13752TIP3    H241142   7.811   3.672   5.462
13753TIP3   OH241143   8.633   3.801   4.716
13753TIP3    H141144   8.692   3.731   4.679
13753TIP3    H241145   8.668   3.810   4.807
13754TIP3   OH241146   8.682   3.850   4.986
13754TIP3    H141147   8.594   3.858   5.030
13754TIP3    H241148   8.735   3.809   5.057
13755TIP3   OH241149   9.462   3.121   6.257
13755TIP3    H141150   9.381   3.132   6.206
13755TIP3    H241151   9.478   3.025   6.248
13756TIP3   OH241152   8.052   3.524   6.290
13756TIP3    H141153   8.102   3.507   6.373
13756TIP3    H241154   7.978   3.460   6.298
13757TIP3   OH241155   8.451   2.346   6.074
13757TIP3    H141156   8.362   2.316   6.048
13757TIP3    H241157   8.428   2.431   6.116
13758TIP3   OH241158   8.984   2.463   6.267
13758TIP3    H141159   9.053   2.435   6.331
13758TIP3    H241160   8.901   2.442   6.313
13759TIP3   OH241161   9.220   2.890   6.182
13759TIP3    H141162   9.174   2.889   6.269
13759TIP3    H241163   9.200   2.980   6.149
13760TIP3   OH241164   8.882   3.024   4.742
13760TIP3    H141165   8.851   2.996   4.654
13760TIP3    H241166   8.964   3.070   4.719
13761TIP3   OH241167   8.596   2.397   5.043
13761TIP3    H141168   8.564   2.396   5.136
13761TIP3    H241169   8.558   2.314   5.011
13762TIP3   OH241170   8.382   2.863   6.091
13762TIP3    H141171   8.331   2.884   6.172
13762TIP3    H241172   8.367   2.943   6.037
13763TIP3   OH241173   8.267   2.749   5.606
13763TIP3    H141174   8.173   2.723   5.622
13763TIP3    H241175   8.280   2.709   5.517
13764TIP3   OH241176   8.757   2.835   5.332
13764TIP3    H141177   8.703   2.906   5.291
13764TIP3    H241178   8.812   2.806   5.257
13765TIP3   OH241179   8.931   3.115   6.421
13765TIP3    H141180   8.909   3.041   6.482
13765TIP3    H241181   9.026   3.127   6.440
13766TIP3   OH241182   8.913   2.864   5.573
13766TIP3    H141183   8.855   2.894   5.500
13766TIP3    H241184   8.947   2.782   5.531
13767TIP3   OH241185   8.202   2.893   6.301
13767TIP3    H141186   8.226   2.958   6.368
13767TIP3    H241187   8.189   2.812   6.353
13768TIP3   OH241188   8.252   2.369   5.011
13768TIP3    H141189   8.243   2.366   5.108
13768TIP3    H241190   8.172   2.420   4.986
13769TIP3   OH241191   7.794   2.415   5.882
13769TIP3    H141192   7.871   2.446   5.934
13769TIP3    H241193   7.833   2.383   5.800
13770TIP3   OH241194   7.769   2.396   5.401
13770TIP3    H141195   7.813   2.435   5.322
13770TIP3    H241196   7.708   2.468   5.423
13771TIP3   OH241197   8.924   3.111   5.997
13771TIP3    H141198   8.957   3.039   5.938
13771TIP3    H241199   8.895   3.058   6.074
13772TIP3   OH241200   8.592   2.572   5.667
13772TIP3    H141201   8.511   2.570   5.721
13772TIP3    H241202   8.661   2.572   5.736
13773TIP3   OH241203   8.027   2.627   5.676
13773TIP3    H141204   7.933   2.634   5.649
13773TIP3    H241205   8.051   2.536   5.651
13774TIP3   OH241206   8.298   2.624   5.363
13774TIP3    H141207   8.393   2.639   5.343
13774TIP3    H241208   8.252   2.648   5.280
13775TIP3   OH241209   9.084   2.648   5.871
13775TIP3    H141210   9.045   2.659   5.961
13775TIP3    H241211   9.021   2.586   5.831
13776TIP3   OH241212   8.137   2.657   5.142
13776TIP3    H141213   8.066   2.612   5.093
13776TIP3    H241214   8.190   2.693   5.068
13777TIP3   OH241215   9.254   4.336   6.087
13777TIP3    H141216   9.252   4.358   5.992
13777TIP3    H241217   9.332   4.386   6.117
13778TIP3   OH241218   8.212   3.445   6.510
13778TIP3    H141219   8.292   3.477   6.557
13778TIP3    H241220   8.147   3.445   6.583
13779TIP3   OH241221   8.677   2.898   5.763
13779TIP3    H141222   8.750   2.861   5.711
13779TIP3    H241223   8.692   2.857   5.850
13780TIP3   OH241224   8.201   2.388   5.642
13780TIP3    H141225   8.169   2.306   5.686
13780TIP3    H241226   8.251   2.352   5.567
13781TIP3   OH241227   8.653   2.792   6.060
13781TIP3    H141228   8.564   2.832   6.069
13781TIP3    H241229   8.711   2.855   6.107
13782TIP3   OH241230   8.390   3.188   5.148
13782TIP3    H141231   8.317   3.122   5.138
13782TIP3    H241232   8.373   3.221   5.240
13783TIP3   OH241233   9.290   3.423   5.779
13783TIP3    H141234   9.312   3.470   5.696
13783TIP3    H241235   9.204   3.381   5.756
13784TIP3   OH241236   8.849   2.500   5.012
13784TIP3    H141237   8.752   2.485   5.019
13784TIP3    H241238   8.860   2.595   5.033
13785TIP3   OH241239   8.789   3.504   6.147
13785TIP3    H141240   8.811   3.484   6.239
13785TIP3    H241241   8.751   3.594   6.152
13786TIP3   OH241242   8.920   2.746   5.114
13786TIP3    H141243   9.016   2.752   5.127
13786TIP3    H241244   8.901   2.825   5.059
13787TIP3   OH241245   8.082   3.208   5.826
13787TIP3    H141246   8.120   3.181   5.740
13787TIP3    H241247   8.122   3.144   5.887
13788TIP3   OH241248   8.535   3.337   4.969
13788TIP3    H141249   8.488   3.423   4.977
13788TIP3    H241250   8.481   3.281   5.029
13789TIP3   OH241251   7.962   3.129   6.438
13789TIP3    H141252   7.982   3.115   6.533
13789TIP3    H241253   7.892   3.063   6.423
13790TIP3   OH241254   8.687   3.242   6.460
13790TIP3    H141255   8.629   3.186   6.407
13790TIP3    H241256   8.775   3.210   6.431
13791TIP3   OH241257   8.951   3.762   6.044
13791TIP3    H141258   8.854   3.763   6.054
13791TIP3    H241259   8.978   3.816   6.121
13792TIP3   OH241260   9.354   2.828   4.962
13792TIP3    H141261   9.295   2.782   4.898
13792TIP3    H241262   9.376   2.904   4.906
13793TIP3   OH241263   9.578   3.685   6.024
13793TIP3    H141264   9.480   3.685   6.019
13793TIP3    H241265   9.600   3.652   5.934
13794TIP3   OH241266   9.056   3.655   4.858
13794TIP3    H141267   9.038   3.583   4.919
13794TIP3    H241268   9.073   3.609   4.773
13795TIP3   OH241269   9.055   3.285   5.701
13795TIP3    H141270   8.962   3.260   5.712
13795TIP3    H241271   9.089   3.207   5.653
13796TIP3   OH241272   8.183   3.512   5.451
13796TIP3    H141273   8.186   3.593   5.397
13796TIP3    H241274   8.088   3.497   5.457
13797TIP3   OH241275   7.746   2.817   5.153
13797TIP3    H141276   7.793   2.901   5.173
13797TIP3    H241277   7.669   2.824   5.213
13798TIP3   OH241278   8.323   3.279   5.396
13798TIP3    H141279   8.288   3.369   5.413
13798TIP3    H241280   8.285   3.229   5.471
13799TIP3   OH241281   8.452   3.856   5.920
13799TIP3    H141282   8.492   3.929   5.868
13799TIP3    H241283   8.529   3.823   5.968
13800TIP3   OH241284   8.103   3.751   5.304
13800TIP3    H141285   8.017   3.759   5.348
13800TIP3    H241286   8.135   3.844   5.306
13801TIP3   OH241287   8.842   3.492   5.878
13801TIP3    H141288   8.833   3.489   5.976
13801TIP3    H241289   8.921   3.438   5.864
13802TIP3   OH241290   8.814   3.381   4.761
13802TIP3    H141291   8.868   3.358   4.840
13802TIP3    H241292   8.726   3.356   4.791
13803TIP3   OH241293   9.090   4.025   5.928
13803TIP3    H141294   9.011   3.970   5.919
13803TIP3    H241295   9.076   4.091   5.856
13804TIP3   OH241296   9.154   3.860   4.581
13804TIP3    H141297   9.191   3.934   4.530
13804TIP3    H241298   9.073   3.905   4.614
13805TIP3   OH241299   8.174   2.635   6.448
13805TIP3    H141300   8.078   2.643   6.461
13805TIP3    H241301   8.200   2.575   6.520
13806TIP3   OH241302   8.972   3.320   4.980
13806TIP3    H141303   8.964   3.251   5.049
13806TIP3    H241304   9.069   3.317   4.964
13807TIP3   OH241305   7.890   3.721   6.079
13807TIP3    H141306   7.942   3.644   6.108
13807TIP3    H241307   7.920   3.788   6.142
13808TIP3   OH241308   8.181   3.364   4.760
13808TIP3    H141309   8.196   3.273   4.730
13808TIP3    H241310   8.163   3.351   4.855
13809TIP3   OH241311   8.127   3.368   5.033
13809TIP3    H141312   8.199   3.342   5.091
13809TIP3    H241313   8.131   3.466   5.039
13810TIP3   OH241314   7.863   3.062   5.235
13810TIP3    H141315   7.797   3.107   5.292
13810TIP3    H241316   7.878   3.132   5.168
13811TIP3   OH241317   9.007   2.702   6.130
13811TIP3    H141318   9.091   2.739   6.162
13811TIP3    H241319   8.997   2.620   6.183
13812TIP3   OH241320   8.888   2.453   5.292
13812TIP3    H141321   8.876   2.476   5.197
13812TIP3    H241322   8.929   2.534   5.328
13813TIP3   OH241323   8.392   3.566   4.982
13813TIP3    H141324   8.305   3.596   5.016
13813TIP3    H241325   8.410   3.637   4.919
13814TIP3   OH241326   8.581   2.629   5.394
13814TIP3    H141327   8.646   2.700   5.375
13814TIP3    H241328   8.586   2.623   5.492
13815TIP3   OH241329   8.848   2.948   6.203
13815TIP3    H141330   8.871   3.001   6.282
13815TIP3    H241331   8.906   2.870   6.213
13816TIP3   OH241332   8.726   2.358   5.498
13816TIP3    H141333   8.720   2.434   5.558
13816TIP3    H241334   8.786   2.394   5.429
13817TIP3   OH241335   8.134   3.642   5.048
13817TIP3    H141336   8.105   3.711   4.985
13817TIP3    H241337   8.119   3.686   5.134
13818TIP3   OH241338   8.236   2.354   5.288
13818TIP3    H141339   8.234   2.446   5.322
13818TIP3    H241340   8.333   2.336   5.295
13819TIP3   OH241341   9.488   2.851   6.186
13819TIP3    H141342   9.390   2.845   6.185
13819TIP3    H241343   9.508   2.826   6.095
13820TIP3   OH241344   9.132   3.050   5.568
13820TIP3    H141345   9.060   2.985   5.581
13820TIP3    H241346   9.207   3.007   5.615
13821TIP3   OH241347   7.853   3.274   5.042
13821TIP3    H141348   7.919   3.345   5.050
13821TIP3    H241349   7.899   3.219   4.974
13822TIP3   OH241350   7.799   2.547   5.175
13822TIP3    H141351   7.798   2.645   5.170
13822TIP3    H241352   7.716   2.524   5.132
13823TIP3   OH241353   9.109   3.997   5.521
13823TIP3    H141354   9.067   4.044   5.446
13823TIP3    H241355   9.204   4.018   5.502
13824TIP3   OH241356   8.186   2.268   6.048
13824TIP3    H141357   8.155   2.238   5.960
13824TIP3    H241358   8.174   2.187   6.103
13825TIP3   OH241359   7.727   3.488   5.431
13825TIP3    H141360   7.652   3.518   5.485
13825TIP3    H241361   7.704   3.527   5.344
13826TIP3   OH241362   7.881   4.027   6.500
13826TIP3    H141363   7.967   4.026   6.547
13826TIP3    H241364   7.859   3.932   6.499
13827TIP3   OH241365   8.365   3.994   6.544
13827TIP3    H141366   8.459   3.973   6.552
13827TIP3    H241367   8.339   3.935   6.470
13828TIP3   OH241368   8.345   3.569   4.674
13828TIP3    H141369   8.289   3.497   4.712
13828TIP3    H241370   8.420   3.517   4.640
13829TIP3   OH241371   9.001   3.899   6.278
13829TIP3    H141372   8.994   3.829   6.346
13829TIP3    H241373   9.079   3.949   6.308
13830TIP3   OH241374   8.780   3.609   4.584
13830TIP3    H141375   8.827   3.547   4.642
13830TIP3    H241376   8.837   3.611   4.504
13831TIP3   OH241377   8.012   3.434   6.700
13831TIP3    H141378   8.029   3.338   6.704
13831TIP3    H241379   7.924   3.437   6.658
13832TIP3   OH241380   7.988   3.086   4.893
13832TIP3    H141381   8.044   3.052   4.966
13832TIP3    H241382   8.056   3.090   4.822
13833TIP3   OH241383   8.621   3.518   6.474
13833TIP3    H141384   8.578   3.534   6.387
13833TIP3    H241385   8.651   3.425   6.466
13834TIP3   OH241386   8.496   3.282   4.700
13834TIP3    H141387   8.500   3.296   4.797
13834TIP3    H241388   8.496   3.184   4.696
13835TIP3   OH241389   9.113   3.526   6.081
13835TIP3    H141390   9.186   3.572   6.036
13835TIP3    H241391   9.041   3.591   6.068
13836TIP3   OH241392   8.130   3.167   6.683
13836TIP3    H141393   8.205   3.111   6.662
13836TIP3    H241394   8.155   3.200   6.772
13837TIP3   OH241395   8.198   2.988   5.116
13837TIP3    H141396   8.172   2.945   5.199
13837TIP3    H241397   8.233   2.913   5.064
13838TIP3   OH241398   8.467   3.052   6.345
13838TIP3    H141399   8.389   3.112   6.348
13838TIP3    H241400   8.514   3.085   6.265
13839TIP3   OH241401   8.298   2.781   4.957
13839TIP3    H141402   8.271   2.783   4.863
13839TIP3    H241403   8.395   2.788   4.949
13840TIP3   OH241404   8.982   3.454   6.478
13840TIP3    H141405   9.063   3.434   6.429
13840TIP3    H241406   8.982   3.386   6.547
13841TIP3   OH241407   9.120   3.114   4.617
13841TIP3    H141408   9.097   3.066   4.536
13841TIP3    H241409   9.087   3.204   4.593
13842TIP3   OH241410   8.589   2.839   6.471
13842TIP3    H141411   8.590   2.760   6.414
13842TIP3    H241412   8.547   2.906   6.413
13843TIP3   OH241413   8.591   2.625   6.278
13843TIP3    H141414   8.619   2.668   6.195
13843TIP3    H241415   8.498   2.604   6.258
13844TIP3   OH241416   8.621   3.164   6.151
13844TIP3    H141417   8.703   3.170   6.101
13844TIP3    H241418   8.564   3.231   6.107
13845TIP3   OH241419   9.206   3.131   6.536
13845TIP3    H141420   9.253   3.046   6.535
13845TIP3    H241421   9.273   3.191   6.499
13846TIP3   OH241422   9.242   3.383   6.269
13846TIP3    H141423   9.185   3.436   6.209
13846TIP3    H241424   9.330   3.401   6.228
13847TIP3   OH241425   8.469   2.953   6.701
13847TIP3    H141426   8.398   2.887   6.714
13847TIP3    H241427   8.502   2.929   6.612
13848TIP3   OH241428   8.724   2.392   6.346
13848TIP3    H141429   8.677   2.475   6.321
13848TIP3    H241430   8.655   2.325   6.331
13849TIP3   OH241431   8.850   2.895   6.561
13849TIP3    H141432   8.837   2.886   6.657
13849TIP3    H241433   8.760   2.871   6.529
13850TIP3   OH241434   9.091   2.848   6.417
13850TIP3    H141435   9.014   2.847   6.477
13850TIP3    H241436   9.163   2.815   6.474
13851TIP3   OH241437   9.319   2.786   6.570
13851TIP3    H141438   9.330   2.690   6.587
13851TIP3    H241439   9.315   2.824   6.660
13852TIP3   OH241440   8.306   2.733   6.752
13852TIP3    H141441   8.315   2.644   6.715
13852TIP3    H241442   8.340   2.720   6.843
13853TIP3   OH241443   8.817   2.398   6.604
13853TIP3    H141444   8.887   2.330   6.596
13853TIP3    H241445   8.779   2.395   6.514
13854TIP3   OH241446   8.882   2.613   6.763
13854TIP3    H141447   8.860   2.544   6.697
13854TIP3    H241448   8.806   2.675   6.754
13855TIP3   OH241449   8.105   3.844   4.861
13855TIP3    H141450   8.200   3.841   4.842
13855TIP3    H241451   8.074   3.892   4.782
13856TIP3   OH241452   7.585   3.225   5.078
13856TIP3    H141453   7.680   3.248   5.064
13856TIP3    H241454   7.580   3.137   5.036
13857TIP3   OH241455   7.497   3.838   5.491
13857TIP3    H141456   7.431   3.776   5.456
13857TIP3    H241457   7.543   3.782   5.557
13858TIP3   OH241458   7.634   3.692   5.677
13858TIP3    H141459   7.624   3.617   5.738
13858TIP3    H241460   7.686   3.752   5.734
13859TIP3   OH241461   9.361   4.088   5.479
13859TIP3    H141462   9.390   4.130   5.562
13859TIP3    H241463   9.421   4.129   5.414
13860TIP3   OH241464   9.389   4.112   5.763
13860TIP3    H141465   9.350   4.023   5.755
13860TIP3    H241466   9.469   4.090   5.815
13861TIP3   OH241467   9.439   3.787   6.332
13861TIP3    H141468   9.365   3.795   6.395
13861TIP3    H241469   9.479   3.876   6.336
13862TIP3   OH241470   9.248   3.303   4.950
13862TIP3    H141471   9.317   3.368   4.926
13862TIP3    H241472   9.289   3.260   5.028
13863TIP3   OH241473   9.368   3.168   5.152
13863TIP3    H141474   9.302   3.123   5.210
13863TIP3    H241475   9.429   3.208   5.217
13864TIP3   OH241476   9.434   3.553   5.584
13864TIP3    H141477   9.480   3.500   5.517
13864TIP3    H241478   9.423   3.638   5.536
13865TIP3   OH241479   9.268   3.857   5.784
13865TIP3    H141480   9.198   3.904   5.835
13865TIP3    H241481   9.216   3.812   5.715
13866TIP3   OH241482   9.325   3.083   4.796
13866TIP3    H141483   9.248   3.080   4.735
13866TIP3    H241484   9.296   3.154   4.856
13867TIP3   OH241485   9.178   2.749   4.769
13867TIP3    H141486   9.163   2.789   4.683
13867TIP3    H241487   9.157   2.655   4.751
13868TIP3   OH241488   9.194   3.022   5.302
13868TIP3    H141489   9.205   2.925   5.297
13868TIP3    H241490   9.179   3.037   5.398
13869TIP3   OH241491   7.823   3.096   6.049
13869TIP3    H141492   7.821   3.067   5.955
13869TIP3    H241493   7.920   3.099   6.065
13870TIP3   OH241494   9.485   3.447   6.159
13870TIP3    H141495   9.560   3.384   6.149
13870TIP3    H241496   9.511   3.518   6.099
13871TIP3   OH241497   9.682   3.262   6.183
13871TIP3    H141498   9.603   3.214   6.216
13871TIP3    H241499   9.747   3.189   6.190
13872TIP3   OH241500   9.132   2.482   4.745
13872TIP3    H141501   9.208   2.448   4.796
13872TIP3    H241502   9.058   2.423   4.770
13873TIP3   OH241503   9.194   2.742   5.197
13873TIP3    H141504   9.235   2.654   5.213
13873TIP3    H241505   9.250   2.774   5.123
13874TIP3   OH241506   9.345   2.935   5.683
13874TIP3    H141507   9.430   2.964   5.643
13874TIP3    H241508   9.369   2.940   5.777
13875TIP3   OH241509   9.424   3.061   5.934
13875TIP3    H141510   9.341   3.093   5.975
13875TIP3    H241511   9.453   3.138   5.881
13876TIP3   OH241512   8.038   2.783   6.722
13876TIP3    H141513   8.136   2.778   6.724
13876TIP3    H241514   8.014   2.700   6.766
13877TIP3   OH241515   9.298   2.490   5.245
13877TIP3    H141516   9.338   2.475   5.333
13877TIP3    H241517   9.238   2.413   5.237
13878TIP3   OH241518   8.002   2.476   6.056
13878TIP3    H141519   8.066   2.402   6.064
13878TIP3    H241520   8.063   2.552   6.049
13879TIP3   OH241521   7.806   2.750   6.130
13879TIP3    H141522   7.854   2.743   6.045
13879TIP3    H241523   7.832   2.838   6.158
13880TIP3   OH241524   9.731   2.777   6.306
13880TIP3    H141525   9.651   2.830   6.320
13880TIP3    H241526   9.698   2.719   6.235
13881TIP3   OH241527   9.381   2.410   4.858
13881TIP3    H141528   9.426   2.326   4.837
13881TIP3    H241529   9.434   2.472   4.804
13882TIP3   OH241530   7.787   2.256   5.631
13882TIP3    H141531   7.693   2.252   5.654
13882TIP3    H241532   7.786   2.312   5.551
13883TIP3   OH241533   8.946   3.956   5.135
13883TIP3    H141534   8.996   3.940   5.053
13883TIP3    H241535   8.999   4.024   5.178
13884TIP3   OH241536   8.006   2.328   6.442
13884TIP3    H141537   7.957   2.331   6.525
13884TIP3    H241538   7.942   2.373   6.382
13885TIP3   OH241539   8.048   3.759   6.521
13885TIP3    H141540   7.956   3.732   6.503
13885TIP3    H241541   8.055   3.742   6.616
13886TIP3   OH241542   8.225   3.792   6.068
13886TIP3    H141543   8.177   3.867   6.029
13886TIP3    H241544   8.311   3.806   6.023
13887TIP3   OH241545   8.671   4.038   6.206
13887TIP3    H141546   8.713   4.039   6.294
13887TIP3    H241547   8.737   4.088   6.153
13888TIP3   OH241548   8.850   4.188   6.064
13888TIP3    H141549   8.921   4.139   6.021
13888TIP3    H241550   8.901   4.246   6.124
13889TIP3   OH241551   9.634   2.550   6.173
13889TIP3    H141552   9.551   2.557   6.122
13889TIP3    H241553   9.672   2.468   6.137
13890TIP3   OH241554   7.902   4.051   6.090
13890TIP3    H141555   7.814   4.086   6.067
13890TIP3    H241556   7.910   4.082   6.181
13891TIP3   OH241557   8.139   4.029   5.949
13891TIP3    H141558   8.052   4.042   5.994
13891TIP3    H241559   8.119   4.061   5.859
13892TIP3   OH241560   8.564   4.058   5.747
13892TIP3    H141561   8.496   4.079   5.680
13892TIP3    H241562   8.578   4.145   5.789
13893TIP3   OH241563   8.833   3.997   5.798
13893TIP3    H141564   8.739   4.014   5.778
13893TIP3    H241565   8.876   4.072   5.755
13894TIP3   OH241566   9.039   4.188   5.713
13894TIP3    H141567   9.025   4.274   5.667
13894TIP3    H241568   9.066   4.130   5.639
13895TIP3   OH241569   7.813   3.844   5.837
13895TIP3    H141570   7.841   3.818   5.927
13895TIP3    H241571   7.885   3.801   5.785
13896TIP3   OH241572   8.006   3.716   5.693
13896TIP3    H141573   8.023   3.631   5.741
13896TIP3    H241574   8.097   3.753   5.688
13897TIP3   OH241575   8.272   3.811   5.695
13897TIP3    H141576   8.304   3.720   5.681
13897TIP3    H241577   8.316   3.832   5.780
13898TIP3   OH241578   8.848   2.467   5.781
13898TIP3    H141579   8.807   2.396   5.833
13898TIP3    H241580   8.922   2.421   5.736
13899TIP3   OH241581   9.372   2.355   5.711
13899TIP3    H141582   9.408   2.401   5.632
13899TIP3    H241583   9.276   2.364   5.698
13900TIP3   OH241584   9.462   2.445   5.472
13900TIP3    H141585   9.541   2.398   5.439
13900TIP3    H241586   9.490   2.539   5.457
13901TIP3   OH241587   8.098   2.176   5.802
13901TIP3    H141588   8.006   2.143   5.799
13901TIP3    H241589   8.147   2.091   5.797
13902TIP3   OH241590   7.887   2.044   5.448
13902TIP3    H141591   7.915   2.101   5.375
13902TIP3    H241592   7.855   2.109   5.514
13903TIP3   OH241593   8.541   2.208   5.680
13903TIP3    H141594   8.598   2.257   5.619
13903TIP3    H241595   8.565   2.247   5.765
13904TIP3   OH241596   9.084   2.354   5.667
13904TIP3    H141597   9.096   2.318   5.578
13904TIP3    H241598   9.073   2.272   5.720
13905TIP3   OH241599   9.110   2.280   5.229
13905TIP3    H141600   9.023   2.322   5.243
13905TIP3    H241601   9.096   2.194   5.274
13906TIP3   OH241602   7.601   3.615   5.229
13906TIP3    H141603   7.517   3.582   5.193
13906TIP3    H241604   7.590   3.709   5.211
13907TIP3   OH241605   8.001   2.204   5.212
13907TIP3    H141606   8.049   2.142   5.155
13907TIP3    H241607   8.074   2.259   5.248
13908TIP3   OH241608   8.514   2.379   5.310
13908TIP3    H141609   8.575   2.333   5.370
13908TIP3    H241610   8.534   2.472   5.334
13909TIP3   OH241611   8.373   3.805   4.810
13909TIP3    H141612   8.462   3.828   4.774
13909TIP3    H241613   8.351   3.730   4.751
13910TIP3   OH241614   9.090   3.921   4.902
13910TIP3    H141615   9.081   3.824   4.887
13910TIP3    H241616   9.048   3.956   4.821
13911TIP3   OH241617   8.306   2.452   6.687
13911TIP3    H141618   8.273   2.385   6.748
13911TIP3    H241619   8.401   2.456   6.714
13912TIP3   OH241620   8.554   2.453   6.809
13912TIP3    H141621   8.639   2.432   6.767
13912TIP3    H241622   8.545   2.381   6.874
13913TIP3   OH241623   7.677   3.641   4.867
13913TIP3    H141624   7.679   3.668   4.960
13913TIP3    H241625   7.766   3.600   4.855
13914TIP3   OH241626   9.376   2.515   6.599
13914TIP3    H141627   9.400   2.484   6.688
13914TIP3    H241628   9.462   2.513   6.552
13915TIP3   OH241629   9.316   4.067   6.093
13915TIP3    H141630   9.238   4.035   6.043
13915TIP3    H241631   9.299   4.163   6.093
13916TIP3   OH241632   9.538   2.947   5.133
13916TIP3    H141633   9.475   3.021   5.130
13916TIP3    H241634   9.489   2.881   5.080
13917TIP3   OH241635   9.597   3.237   5.286
13917TIP3    H141636   9.632   3.154   5.321
13917TIP3    H241637   9.636   3.235   5.196
13918TIP3   OH241638   9.451   3.473   4.870
13918TIP3    H141639   9.434   3.480   4.775
13918TIP3    H241640   9.483   3.563   4.891
13919TIP3   OH241641   9.639   3.583   5.776
13919TIP3    H141642   9.568   3.554   5.714
13919TIP3    H241643   9.673   3.498   5.812
13920TIP3   OH241644   9.500   3.789   5.429
13920TIP3    H141645   9.595   3.797   5.416
13920TIP3    H241646   9.480   3.873   5.472
13921TIP3   OH241647   9.636   4.010   4.963
13921TIP3    H141648   9.690   4.010   5.045
13921TIP3    H241649   9.583   3.930   4.974
13922TIP3   OH241650   9.785   3.807   5.801
13922TIP3    H141651   9.822   3.779   5.886
13922TIP3    H241652   9.722   3.733   5.783
13923TIP3   OH241653   9.565   2.682   5.391
13923TIP3    H141654   9.635   2.729   5.438
13923TIP3    H241655   9.574   2.716   5.301
13924TIP3   OH241656   9.740   3.380   5.930
13924TIP3    H141657   9.761   3.347   6.019
13924TIP3    H241658   9.674   3.315   5.900
13925TIP3   OH241659   9.522   3.144   4.615
13925TIP3    H141660   9.596   3.138   4.678
13925TIP3    H241661   9.446   3.122   4.673
13926TIP3   OH241662   9.685   3.980   5.573
13926TIP3    H141663   9.724   3.911   5.628
13926TIP3    H241664   9.714   4.061   5.618
13927TIP3   OH241665   9.517   3.739   4.920
13927TIP3    H141666   9.440   3.770   4.969
13927TIP3    H241667   9.502   3.784   4.833
13928TIP3   OH241668   9.673   4.277   5.991
13928TIP3    H141669   9.764   4.263   6.024
13928TIP3    H241670   9.644   4.184   5.983
13929TIP3   OH241671   9.804   3.715   6.177
13929TIP3    H141672   9.834   3.629   6.208
13929TIP3    H241673   9.720   3.695   6.131
13930TIP3   OH241674   9.379   3.489   4.556
13930TIP3    H141675   9.476   3.480   4.566
13930TIP3    H241676   9.361   3.405   4.508
13931TIP3   OH241677   9.292   4.093   4.978
13931TIP3    H141678   9.225   4.031   4.943
13931TIP3    H241679   9.339   4.037   5.044
13932TIP3   OH241680   9.426   3.943   5.166
13932TIP3    H141681   9.415   3.872   5.230
13932TIP3    H241682   9.481   4.005   5.218
13933TIP3   OH241683   9.643   3.347   5.535
13933TIP3    H141684   9.618   3.317   5.445
13933TIP3    H241685   9.727   3.392   5.517
13934TIP3   OH241686   9.819   3.029   6.192
13934TIP3    H141687   9.911   3.062   6.202
13934TIP3    H241688   9.817   2.953   6.254
13935TIP3   OH241689   9.592   3.024   5.588
13935TIP3    H141690   9.656   2.952   5.591
13935TIP3    H241691   9.641   3.100   5.620
13936TIP3   OH241692   9.547   2.564   5.105
13936TIP3    H141693   9.452   2.548   5.110
13936TIP3    H241694   9.559   2.586   5.011
13937TIP3   OH241695   9.841   4.024   6.029
13937TIP3    H141696   9.760   3.991   5.988
13937TIP3    H241697   9.838   3.983   6.116
13938TIP3   OH241698   9.690   4.295   5.586
13938TIP3    H141699   9.606   4.334   5.552
13938TIP3    H241700   9.703   4.351   5.664
13939TIP3   OH241701   9.938   4.280   5.446
13939TIP3    H141702   9.848   4.290   5.481
13939TIP3    H241703   9.930   4.322   5.358
13940TIP3   OH241704   9.604   4.091   5.323
13940TIP3    H141705   9.636   4.074   5.414
13940TIP3    H241706   9.685   4.068   5.272
13941TIP3   OH241707   9.815   3.987   5.170
13941TIP3    H141708   9.842   3.893   5.168
13941TIP3    H241709   9.902   4.031   5.179
13942TIP3   OH241710   9.398   3.869   4.714
13942TIP3    H141711   9.312   3.840   4.679
13942TIP3    H241712   9.389   3.965   4.704
13943TIP3   OH241713   9.496   3.915   4.366
13943TIP3    H141714   9.461   3.939   4.452
13943TIP3    H241715   9.552   3.838   4.387
13944TIP3   OH241716   1.243   3.968   7.059
13944TIP3    H141717   1.217   4.060   7.038
13944TIP3    H241718   1.164   3.920   7.031
13945TIP3   OH241719   1.248   3.967   7.436
13945TIP3    H141720   1.271   3.940   7.526
13945TIP3    H241721   1.197   3.890   7.405
13946TIP3   OH241722   0.537   3.866   7.800
13946TIP3    H141723   0.567   3.798   7.864
13946TIP3    H241724   0.613   3.926   7.800
13947TIP3   OH241725   1.489   4.268   7.120
13947TIP3    H141726   1.464   4.204   7.188
13947TIP3    H241727   1.505   4.349   7.173
13948TIP3   OH241728   0.518   4.275   7.539
13948TIP3    H141729   0.504   4.178   7.539
13948TIP3    H241730   0.614   4.279   7.518
13949TIP3   OH241731   0.180   3.476   7.316
13949TIP3    H141732   0.174   3.569   7.343
13949TIP3    H241733   0.162   3.430   7.398
13950TIP3   OH241734   0.281   3.763   7.483
13950TIP3    H141735   0.333   3.691   7.524
13950TIP3    H241736   0.342   3.799   7.418
13951TIP3   OH241737   1.148   4.737   7.139
13951TIP3    H141738   1.174   4.661   7.084
13951TIP3    H241739   1.092   4.694   7.205
13952TIP3   OH241740   1.042   4.194   7.490
13952TIP3    H141741   1.076   4.122   7.436
13952TIP3    H241742   1.127   4.237   7.515
13953TIP3   OH241743   2.030   3.525   7.473
13953TIP3    H141744   2.076   3.592   7.529
13953TIP3    H241745   2.087   3.522   7.394
13954TIP3   OH241746   1.454   3.699   7.521
13954TIP3    H141747   1.493   3.612   7.541
13954TIP3    H241748   1.420   3.684   7.431
13955TIP3   OH241749   0.789   3.357   7.487
13955TIP3    H141750   0.768   3.430   7.425
13955TIP3    H241751   0.740   3.284   7.444
13956TIP3   OH241752   1.482   3.447   7.110
13956TIP3    H141753   1.554   3.431   7.175
13956TIP3    H241754   1.533   3.484   7.036
13957TIP3   OH241755   0.424   3.557   7.588
13957TIP3    H141756   0.501   3.539   7.645
13957TIP3    H241757   0.443   3.499   7.512
13958TIP3   OH241758   0.865   3.757   7.381
13958TIP3    H141759   0.957   3.730   7.399
13958TIP3    H241760   0.824   3.673   7.352
13959TIP3   OH241761   2.117   3.729   7.643
13959TIP3    H141762   2.029   3.772   7.644
13959TIP3    H241763   2.144   3.742   7.735
13960TIP3   OH241764   0.785   3.340   7.921
13960TIP3    H141765   0.726   3.377   7.853
13960TIP3    H241766   0.734   3.360   8.002
13961TIP3   OH241767   1.147   4.190   6.922
13961TIP3    H141768   1.090   4.168   6.847
13961TIP3    H241769   1.105   4.270   6.957
13962TIP3   OH241770   0.894   4.115   7.718
13962TIP3    H141771   0.828   4.179   7.754
13962TIP3    H241772   0.930   4.165   7.642
13963TIP3   OH241773   1.694   3.449   7.280
13963TIP3    H141774   1.682   3.400   7.362
13963TIP3    H241775   1.749   3.524   7.310
13964TIP3   OH241776   0.656   3.455   7.707
13964TIP3    H141777   0.717   3.530   7.728
13964TIP3    H241778   0.705   3.414   7.632
13965TIP3   OH241779   0.723   4.306   7.815
13965TIP3    H141780   0.697   4.388   7.768
13965TIP3    H241781   0.643   4.295   7.871
13966TIP3   OH241782   0.163   4.014   7.000
13966TIP3    H141783   0.080   4.049   6.963
13966TIP3    H241784   0.179   4.078   7.072
13967TIP3   OH241785   1.559   4.512   7.284
13967TIP3    H141786   1.472   4.503   7.329
13967TIP3    H241787   1.547   4.599   7.241
13968TIP3   OH241788   1.843   3.417   7.652
13968TIP3    H141789   1.754   3.445   7.626
13968TIP3    H241790   1.898   3.451   7.579
13969TIP3   OH241791   1.144   3.062   7.634
13969TIP3    H141792   1.130   2.966   7.650
13969TIP3    H241793   1.066   3.099   7.680
13970TIP3   OH241794   1.262   4.557   6.958
13970TIP3    H141795   1.314   4.479   6.934
13970TIP3    H241796   1.318   4.628   6.919
13971TIP3   OH241797   1.408   4.340   6.864
13971TIP3    H141798   1.348   4.268   6.839
13971TIP3    H241799   1.441   4.309   6.951
13972TIP3   OH241800   1.780   4.431   7.634
13972TIP3    H141801   1.767   4.354   7.575
13972TIP3    H241802   1.762   4.507   7.574
13973TIP3   OH241803   1.071   3.821   6.890
13973TIP3    H141804   0.989   3.871   6.871
13973TIP3    H241805   1.115   3.821   6.803
13974TIP3   OH241806   1.030   3.607   6.607
13974TIP3    H141807   1.098   3.655   6.657
13974TIP3    H241808   1.086   3.543   6.560
13975TIP3   OH241809   1.968   4.061   7.482
13975TIP3    H141810   1.890   4.120   7.496
13975TIP3    H241811   1.975   4.064   7.386
13976TIP3   OH241812   1.420   3.905   6.862
13976TIP3    H141813   1.362   3.930   6.939
13976TIP3    H241814   1.501   3.877   6.909
13977TIP3   OH241815   1.654   3.945   7.773
13977TIP3    H141816   1.652   4.029   7.823
13977TIP3    H241817   1.566   3.948   7.729
13978TIP3   OH241818   0.651   3.901   7.278
13978TIP3    H141819   0.611   3.844   7.210
13978TIP3    H241820   0.730   3.849   7.305
13979TIP3   OH241821   0.774   4.284   7.440
13979TIP3    H141822   0.760   4.281   7.345
13979TIP3    H241823   0.870   4.273   7.448
13980TIP3   OH241824   0.796   3.871   7.633
13980TIP3    H141825   0.822   3.859   7.540
13980TIP3    H241826   0.831   3.961   7.653
13981TIP3   OH241827   1.327   4.509   7.415
13981TIP3    H141828   1.297   4.590   7.460
13981TIP3    H241829   1.301   4.438   7.476
13982TIP3   OH241830   0.925   4.430   7.959
13982TIP3    H141831   0.866   4.495   8.001
13982TIP3    H241832   0.860   4.378   7.907
13983TIP3   OH241833   1.263   3.760   6.688
13983TIP3    H141834   1.320   3.821   6.741
13983TIP3    H241835   1.287   3.786   6.596
13984TIP3   OH241836   0.690   3.987   8.054
13984TIP3    H141837   0.691   4.077   8.093
13984TIP3    H241838   0.595   3.966   8.064
13985TIP3   OH241839   0.724   4.603   8.044
13985TIP3    H141840   0.691   4.597   7.952
13985TIP3    H241841   0.651   4.563   8.096
13986TIP3   OH241842   1.775   3.004   6.736
13986TIP3    H141843   1.694   3.023   6.788
13986TIP3    H241844   1.786   3.088   6.687
13987TIP3   OH241845   0.523   3.741   7.082
13987TIP3    H141846   0.461   3.788   7.022
13987TIP3    H241847   0.473   3.661   7.101
13988TIP3   OH241848   1.572   4.372   6.281
13988TIP3    H141849   1.580   4.469   6.271
13988TIP3    H241850   1.665   4.344   6.270
13989TIP3   OH241851   0.302   4.142   7.986
13989TIP3    H141852   0.254   4.103   7.911
13989TIP3    H241853   0.335   4.062   8.029
13990TIP3   OH241854   1.997   4.787   7.655
13990TIP3    H141855   2.038   4.705   7.686
13990TIP3    H241856   1.922   4.796   7.717
13991TIP3   OH241857   1.126   4.558   7.815
13991TIP3    H141858   1.123   4.652   7.846
13991TIP3    H241859   1.052   4.520   7.867
13992TIP3   OH241860   0.896   4.711   6.740
13992TIP3    H141861   0.830   4.682   6.675
13992TIP3    H241862   0.854   4.787   6.783
13993TIP3   OH241863   0.379   4.517   7.104
13993TIP3    H141864   0.400   4.506   7.199
13993TIP3    H241865   0.287   4.487   7.096
13994TIP3   OH241866   1.085   4.590   6.407
13994TIP3    H141867   1.144   4.520   6.372
13994TIP3    H241868   1.117   4.599   6.499
13995TIP3   OH241869   1.143   4.633   6.676
13995TIP3    H141870   1.052   4.653   6.709
13995TIP3    H241871   1.183   4.598   6.757
13996TIP3   OH241872   1.906   3.905   7.956
13996TIP3    H141873   1.826   3.918   7.903
13996TIP3    H241874   1.924   3.809   7.942
13997TIP3   OH241875   0.509   4.318   7.980
13997TIP3    H141876   0.556   4.306   8.065
13997TIP3    H241877   0.438   4.251   7.986
13998TIP3   OH241878   0.905   3.136   7.763
13998TIP3    H141879   0.815   3.103   7.739
13998TIP3    H241880   0.879   3.219   7.806
13999TIP3   OH241881   1.436   3.251   7.957
13999TIP3    H141882   1.504   3.224   8.022
13999TIP3    H241883   1.352   3.231   8.003
14000TIP3   OH241884   1.677   3.680   7.875
14000TIP3    H141885   1.629   3.676   7.961
14000TIP3    H241886   1.650   3.767   7.840
14001TIP3   OH241887   1.337   3.808   6.431
14001TIP3    H141888   1.303   3.783   6.343
14001TIP3    H241889   1.413   3.863   6.407
14002TIP3   OH241890   1.051   3.184   6.734
14002TIP3    H141891   1.017   3.183   6.826
14002TIP3    H241892   1.010   3.102   6.701
14003TIP3   OH241893   0.838   3.650   7.781
14003TIP3    H141894   0.785   3.670   7.861
14003TIP3    H241895   0.822   3.731   7.727
14004TIP3   OH241896   0.719   3.535   7.296
14004TIP3    H141897   0.625   3.513   7.311
14004TIP3    H241898   0.732   3.496   7.206
14005TIP3   OH241899   1.210   3.624   7.023
14005TIP3    H141900   1.155   3.695   6.982
14005TIP3    H241901   1.262   3.594   6.947
14006TIP3   OH241902   1.384   3.902   8.110
14006TIP3    H141903   1.361   3.829   8.172
14006TIP3    H241904   1.478   3.915   8.131
14007TIP3   OH241905   1.368   3.653   7.262
14007TIP3    H141906   1.306   3.683   7.192
14007TIP3    H241907   1.399   3.570   7.220
14008TIP3   OH241908   0.660   3.681   7.989
14008TIP3    H141909   0.668   3.748   8.058
14008TIP3    H241910   0.642   3.600   8.040
14009TIP3   OH241911   0.705   3.158   6.700
14009TIP3    H141912   0.696   3.155   6.798
14009TIP3    H241913   0.625   3.208   6.676
14010TIP3   OH241914   0.243   3.222   7.539
14010TIP3    H141915   0.302   3.243   7.615
14010TIP3    H241916   0.290   3.147   7.500
14011TIP3   OH241917   0.236   3.210   7.106
14011TIP3    H141918   0.269   3.230   7.016
14011TIP3    H241919   0.182   3.289   7.122
14012TIP3   OH241920   1.381   3.899   7.687
14012TIP3    H141921   1.412   3.827   7.628
14012TIP3    H241922   1.349   3.847   7.763
14013TIP3   OH241923   1.045   3.358   7.357
14013TIP3    H141924   0.962   3.358   7.408
14013TIP3    H241925   1.111   3.360   7.428
14014TIP3   OH241926   0.477   3.413   7.358
14014TIP3    H141927   0.385   3.407   7.326
14014TIP3    H241928   0.510   3.322   7.344
14015TIP3   OH241929   0.751   3.410   7.053
14015TIP3    H141930   0.845   3.429   7.031
14015TIP3    H241931   0.703   3.435   6.971
14016TIP3   OH241932   1.537   3.434   7.557
14016TIP3    H141933   1.503   3.447   7.649
14016TIP3    H241934   1.470   3.373   7.521
14017TIP3   OH241935   0.590   3.443   6.832
14017TIP3    H141936   0.519   3.399   6.783
14017TIP3    H241937   0.642   3.480   6.758
14018TIP3   OH241938   1.707   5.125   7.777
14018TIP3    H141939   1.706   5.147   7.682
14018TIP3    H241940   1.787   5.172   7.808
14019TIP3   OH241941   0.672   4.228   8.198
14019TIP3    H141942   0.750   4.265   8.244
14019TIP3    H241943   0.604   4.241   8.267
14020TIP3   OH241944   1.130   3.687   7.455
14020TIP3    H141945   1.202   3.646   7.406
14020TIP3    H241946   1.139   3.646   7.544
14021TIP3   OH241947   0.652   3.177   7.333
14021TIP3    H141948   0.618   3.096   7.378
14021TIP3    H241949   0.701   3.140   7.259
14022TIP3   OH241950   1.106   3.582   7.745
14022TIP3    H141951   1.016   3.618   7.758
14022TIP3    H241952   1.162   3.644   7.796
14023TIP3   OH241953   0.845   3.974   6.840
14023TIP3    H141954   0.771   3.911   6.828
14023TIP3    H241955   0.826   4.008   6.931
14024TIP3   OH241956   1.742   4.212   7.468
14024TIP3    H141957   1.763   4.253   7.382
14024TIP3    H241958   1.655   4.170   7.450
14025TIP3   OH241959   1.301   3.289   6.697
14025TIP3    H141960   1.204   3.271   6.708
14025TIP3    H241961   1.310   3.383   6.724
14026TIP3   OH241962   1.246   4.295   7.836
14026TIP3    H141963   1.260   4.271   7.929
14026TIP3    H241964   1.203   4.382   7.842
14027TIP3   OH241965   1.371   3.533   6.804
14027TIP3    H141966   1.467   3.541   6.819
14027TIP3    H241967   1.350   3.613   6.751
14028TIP3   OH241968   0.533   3.996   7.516
14028TIP3    H141969   0.575   3.970   7.431
14028TIP3    H241970   0.568   3.930   7.577
14029TIP3   OH241971   0.988   4.124   6.660
14029TIP3    H141972   0.940   4.210   6.664
14029TIP3    H241973   0.932   4.069   6.719
14030TIP3   OH241974   0.438   3.918   8.130
14030TIP3    H141975   0.446   3.908   8.226
14030TIP3    H241976   0.348   3.883   8.112
14031TIP3   OH241977   1.139   4.030   8.151
14031TIP3    H141978   1.078   3.974   8.099
14031TIP3    H241979   1.226   3.997   8.119
14032TIP3   OH241980   1.405   4.551   7.735
14032TIP3    H141981   1.309   4.550   7.744
14032TIP3    H241982   1.431   4.605   7.812
14033TIP3   OH241983   1.816   3.624   6.640
14033TIP3    H141984   1.753   3.578   6.579
14033TIP3    H241985   1.811   3.712   6.599
14034TIP3   OH241986   2.032   4.472   7.728
14034TIP3    H141987   1.934   4.479   7.718
14034TIP3    H241988   2.056   4.453   7.635
14035TIP3   OH241989   1.520   4.443   6.551
14035TIP3    H141990   1.483   4.380   6.614
14035TIP3    H241991   1.522   4.392   6.467
14036TIP3   OH241992   1.510   4.072   7.389
14036TIP3    H141993   1.416   4.048   7.404
14036TIP3    H241994   1.542   3.992   7.342
14037TIP3   OH241995   0.627   4.285   7.129
14037TIP3    H141996   0.683   4.365   7.119
14037TIP3    H241997   0.541   4.326   7.142
14038TIP3   OH241998   0.198   3.608   6.848
14038TIP3    H141999   0.264   3.680   6.856
14038TIP3    H242000   0.129   3.645   6.906
14039TIP3   OH242001   0.781   4.064   7.087
14039TIP3    H142002   0.735   4.151   7.097
14039TIP3    H242003   0.741   4.016   7.162
14040TIP3   OH242004   0.908   4.642   7.610
14040TIP3    H142005   0.944   4.715   7.556
14040TIP3    H242006   0.987   4.612   7.657
14041TIP3   OH242007   1.295   4.277   7.569
14041TIP3    H142008   1.285   4.278   7.667
14041TIP3    H242009   1.376   4.225   7.559
14042TIP3   OH242010   1.266   4.171   6.448
14042TIP3    H142011   1.318   4.145   6.527
14042TIP3    H242012   1.177   4.146   6.477
14043TIP3   OH242013   1.543   4.812   7.617
14043TIP3    H142014   1.463   4.757   7.609
14043TIP3    H242015   1.527   4.878   7.546
14044TIP3   OH242016   1.607   4.648   6.270
14044TIP3    H142017   1.640   4.723   6.217
14044TIP3    H242018   1.527   4.691   6.306
14045TIP3   OH242019   0.636   3.420   8.144
14045TIP3    H142020   0.542   3.427   8.163
14045TIP3    H242021   0.665   3.355   8.210
14046TIP3   OH242022   1.425   4.099   6.661
14046TIP3    H142023   1.415   4.038   6.736
14046TIP3    H242024   1.522   4.103   6.653
14047TIP3   OH242025   0.373   4.529   7.762
14047TIP3    H142026   0.405   4.437   7.764
14047TIP3    H242027   0.388   4.556   7.853
14048TIP3   OH242028   0.636   4.151   6.449
14048TIP3    H142029   0.646   4.059   6.421
14048TIP3    H242030   0.618   4.141   6.545
14049TIP3   OH242031   0.584   4.160   6.721
14049TIP3    H142032   0.645   4.133   6.792
14049TIP3    H242033   0.586   4.258   6.729
14050TIP3   OH242034   0.339   3.839   6.904
14050TIP3    H142035   0.272   3.890   6.956
14050TIP3    H242036   0.357   3.906   6.836
14051TIP3   OH242037   1.464   3.486   7.815
14051TIP3    H142038   1.543   3.525   7.856
14051TIP3    H242039   1.449   3.406   7.870
14052TIP3   OH242040   1.344   3.239   6.980
14052TIP3    H142041   1.329   3.264   6.887
14052TIP3    H242042   1.383   3.321   7.018
14053TIP3   OH242043   0.848   4.356   6.670
14053TIP3    H142044   0.767   4.383   6.717
14053TIP3    H242045   0.862   4.433   6.613
14054TIP3   OH242046   1.035   3.417   7.084
14054TIP3    H142047   1.099   3.489   7.067
14054TIP3    H242048   1.038   3.410   7.182
14055TIP3   OH242049   1.302   3.737   7.893
14055TIP3    H142050   1.320   3.792   7.971
14055TIP3    H242051   1.359   3.659   7.909
14056TIP3   OH242052   1.179   3.146   7.188
14056TIP3    H142053   1.169   3.224   7.247
14056TIP3    H242054   1.239   3.183   7.120
14057TIP3   OH242055   0.585   4.433   6.739
14057TIP3    H142056   0.557   4.499   6.672
14057TIP3    H242057   0.574   4.483   6.821
14058TIP3   OH242058   0.690   3.142   6.977
14058TIP3    H142059   0.686   3.233   7.012
14058TIP3    H242060   0.786   3.125   6.985
14059TIP3   OH242061   1.944   3.639   7.869
14059TIP3    H142062   1.846   3.638   7.877
14059TIP3    H242063   1.955   3.587   7.788
14060TIP3   OH242064   1.591   3.832   7.257
14060TIP3    H142065   1.514   3.775   7.272
14060TIP3    H242066   1.661   3.785   7.308
14061TIP3   OH242067   0.317   4.067   6.726
14061TIP3    H142068   0.387   4.134   6.738
14061TIP3    H242069   0.359   4.013   6.656
14062TIP3   OH242070   0.249   3.335   6.864
14062TIP3    H142071   0.247   3.433   6.865
14062TIP3    H242072   0.176   3.313   6.806
14063TIP3   OH242073   1.563   4.785   7.212
14063TIP3    H142074   1.517   4.830   7.137
14063TIP3    H242075   1.656   4.807   7.190
14064TIP3   OH242076   0.643   3.051   7.739
14064TIP3    H142077   0.607   3.022   7.653
14064TIP3    H242078   0.625   2.973   7.796
14065TIP3   OH242079   0.192   4.239   7.152
14065TIP3    H142080   0.115   4.295   7.134
14065TIP3    H242081   0.253   4.272   7.085
14066TIP3   OH242082   0.811   4.790   8.233
14066TIP3    H142083   0.905   4.767   8.242
14066TIP3    H242084   0.786   4.728   8.161
14067TIP3   OH242085   0.797   4.354   6.360
14067TIP3    H142086   0.739   4.286   6.401
14067TIP3    H242087   0.871   4.298   6.332
14068TIP3   OH242088   1.454   4.689   7.969
14068TIP3    H142089   1.446   4.617   8.036
14068TIP3    H242090   1.533   4.737   7.999
14069TIP3   OH242091   1.234   4.398   6.274
14069TIP3    H142092   1.276   4.331   6.332
14069TIP3    H242093   1.292   4.397   6.196
14070TIP3   OH242094   0.482   4.208   8.398
14070TIP3    H142095   0.515   4.116   8.393
14070TIP3    H242096   0.387   4.190   8.379
14071TIP3   OH242097   0.446   3.873   6.582
14071TIP3    H142098   0.500   3.840   6.655
14071TIP3    H242099   0.513   3.877   6.511
14072TIP3   OH242100   1.073   4.306   8.163
14072TIP3    H142101   1.029   4.322   8.077
14072TIP3    H242102   1.102   4.213   8.155
14073TIP3   OH242103   0.953   4.072   6.390
14073TIP3    H142104   0.952   4.085   6.487
14073TIP3    H242105   0.949   3.974   6.385
14074TIP3   OH242106   1.566   4.312   7.768
14074TIP3    H142107   1.639   4.362   7.727
14074TIP3    H242108   1.492   4.376   7.759
14075TIP3   OH242109   0.571   3.938   8.389
14075TIP3    H142110   0.650   3.899   8.352
14075TIP3    H242111   0.603   3.976   8.473
14076TIP3   OH242112   0.652   3.776   6.806
14076TIP3    H142113   0.622   3.737   6.889
14076TIP3    H242114   0.685   3.698   6.757
14077TIP3   OH242115   0.925   3.844   8.037
14077TIP3    H142116   0.844   3.899   8.038
14077TIP3    H242117   0.969   3.875   7.955
14078TIP3   OH242118   0.750   3.567   6.647
14078TIP3    H142119   0.722   3.571   6.553
14078TIP3    H242120   0.847   3.577   6.638
14079TIP3   OH242121   1.435   4.243   8.169
14079TIP3    H142122   1.515   4.222   8.120
14079TIP3    H242123   1.434   4.174   8.237
14080TIP3   OH242124   1.578   3.902   6.305
14080TIP3    H142125   1.550   3.854   6.225
14080TIP3    H242126   1.543   3.992   6.283
14081TIP3   OH242127   1.042   3.628   8.162
14081TIP3    H142128   1.040   3.549   8.104
14081TIP3    H242129   0.999   3.696   8.104
14082TIP3   OH242130   1.044   3.413   7.966
14082TIP3    H142131   1.071   3.457   7.882
14082TIP3    H242132   0.950   3.392   7.948
14083TIP3   OH242133   1.076   3.953   7.840
14083TIP3    H142134   1.155   3.962   7.786
14083TIP3    H242135   1.015   4.019   7.798
14084TIP3   OH242136   1.657   3.918   8.225
14084TIP3    H142137   1.705   3.834   8.228
14084TIP3    H242138   1.724   3.978   8.188
14085TIP3   OH242139   1.695   4.170   7.958
14085TIP3    H142140   1.637   4.223   7.898
14085TIP3    H242141   1.782   4.189   7.917
14086TIP3   OH242142   0.919   3.743   8.391
14086TIP3    H142143   0.851   3.673   8.402
14086TIP3    H242144   0.954   3.721   8.303
14087TIP3   OH242145   1.176   3.180   8.035
14087TIP3    H142146   1.129   3.262   8.011
14087TIP3    H242147   1.106   3.113   8.021
14088TIP3   OH242148   1.303   3.684   8.250
14088TIP3    H142149   1.289   3.674   8.346
14088TIP3    H242150   1.213   3.660   8.218
14089TIP3   OH242151   1.542   3.632   8.104
14089TIP3    H142152   1.466   3.634   8.165
14089TIP3    H242153   1.615   3.602   8.163
14090TIP3   OH242154   1.768   3.573   8.258
14090TIP3    H142155   1.783   3.478   8.276
14090TIP3    H242156   1.767   3.612   8.348
14091TIP3   OH242157   0.755   3.527   8.438
14091TIP3    H142158   0.764   3.437   8.402
14091TIP3    H242159   0.797   3.513   8.526
14092TIP3   OH242160   1.270   3.187   8.292
14092TIP3    H142161   1.339   3.118   8.284
14092TIP3    H242162   1.230   3.183   8.203
14093TIP3   OH242163   1.336   3.405   8.448
14093TIP3    H142164   1.312   3.334   8.384
14093TIP3    H242165   1.259   3.465   8.441
14094TIP3   OH242166   0.556   4.631   6.549
14094TIP3    H142167   0.651   4.626   6.529
14094TIP3    H242168   0.526   4.681   6.470
14095TIP3   OH242169   0.049   4.032   6.706
14095TIP3    H142170   0.142   4.042   6.735
14095TIP3    H242171   0.043   3.934   6.697
14096TIP3   OH242172   1.817   4.874   7.167
14096TIP3    H142173   1.840   4.905   7.256
14096TIP3    H242174   1.875   4.928   7.111
14097TIP3   OH242175   1.847   4.897   7.447
14097TIP3    H142176   1.802   4.810   7.443
14097TIP3    H242177   1.917   4.874   7.512
14098TIP3   OH242178   1.890   4.575   8.021
14098TIP3    H142179   1.818   4.584   8.086
14098TIP3    H242180   1.933   4.663   8.026
14099TIP3   OH242181   1.707   4.089   6.640
14099TIP3    H142182   1.776   4.154   6.614
14099TIP3    H242183   1.748   4.048   6.718
14100TIP3   OH242184   1.830   3.956   6.848
14100TIP3    H142185   1.760   3.904   6.893
14100TIP3    H242186   1.859   4.014   6.919
14101TIP3   OH242187   1.896   4.334   7.266
14101TIP3    H142188   1.943   4.330   7.182
14101TIP3    H242189   1.849   4.418   7.253
14102TIP3   OH242190   1.718   4.646   7.471
14102TIP3    H142191   1.651   4.691   7.527
14102TIP3    H242192   1.662   4.602   7.404
14103TIP3   OH242193   1.773   3.863   6.493
14103TIP3    H142194   1.701   3.865   6.425
14103TIP3    H242195   1.744   3.940   6.546
14104TIP3   OH242196   1.647   3.536   6.446
14104TIP3    H142197   1.599   3.576   6.373
14104TIP3    H242198   1.620   3.441   6.437
14105TIP3   OH242199   1.651   3.809   6.991
14105TIP3    H142200   1.655   3.712   6.986
14105TIP3    H242201   1.634   3.824   7.086
14106TIP3   OH242202   0.276   3.924   7.718
14106TIP3    H142203   0.274   3.874   7.634
14106TIP3    H242204   0.368   3.905   7.748
14107TIP3   OH242205   1.936   4.235   7.848
14107TIP3    H142206   2.010   4.171   7.840
14107TIP3    H242207   1.967   4.310   7.794
14108TIP3   OH242208   2.120   4.041   7.864
14108TIP3    H142209   2.048   3.990   7.906
14108TIP3    H242210   2.195   3.980   7.879
14109TIP3   OH242211   1.588   3.270   6.433
14109TIP3    H142212   1.662   3.239   6.489
14109TIP3    H242213   1.514   3.213   6.459
14110TIP3   OH242214   1.645   3.529   6.889
14110TIP3    H142215   1.684   3.440   6.905
14110TIP3    H242216   1.704   3.560   6.817
14111TIP3   OH242217   1.805   3.711   7.377
14111TIP3    H142218   1.888   3.739   7.336
14111TIP3    H242219   1.820   3.738   7.470
14112TIP3   OH242220   1.867   3.844   7.615
14112TIP3    H142221   1.790   3.876   7.667
14112TIP3    H242222   1.901   3.928   7.577
14113TIP3   OH242223   0.483   3.555   8.426
14113TIP3    H142224   0.577   3.572   8.407
14113TIP3    H242225   0.491   3.479   8.484
14114TIP3   OH242226   2.324   3.435   8.173
14114TIP3    H142227   2.384   3.369   8.132
14114TIP3    H242228   2.301   3.492   8.096
14115TIP3   OH242229   1.753   3.278   6.925
14115TIP3    H142230   1.802   3.261   7.008
14115TIP3    H242231   1.693   3.201   6.923
14116TIP3   OH242232   0.451   3.254   7.727
14116TIP3    H142233   0.520   3.187   7.746
14116TIP3    H242234   0.501   3.336   7.739
14117TIP3   OH242235   0.292   3.550   7.841
14117TIP3    H142236   0.313   3.535   7.747
14117TIP3    H242237   0.257   3.639   7.840
14118TIP3   OH242238   2.199   3.580   7.977
14118TIP3    H142239   2.108   3.613   7.990
14118TIP3    H242240   2.181   3.507   7.915
14119TIP3   OH242241   1.835   3.214   6.557
14119TIP3    H142242   1.876   3.140   6.507
14119TIP3    H242243   1.903   3.284   6.550
14120TIP3   OH242244   0.234   3.027   7.301
14120TIP3    H142245   0.152   3.058   7.340
14120TIP3    H242246   0.247   3.094   7.229
14121TIP3   OH242247   1.402   4.744   6.824
14121TIP3    H142248   1.454   4.731   6.742
14121TIP3    H242249   1.451   4.813   6.870
14122TIP3   OH242250   0.457   3.130   8.149
14122TIP3    H142251   0.392   3.117   8.219
14122TIP3    H242252   0.401   3.164   8.077
14123TIP3   OH242253   0.530   4.510   8.218
14123TIP3    H142254   0.446   4.554   8.199
14123TIP3    H242255   0.529   4.509   8.316
14124TIP3   OH242256   0.685   4.580   7.764
14124TIP3    H142257   0.628   4.646   7.721
14124TIP3    H242258   0.767   4.595   7.712
14125TIP3   OH242259   1.124   4.826   7.896
14125TIP3    H142260   1.167   4.827   7.985
14125TIP3    H242261   1.189   4.876   7.843
14126TIP3   OH242262   1.301   4.977   7.754
14126TIP3    H142263   1.371   4.925   7.711
14126TIP3    H242264   1.354   5.034   7.814
14127TIP3   OH242265   2.091   3.332   7.863
14127TIP3    H142266   2.002   3.325   7.825
14127TIP3    H242267   2.126   3.241   7.847
14128TIP3   OH242268   0.587   4.824   7.649
14128TIP3    H142269   0.496   4.822   7.683
14128TIP3    H242270   0.573   4.849   7.556
14129TIP3   OH242271   1.020   4.844   7.442
14129TIP3    H142272   0.948   4.860   7.376
14129TIP3    H242273   1.030   4.934   7.479
14130TIP3   OH242274   1.286   4.786   7.490
14130TIP3    H142275   1.191   4.796   7.468
14130TIP3    H242276   1.324   4.859   7.440
14131TIP3   OH242277   1.500   4.981   7.404
14131TIP3    H142278   1.480   5.064   7.355
14131TIP3    H242279   1.519   4.919   7.330
14132TIP3   OH242280   0.314   4.655   7.517
14132TIP3    H142281   0.336   4.613   7.603
14132TIP3    H242282   0.368   4.597   7.459
14133TIP3   OH242283   0.462   4.484   7.367
14133TIP3    H142284   0.477   4.406   7.425
14133TIP3    H242285   0.551   4.526   7.372
14134TIP3   OH242286   0.704   4.610   7.404
14134TIP3    H142287   0.744   4.577   7.320
14134TIP3    H242288   0.776   4.597   7.467
14135TIP3   OH242289   1.303   3.255   7.473
14135TIP3    H142290   1.258   3.186   7.525
14135TIP3    H242291   1.373   3.205   7.428
14136TIP3   OH242292   1.826   3.132   7.376
14136TIP3    H142293   1.862   3.186   7.303
14136TIP3    H242294   1.731   3.152   7.372
14137TIP3   OH242295   1.921   3.238   7.141
14137TIP3    H142296   1.994   3.185   7.102
14137TIP3    H242297   1.955   3.329   7.127
14138TIP3   OH242298   0.550   2.963   7.489
14138TIP3    H142299   0.459   2.927   7.487
14138TIP3    H242300   0.601   2.880   7.486
14139TIP3   OH242301   0.351   2.827   7.146
14139TIP3    H142302   0.365   2.883   7.068
14139TIP3    H242303   0.311   2.891   7.208
14140TIP3   OH242304   0.994   2.995   7.369
14140TIP3    H142305   1.053   3.047   7.312
14140TIP3    H242306   1.011   3.034   7.456
14141TIP3   OH242307   1.543   3.142   7.354
14141TIP3    H142308   1.538   3.105   7.265
14141TIP3    H242309   1.528   3.061   7.409
14142TIP3   OH242310   1.571   3.064   6.915
14142TIP3    H142311   1.484   3.107   6.927
14142TIP3    H242312   1.556   2.979   6.963
14143TIP3   OH242313   0.454   2.995   6.898
14143TIP3    H142314   0.503   2.931   6.843
14143TIP3    H242315   0.526   3.047   6.938
14144TIP3   OH242316   0.967   3.167   6.999
14144TIP3    H142317   1.027   3.121   7.061
14144TIP3    H242318   0.986   3.260   7.024
14145TIP3   OH242319   0.820   4.591   6.492
14145TIP3    H142320   0.910   4.615   6.461
14145TIP3    H242321   0.804   4.513   6.434
14146TIP3   OH242322   1.549   4.711   6.590
14146TIP3    H142323   1.539   4.613   6.579
14146TIP3    H242324   1.498   4.744   6.513
14147TIP3   OH242325   0.757   3.247   8.380
14147TIP3    H142326   0.723   3.173   8.434
14147TIP3    H242327   0.850   3.247   8.408
14148TIP3   OH242328   1.008   3.238   8.500
14148TIP3    H142329   1.091   3.215   8.456
14148TIP3    H242330   0.997   3.162   8.561
14149TIP3   OH242331   0.145   4.434   6.597
14149TIP3    H142332   0.165   4.527   6.618
14149TIP3    H242333   0.230   4.399   6.563
14150TIP3   OH242334   1.832   3.303   8.288
14150TIP3    H142335   1.854   3.270   8.377
14150TIP3    H242336   1.919   3.300   8.243
14151TIP3   OH242337   1.763   4.855   7.788
14151TIP3    H142338   1.686   4.824   7.736
14151TIP3    H242339   1.748   4.951   7.786
14152TIP3   OH242340   3.038   4.227   6.546
14152TIP3    H142341   3.010   4.319   6.527
14152TIP3    H242342   2.960   4.178   6.516
14153TIP3   OH242343   3.034   4.226   6.928
14153TIP3    H142344   3.067   4.198   7.015
14153TIP3    H242345   2.995   4.144   6.895
14154TIP3   OH242346   3.278   4.529   6.608
14154TIP3    H142347   3.266   4.459   6.673
14154TIP3    H242348   3.307   4.604   6.663
14155TIP3   OH242349   2.305   4.532   7.008
14155TIP3    H142350   2.297   4.443   7.044
14155TIP3    H242351   2.401   4.548   7.016
14156TIP3   OH242352   2.012   3.743   6.813
14156TIP3    H142353   1.956   3.823   6.816
14156TIP3    H242354   1.950   3.679   6.776
14157TIP3   OH242355   2.927   4.992   6.623
14157TIP3    H142356   2.975   4.919   6.577
14157TIP3    H242357   2.921   4.958   6.713
14158TIP3   OH242358   2.836   4.452   6.972
14158TIP3    H142359   2.876   4.374   6.929
14158TIP3    H242360   2.919   4.498   6.997
14159TIP3   OH242361   3.846   3.776   6.972
14159TIP3    H142362   3.877   3.858   7.016
14159TIP3    H242363   3.871   3.794   6.880
14160TIP3   OH242364   3.249   3.957   7.007
14160TIP3    H142365   3.289   3.871   7.030
14160TIP3    H242366   3.217   3.939   6.917
14161TIP3   OH242367   2.580   3.618   6.974
14161TIP3    H142368   2.560   3.686   6.906
14161TIP3    H242369   2.535   3.541   6.934
14162TIP3   OH242370   3.278   3.704   6.596
14162TIP3    H142371   3.350   3.688   6.661
14162TIP3    H242372   3.330   3.740   6.522
14163TIP3   OH242373   2.659   4.014   6.876
14163TIP3    H142374   2.753   3.989   6.889
14163TIP3    H242375   2.622   3.930   6.840
14164TIP3   OH242376   3.922   3.984   7.140
14164TIP3    H142377   3.835   4.027   7.125
14164TIP3    H242378   3.923   3.982   7.237
14165TIP3   OH242379   2.585   3.604   7.403
14165TIP3    H142380   2.512   3.623   7.343
14165TIP3    H242381   2.538   3.606   7.489
14166TIP3   OH242382   2.930   4.449   6.416
14166TIP3    H142383   2.888   4.426   6.332
14166TIP3    H242384   2.886   4.534   6.438
14167TIP3   OH242385   2.685   4.368   7.200
14167TIP3    H142386   2.623   4.432   7.243
14167TIP3    H242387   2.730   4.424   7.134
14168TIP3   OH242388   3.489   3.707   6.766
14168TIP3    H142389   3.479   3.657   6.849
14168TIP3    H242390   3.544   3.782   6.794
14169TIP3   OH242391   2.438   3.732   7.180
14169TIP3    H142392   2.512   3.785   7.218
14169TIP3    H242393   2.488   3.681   7.113
14170TIP3   OH242394   2.514   4.561   7.293
14170TIP3    H142395   2.492   4.651   7.259
14170TIP3    H242396   2.438   4.549   7.355
14171TIP3   OH242397   1.914   4.257   6.537
14171TIP3    H142398   1.866   4.283   6.456
14171TIP3    H242399   1.940   4.344   6.573
14172TIP3   OH242400   3.351   4.771   6.777
14172TIP3    H142401   3.261   4.762   6.816
14172TIP3    H242402   3.343   4.857   6.732
14173TIP3   OH242403   3.641   3.676   7.140
14173TIP3    H142404   3.553   3.704   7.110
14173TIP3    H242405   3.699   3.706   7.067
14174TIP3   OH242406   2.941   3.317   7.120
14174TIP3    H142407   2.926   3.223   7.142
14174TIP3    H242408   2.862   3.357   7.164
14175TIP3   OH242409   3.053   4.819   6.450
14175TIP3    H142410   3.104   4.737   6.429
14175TIP3    H242411   3.113   4.885   6.409
14176TIP3   OH242412   3.195   4.604   6.354
14176TIP3    H142413   3.155   4.524   6.318
14176TIP3    H242414   3.231   4.570   6.439
14177TIP3   OH242415   3.578   4.685   7.120
14177TIP3    H142416   3.566   4.609   7.060
14177TIP3    H242417   3.561   4.761   7.060
14178TIP3   OH242418   2.866   4.078   6.376
14178TIP3    H142419   2.786   4.130   6.352
14178TIP3    H242420   2.914   4.077   6.291
14179TIP3   OH242421   2.826   3.865   6.092
14179TIP3    H142422   2.894   3.912   6.144
14179TIP3    H242423   2.882   3.800   6.046
14180TIP3   OH242424   3.775   4.327   6.965
14180TIP3    H142425   3.690   4.377   6.969
14180TIP3    H242426   3.801   4.344   6.872
14181TIP3   OH242427   3.215   4.158   6.351
14181TIP3    H142428   3.161   4.185   6.429
14181TIP3    H242429   3.299   4.132   6.395
14182TIP3   OH242430   3.451   4.204   7.257
14182TIP3    H142431   3.442   4.286   7.309
14182TIP3    H242432   3.364   4.203   7.212
14183TIP3   OH242433   2.444   4.159   6.768
14183TIP3    H142434   2.406   4.103   6.697
14183TIP3    H242435   2.524   4.108   6.793
14184TIP3   OH242436   2.579   4.570   6.912
14184TIP3    H142437   2.563   4.526   6.827
14184TIP3    H242438   2.670   4.540   6.933
14185TIP3   OH242439   2.571   4.135   7.114
14185TIP3    H142440   2.622   4.110   7.034
14185TIP3    H242441   2.620   4.214   7.146
14186TIP3   OH242442   3.109   4.768   6.896
14186TIP3    H142443   3.095   4.847   6.951
14186TIP3    H242444   3.095   4.694   6.960
14187TIP3   OH242445   2.711   4.693   7.445
14187TIP3    H142446   2.654   4.743   7.506
14187TIP3    H242447   2.644   4.642   7.395
14188TIP3   OH242448   3.057   4.019   6.176
14188TIP3    H142449   3.115   4.076   6.231
14188TIP3    H242450   3.089   4.042   6.085
14189TIP3   OH242451   2.476   4.243   7.543
14189TIP3    H142452   2.481   4.329   7.590
14189TIP3    H242453   2.380   4.226   7.553
14190TIP3   OH242454   2.798   4.700   6.447
14190TIP3    H142455   2.877   4.752   6.469
14190TIP3    H242456   2.737   4.767   6.415
14191TIP3   OH242457   3.571   3.261   6.222
14191TIP3    H142458   3.490   3.280   6.274
14191TIP3    H242459   3.583   3.345   6.173
14192TIP3   OH242460   2.315   4.004   6.570
14192TIP3    H142461   2.246   4.045   6.513
14192TIP3    H242462   2.278   3.917   6.585
14193TIP3   OH242463   2.091   4.384   7.478
14193TIP3    H142464   2.023   4.355   7.414
14193TIP3    H242465   2.128   4.299   7.512
14194TIP3   OH242466   1.956   4.579   7.110
14194TIP3    H142467   2.052   4.591   7.108
14194TIP3    H242468   1.929   4.655   7.164
14195TIP3   OH242469   3.817   5.034   7.167
14195TIP3    H142470   3.816   4.937   7.179
14195TIP3    H242471   3.732   5.058   7.211
14196TIP3   OH242472   2.917   4.815   7.301
14196TIP3    H142473   2.918   4.908   7.334
14196TIP3    H242474   2.844   4.778   7.355
14197TIP3   OH242475   2.675   4.944   6.251
14197TIP3    H142476   2.635   4.930   6.163
14197TIP3    H242477   2.647   5.034   6.274
14198TIP3   OH242478   2.118   4.795   6.634
14198TIP3    H142479   2.167   4.786   6.719
14198TIP3    H242480   2.054   4.723   6.644
14199TIP3   OH242481   2.878   4.842   5.902
14199TIP3    H142482   2.943   4.786   5.855
14199TIP3    H242483   2.921   4.851   5.990
14200TIP3   OH242484   2.933   4.898   6.170
14200TIP3    H142485   2.844   4.904   6.211
14200TIP3    H242486   2.983   4.854   6.240
14201TIP3   OH242487   3.726   4.180   7.424
14201TIP3    H142488   3.637   4.184   7.386
14201TIP3    H242489   3.740   4.083   7.425
14202TIP3   OH242490   2.301   4.565   7.458
14202TIP3    H142491   2.345   4.578   7.544
14202TIP3    H242492   2.228   4.504   7.481
14203TIP3   OH242493   2.709   3.408   7.236
14203TIP3    H142494   2.630   3.351   7.240
14203TIP3    H242495   2.681   3.476   7.299
14204TIP3   OH242496   3.232   3.508   7.444
14204TIP3    H142497   3.301   3.481   7.508
14204TIP3    H242498   3.149   3.487   7.492
14205TIP3   OH242499   3.473   3.939   7.364
14205TIP3    H142500   3.425   3.932   7.449
14205TIP3    H242501   3.444   4.025   7.330
14206TIP3   OH242502   3.141   4.073   5.921
14206TIP3    H142503   3.106   4.040   5.836
14206TIP3    H242504   3.154   4.167   5.904
14207TIP3   OH242505   2.845   3.443   6.220
14207TIP3    H142506   2.814   3.441   6.313
14207TIP3    H242507   2.807   3.359   6.189
14208TIP3   OH242508   2.630   3.912   7.266
14208TIP3    H142509   2.582   3.923   7.351
14208TIP3    H242510   2.615   3.998   7.223
14209TIP3   OH242511   2.514   3.799   6.779
14209TIP3    H142512   2.423   3.765   6.797
14209TIP3    H242513   2.531   3.756   6.692
14210TIP3   OH242514   3.005   3.880   6.510
14210TIP3    H142515   2.951   3.951   6.468
14210TIP3    H242516   3.060   3.850   6.435
14211TIP3   OH242517   3.180   4.160   7.598
14211TIP3    H142518   3.156   4.087   7.658
14211TIP3    H242519   3.275   4.171   7.620
14212TIP3   OH242520   3.164   3.909   6.749
14212TIP3    H142521   3.104   3.938   6.678
14212TIP3    H242522   3.196   3.826   6.708
14213TIP3   OH242523   2.449   3.922   7.472
14213TIP3    H142524   2.464   3.997   7.532
14213TIP3    H242525   2.444   3.847   7.534
14214TIP3   OH242526   2.500   3.414   6.186
14214TIP3    H142527   2.494   3.410   6.284
14214TIP3    H242528   2.419   3.464   6.165
14215TIP3   OH242529   2.046   3.463   7.056
14215TIP3    H142530   2.124   3.489   7.108
14215TIP3    H242531   2.083   3.421   6.977
14216TIP3   OH242532   2.017   3.439   6.575
14216TIP3    H142533   2.064   3.479   6.499
14216TIP3    H242534   1.956   3.512   6.598
14217TIP3   OH242535   3.175   4.156   7.172
14217TIP3    H142536   3.207   4.083   7.114
14217TIP3    H242537   3.146   4.104   7.250
14218TIP3   OH242538   2.839   3.621   6.845
14218TIP3    H142539   2.758   3.615   6.901
14218TIP3    H242540   2.909   3.612   6.912
14219TIP3   OH242541   2.282   3.679   6.848
14219TIP3    H142542   2.185   3.684   6.837
14219TIP3    H242543   2.302   3.585   6.833
14220TIP3   OH242544   2.547   3.670   6.540
14220TIP3    H142545   2.642   3.682   6.520
14220TIP3    H242546   2.502   3.692   6.456
14221TIP3   OH242547   3.333   3.693   7.044
14221TIP3    H142548   3.300   3.703   7.136
14221TIP3    H242549   3.268   3.630   7.009
14222TIP3   OH242550   2.385   3.704   6.319
14222TIP3    H142551   2.312   3.658   6.273
14222TIP3    H242552   2.436   3.737   6.243
14223TIP3   OH242553   3.504   5.380   7.264
14223TIP3    H142554   3.504   5.404   7.169
14223TIP3    H242555   3.584   5.427   7.295
14224TIP3   OH242556   2.462   4.482   7.690
14224TIP3    H142557   2.538   4.527   7.731
14224TIP3    H242558   2.395   4.500   7.758
14225TIP3   OH242559   2.925   3.946   6.943
14225TIP3    H142560   2.995   3.901   6.894
14225TIP3    H242561   2.930   3.904   7.031
14226TIP3   OH242562   2.448   3.432   6.820
14226TIP3    H142563   2.413   3.353   6.869
14226TIP3    H242564   2.506   3.391   6.755
14227TIP3   OH242565   2.903   3.847   7.222
14227TIP3    H142566   2.813   3.876   7.245
14227TIP3    H242567   2.960   3.901   7.281
14228TIP3   OH242568   2.637   4.233   6.323
14228TIP3    H142569   2.565   4.166   6.315
14228TIP3    H242570   2.621   4.266   6.415
14229TIP3   OH242571   3.541   4.467   6.956
14229TIP3    H142572   3.564   4.516   6.874
14229TIP3    H242573   3.455   4.427   6.932
14230TIP3   OH242574   3.096   3.547   6.181
14230TIP3    H142575   3.000   3.529   6.195
14230TIP3    H242576   3.107   3.640   6.211
14231TIP3   OH242577   3.042   4.552   7.324
14231TIP3    H142578   3.055   4.526   7.416
14231TIP3    H242579   2.998   4.638   7.332
14232TIP3   OH242580   3.167   3.790   6.290
14232TIP3    H142581   3.263   3.795   6.308
14232TIP3    H242582   3.150   3.870   6.238
14233TIP3   OH242583   2.323   4.157   7.019
14233TIP3    H142584   2.340   4.189   6.928
14233TIP3    H242585   2.407   4.184   7.061
14234TIP3   OH242586   2.788   4.380   6.144
14234TIP3    H142587   2.740   4.466   6.152
14234TIP3    H242588   2.733   4.324   6.204
14235TIP3   OH242589   2.211   4.175   7.615
14235TIP3    H142590   2.243   4.171   7.708
14235TIP3    H242591   2.144   4.105   7.616
14236TIP3   OH242592   2.936   4.288   7.634
14236TIP3    H142593   2.876   4.227   7.589
14236TIP3    H242594   3.024   4.254   7.608
14237TIP3   OH242595   3.199   4.812   7.216
14237TIP3    H142596   3.103   4.807   7.230
14237TIP3    H242597   3.226   4.861   7.296
14238TIP3   OH242598   3.609   3.878   6.128
14238TIP3    H142599   3.545   3.834   6.067
14238TIP3    H242600   3.609   3.967   6.086
14239TIP3   OH242601   3.826   4.734   7.212
14239TIP3    H142602   3.729   4.733   7.196
14239TIP3    H242603   3.859   4.706   7.125
14240TIP3   OH242604   3.320   4.695   6.028
14240TIP3    H142605   3.288   4.642   6.103
14240TIP3    H242606   3.292   4.642   5.952
14241TIP3   OH242607   3.305   4.330   6.875
14241TIP3    H142608   3.212   4.304   6.888
14241TIP3    H242609   3.340   4.250   6.830
14242TIP3   OH242610   2.429   4.554   6.622
14242TIP3    H142611   2.434   4.638   6.573
14242TIP3    H242612   2.335   4.547   6.639
14243TIP3   OH242613   1.993   3.862   6.329
14243TIP3    H142614   2.040   3.945   6.351
14243TIP3    H242615   1.916   3.867   6.390
14244TIP3   OH242616   2.571   4.322   6.571
14244TIP3    H142617   2.535   4.412   6.587
14244TIP3    H242618   2.535   4.274   6.648
14245TIP3   OH242619   2.705   4.903   7.093
14245TIP3    H142620   2.748   4.976   7.044
14245TIP3    H242621   2.778   4.870   7.147
14246TIP3   OH242622   2.351   4.796   6.477
14246TIP3    H142623   2.265   4.802   6.524
14246TIP3    H242624   2.382   4.889   6.482
14247TIP3   OH242625   3.090   4.536   7.055
14247TIP3    H142626   3.081   4.535   7.153
14247TIP3    H242627   3.169   4.482   7.043
14248TIP3   OH242628   3.043   4.438   5.962
14248TIP3    H142629   3.107   4.410   6.030
14248TIP3    H242630   2.959   4.412   6.002
14249TIP3   OH242631   3.339   5.069   7.106
14249TIP3    H142632   3.261   5.011   7.100
14249TIP3    H242633   3.321   5.133   7.034
14250TIP3   OH242634   2.426   3.679   7.627
14250TIP3    H142635   2.330   3.667   7.634
14250TIP3    H242636   2.456   3.610   7.689
14251TIP3   OH242637   3.223   4.356   6.156
14251TIP3    H142638   3.217   4.291   6.229
14251TIP3    H242639   3.320   4.360   6.144
14252TIP3   OH242640   2.146   4.762   7.258
14252TIP3    H142641   2.199   4.690   7.295
14252TIP3    H242642   2.164   4.831   7.325
14253TIP3   OH242643   2.403   4.400   5.933
14253TIP3    H142644   2.461   4.325   5.907
14253TIP3    H242645   2.403   4.391   6.030
14254TIP3   OH242646   2.375   4.414   6.208
14254TIP3    H142647   2.446   4.381   6.265
14254TIP3    H242648   2.383   4.511   6.220
14255TIP3   OH242649   2.111   4.107   6.412
14255TIP3    H142650   2.045   4.151   6.470
14255TIP3    H242651   2.125   4.178   6.347
14256TIP3   OH242652   3.260   3.742   7.303
14256TIP3    H142653   3.338   3.780   7.346
14256TIP3    H242654   3.244   3.662   7.357
14257TIP3   OH242655   3.140   3.497   6.466
14257TIP3    H142656   3.127   3.523   6.374
14257TIP3    H242657   3.180   3.578   6.505
14258TIP3   OH242658   2.638   4.606   6.158
14258TIP3    H142659   2.555   4.644   6.194
14258TIP3    H242660   2.665   4.676   6.097
14259TIP3   OH242661   2.829   3.675   6.572
14259TIP3    H142662   2.895   3.745   6.555
14259TIP3    H242663   2.834   3.666   6.670
14260TIP3   OH242664   3.101   3.995   7.380
14260TIP3    H142665   3.118   4.048   7.460
14260TIP3    H242666   3.154   3.915   7.396
14261TIP3   OH242667   2.976   3.403   6.674
14261TIP3    H142668   2.975   3.476   6.739
14261TIP3    H242669   3.035   3.440   6.605
14262TIP3   OH242670   2.377   4.686   6.224
14262TIP3    H142671   2.353   4.761   6.164
14262TIP3    H242672   2.365   4.728   6.312
14263TIP3   OH242673   2.486   3.399   6.461
14263TIP3    H142674   2.482   3.487   6.502
14263TIP3    H242675   2.581   3.380   6.472
14264TIP3   OH242676   3.740   3.901   7.351
14264TIP3    H142677   3.642   3.901   7.366
14264TIP3    H242678   3.743   3.841   7.275
14265TIP3   OH242679   3.390   4.089   6.748
14265TIP3    H142680   3.314   4.029   6.761
14265TIP3    H242681   3.462   4.042   6.796
14266TIP3   OH242682   2.104   4.321   6.217
14266TIP3    H142683   2.175   4.386   6.235
14266TIP3    H242684   2.151   4.263   6.153
14267TIP3   OH242685   2.049   3.593   6.348
14267TIP3    H142686   2.045   3.690   6.345
14267TIP3    H242687   1.962   3.567   6.315
14268TIP3   OH242688   3.358   5.044   6.698
14268TIP3    H142689   3.315   5.091   6.623
14268TIP3    H242690   3.452   5.064   6.678
14269TIP3   OH242691   2.420   3.327   7.235
14269TIP3    H142692   2.411   3.266   7.160
14269TIP3    H242693   2.454   3.270   7.308
14270TIP3   OH242694   1.971   4.527   6.607
14270TIP3    H142695   1.901   4.561   6.664
14270TIP3    H242696   1.948   4.570   6.521
14271TIP3   OH242697   2.130   5.060   7.677
14271TIP3    H142698   2.221   5.049   7.712
14271TIP3    H242699   2.105   4.967   7.668
14272TIP3   OH242700   2.642   5.065   7.689
14272TIP3    H142701   2.718   5.011   7.715
14272TIP3    H242702   2.574   4.995   7.678
14273TIP3   OH242703   2.591   4.613   5.860
14273TIP3    H142704   2.554   4.531   5.897
14273TIP3    H242705   2.664   4.578   5.807
14274TIP3   OH242706   3.254   4.941   7.451
14274TIP3    H142707   3.243   4.873   7.521
14274TIP3    H242708   3.329   4.994   7.486
14275TIP3   OH242709   3.058   4.668   5.777
14275TIP3    H142710   3.060   4.578   5.814
14275TIP3    H242711   3.044   4.652   5.683
14276TIP3   OH242712   2.259   4.477   7.883
14276TIP3    H142713   2.280   4.382   7.878
14276TIP3    H242714   2.172   4.481   7.837
14277TIP3   OH242715   2.240   4.133   6.071
14277TIP3    H142716   2.290   4.095   6.144
14277TIP3    H242717   2.309   4.133   6.001
14278TIP3   OH242718   2.875   4.565   7.645
14278TIP3    H142719   2.822   4.575   7.564
14278TIP3    H242720   2.901   4.470   7.643
14279TIP3   OH242721   2.688   4.315   5.890
14279TIP3    H142722   2.734   4.340   5.972
14279TIP3    H242723   2.721   4.224   5.877
14280TIP3   OH242724   3.362   4.569   7.256
14280TIP3    H142725   3.432   4.619   7.210
14280TIP3    H242726   3.287   4.631   7.246
14281TIP3   OH242727   2.376   4.205   7.857
14281TIP3    H142728   2.456   4.155   7.837
14281TIP3    H242729   2.400   4.244   7.944
14282TIP3   OH242730   2.444   4.033   6.292
14282TIP3    H142731   2.419   3.992   6.376
14282TIP3    H242732   2.481   3.956   6.243
14283TIP3   OH242733   2.714   4.096   7.520
14283TIP3    H142734   2.635   4.155   7.526
14283TIP3    H242735   2.760   4.132   7.441
14284TIP3   OH242736   2.546   3.827   6.133
14284TIP3    H142737   2.520   3.825   6.039
14284TIP3    H242738   2.644   3.833   6.126
14285TIP3   OH242739   3.234   4.499   7.655
14285TIP3    H142740   3.310   4.469   7.605
14285TIP3    H242741   3.226   4.432   7.726
14286TIP3   OH242742   2.839   3.886   7.648
14286TIP3    H142743   2.838   3.805   7.594
14286TIP3    H242744   2.792   3.950   7.590
14287TIP3   OH242745   2.843   3.676   7.451
14287TIP3    H142746   2.870   3.710   7.364
14287TIP3    H242747   2.749   3.652   7.435
14288TIP3   OH242748   2.867   4.205   7.323
14288TIP3    H142749   2.952   4.213   7.277
14288TIP3    H242750   2.813   4.275   7.281
14289TIP3   OH242751   3.450   4.173   7.708
14289TIP3    H142752   3.493   4.089   7.729
14289TIP3    H242753   3.525   4.229   7.682
14290TIP3   OH242754   3.489   4.431   7.449
14290TIP3    H142755   3.430   4.482   7.388
14290TIP3    H242756   3.575   4.444   7.402
14291TIP3   OH242757   2.715   4.000   7.876
14291TIP3    H142758   2.646   3.931   7.891
14291TIP3    H242759   2.751   3.972   7.789
14292TIP3   OH242760   2.970   3.440   7.518
14292TIP3    H142761   2.926   3.526   7.499
14292TIP3    H242762   2.898   3.378   7.500
14293TIP3   OH242763   3.098   3.943   7.737
14293TIP3    H142764   3.089   3.929   7.833
14293TIP3    H242765   3.008   3.916   7.709
14294TIP3   OH242766   3.337   3.888   7.591
14294TIP3    H142767   3.262   3.889   7.653
14294TIP3    H242768   3.410   3.857   7.648
14295TIP3   OH242769   3.561   3.827   7.742
14295TIP3    H142770   3.578   3.732   7.762
14295TIP3    H242771   3.561   3.868   7.831
14296TIP3   OH242772   2.555   3.783   7.932
14296TIP3    H142773   2.556   3.692   7.896
14296TIP3    H242774   2.591   3.767   8.021
14297TIP3   OH242775   3.069   3.447   7.776
14297TIP3    H142776   3.136   3.376   7.772
14297TIP3    H242777   3.027   3.438   7.688
14298TIP3   OH242778   3.134   3.661   7.936
14298TIP3    H142779   3.111   3.589   7.873
14298TIP3    H242780   3.055   3.719   7.930
14299TIP3   OH242781   2.351   4.881   6.032
14299TIP3    H142782   2.448   4.883   6.016
14299TIP3    H242783   2.320   4.938   5.960
14300TIP3   OH242784   1.834   4.271   6.251
14300TIP3    H142785   1.929   4.292   6.240
14300TIP3    H242786   1.829   4.182   6.212
14301TIP3   OH242787   1.751   4.883   6.665
14301TIP3    H142788   1.680   4.823   6.631
14301TIP3    H242789   1.792   4.826   6.733
14302TIP3   OH242790   1.887   4.735   6.852
14302TIP3    H142791   1.870   4.664   6.915
14302TIP3    H242792   1.935   4.797   6.910
14303TIP3   OH242793   3.607   5.145   6.651
14303TIP3    H142794   3.640   5.165   6.741
14303TIP3    H242795   3.680   5.173   6.594
14304TIP3   OH242796   3.641   5.156   6.933
14304TIP3    H142797   3.598   5.068   6.933
14304TIP3    H242798   3.719   5.137   6.988
14305TIP3   OH242799   3.693   4.824   7.523
14305TIP3    H142800   3.616   4.837   7.579
14305TIP3    H242801   3.730   4.914   7.517
14306TIP3   OH242802   3.503   4.343   6.128
14306TIP3    H142803   3.569   4.410   6.100
14306TIP3    H242804   3.546   4.306   6.208
14307TIP3   OH242805   3.630   4.212   6.332
14307TIP3    H142806   3.566   4.170   6.393
14307TIP3    H242807   3.696   4.250   6.394
14308TIP3   OH242808   3.684   4.603   6.765
14308TIP3    H142809   3.738   4.540   6.713
14308TIP3    H242810   3.676   4.678   6.703
14309TIP3   OH242811   3.517   4.904   6.961
14309TIP3    H142812   3.446   4.946   7.013
14309TIP3    H242813   3.466   4.856   6.892
14310TIP3   OH242814   3.570   4.120   5.981
14310TIP3    H142815   3.490   4.117   5.928
14310TIP3    H242816   3.551   4.198   6.037
14311TIP3   OH242817   3.436   3.796   5.933
14311TIP3    H142818   3.405   3.826   5.847
14311TIP3    H242819   3.413   3.700   5.929
14312TIP3   OH242820   3.445   4.067   6.479
14312TIP3    H142821   3.454   3.970   6.476
14312TIP3    H242822   3.431   4.083   6.576
14313TIP3   OH242823   3.728   4.484   7.325
14313TIP3    H142824   3.787   4.420   7.284
14313TIP3    H242825   3.742   4.563   7.268
14314TIP3   OH242826   3.955   4.326   7.398
14314TIP3    H142827   3.869   4.278   7.408
14314TIP3    H242828   4.013   4.245   7.391
14315TIP3   OH242829   3.383   3.530   5.922
14315TIP3    H142830   3.460   3.498   5.973
14315TIP3    H242831   3.312   3.469   5.947
14316TIP3   OH242832   3.440   3.783   6.374
14316TIP3    H142833   3.480   3.695   6.390
14316TIP3    H242834   3.500   3.817   6.305
14317TIP3   OH242835   3.603   3.960   6.867
14317TIP3    H142836   3.689   3.987   6.829
14317TIP3    H242837   3.616   3.994   6.958
14318TIP3   OH242838   3.670   4.104   7.100
14318TIP3    H142839   3.592   4.135   7.150
14318TIP3    H242840   3.700   4.185   7.055
14319TIP3   OH242841   2.288   3.831   7.901
14319TIP3    H142842   2.386   3.824   7.900
14319TIP3    H242843   2.265   3.745   7.942
14320TIP3   OH242844   4.107   3.678   7.652
14320TIP3    H142845   4.177   3.623   7.613
14320TIP3    H242846   4.104   3.754   7.592
14321TIP3   OH242847   3.549   3.534   6.412
14321TIP3    H142848   3.598   3.518   6.495
14321TIP3    H242849   3.489   3.456   6.411
14322TIP3   OH242850   2.243   3.539   7.242
14322TIP3    H142851   2.299   3.457   7.248
14322TIP3    H242852   2.313   3.604   7.220
14323TIP3   OH242853   2.085   3.834   7.271
14323TIP3    H142854   2.114   3.744   7.254
14323TIP3    H242855   2.113   3.850   7.360
14324TIP3   OH242856   3.998   3.844   7.453
14324TIP3    H142857   3.912   3.871   7.489
14324TIP3    H242858   3.973   3.761   7.407
14325TIP3   OH242859   3.631   3.472   6.042
14325TIP3    H142860   3.672   3.397   5.994
14325TIP3    H242861   3.700   3.540   6.037
14326TIP3   OH242862   2.034   3.302   6.808
14326TIP3    H142863   1.940   3.296   6.831
14326TIP3    H242864   2.033   3.357   6.727
14327TIP3   OH242865   3.196   5.001   6.311
14327TIP3    H142866   3.245   4.985   6.228
14327TIP3    H242867   3.254   5.065   6.355
14328TIP3   OH242868   2.236   3.439   7.642
14328TIP3    H142869   2.211   3.380   7.714
14328TIP3    H242870   2.170   3.419   7.575
14329TIP3   OH242871   2.473   4.818   7.215
14329TIP3    H142872   2.424   4.902   7.211
14329TIP3    H242873   2.560   4.847   7.182
14330TIP3   OH242874   2.922   5.081   7.381
14330TIP3    H142875   2.960   5.082   7.472
14330TIP3    H242876   2.988   5.133   7.332
14331TIP3   OH242877   3.100   5.235   7.239
14331TIP3    H142878   3.171   5.181   7.202
14331TIP3    H242879   3.150   5.292   7.301
14332TIP3   OH242880   3.893   3.596   7.340
14332TIP3    H142881   3.801   3.585   7.312
14332TIP3    H242882   3.926   3.504   7.330
14333TIP3   OH242883   2.152   5.099   7.261
14333TIP3    H142884   2.061   5.134   7.246
14333TIP3    H242885   2.159   5.110   7.356
14334TIP3   OH242886   2.390   5.080   7.126
14334TIP3    H142887   2.304   5.089   7.173
14334TIP3    H242888   2.366   5.108   7.036
14335TIP3   OH242889   2.816   5.106   6.920
14335TIP3    H142890   2.743   5.125   6.858
14335TIP3    H242891   2.826   5.191   6.966
14336TIP3   OH242892   3.082   5.042   6.972
14336TIP3    H142893   2.987   5.058   6.954
14336TIP3    H242894   3.122   5.121   6.933
14337TIP3   OH242895   3.292   5.236   6.891
14337TIP3    H142896   3.275   5.320   6.842
14337TIP3    H242897   3.316   5.175   6.818
14338TIP3   OH242898   2.065   4.889   7.013
14338TIP3    H142899   2.091   4.865   7.105
14338TIP3    H242900   2.137   4.845   6.964
14339TIP3   OH242901   2.257   4.761   6.866
14339TIP3    H142902   2.271   4.677   6.914
14339TIP3    H242903   2.347   4.799   6.866
14340TIP3   OH242904   2.522   4.856   6.871
14340TIP3    H142905   2.554   4.764   6.863
14340TIP3    H242906   2.561   4.879   6.958
14341TIP3   OH242907   3.092   3.508   6.953
14341TIP3    H142908   3.052   3.442   7.012
14341TIP3    H242909   3.168   3.460   6.916
14342TIP3   OH242910   3.622   3.390   6.863
14342TIP3    H142911   3.658   3.443   6.789
14342TIP3    H242912   3.526   3.410   6.858
14343TIP3   OH242913   3.716   3.494   6.628
14343TIP3    H142914   3.790   3.441   6.589
14343TIP3    H242915   3.751   3.585   6.613
14344TIP3   OH242916   2.346   3.219   6.968
14344TIP3    H142917   2.255   3.183   6.976
14344TIP3    H242918   2.398   3.135   6.970
14345TIP3   OH242919   2.128   3.089   6.622
14345TIP3    H142920   2.161   3.148   6.552
14345TIP3    H242921   2.103   3.153   6.691
14346TIP3   OH242922   2.786   3.256   6.855
14346TIP3    H142923   2.851   3.305   6.803
14346TIP3    H242924   2.804   3.287   6.945
14347TIP3   OH242925   3.338   3.399   6.842
14347TIP3    H142926   3.335   3.361   6.753
14347TIP3    H242927   3.325   3.319   6.898
14348TIP3   OH242928   3.366   3.320   6.402
14348TIP3    H142929   3.280   3.362   6.415
14348TIP3    H242930   3.353   3.236   6.450
14349TIP3   OH242931   1.853   4.658   6.401
14349TIP3    H142932   1.767   4.626   6.370
14349TIP3    H242933   1.839   4.753   6.392
14350TIP3   OH242934   2.249   3.252   6.386
14350TIP3    H142935   2.299   3.187   6.332
14350TIP3    H242936   2.322   3.305   6.424
14351TIP3   OH242937   2.764   3.424   6.486
14351TIP3    H142938   2.821   3.377   6.548
14351TIP3    H242939   2.784   3.516   6.512
14352TIP3   OH242940   2.619   4.856   5.980
14352TIP3    H142941   2.712   4.871   5.950
14352TIP3    H242942   2.602   4.773   5.929
14353TIP3   OH242943   3.340   4.964   6.076
14353TIP3    H142944   3.336   4.867   6.059
14353TIP3    H242945   3.298   4.999   5.994
14354TIP3   OH242946   2.554   3.516   7.873
14354TIP3    H142947   2.520   3.429   7.900
14354TIP3    H242948   2.648   3.508   7.900
14355TIP3   OH242949   2.805   3.500   7.990
14355TIP3    H142950   2.888   3.470   7.949
14355TIP3    H242951   2.790   3.428   8.054
14356TIP3   OH242952   1.924   4.697   6.052
14356TIP3    H142953   1.902   4.724   6.142
14356TIP3    H242954   2.012   4.657   6.062
14357TIP3   OH242955   3.626   3.559   7.775
14357TIP3    H142956   3.646   3.528   7.866
14357TIP3    H242957   3.715   3.555   7.733
14358TIP3   OH242958   3.568   5.111   7.266
14358TIP3    H142959   3.488   5.080   7.220
14358TIP3    H242960   3.549   5.207   7.270
14359TIP3   OH242961   4.836   4.484   6.027
14359TIP3    H142962   4.807   4.576   6.011
14359TIP3    H242963   4.756   4.435   6.003
14360TIP3   OH242964   4.833   4.481   6.412
14360TIP3    H142965   4.864   4.456   6.501
14360TIP3    H242966   4.789   4.399   6.383
14361TIP3   OH242967   4.132   4.383   6.788
14361TIP3    H142968   4.166   4.313   6.846
14361TIP3    H242969   4.213   4.429   6.763
14362TIP3   OH242970   5.077   4.782   6.095
14362TIP3    H142971   5.061   4.717   6.165
14362TIP3    H242972   5.104   4.860   6.147
14363TIP3   OH242973   4.101   4.787   6.504
14363TIP3    H142974   4.093   4.690   6.507
14363TIP3    H242975   4.197   4.798   6.502
14364TIP3   OH242976   3.810   3.994   6.290
14364TIP3    H142977   3.761   4.077   6.303
14364TIP3    H242978   3.739   3.937   6.256
14365TIP3   OH242979   3.869   4.279   6.459
14365TIP3    H142980   3.918   4.203   6.497
14365TIP3    H242981   3.929   4.309   6.390
14366TIP3   OH242982   4.722   5.246   6.110
14366TIP3    H142983   4.771   5.175   6.064
14366TIP3    H242984   4.719   5.214   6.200
14367TIP3   OH242985   4.631   4.708   6.461
14367TIP3    H142986   4.670   4.632   6.415
14367TIP3    H242987   4.715   4.754   6.487
14368TIP3   OH242988   5.642   4.031   6.458
14368TIP3    H142989   5.671   4.112   6.506
14368TIP3    H242990   5.666   4.054   6.367
14369TIP3   OH242991   5.046   4.214   6.494
14369TIP3    H142992   5.086   4.127   6.516
14369TIP3    H242993   5.012   4.196   6.404
14370TIP3   OH242994   4.379   3.870   6.460
14370TIP3    H142995   4.359   3.943   6.397
14370TIP3    H242996   4.332   3.797   6.417
14371TIP3   OH242997   5.072   3.959   6.086
14371TIP3    H142998   5.144   3.943   6.151
14371TIP3    H242999   5.123   3.996   6.012
14372TIP3   OH243000   4.015   4.073   6.567
14372TIP3    H143001   4.098   4.052   6.614
14372TIP3    H243002   4.027   4.017   6.487
14373TIP3   OH243003   4.455   4.271   6.361
14373TIP3    H143004   4.549   4.245   6.374
14373TIP3    H243005   4.416   4.187   6.328
14374TIP3   OH243006   5.716   4.237   6.627
14374TIP3    H143007   5.631   4.284   6.612
14374TIP3    H243008   5.731   4.258   6.721
14375TIP3   OH243009   4.378   3.853   6.893
14375TIP3    H143010   4.317   3.890   6.827
14375TIP3    H243011   4.327   3.869   6.976
14376TIP3   OH243012   4.729   4.707   5.899
14376TIP3    H143013   4.683   4.683   5.818
14376TIP3    H243014   4.683   4.790   5.924
14377TIP3   OH243015   4.484   4.628   6.689
14377TIP3    H143016   4.421   4.694   6.727
14377TIP3    H243017   4.528   4.680   6.620
14378TIP3   OH243018   5.287   3.965   6.252
14378TIP3    H143019   5.276   3.912   6.332
14378TIP3    H243020   5.339   4.041   6.285
14379TIP3   OH243021   4.247   3.969   6.679
14379TIP3    H143022   4.311   4.041   6.702
14379TIP3    H243023   4.297   3.927   6.604
14380TIP3   OH243024   4.311   4.820   6.783
14380TIP3    H143025   4.289   4.909   6.748
14380TIP3    H243026   4.233   4.807   6.842
14381TIP3   OH243027   3.707   4.510   6.030
14381TIP3    H143028   3.671   4.527   5.940
14381TIP3    H243029   3.736   4.598   6.058
14382TIP3   OH243030   5.146   5.026   6.261
14382TIP3    H143031   5.057   5.019   6.302
14382TIP3    H243032   5.139   5.114   6.218
14383TIP3   OH243033   5.437   3.932   6.626
14383TIP3    H143034   5.349   3.961   6.597
14383TIP3    H243035   5.495   3.962   6.553
14384TIP3   OH243036   4.734   3.574   6.605
14384TIP3    H143037   4.725   3.479   6.626
14384TIP3    H243038   4.656   3.610   6.654
14385TIP3   OH243039   4.850   5.075   5.938
14385TIP3    H143040   4.902   4.994   5.916
14385TIP3    H243041   4.909   5.142   5.897
14386TIP3   OH243042   4.993   4.858   5.843
14386TIP3    H143043   4.943   4.783   5.809
14386TIP3    H243044   5.026   4.824   5.928
14387TIP3   OH243045   5.373   4.942   6.607
14387TIP3    H143046   5.362   4.865   6.548
14387TIP3    H243047   5.355   5.017   6.546
14388TIP3   OH243048   4.662   4.333   5.860
14388TIP3    H143049   4.581   4.385   5.843
14388TIP3    H243050   4.706   4.335   5.774
14389TIP3   OH243051   4.623   4.121   5.579
14389TIP3    H143052   4.690   4.168   5.631
14389TIP3    H243053   4.679   4.056   5.532
14390TIP3   OH243054   5.568   4.577   6.449
14390TIP3    H143055   5.486   4.630   6.457
14390TIP3    H243056   5.596   4.601   6.359
14391TIP3   OH243057   5.017   4.416   5.837
14391TIP3    H143058   4.955   4.443   5.909
14391TIP3    H243059   5.093   4.385   5.891
14392TIP3   OH243060   5.247   4.458   6.746
14392TIP3    H143061   5.244   4.541   6.797
14392TIP3    H243062   5.160   4.463   6.701
14393TIP3   OH243063   4.243   4.416   6.252
14393TIP3    H143064   4.202   4.358   6.184
14393TIP3    H243065   4.320   4.363   6.281
14394TIP3   OH243066   4.373   4.828   6.400
14394TIP3    H143067   4.353   4.783   6.317
14394TIP3    H243068   4.463   4.795   6.420
14395TIP3   OH243069   4.375   4.389   6.607
14395TIP3    H143070   4.411   4.367   6.519
14395TIP3    H243071   4.421   4.473   6.628
14396TIP3   OH243072   4.905   5.024   6.383
14396TIP3    H143073   4.892   5.104   6.436
14396TIP3    H243074   4.891   4.952   6.448
14397TIP3   OH243075   4.523   4.935   6.928
14397TIP3    H143076   4.464   4.999   6.976
14397TIP3    H243077   4.455   4.886   6.879
14398TIP3   OH243078   4.858   4.275   5.658
14398TIP3    H143079   4.912   4.337   5.713
14398TIP3    H243080   4.885   4.301   5.567
14399TIP3   OH243081   4.272   4.503   7.037
14399TIP3    H143082   4.270   4.587   7.087
14399TIP3    H243083   4.177   4.490   7.020
14400TIP3   OH243084   4.595   4.956   5.933
14400TIP3    H143085   4.673   5.009   5.956
14400TIP3    H243086   4.532   5.022   5.903
14401TIP3   OH243087   4.311   5.083   7.007
14401TIP3    H143088   4.272   5.101   6.919
14401TIP3    H243089   4.237   5.091   7.068
14402TIP3   OH243090   5.368   3.518   5.710
14402TIP3    H143091   5.286   3.535   5.761
14402TIP3    H243092   5.377   3.600   5.659
14403TIP3   OH243093   4.111   4.259   6.056
14403TIP3    H143094   4.045   4.305   6.000
14403TIP3    H243095   4.068   4.173   6.070
14404TIP3   OH243096   3.889   4.643   6.964
14404TIP3    H143097   3.824   4.623   6.893
14404TIP3    H243098   3.921   4.555   6.990
14405TIP3   OH243099   3.746   4.835   6.598
14405TIP3    H143100   3.842   4.825   6.585
14405TIP3    H243101   3.743   4.913   6.655
14406TIP3   OH243102   5.611   5.285   6.653
14406TIP3    H143103   5.608   5.189   6.667
14406TIP3    H243104   5.527   5.311   6.697
14407TIP3   OH243105   4.716   5.071   6.785
14407TIP3    H143106   4.718   5.163   6.818
14407TIP3    H243107   4.647   5.032   6.843
14408TIP3   OH243108   4.472   5.201   5.739
14408TIP3    H143109   4.429   5.186   5.653
14408TIP3    H243110   4.444   5.292   5.762
14409TIP3   OH243111   3.914   5.053   6.122
14409TIP3    H143112   3.962   5.041   6.207
14409TIP3    H243113   3.857   4.974   6.123
14410TIP3   OH243114   4.669   5.093   5.389
14410TIP3    H143115   4.735   5.040   5.339
14410TIP3    H243116   4.716   5.105   5.474
14411TIP3   OH243117   4.728   5.154   5.656
14411TIP3    H143118   4.640   5.161   5.699
14411TIP3    H243119   4.781   5.112   5.726
14412TIP3   OH243120   5.501   4.419   6.926
14412TIP3    H143121   5.419   4.431   6.876
14412TIP3    H243122   5.516   4.323   6.917
14413TIP3   OH243123   4.097   4.820   6.950
14413TIP3    H143124   4.137   4.813   7.038
14413TIP3    H243125   4.020   4.759   6.958
14414TIP3   OH243126   4.495   3.650   6.735
14414TIP3    H143127   4.405   3.619   6.711
14414TIP3    H243128   4.470   3.731   6.783
14415TIP3   OH243129   5.029   3.765   6.931
14415TIP3    H143130   5.097   3.737   6.995
14415TIP3    H243131   4.945   3.743   6.978
14416TIP3   OH243132   5.269   4.194   6.849
14416TIP3    H143133   5.221   4.189   6.935
14416TIP3    H243134   5.243   4.281   6.815
14417TIP3   OH243135   4.941   4.331   5.402
14417TIP3    H143136   4.912   4.293   5.317
14417TIP3    H243137   4.974   4.418   5.373
14418TIP3   OH243138   4.641   3.699   5.707
14418TIP3    H143139   4.609   3.697   5.799
14418TIP3    H243140   4.603   3.615   5.675
14419TIP3   OH243141   4.426   4.164   6.754
14419TIP3    H143142   4.381   4.186   6.837
14419TIP3    H243143   4.410   4.245   6.701
14420TIP3   OH243144   4.311   4.051   6.269
14420TIP3    H143145   4.218   4.024   6.286
14420TIP3    H243146   4.324   4.010   6.180
14421TIP3   OH243147   4.802   4.138   5.997
14421TIP3    H143148   4.747   4.208   5.955
14421TIP3    H243149   4.853   4.106   5.921
14422TIP3   OH243150   4.976   4.415   7.083
14422TIP3    H143151   4.953   4.342   7.145
14422TIP3    H243152   5.070   4.429   7.106
14423TIP3   OH243153   4.959   4.166   6.236
14423TIP3    H143154   4.898   4.194   6.165
14423TIP3    H243155   4.990   4.082   6.196
14424TIP3   OH243156   4.243   4.195   6.967
14424TIP3    H143157   4.289   4.250   7.032
14424TIP3    H243158   4.234   4.110   7.015
14425TIP3   OH243159   4.296   3.671   5.673
14425TIP3    H143160   4.290   3.667   5.771
14425TIP3    H243161   4.216   3.722   5.652
14426TIP3   OH243162   3.840   3.719   6.542
14426TIP3    H143163   3.915   3.748   6.598
14426TIP3    H243164   3.882   3.681   6.464
14427TIP3   OH243165   3.813   3.696   6.063
14427TIP3    H143166   3.859   3.735   5.986
14427TIP3    H243167   3.753   3.769   6.086
14428TIP3   OH243168   4.968   4.412   6.658
14428TIP3    H143169   5.002   4.340   6.601
14428TIP3    H243170   4.941   4.361   6.737
14429TIP3   OH243171   4.637   3.877   6.331
14429TIP3    H143172   4.555   3.871   6.385
14429TIP3    H243173   4.706   3.870   6.399
14430TIP3   OH243174   4.073   3.928   6.339
14430TIP3    H143175   3.979   3.934   6.312
14430TIP3    H243176   4.098   3.836   6.316
14431TIP3   OH243177   4.343   3.925   6.027
14431TIP3    H143178   4.437   3.940   6.007
14431TIP3    H243179   4.297   3.948   5.944
14432TIP3   OH243180   5.129   3.949   6.530
14432TIP3    H143181   5.096   3.960   6.623
14432TIP3    H243182   5.064   3.886   6.496
14433TIP3   OH243183   4.182   3.958   5.806
14433TIP3    H143184   4.109   3.914   5.758
14433TIP3    H243185   4.234   3.994   5.731
14434TIP3   OH243186   5.300   5.636   6.750
14434TIP3    H143187   5.298   5.660   6.656
14434TIP3    H243188   5.378   5.687   6.781
14435TIP3   OH243189   4.237   4.745   7.197
14435TIP3    H143190   4.326   4.759   7.237
14435TIP3    H243191   4.193   4.827   7.224
14436TIP3   OH243192   4.722   4.202   6.429
14436TIP3    H143193   4.792   4.158   6.380
14436TIP3    H243194   4.729   4.160   6.517
14437TIP3   OH243195   4.244   3.689   6.305
14437TIP3    H143196   4.211   3.609   6.352
14437TIP3    H243197   4.300   3.650   6.237
14438TIP3   OH243198   4.699   4.098   6.715
14438TIP3    H143199   4.609   4.133   6.732
14438TIP3    H243200   4.756   4.156   6.769
14439TIP3   OH243201   4.435   4.488   5.813
14439TIP3    H143202   4.361   4.424   5.802
14439TIP3    H243203   4.417   4.523   5.904
14440TIP3   OH243204   5.336   4.724   6.443
14440TIP3    H143205   5.360   4.773   6.361
14440TIP3    H243206   5.250   4.685   6.419
14441TIP3   OH243207   4.892   3.801   5.672
14441TIP3    H143208   4.796   3.783   5.682
14441TIP3    H243209   4.900   3.895   5.698
14442TIP3   OH243210   4.834   4.805   6.810
14442TIP3    H143211   4.857   4.786   6.902
14442TIP3    H243212   4.794   4.894   6.816
14443TIP3   OH243213   4.959   4.047   5.779
14443TIP3    H143214   5.055   4.051   5.794
14443TIP3    H243215   4.941   4.126   5.724
14444TIP3   OH243216   4.125   4.507   6.489
14444TIP3    H143217   4.163   4.483   6.402
14444TIP3    H243218   4.172   4.446   6.548
14445TIP3   OH243219   4.585   4.636   5.633
14445TIP3    H143220   4.535   4.721   5.635
14445TIP3    H243221   4.528   4.581   5.691
14446TIP3   OH243222   3.985   4.425   7.113
14446TIP3    H143223   4.025   4.361   7.173
14446TIP3    H243224   3.922   4.369   7.062
14447TIP3   OH243225   4.732   4.543   7.122
14447TIP3    H143226   4.677   4.484   7.069
14447TIP3    H243227   4.822   4.512   7.096
14448TIP3   OH243228   4.994   5.063   6.703
14448TIP3    H143229   4.898   5.064   6.717
14448TIP3    H243230   5.024   5.114   6.782
14449TIP3   OH243231   5.623   4.994   6.696
14449TIP3    H143232   5.525   4.990   6.688
14449TIP3    H243233   5.649   4.965   6.606
14450TIP3   OH243234   5.123   4.946   5.513
14450TIP3    H143235   5.070   4.892   5.573
14450TIP3    H243236   5.101   4.909   5.426
14451TIP3   OH243237   5.100   4.587   6.359
14451TIP3    H143238   5.007   4.561   6.375
14451TIP3    H243239   5.135   4.506   6.316
14452TIP3   OH243240   4.228   4.812   6.114
14452TIP3    H143241   4.230   4.894   6.060
14452TIP3    H243242   4.133   4.797   6.120
14453TIP3   OH243243   3.794   4.118   5.817
14453TIP3    H143244   3.840   4.203   5.834
14453TIP3    H243245   3.717   4.127   5.877
14454TIP3   OH243246   4.370   4.580   6.060
14454TIP3    H143247   4.333   4.669   6.076
14454TIP3    H243248   4.331   4.530   6.134
14455TIP3   OH243249   4.499   5.156   6.585
14455TIP3    H143250   4.540   5.226   6.532
14455TIP3    H243251   4.574   5.124   6.637
14456TIP3   OH243252   4.147   5.053   5.966
14456TIP3    H143253   4.061   5.060   6.012
14456TIP3    H243254   4.178   5.146   5.971
14457TIP3   OH243255   4.886   4.791   6.541
14457TIP3    H143256   4.876   4.791   6.639
14457TIP3    H243257   4.968   4.741   6.531
14458TIP3   OH243258   4.840   4.683   5.435
14458TIP3    H143259   4.901   4.659   5.507
14458TIP3    H243260   4.754   4.665   5.474
14459TIP3   OH243261   5.136   5.325   6.592
14459TIP3    H143262   5.056   5.269   6.585
14459TIP3    H243263   5.119   5.390   6.520
14460TIP3   OH243264   5.203   5.178   5.255
14460TIP3    H143265   5.243   5.260   5.221
14460TIP3    H243266   5.115   5.212   5.282
14461TIP3   OH243267   4.221   3.937   7.110
14461TIP3    H143268   4.124   3.940   7.126
14461TIP3    H243269   4.251   3.879   7.181
14462TIP3   OH243270   5.010   4.614   5.644
14462TIP3    H143271   5.009   4.552   5.719
14462TIP3    H243272   5.104   4.621   5.623
14463TIP3   OH243273   3.931   5.023   6.744
14463TIP3    H143274   3.988   4.949   6.771
14463TIP3    H243275   3.967   5.095   6.796
14464TIP3   OH243276   4.157   4.674   5.717
14464TIP3    H143277   4.243   4.643   5.746
14464TIP3    H243278   4.173   4.770   5.705
14465TIP3   OH243279   3.908   4.364   5.899
14465TIP3    H143280   3.842   4.409   5.956
14465TIP3    H243281   3.922   4.434   5.832
14466TIP3   OH243282   5.056   4.000   6.789
14466TIP3    H143283   5.135   4.038   6.831
14466TIP3    H243284   5.041   3.919   6.844
14467TIP3   OH243285   4.934   3.753   5.954
14467TIP3    H143286   4.921   3.777   5.860
14467TIP3    H243287   4.973   3.834   5.992
14468TIP3   OH243288   4.436   4.865   5.637
14468TIP3    H143289   4.351   4.893   5.675
14468TIP3    H243290   4.469   4.948   5.601
14469TIP3   OH243291   4.626   3.931   6.058
14469TIP3    H143292   4.691   4.003   6.042
14469TIP3    H243293   4.630   3.923   6.156
14470TIP3   OH243294   4.895   4.250   6.867
14470TIP3    H143295   4.914   4.305   6.946
14470TIP3    H243296   4.950   4.172   6.882
14471TIP3   OH243297   4.770   3.660   6.161
14471TIP3    H143298   4.768   3.734   6.224
14471TIP3    H243299   4.831   3.695   6.092
14472TIP3   OH243300   4.186   4.948   5.710
14472TIP3    H143301   4.148   5.016   5.650
14472TIP3    H243302   4.166   4.987   5.798
14473TIP3   OH243303   4.281   3.655   5.949
14473TIP3    H143304   4.279   3.745   5.987
14473TIP3    H243305   4.377   3.637   5.959
14474TIP3   OH243306   5.536   4.151   6.844
14474TIP3    H143307   5.438   4.150   6.854
14474TIP3    H243308   5.544   4.104   6.760
14475TIP3   OH243309   5.186   4.344   6.232
14475TIP3    H143310   5.109   4.287   6.249
14475TIP3    H243311   5.257   4.299   6.283
14476TIP3   OH243312   3.900   4.577   5.706
14476TIP3    H143313   3.975   4.639   5.721
14476TIP3    H243314   3.940   4.522   5.636
14477TIP3   OH243315   3.845   3.848   5.838
14477TIP3    H143316   3.844   3.946   5.833
14477TIP3    H243317   3.762   3.826   5.795
14478TIP3   OH243318   5.154   5.298   6.184
14478TIP3    H143319   5.112   5.346   6.109
14478TIP3    H243320   5.249   5.318   6.165
14479TIP3   OH243321   4.229   3.569   6.713
14479TIP3    H143322   4.199   3.535   6.626
14479TIP3    H243323   4.221   3.491   6.771
14480TIP3   OH243324   3.774   4.793   6.096
14480TIP3    H143325   3.696   4.820   6.146
14480TIP3    H243326   3.753   4.830   6.008
14481TIP3   OH243327   3.924   5.327   7.167
14481TIP3    H143328   4.007   5.331   7.220
14481TIP3    H243329   3.903   5.233   7.170
14482TIP3   OH243330   5.054   5.196   6.935
14482TIP3    H143331   5.044   5.128   7.006
14482TIP3    H243332   5.126   5.252   6.971
14483TIP3   OH243333   4.854   4.931   5.267
14483TIP3    H143334   4.864   4.840   5.300
14483TIP3    H243335   4.858   4.917   5.171
14484TIP3   OH243336   4.037   4.390   5.558
14484TIP3    H143337   4.093   4.360   5.631
14484TIP3    H243338   4.103   4.398   5.486
14485TIP3   OH243339   4.664   4.817   7.138
14485TIP3    H143340   4.624   4.836   7.051
14485TIP3    H243341   4.695   4.725   7.129
14486TIP3   OH243342   4.494   4.572   5.365
14486TIP3    H143343   4.528   4.600   5.452
14486TIP3    H243344   4.519   4.477   5.364
14487TIP3   OH243345   5.157   4.826   6.741
14487TIP3    H143346   5.231   4.874   6.699
14487TIP3    H243347   5.086   4.892   6.732
14488TIP3   OH243348   4.243   4.289   5.780
14488TIP3    H143349   4.215   4.249   5.864
14488TIP3    H243350   4.277   4.211   5.730
14489TIP3   OH243351   4.505   4.347   7.001
14489TIP3    H143352   4.435   4.414   7.013
14489TIP3    H243353   4.557   4.385   6.927
14490TIP3   OH243354   4.342   4.081   5.621
14490TIP3    H143355   4.316   4.081   5.527
14490TIP3    H243356   4.440   4.090   5.612
14491TIP3   OH243357   5.024   4.752   7.140
14491TIP3    H143358   5.108   4.734   7.096
14491TIP3    H243359   5.024   4.687   7.212
14492TIP3   OH243360   4.634   4.141   7.135
14492TIP3    H143361   4.635   4.060   7.080
14492TIP3    H243362   4.590   4.205   7.075
14493TIP3   OH243363   4.637   3.929   6.940
14493TIP3    H143364   4.664   3.967   6.855
14493TIP3    H243365   4.543   3.904   6.922
14494TIP3   OH243366   4.664   4.463   6.814
14494TIP3    H143367   4.748   4.471   6.767
14494TIP3    H243368   4.610   4.532   6.771
14495TIP3   OH243369   5.247   4.432   7.196
14495TIP3    H143370   5.294   4.347   7.208
14495TIP3    H243371   5.317   4.489   7.162
14496TIP3   OH243372   5.288   4.683   6.930
14496TIP3    H143373   5.229   4.737   6.872
14496TIP3    H243374   5.375   4.704   6.890
14497TIP3   OH243375   4.516   4.254   7.365
14497TIP3    H143376   4.442   4.192   7.379
14497TIP3    H243377   4.549   4.225   7.277
14498TIP3   OH243378   4.769   3.692   7.006
14498TIP3    H143379   4.720   3.775   6.985
14498TIP3    H243380   4.699   3.625   6.996
14499TIP3   OH243381   4.895   4.198   7.224
14499TIP3    H143382   4.885   4.186   7.320
14499TIP3    H243383   4.804   4.172   7.196
14500TIP3   OH243384   5.135   4.145   7.078
14500TIP3    H143385   5.059   4.146   7.140
14500TIP3    H243386   5.207   4.114   7.136
14501TIP3   OH243387   5.365   4.087   7.230
14501TIP3    H143388   5.376   3.991   7.249
14501TIP3    H243389   5.359   4.125   7.320
14502TIP3   OH243390   4.349   4.035   7.412
14502TIP3    H143391   4.357   3.943   7.380
14502TIP3    H243392   4.389   4.026   7.501
14503TIP3   OH243393   4.865   3.704   7.263
14503TIP3    H143394   4.932   3.633   7.260
14503TIP3    H243395   4.825   3.695   7.175
14504TIP3   OH243396   4.930   3.918   7.422
14504TIP3    H143397   4.907   3.846   7.359
14504TIP3    H243398   4.852   3.976   7.417
14505TIP3   OH243399   4.143   5.144   5.515
14505TIP3    H143400   4.240   5.143   5.507
14505TIP3    H243401   4.120   5.199   5.438
14506TIP3   OH243402   3.639   4.512   5.762
14506TIP3    H143403   3.725   4.548   5.730
14506TIP3    H243404   3.628   4.435   5.703
14507TIP3   OH243405   3.539   5.142   6.156
14507TIP3    H143406   3.476   5.077   6.117
14507TIP3    H243407   3.586   5.084   6.220
14508TIP3   OH243408   3.677   4.995   6.341
14508TIP3    H143409   3.670   4.918   6.399
14508TIP3    H243410   3.732   5.054   6.397
14509TIP3   OH243411   5.406   5.391   6.140
14509TIP3    H143412   5.433   5.426   6.227
14509TIP3    H243413   5.468   5.436   6.080
14510TIP3   OH243414   5.436   5.412   6.423
14510TIP3    H143415   5.394   5.324   6.419
14510TIP3    H243416   5.512   5.392   6.478
14511TIP3   OH243417   5.484   5.088   6.995
14511TIP3    H143418   5.410   5.096   7.059
14511TIP3    H243419   5.524   5.177   7.000
14512TIP3   OH243420   5.313   4.572   5.601
14512TIP3    H143421   5.355   4.649   5.557
14512TIP3    H243422   5.343   4.587   5.693
14513TIP3   OH243423   5.422   4.452   5.816
14513TIP3    H143424   5.362   4.419   5.887
14513TIP3    H243425   5.493   4.496   5.870
14514TIP3   OH243426   5.479   4.859   6.251
14514TIP3    H143427   5.535   4.799   6.199
14514TIP3    H243428   5.472   4.937   6.192
14515TIP3   OH243429   5.313   5.160   6.447
14515TIP3    H143430   5.243   5.204   6.499
14515TIP3    H243431   5.261   5.113   6.378
14516TIP3   OH243432   5.237   4.077   5.432
14516TIP3    H143433   5.199   4.098   5.346
14516TIP3    H243434   5.220   3.980   5.435
14517TIP3   OH243435   5.242   4.315   5.968
14517TIP3    H143436   5.243   4.218   5.970
14517TIP3    H243437   5.227   4.337   6.063
14518TIP3   OH243438   3.868   4.398   6.712
14518TIP3    H143439   3.867   4.368   6.619
14518TIP3    H243440   3.965   4.402   6.729
14519TIP3   OH243441   5.530   4.749   6.822
14519TIP3    H143442   5.603   4.684   6.814
14519TIP3    H243443   5.558   4.820   6.762
14520TIP3   OH243444   5.716   4.557   6.840
14520TIP3    H143445   5.642   4.506   6.879
14520TIP3    H243446   5.789   4.492   6.854
14521TIP3   OH243447   5.180   3.804   5.423
14521TIP3    H143448   5.257   3.762   5.466
14521TIP3    H243449   5.110   3.737   5.434
14522TIP3   OH243450   5.233   4.035   5.868
14522TIP3    H143451   5.267   3.944   5.889
14522TIP3    H243452   5.293   4.055   5.796
14523TIP3   OH243453   5.399   4.217   6.354
14523TIP3    H143454   5.486   4.244   6.317
14523TIP3    H243455   5.410   4.252   6.445
14524TIP3   OH243456   5.465   4.359   6.588
14524TIP3    H143457   5.388   4.392   6.638
14524TIP3    H243458   5.498   4.440   6.544
14525TIP3   OH243459   4.087   4.098   7.391
14525TIP3    H143460   4.184   4.084   7.391
14525TIP3    H243461   4.059   4.010   7.426
14526TIP3   OH243462   5.919   3.950   7.145
14526TIP3    H143463   5.977   3.883   7.102
14526TIP3    H243464   5.893   4.005   7.068
14527TIP3   OH243465   5.344   3.789   5.900
14527TIP3    H143466   5.394   3.772   5.983
14527TIP3    H243467   5.285   3.710   5.897
14528TIP3   OH243468   4.045   3.778   6.718
14528TIP3    H143469   4.107   3.702   6.729
14528TIP3    H243470   4.108   3.852   6.713
14529TIP3   OH243471   3.848   4.054   6.790
14529TIP3    H143472   3.897   4.042   6.706
14529TIP3    H243473   3.885   4.138   6.820
14530TIP3   OH243474   5.792   4.091   6.950
14530TIP3    H143475   5.704   4.128   6.973
14530TIP3    H243476   5.764   4.018   6.892
14531TIP3   OH243477   5.428   3.726   5.531
14531TIP3    H143478   5.466   3.652   5.480
14531TIP3    H243479   5.495   3.796   5.519
14532TIP3   OH243480   3.832   3.554   6.292
14532TIP3    H143481   3.738   3.553   6.319
14532TIP3    H243482   3.830   3.612   6.213
14533TIP3   OH243483   4.990   5.258   5.798
14533TIP3    H143484   5.041   5.241   5.716
14533TIP3    H243485   5.045   5.324   5.842
14534TIP3   OH243486   4.052   3.637   7.107
14534TIP3    H143487   4.004   3.629   7.191
14534TIP3    H243488   3.982   3.673   7.048
14535TIP3   OH243489   4.094   5.002   7.213
14535TIP3    H143490   4.001   5.015   7.186
14535TIP3    H243491   4.107   5.073   7.278
14536TIP3   OH243492   4.268   5.085   6.726
14536TIP3    H143493   4.219   5.159   6.683
14536TIP3    H243494   4.356   5.103   6.687
14537TIP3   OH243495   4.719   5.333   6.865
14537TIP3    H143496   4.752   5.339   6.957
14537TIP3    H243497   4.783   5.390   6.818
14538TIP3   OH243498   4.895   5.493   6.723
14538TIP3    H143499   4.967   5.439   6.689
14538TIP3    H243500   4.943   5.550   6.787
14539TIP3   OH243501   5.689   3.852   6.827
14539TIP3    H143502   5.597   3.843   6.797
14539TIP3    H243503   5.721   3.759   6.816
14540TIP3   OH243504   3.942   5.352   6.762
14540TIP3    H143505   3.855   5.391   6.742
14540TIP3    H243506   3.966   5.403   6.841
14541TIP3   OH243507   4.164   5.299   6.600
14541TIP3    H143508   4.090   5.333   6.653
14541TIP3    H243509   4.168   5.361   6.525
14542TIP3   OH243510   4.610   5.361   6.411
14542TIP3    H143511   4.541   5.383   6.345
14542TIP3    H243512   4.619   5.445   6.460
14543TIP3   OH243513   4.878   5.297   6.458
14543TIP3    H143514   4.783   5.315   6.442
14543TIP3    H243515   4.920   5.377   6.421
14544TIP3   OH243516   5.085   5.491   6.377
14544TIP3    H143517   5.072   5.576   6.330
14544TIP3    H243518   5.111   5.431   6.304
14545TIP3   OH243519   3.857   5.147   6.501
14545TIP3    H143520   3.888   5.123   6.591
14545TIP3    H243521   3.930   5.105   6.449
14546TIP3   OH243522   4.051   5.017   6.356
14546TIP3    H143523   4.067   4.933   6.404
14546TIP3    H243524   4.141   5.055   6.353
14547TIP3   OH243525   4.318   5.112   6.355
14547TIP3    H143526   4.350   5.020   6.348
14547TIP3    H243527   4.353   5.136   6.443
14548TIP3   OH243528   4.891   3.766   6.441
14548TIP3    H143529   4.849   3.698   6.498
14548TIP3    H243530   4.965   3.717   6.401
14549TIP3   OH243531   5.418   3.649   6.348
14549TIP3    H143532   5.453   3.702   6.274
14549TIP3    H243533   5.322   3.665   6.343
14550TIP3   OH243534   5.515   3.758   6.113
14550TIP3    H143535   5.587   3.702   6.076
14550TIP3    H243536   5.550   3.848   6.100
14551TIP3   OH243537   4.143   3.476   6.463
14551TIP3    H143538   4.051   3.442   6.465
14551TIP3    H243539   4.193   3.392   6.461
14552TIP3   OH243540   3.924   3.346   6.109
14552TIP3    H143541   3.958   3.404   6.039
14552TIP3    H243542   3.899   3.410   6.178
14553TIP3   OH243543   4.583   3.513   6.343
14553TIP3    H143544   4.645   3.560   6.286
14553TIP3    H243545   4.609   3.544   6.431
14554TIP3   OH243546   5.135   3.655   6.327
14554TIP3    H143547   5.134   3.613   6.240
14554TIP3    H243548   5.122   3.576   6.385
14555TIP3   OH243549   5.162   3.578   5.889
14555TIP3    H143550   5.075   3.618   5.902
14555TIP3    H243551   5.151   3.493   5.937
14556TIP3   OH243552   3.641   4.922   5.897
14556TIP3    H143553   3.568   4.871   5.862
14556TIP3    H243554   3.625   5.010   5.858
14557TIP3   OH243555   4.045   3.508   5.873
14557TIP3    H143556   4.095   3.444   5.818
14557TIP3    H243557   4.118   3.561   5.911
14558TIP3   OH243558   4.559   3.681   5.972
14558TIP3    H143559   4.617   3.633   6.034
14558TIP3    H243560   4.580   3.773   5.999
14559TIP3   OH243561   4.414   5.110   5.473
14559TIP3    H143562   4.508   5.125   5.444
14559TIP3    H243563   4.393   5.035   5.416
14560TIP3   OH243564   5.134   5.219   5.566
14560TIP3    H143565   5.136   5.122   5.545
14560TIP3    H243566   5.094   5.254   5.484
14561TIP3   OH243567   4.351   3.758   7.352
14561TIP3    H143568   4.317   3.688   7.411
14561TIP3    H243569   4.446   3.759   7.380
14562TIP3   OH243570   4.599   3.752   7.473
14562TIP3    H143571   4.685   3.724   7.437
14562TIP3    H243572   4.583   3.683   7.541
14563TIP3   OH243573   5.423   3.816   7.262
14563TIP3    H143574   5.443   3.784   7.352
14563TIP3    H243575   5.511   3.810   7.219
14564TIP3   OH243576   5.365   5.368   6.754
14564TIP3    H143577   5.285   5.335   6.707
14564TIP3    H243578   5.345   5.464   6.757
14565TIP3   OH243579   6.630   4.740   5.521
14565TIP3    H143580   6.602   4.832   5.501
14565TIP3    H243581   6.552   4.691   5.488
14566TIP3   OH243582   6.628   4.740   5.900
14566TIP3    H143583   6.659   4.710   5.987
14566TIP3    H243584   6.587   4.659   5.865
14567TIP3   OH243585   5.928   4.635   6.266
14567TIP3    H143586   5.959   4.569   6.331
14567TIP3    H243587   6.004   4.695   6.265
14568TIP3   OH243588   6.871   5.041   5.582
14568TIP3    H143589   6.859   4.973   5.649
14568TIP3    H243590   6.899   5.117   5.635
14569TIP3   OH243591   5.899   5.042   5.991
14569TIP3    H143592   5.889   4.945   5.995
14569TIP3    H243593   5.995   5.051   5.986
14570TIP3   OH243594   5.577   4.225   5.757
14570TIP3    H143595   5.562   4.316   5.787
14570TIP3    H243596   5.561   4.176   5.838
14571TIP3   OH243597   5.664   4.525   5.929
14571TIP3    H143598   5.716   4.458   5.979
14571TIP3    H243599   5.734   4.577   5.887
14572TIP3   OH243600   6.519   5.505   5.595
14572TIP3    H143601   6.567   5.432   5.551
14572TIP3    H243602   6.512   5.472   5.686
14573TIP3   OH243603   6.428   4.965   5.948
14573TIP3    H143604   6.467   4.889   5.902
14573TIP3    H243605   6.511   5.011   5.972
14574TIP3   OH243606   7.439   4.287   5.945
14574TIP3    H143607   7.469   4.370   5.989
14574TIP3    H243608   7.463   4.304   5.853
14575TIP3   OH243609   6.839   4.468   5.982
14575TIP3    H143610   6.882   4.383   6.002
14575TIP3    H243611   6.809   4.453   5.891
14576TIP3   OH243612   6.175   4.127   5.949
14576TIP3    H143613   6.157   4.199   5.885
14576TIP3    H243614   6.129   4.053   5.905
14577TIP3   OH243615   6.870   4.218   5.569
14577TIP3    H143616   6.943   4.202   5.634
14577TIP3    H243617   6.922   4.253   5.495
14578TIP3   OH243618   5.812   4.329   6.050
14578TIP3    H143619   5.893   4.312   6.103
14578TIP3    H243620   5.830   4.271   5.973
14579TIP3   OH243621   6.253   4.527   5.845
14579TIP3    H143622   6.347   4.502   5.860
14579TIP3    H243623   6.214   4.442   5.814
14580TIP3   OH243624   7.514   4.495   6.115
14580TIP3    H143625   7.429   4.541   6.097
14580TIP3    H243626   7.523   4.510   6.210
14581TIP3   OH243627   6.174   4.110   6.380
14581TIP3    H143628   6.113   4.147   6.314
14581TIP3    H243629   6.124   4.126   6.463
14582TIP3   OH243630   6.521   4.960   5.391
14582TIP3    H143631   6.481   4.941   5.305
14582TIP3    H243632   6.479   5.046   5.413
14583TIP3   OH243633   6.280   4.885   6.177
14583TIP3    H143634   6.217   4.950   6.215
14583TIP3    H243635   6.322   4.937   6.106
14584TIP3   OH243636   7.081   4.220   5.740
14584TIP3    H143637   7.075   4.169   5.822
14584TIP3    H243638   7.137   4.295   5.767
14585TIP3   OH243639   6.043   4.227   6.166
14585TIP3    H143640   6.106   4.299   6.190
14585TIP3    H243641   6.093   4.184   6.093
14586TIP3   OH243642   6.107   5.078   6.272
14586TIP3    H143643   6.082   5.165   6.234
14586TIP3    H243644   6.029   5.064   6.330
14587TIP3   OH243645   5.499   4.766   5.512
14587TIP3    H143646   5.458   4.805   5.432
14587TIP3    H243647   5.532   4.848   5.555
14588TIP3   OH243648   6.945   5.284   5.752
14588TIP3    H143649   6.854   5.277   5.790
14588TIP3    H243650   6.938   5.370   5.707
14589TIP3   OH243651   7.233   4.189   6.113
14589TIP3    H143652   7.145   4.216   6.083
14589TIP3    H243653   7.292   4.218   6.040
14590TIP3   OH243654   6.530   3.829   6.093
14590TIP3    H143655   6.520   3.734   6.113
14590TIP3    H243656   6.453   3.866   6.141
14591TIP3   OH243657   6.646   5.331   5.426
14591TIP3    H143658   6.697   5.250   5.403
14591TIP3    H243659   6.705   5.398   5.384
14592TIP3   OH243660   6.786   5.116   5.329
14592TIP3    H143661   6.751   5.035   5.290
14592TIP3    H243662   6.823   5.082   5.414
14593TIP3   OH243663   7.191   5.187   6.099
14593TIP3    H143664   7.172   5.119   6.031
14593TIP3    H243665   7.175   5.269   6.048
14594TIP3   OH243666   6.460   4.591   5.349
14594TIP3    H143667   6.380   4.643   5.326
14594TIP3    H243668   6.508   4.589   5.265
14595TIP3   OH243669   6.418   4.375   5.070
14595TIP3    H143670   6.487   4.425   5.118
14595TIP3    H243671   6.475   4.312   5.021
14596TIP3   OH243672   7.367   4.838   5.940
14596TIP3    H143673   7.282   4.888   5.940
14596TIP3    H243674   7.396   4.858   5.848
14597TIP3   OH243675   6.807   4.674   5.323
14597TIP3    H143676   6.753   4.699   5.401
14597TIP3    H243677   6.890   4.647   5.366
14598TIP3   OH243678   7.043   4.717   6.232
14598TIP3    H143679   7.034   4.799   6.284
14598TIP3    H243680   6.957   4.716   6.186
14599TIP3   OH243681   6.041   4.672   5.739
14599TIP3    H143682   6.001   4.615   5.671
14599TIP3    H243683   6.119   4.620   5.768
14600TIP3   OH243684   6.168   5.080   5.889
14600TIP3    H143685   6.151   5.040   5.803
14600TIP3    H243686   6.260   5.050   5.907
14601TIP3   OH243687   6.174   4.646   6.090
14601TIP3    H143688   6.211   4.624   6.002
14601TIP3    H243689   6.219   4.730   6.113
14602TIP3   OH243690   6.702   5.281   5.870
14602TIP3    H143691   6.687   5.362   5.922
14602TIP3    H243692   6.687   5.209   5.934
14603TIP3   OH243693   6.313   5.199   6.417
14603TIP3    H143694   6.254   5.263   6.463
14603TIP3    H243695   6.246   5.147   6.368
14604TIP3   OH243696   6.648   4.533   5.148
14604TIP3    H143697   6.708   4.591   5.201
14604TIP3    H243698   6.674   4.558   5.056
14605TIP3   OH243699   6.067   4.758   6.515
14605TIP3    H143700   6.072   4.844   6.561
14605TIP3    H243701   5.972   4.738   6.527
14606TIP3   OH243702   6.391   5.213   5.421
14606TIP3    H143703   6.469   5.266   5.443
14606TIP3    H243704   6.329   5.280   5.389
14607TIP3   OH243705   6.109   5.369   6.503
14607TIP3    H143706   6.074   5.368   6.412
14607TIP3    H243707   6.029   5.348   6.557
14608TIP3   OH243708   7.164   3.774   5.196
14608TIP3    H143709   7.083   3.794   5.247
14608TIP3    H243710   7.176   3.857   5.146
14609TIP3   OH243711   5.908   4.517   5.540
14609TIP3    H143712   5.842   4.563   5.485
14609TIP3    H243713   5.867   4.430   5.551
14610TIP3   OH243714   5.687   4.899   6.451
14610TIP3    H143715   5.621   4.875   6.383
14610TIP3    H243716   5.724   4.811   6.477
14611TIP3   OH243717   5.542   5.089   6.087
14611TIP3    H143718   5.638   5.089   6.076
14611TIP3    H243719   5.529   5.171   6.138
14612TIP3   OH243720   7.404   5.543   6.139
14612TIP3    H143721   7.374   5.458   6.105
14612TIP3    H243722   7.325   5.571   6.190
14613TIP3   OH243723   6.513   5.329   6.274
14613TIP3    H143724   6.513   5.422   6.306
14613TIP3    H243725   6.441   5.290   6.329
14614TIP3   OH243726   6.271   5.459   5.226
14614TIP3    H143727   6.225   5.443   5.142
14614TIP3    H243728   6.240   5.547   5.252
14615TIP3   OH243729   5.711   5.306   5.607
14615TIP3    H143730   5.759   5.298   5.692
14615TIP3    H243731   5.646   5.235   5.616
14616TIP3   OH243732   6.464   5.354   4.873
14616TIP3    H143733   6.531   5.302   4.823
14616TIP3    H243734   6.509   5.366   4.959
14617TIP3   OH243735   6.525   5.410   5.140
14617TIP3    H143736   6.437   5.419   5.182
14617TIP3    H243737   6.577   5.370   5.211
14618TIP3   OH243738   7.293   4.677   6.409
14618TIP3    H143739   7.210   4.682   6.360
14618TIP3    H243740   7.312   4.581   6.404
14619TIP3   OH243741   5.893   5.081   6.440
14619TIP3    H143742   5.943   5.065   6.523
14619TIP3    H243743   5.819   5.018   6.449
14620TIP3   OH243744   6.291   3.907   6.221
14620TIP3    H143745   6.201   3.875   6.198
14620TIP3    H243746   6.266   3.988   6.270
14621TIP3   OH243747   6.825   4.022   6.418
14621TIP3    H143748   6.893   3.993   6.482
14621TIP3    H243749   6.741   4.000   6.464
14622TIP3   OH243750   7.067   4.452   6.338
14622TIP3    H143751   7.018   4.445   6.423
14622TIP3    H243752   7.037   4.537   6.302
14623TIP3   OH243753   6.723   4.582   4.891
14623TIP3    H143754   6.694   4.553   4.803
14623TIP3    H243755   6.806   4.628   4.868
14624TIP3   OH243756   6.435   3.957   5.193
14624TIP3    H143757   6.406   3.954   5.286
14624TIP3    H243758   6.400   3.871   5.162
14625TIP3   OH243759   6.222   4.422   6.240
14625TIP3    H143760   6.174   4.442   6.323
14625TIP3    H243761   6.205   4.503   6.188
14626TIP3   OH243762   6.106   4.306   5.756
14626TIP3    H143763   6.013   4.281   5.771
14626TIP3    H243764   6.122   4.266   5.667
14627TIP3   OH243765   6.597   4.392   5.483
14627TIP3    H143766   6.544   4.464   5.441
14627TIP3    H243767   6.653   4.363   5.408
14628TIP3   OH243768   6.773   4.673   6.571
14628TIP3    H143769   6.749   4.599   6.632
14628TIP3    H243770   6.867   4.685   6.593
14629TIP3   OH243771   6.756   4.422   5.723
14629TIP3    H143772   6.696   4.452   5.651
14629TIP3    H243773   6.789   4.340   5.681
14630TIP3   OH243774   6.041   4.450   6.451
14630TIP3    H143775   6.069   4.513   6.520
14630TIP3    H243776   6.030   4.368   6.503
14631TIP3   OH243777   6.093   3.928   5.160
14631TIP3    H143778   6.090   3.924   5.258
14631TIP3    H243779   6.006   3.963   5.139
14632TIP3   OH243780   5.637   3.995   6.013
14632TIP3    H143781   5.710   4.009   6.077
14632TIP3    H243782   5.674   3.932   5.948
14633TIP3   OH243783   5.607   3.958   5.550
14633TIP3    H143784   5.651   3.986   5.467
14633TIP3    H243785   5.575   4.044   5.581
14634TIP3   OH243786   6.769   4.669   6.147
14634TIP3    H143787   6.799   4.596   6.088
14634TIP3    H243788   6.738   4.617   6.224
14635TIP3   OH243789   6.433   4.133   5.818
14635TIP3    H143790   6.353   4.128   5.874
14635TIP3    H243791   6.504   4.127   5.885
14636TIP3   OH243792   5.866   4.180   5.821
14636TIP3    H143793   5.778   4.168   5.781
14636TIP3    H243794   5.907   4.091   5.807
14637TIP3   OH243795   6.139   4.182   5.514
14637TIP3    H143796   6.234   4.195   5.497
14637TIP3    H243797   6.097   4.208   5.429
14638TIP3   OH243798   6.927   4.206   6.020
14638TIP3    H143799   6.892   4.216   6.111
14638TIP3    H243800   6.863   4.143   5.982
14639TIP3   OH243801   5.973   4.219   5.291
14639TIP3    H143802   5.903   4.170   5.244
14639TIP3    H243803   6.030   4.247   5.217
14640TIP3   OH243804   7.095   5.893   6.238
14640TIP3    H143805   7.093   5.917   6.144
14640TIP3    H243806   7.174   5.942   6.269
14641TIP3   OH243807   6.054   5.003   6.660
14641TIP3    H143808   6.133   5.034   6.708
14641TIP3    H243809   5.989   5.003   6.733
14642TIP3   OH243810   6.518   4.458   5.915
14642TIP3    H143811   6.590   4.417   5.864
14642TIP3    H243812   6.528   4.415   6.002
14643TIP3   OH243813   6.037   3.947   5.793
14643TIP3    H143814   6.006   3.867   5.839
14643TIP3    H243815   6.097   3.910   5.727
14644TIP3   OH243816   6.494   4.354   6.204
14644TIP3    H143817   6.405   4.390   6.219
14644TIP3    H243818   6.552   4.413   6.256
14645TIP3   OH243819   6.232   4.744   5.298
14645TIP3    H143820   6.156   4.684   5.287
14645TIP3    H243821   6.216   4.779   5.389
14646TIP3   OH243822   7.133   4.980   5.931
14646TIP3    H143823   7.157   5.030   5.850
14646TIP3    H243824   7.046   4.941   5.906
14647TIP3   OH243825   6.689   4.058   5.161
14647TIP3    H143826   6.592   4.043   5.169
14647TIP3    H243827   6.700   4.152   5.184
14648TIP3   OH243828   6.633   5.063   6.298
14648TIP3    H143829   6.650   5.041   6.390
14648TIP3    H243830   6.593   5.151   6.303
14649TIP3   OH243831   6.759   4.304   5.264
14649TIP3    H143832   6.856   4.309   5.279
14649TIP3    H243833   6.742   4.383   5.209
14650TIP3   OH243834   5.914   4.753   5.975
14650TIP3    H143835   5.960   4.735   5.891
14650TIP3    H243836   5.968   4.703   6.039
14651TIP3   OH243837   6.377   4.894   5.113
14651TIP3    H143838   6.330   4.980   5.121
14651TIP3    H243839   6.325   4.839   5.175
14652TIP3   OH243840   5.803   4.687   6.589
14652TIP3    H143841   5.826   4.675   6.683
14652TIP3    H243842   5.735   4.619   6.576
14653TIP3   OH243843   6.529   4.801   6.608
14653TIP3    H143844   6.470   4.741   6.559
14653TIP3    H243845   6.617   4.768   6.581
14654TIP3   OH243846   6.793   5.318   6.193
14654TIP3    H143847   6.696   5.320   6.203
14654TIP3    H243848   6.820   5.373   6.271
14655TIP3   OH243849   7.201   4.393   5.102
14655TIP3    H143850   7.138   4.348   5.041
14655TIP3    H243851   7.199   4.481   5.059
14656TIP3   OH243852   6.913   5.210   5.011
14656TIP3    H143853   6.876   5.143   5.069
14656TIP3    H243854   6.905   5.172   4.923
14657TIP3   OH243855   6.898   4.842   5.851
14657TIP3    H143856   6.804   4.817   5.862
14657TIP3    H243857   6.932   4.763   5.804
14658TIP3   OH243858   6.023   5.068   5.598
14658TIP3    H143859   6.027   5.152   5.547
14658TIP3    H243860   5.928   5.059   5.611
14659TIP3   OH243861   5.571   4.387   5.316
14659TIP3    H143862   5.624   4.465   5.340
14659TIP3    H243863   5.491   4.427   5.278
14660TIP3   OH243864   6.162   4.836   5.543
14660TIP3    H143865   6.128   4.926   5.561
14660TIP3    H243866   6.127   4.788   5.621
14661TIP3   OH243867   6.293   5.413   6.070
14661TIP3    H143868   6.331   5.487   6.019
14661TIP3    H243869   6.371   5.382   6.119
14662TIP3   OH243870   5.946   5.308   5.453
14662TIP3    H143871   5.859   5.317   5.498
14662TIP3    H243872   5.978   5.401   5.457
14663TIP3   OH243873   6.682   5.049   6.028
14663TIP3    H143874   6.674   5.047   6.126
14663TIP3    H243875   6.762   4.996   6.014
14664TIP3   OH243876   6.656   4.943   4.908
14664TIP3    H143877   6.710   4.916   4.986
14664TIP3    H243878   6.568   4.923   4.942
14665TIP3   OH243879   6.931   5.582   6.078
14665TIP3    H143880   6.851   5.527   6.069
14665TIP3    H243881   6.917   5.648   6.006
14666TIP3   OH243882   6.993   5.433   4.746
14666TIP3    H143883   7.037   5.499   4.690
14666TIP3    H243884   6.908   5.477   4.765
14667TIP3   OH243885   6.017   4.193   6.597
14667TIP3    H143886   5.921   4.197   6.612
14667TIP3    H243887   6.045   4.132   6.668
14668TIP3   OH243888   6.815   4.875   5.128
14668TIP3    H143889   6.806   4.808   5.198
14668TIP3    H243890   6.912   4.874   5.116
14669TIP3   OH243891   5.732   5.277   6.230
14669TIP3    H143892   5.785   5.204   6.265
14669TIP3    H243893   5.760   5.350   6.287
14670TIP3   OH243894   6.012   4.871   4.912
14670TIP3    H143895   6.108   4.860   4.897
14670TIP3    H243896   6.009   4.907   5.002
14671TIP3   OH243897   5.980   4.927   5.181
14671TIP3    H143898   6.044   4.906   5.250
14671TIP3    H243899   5.977   5.025   5.186
14672TIP3   OH243900   5.701   4.622   5.386
14672TIP3    H143901   5.638   4.670   5.444
14672TIP3    H243902   5.715   4.692   5.319
14673TIP3   OH243903   6.851   4.257   6.278
14673TIP3    H143904   6.931   4.293   6.319
14673TIP3    H243905   6.836   4.176   6.331
14674TIP3   OH243906   6.729   4.011   5.441
14674TIP3    H143907   6.719   4.034   5.347
14674TIP3    H243908   6.771   4.092   5.478
14675TIP3   OH243909   6.232   5.124   5.124
14675TIP3    H143910   6.146   5.149   5.163
14675TIP3    H243911   6.256   5.207   5.082
14676TIP3   OH243912   6.419   4.189   5.545
14676TIP3    H143913   6.486   4.258   5.527
14676TIP3    H243914   6.427   4.180   5.643
14677TIP3   OH243915   6.691   4.507   6.353
14677TIP3    H143916   6.710   4.560   6.433
14677TIP3    H243917   6.746   4.428   6.368
14678TIP3   OH243918   6.567   3.916   5.648
14678TIP3    H143919   6.566   3.991   5.711
14678TIP3    H243920   6.627   3.952   5.578
14679TIP3   OH243921   5.975   5.198   5.199
14679TIP3    H143922   5.944   5.267   5.136
14679TIP3    H243923   5.960   5.242   5.286
14680TIP3   OH243924   6.078   3.913   5.436
14680TIP3    H143925   6.078   4.002   5.475
14680TIP3    H243926   6.173   3.891   5.446
14681TIP3   OH243927   7.333   4.409   6.330
14681TIP3    H143928   7.235   4.408   6.341
14681TIP3    H243929   7.341   4.361   6.246
14682TIP3   OH243930   6.982   4.602   5.722
14682TIP3    H143931   6.907   4.541   5.734
14682TIP3    H243932   7.054   4.554   5.769
14683TIP3   OH243933   5.705   4.826   5.205
14683TIP3    H143934   5.753   4.909   5.219
14683TIP3    H243935   5.715   4.816   5.110
14684TIP3   OH243936   5.639   4.113   5.324
14684TIP3    H143937   5.624   4.210   5.321
14684TIP3    H243938   5.566   4.080   5.271
14685TIP3   OH243939   6.951   5.556   5.672
14685TIP3    H143940   6.908   5.602   5.596
14685TIP3    H243941   7.045   5.576   5.651
14686TIP3   OH243942   6.025   3.826   6.199
14686TIP3    H143943   5.995   3.790   6.113
14686TIP3    H243944   6.017   3.748   6.258
14687TIP3   OH243945   5.565   5.034   5.583
14687TIP3    H143946   5.493   5.072   5.636
14687TIP3    H243947   5.546   5.077   5.497
14688TIP3   OH243948   5.721   5.584   6.652
14688TIP3    H143949   5.808   5.583   6.698
14688TIP3    H243950   5.701   5.489   6.649
14689TIP3   OH243951   6.204   5.551   6.696
14689TIP3    H143952   6.299   5.533   6.703
14689TIP3    H243953   6.180   5.493   6.621
14690TIP3   OH243954   6.845   5.455   6.426
14690TIP3    H143955   6.835   5.386   6.496
14690TIP3    H243956   6.921   5.507   6.458
14691TIP3   OH243957   6.634   5.189   4.735
14691TIP3    H143958   6.646   5.102   4.775
14691TIP3    H243959   6.661   5.176   4.643
14692TIP3   OH243960   5.853   4.992   6.851
14692TIP3    H143961   5.870   4.896   6.855
14692TIP3    H243962   5.765   4.994   6.808
14693TIP3   OH243963   5.853   4.586   5.034
14693TIP3    H143964   5.901   4.602   5.117
14693TIP3    H243965   5.883   4.662   4.982
14694TIP3   OH243966   6.462   5.076   6.624
14694TIP3    H143967   6.419   5.092   6.538
14694TIP3    H243968   6.492   4.983   6.617
14695TIP3   OH243969   6.277   4.824   4.860
14695TIP3    H143970   6.323   4.853   4.942
14695TIP3    H243971   6.315   4.733   4.851
14696TIP3   OH243972   6.959   5.085   6.229
14696TIP3    H143973   7.029   5.134   6.182
14696TIP3    H243974   6.883   5.146   6.219
14697TIP3   OH243975   5.972   4.724   6.831
14697TIP3    H143976   6.046   4.665   6.814
14697TIP3    H243977   5.995   4.758   6.920
14698TIP3   OH243978   6.028   4.545   5.260
14698TIP3    H143979   6.013   4.509   5.349
14698TIP3    H243980   6.074   4.470   5.215
14699TIP3   OH243981   6.306   4.609   6.493
14699TIP3    H143982   6.230   4.671   6.498
14699TIP3    H243983   6.354   4.644   6.414
14700TIP3   OH243984   6.139   4.337   5.108
14700TIP3    H143985   6.115   4.335   5.013
14700TIP3    H243986   6.236   4.344   5.102
14701TIP3   OH243987   6.823   5.012   6.629
14701TIP3    H143988   6.902   4.985   6.581
14701TIP3    H243989   6.820   4.945   6.700
14702TIP3   OH243990   6.961   4.672   4.770
14702TIP3    H143991   6.949   4.625   4.686
14702TIP3    H243992   6.932   4.762   4.742
14703TIP3   OH243993   6.430   4.398   6.622
14703TIP3    H143994   6.430   4.317   6.567
14703TIP3    H243995   6.386   4.463   6.563
14704TIP3   OH243996   6.433   4.185   6.427
14704TIP3    H143997   6.460   4.225   6.342
14704TIP3    H243998   6.339   4.161   6.409
14705TIP3   OH243999   6.461   4.721   6.300
14705TIP3    H144000   6.544   4.728   6.251
14705TIP3    H244001   6.405   4.789   6.257
14706TIP3   OH244002   7.042   4.688   6.681
14706TIP3    H144003   7.088   4.604   6.697
14706TIP3    H244004   7.115   4.745   6.653
14707TIP3   OH244005   7.087   4.946   6.419
14707TIP3    H144006   7.026   4.997   6.360
14707TIP3    H244007   7.172   4.964   6.375
14708TIP3   OH244008   6.306   4.513   6.849
14708TIP3    H144009   6.238   4.444   6.864
14708TIP3    H244010   6.343   4.485   6.763
14709TIP3   OH244011   6.565   3.949   6.493
14709TIP3    H144012   6.516   4.031   6.472
14709TIP3    H244013   6.495   3.881   6.483
14710TIP3   OH244014   6.691   4.455   6.711
14710TIP3    H144015   6.682   4.442   6.807
14710TIP3    H244016   6.601   4.429   6.682
14711TIP3   OH244017   6.931   4.402   6.565
14711TIP3    H144018   6.855   4.403   6.626
14711TIP3    H244019   7.003   4.370   6.623
14712TIP3   OH244020   7.161   4.342   6.716
14712TIP3    H144021   7.173   4.247   6.736
14712TIP3    H244022   7.155   4.382   6.805
14713TIP3   OH244023   6.148   4.292   6.903
14713TIP3    H144024   6.154   4.200   6.868
14713TIP3    H244025   6.184   4.279   6.993
14714TIP3   OH244026   6.661   3.960   6.750
14714TIP3    H144027   6.728   3.889   6.747
14714TIP3    H244028   6.621   3.951   6.662
14715TIP3   OH244029   6.726   4.174   6.910
14715TIP3    H144030   6.703   4.102   6.846
14715TIP3    H244031   6.647   4.232   6.904
14716TIP3   OH244032   5.940   5.397   5.008
14716TIP3    H144033   6.036   5.400   4.997
14716TIP3    H244034   5.913   5.450   4.930
14717TIP3   OH244035   5.336   5.394   5.641
14717TIP3    H144036   5.270   5.331   5.606
14717TIP3    H244037   5.383   5.338   5.707
14718TIP3   OH244038   5.478   5.248   5.825
14718TIP3    H144039   5.465   5.176   5.889
14718TIP3    H244040   5.528   5.311   5.880
14719TIP3   OH244041   7.201   5.649   5.625
14719TIP3    H144042   7.230   5.687   5.710
14719TIP3    H244043   7.265   5.689   5.563
14720TIP3   OH244044   7.229   5.671   5.909
14720TIP3    H144045   7.189   5.582   5.904
14720TIP3    H244046   7.309   5.653   5.960
14721TIP3   OH244047   7.284   5.342   6.489
14721TIP3    H144048   7.204   5.354   6.544
14721TIP3    H244049   7.321   5.433   6.488
14722TIP3   OH244050   7.098   4.861   5.102
14722TIP3    H144051   7.168   4.924   5.080
14722TIP3    H244052   7.137   4.817   5.181
14723TIP3   OH244053   7.221   4.727   5.305
14723TIP3    H144054   7.157   4.683   5.366
14723TIP3    H244055   7.288   4.764   5.367
14724TIP3   OH244056   7.277   5.116   5.741
14724TIP3    H144057   7.331   5.054   5.689
14724TIP3    H244058   7.270   5.193   5.680
14725TIP3   OH244059   7.114   5.412   5.943
14725TIP3    H144060   7.041   5.458   5.990
14725TIP3    H244061   7.065   5.365   5.872
14726TIP3   OH244062   7.162   4.632   4.954
14726TIP3    H144063   7.090   4.635   4.887
14726TIP3    H244064   7.136   4.709   5.009
14727TIP3   OH244065   7.028   4.308   4.911
14727TIP3    H144066   6.996   4.346   4.829
14727TIP3    H244067   7.004   4.213   4.899
14728TIP3   OH244068   7.036   4.581   5.453
14728TIP3    H144069   7.046   4.484   5.448
14728TIP3    H244070   7.024   4.596   5.549
14729TIP3   OH244071   5.665   4.654   6.196
14729TIP3    H144072   5.667   4.631   6.101
14729TIP3    H244073   5.762   4.656   6.216
14730TIP3   OH244074   7.340   5.020   6.288
14730TIP3    H144075   7.380   4.933   6.271
14730TIP3    H244076   7.295   5.045   6.204
14731TIP3   OH244077   7.509   4.817   6.336
14731TIP3    H144078   7.435   4.762   6.369
14731TIP3    H244079   7.583   4.751   6.346
14732TIP3   OH244080   6.976   4.041   4.896
14732TIP3    H144081   7.053   4.010   4.948
14732TIP3    H244082   6.905   3.980   4.921
14733TIP3   OH244083   7.032   4.297   5.348
14733TIP3    H144084   7.074   4.209   5.363
14733TIP3    H244085   7.091   4.331   5.278
14734TIP3   OH244086   7.196   4.474   5.842
14734TIP3    H144087   7.282   4.500   5.802
14734TIP3    H244088   7.209   4.508   5.932
14735TIP3   OH244089   7.264   4.617   6.076
14735TIP3    H144090   7.185   4.650   6.122
14735TIP3    H244091   7.295   4.697   6.028
14736TIP3   OH244092   5.881   4.343   6.874
14736TIP3    H144093   5.979   4.336   6.876
14736TIP3    H244094   5.856   4.258   6.915
14737TIP3   OH244095   7.714   4.206   6.631
14737TIP3    H144096   7.773   4.140   6.588
14737TIP3    H244097   7.689   4.263   6.555
14738TIP3   OH244098   7.141   4.048   5.386
14738TIP3    H144099   7.190   4.031   5.469
14738TIP3    H244100   7.082   3.970   5.384
14739TIP3   OH244101   5.840   4.032   6.199
14739TIP3    H144102   5.901   3.957   6.214
14739TIP3    H244103   5.902   4.107   6.199
14740TIP3   OH244104   5.644   4.309   6.275
14740TIP3    H144105   5.698   4.304   6.194
14740TIP3    H244106   5.674   4.393   6.313
14741TIP3   OH244107   7.588   4.349   6.436
14741TIP3    H144108   7.500   4.385   6.458
14741TIP3    H244109   7.562   4.275   6.378
14742TIP3   OH244110   7.224   3.984   5.017
14742TIP3    H144111   7.264   3.911   4.966
14742TIP3    H244112   7.291   4.054   5.010
14743TIP3   OH244113   5.627   3.819   5.783
14743TIP3    H144114   5.533   3.803   5.804
14743TIP3    H244115   5.622   3.869   5.699
14744TIP3   OH244116   6.785   5.514   5.286
14744TIP3    H144117   6.836   5.498   5.203
14744TIP3    H244118   6.841   5.579   5.331
14745TIP3   OH244119   5.849   3.896   6.595
14745TIP3    H144120   5.799   3.884   6.677
14745TIP3    H244121   5.779   3.929   6.535
14746TIP3   OH244122   5.889   5.317   6.671
14746TIP3    H144123   5.796   5.290   6.654
14746TIP3    H244124   5.897   5.300   6.765
14747TIP3   OH244125   6.066   5.349   6.218
14747TIP3    H144126   6.017   5.425   6.179
14747TIP3    H244127   6.152   5.364   6.173
14748TIP3   OH244128   6.512   5.594   6.355
14748TIP3    H144129   6.553   5.596   6.444
14748TIP3    H244130   6.578   5.646   6.303
14749TIP3   OH244131   6.691   5.746   6.214
14749TIP3    H144132   6.763   5.696   6.173
14749TIP3    H244133   6.742   5.804   6.275
14750TIP3   OH244134   7.485   4.109   6.315
14750TIP3    H144135   7.393   4.101   6.283
14750TIP3    H244136   7.517   4.017   6.303
14751TIP3   OH244137   5.742   5.602   6.245
14751TIP3    H144138   5.657   5.640   6.216
14751TIP3    H244139   5.752   5.645   6.330
14752TIP3   OH244140   5.978   5.585   6.097
14752TIP3    H144141   5.893   5.600   6.143
14752TIP3    H244142   5.959   5.625   6.009
14753TIP3   OH244143   6.406   5.616   5.896
14753TIP3    H144144   6.335   5.636   5.832
14753TIP3    H244145   6.418   5.703   5.938
14754TIP3   OH244146   6.674   5.555   5.947
14754TIP3    H144147   6.579   5.572   5.929
14754TIP3    H244148   6.715   5.632   5.906
14755TIP3   OH244149   6.883   5.748   5.864
14755TIP3    H144150   6.868   5.833   5.817
14755TIP3    H244151   6.907   5.688   5.790
14756TIP3   OH244152   5.652   5.399   5.986
14756TIP3    H144153   5.681   5.377   6.077
14756TIP3    H244154   5.727   5.359   5.936
14757TIP3   OH244155   5.847   5.272   5.842
14757TIP3    H144156   5.865   5.189   5.891
14757TIP3    H244157   5.937   5.312   5.838
14758TIP3   OH244158   6.112   5.367   5.845
14758TIP3    H144159   6.146   5.276   5.836
14758TIP3    H244160   6.154   5.392   5.929
14759TIP3   OH244161   6.686   4.023   5.928
14759TIP3    H144162   6.646   3.954   5.984
14759TIP3    H244163   6.761   3.975   5.888
14760TIP3   OH244164   7.214   3.906   5.840
14760TIP3    H144165   7.250   3.957   5.764
14760TIP3    H244166   7.118   3.923   5.832
14761TIP3   OH244167   7.308   4.006   5.603
14761TIP3    H144168   7.381   3.953   5.563
14761TIP3    H244169   7.342   4.097   5.588
14762TIP3   OH244170   5.938   3.733   5.949
14762TIP3    H144171   5.848   3.696   5.952
14762TIP3    H244172   5.990   3.649   5.948
14763TIP3   OH244173   5.722   3.602   5.595
14763TIP3    H144174   5.756   3.659   5.524
14763TIP3    H244175   5.697   3.666   5.664
14764TIP3   OH244176   6.377   3.771   5.830
14764TIP3    H144177   6.441   3.817   5.772
14764TIP3    H244178   6.406   3.800   5.918
14765TIP3   OH244179   6.930   3.912   5.815
14765TIP3    H144180   6.929   3.875   5.726
14765TIP3    H244181   6.916   3.831   5.870
14766TIP3   OH244182   6.959   3.834   5.376
14766TIP3    H144183   6.872   3.874   5.387
14766TIP3    H244184   6.945   3.749   5.423
14767TIP3   OH244185   5.443   5.168   5.384
14767TIP3    H144186   5.357   5.137   5.348
14767TIP3    H244187   5.437   5.262   5.361
14768TIP3   OH244188   5.843   3.767   5.360
14768TIP3    H144189   5.889   3.699   5.307
14768TIP3    H244190   5.918   3.817   5.398
14769TIP3   OH244191   6.355   3.937   5.460
14769TIP3    H144192   6.414   3.889   5.520
14769TIP3    H244193   6.377   4.029   5.486
14770TIP3   OH244194   6.210   5.361   4.962
14770TIP3    H144195   6.303   5.376   4.930
14770TIP3    H244196   6.179   5.302   4.892
14771TIP3   OH244197   6.927   5.480   5.053
14771TIP3    H144198   6.929   5.382   5.037
14771TIP3    H244199   6.891   5.510   4.967
14772TIP3   OH244200   6.147   4.016   6.842
14772TIP3    H144201   6.113   3.944   6.899
14772TIP3    H244202   6.241   4.016   6.868
14773TIP3   OH244203   6.395   4.012   6.960
14773TIP3    H144204   6.480   3.984   6.921
14773TIP3    H244205   6.382   3.942   7.028
14774TIP3   OH244206   7.219   4.072   6.749
14774TIP3    H144207   7.239   4.041   6.840
14774TIP3    H244208   7.308   4.067   6.707
14775TIP3   OH244209   7.161   5.625   6.240
14775TIP3    H144210   7.081   5.594   6.192
14775TIP3    H244211   7.142   5.721   6.243
14776TIP3   OH244212   8.424   4.997   5.008
14776TIP3    H144213   8.397   5.088   4.986
14776TIP3    H244214   8.349   4.947   4.972
14777TIP3   OH244215   8.423   4.999   5.388
14777TIP3    H144216   8.454   4.964   5.473
14777TIP3    H244217   8.384   4.920   5.347
14778TIP3   OH244218   7.724   4.897   5.762
14778TIP3    H144219   7.760   4.825   5.818
14778TIP3    H244220   7.805   4.942   5.734
14779TIP3   OH244221   8.667   5.298   5.068
14779TIP3    H144222   8.655   5.227   5.133
14779TIP3    H244223   8.696   5.372   5.123
14780TIP3   OH244224   7.697   5.301   5.483
14780TIP3    H144225   7.688   5.203   5.484
14780TIP3    H244226   7.793   5.309   5.469
14781TIP3   OH244227   7.401   4.506   5.265
14781TIP3    H144228   7.352   4.590   5.276
14781TIP3    H244229   7.332   4.451   5.225
14782TIP3   OH244230   7.461   4.792   5.432
14782TIP3    H144231   7.510   4.716   5.470
14782TIP3    H244232   7.521   4.821   5.362
14783TIP3   OH244233   8.319   5.762   5.085
14783TIP3    H144234   8.364   5.690   5.036
14783TIP3    H244235   8.308   5.722   5.172
14784TIP3   OH244236   8.223   5.221   5.437
14784TIP3    H144237   8.260   5.146   5.389
14784TIP3    H244238   8.307   5.267   5.459
14785TIP3   OH244239   9.228   4.539   5.443
14785TIP3    H144240   9.261   4.618   5.489
14785TIP3    H244241   9.259   4.562   5.352
14786TIP3   OH244242   8.633   4.725   5.470
14786TIP3    H144243   8.678   4.640   5.489
14786TIP3    H244244   8.605   4.710   5.378
14787TIP3   OH244245   7.971   4.384   5.435
14787TIP3    H144246   7.953   4.456   5.371
14787TIP3    H244247   7.925   4.310   5.390
14788TIP3   OH244248   8.666   4.475   5.057
14788TIP3    H144249   8.739   4.460   5.121
14788TIP3    H244250   8.717   4.509   4.982
14789TIP3   OH244251   7.607   4.586   5.541
14789TIP3    H144252   7.690   4.564   5.587
14789TIP3    H244253   7.618   4.531   5.461
14790TIP3   OH244254   8.047   4.783   5.337
14790TIP3    H144255   8.141   4.758   5.347
14790TIP3    H244256   8.009   4.700   5.302
14791TIP3   OH244257   9.306   4.741   5.613
14791TIP3    H144258   9.228   4.795   5.588
14791TIP3    H244259   9.333   4.783   5.696
14792TIP3   OH244260   7.970   4.367   5.868
14792TIP3    H144261   7.910   4.403   5.800
14792TIP3    H244262   7.918   4.385   5.949
14793TIP3   OH244263   8.317   5.217   4.877
14793TIP3    H144264   8.276   5.197   4.792
14793TIP3    H244265   8.273   5.302   4.899
14794TIP3   OH244266   8.077   5.141   5.664
14794TIP3    H144267   8.014   5.208   5.699
14794TIP3    H244268   8.119   5.191   5.591
14795TIP3   OH244269   8.876   4.476   5.227
14795TIP3    H144270   8.878   4.425   5.309
14795TIP3    H244271   8.941   4.546   5.246
14796TIP3   OH244272   7.840   4.482   5.653
14796TIP3    H144273   7.904   4.554   5.674
14796TIP3    H244274   7.888   4.440   5.577
14797TIP3   OH244275   7.906   5.336   5.759
14797TIP3    H144276   7.879   5.419   5.716
14797TIP3    H244277   7.827   5.321   5.816
14798TIP3   OH244278   7.309   5.035   5.002
14798TIP3    H144279   7.262   5.086   4.936
14798TIP3    H244280   7.346   5.108   5.056
14799TIP3   OH244281   8.740   5.542   5.240
14799TIP3    H144282   8.650   5.533   5.277
14799TIP3    H244283   8.732   5.626   5.191
14800TIP3   OH244284   9.026   4.439   5.601
14800TIP3    H144285   8.941   4.473   5.569
14800TIP3    H244286   9.089   4.472   5.533
14801TIP3   OH244287   8.328   4.086   5.581
14801TIP3    H144288   8.316   3.991   5.598
14801TIP3    H244289   8.250   4.123   5.628
14802TIP3   OH244290   8.442   5.589   4.913
14802TIP3    H144291   8.491   5.506   4.890
14802TIP3    H244292   8.501   5.655   4.870
14803TIP3   OH244293   8.583   5.374   4.815
14803TIP3    H144294   8.547   5.294   4.774
14803TIP3    H244295   8.618   5.338   4.900
14804TIP3   OH244296   8.965   5.455   5.581
14804TIP3    H144297   8.955   5.376   5.523
14804TIP3    H244298   8.944   5.528   5.518
14805TIP3   OH244299   8.257   4.849   4.837
14805TIP3    H144300   8.177   4.900   4.815
14805TIP3    H244301   8.303   4.846   4.751
14806TIP3   OH244302   8.216   4.632   4.556
14806TIP3    H144303   8.284   4.682   4.604
14806TIP3    H244304   8.272   4.568   4.507
14807TIP3   OH244305   9.159   5.090   5.430
14807TIP3    H144306   9.079   5.145   5.424
14807TIP3    H244307   9.194   5.096   5.339
14808TIP3   OH244308   8.602   4.931   4.810
14808TIP3    H144309   8.549   4.957   4.889
14808TIP3    H244310   8.686   4.904   4.854
14809TIP3   OH244311   8.839   4.970   5.720
14809TIP3    H144312   8.834   5.054   5.769
14809TIP3    H244313   8.753   4.972   5.673
14810TIP3   OH244314   7.835   4.929   5.227
14810TIP3    H144315   7.793   4.872   5.159
14810TIP3    H244316   7.913   4.876   5.254
14811TIP3   OH244317   7.962   5.333   5.377
14811TIP3    H144318   7.943   5.299   5.288
14811TIP3    H244319   8.054   5.303   5.392
14812TIP3   OH244320   7.968   4.901   5.582
14812TIP3    H144321   8.002   4.878   5.493
14812TIP3    H244322   8.014   4.986   5.600
14813TIP3   OH244323   8.497   5.539   5.357
14813TIP3    H144324   8.483   5.618   5.413
14813TIP3    H244325   8.484   5.465   5.419
14814TIP3   OH244326   8.110   5.455   5.904
14814TIP3    H144327   8.051   5.519   5.950
14814TIP3    H244328   8.044   5.405   5.852
14815TIP3   OH244329   8.446   4.788   4.635
14815TIP3    H144330   8.504   4.847   4.688
14815TIP3    H244331   8.471   4.813   4.543
14816TIP3   OH244332   7.864   5.013   6.012
14816TIP3    H144333   7.862   5.098   6.060
14816TIP3    H244334   7.770   5.002   5.991
14817TIP3   OH244335   8.187   5.469   4.915
14817TIP3    H144336   8.264   5.526   4.929
14817TIP3    H244337   8.125   5.528   4.869
14818TIP3   OH244338   7.904   5.622   5.990
14818TIP3    H144339   7.870   5.623   5.899
14818TIP3    H244340   7.825   5.595   6.042
14819TIP3   OH244341   8.960   4.031   4.683
14819TIP3    H144342   8.879   4.051   4.734
14819TIP3    H244343   8.973   4.115   4.634
14820TIP3   OH244344   7.699   4.771   5.036
14820TIP3    H144345   7.636   4.814   4.975
14820TIP3    H244346   7.661   4.682   5.043
14821TIP3   OH244347   8.759   5.398   4.231
14821TIP3    H144348   8.767   5.495   4.217
14821TIP3    H244349   8.851   5.369   4.219
14822TIP3   OH244350   7.484   5.166   5.937
14822TIP3    H144351   7.414   5.145   5.872
14822TIP3    H244352   7.509   5.078   5.972
14823TIP3   OH244353   7.337   5.345   5.576
14823TIP3    H144354   7.432   5.342   5.559
14823TIP3    H244355   7.328   5.429   5.623
14824TIP3   OH244356   9.201   5.795   5.640
14824TIP3    H144357   9.207   5.698   5.630
14824TIP3    H244358   9.105   5.810   5.635
14825TIP3   OH244359   8.310   5.584   5.763
14825TIP3    H144360   8.307   5.678   5.793
14825TIP3    H244361   8.237   5.546   5.816
14826TIP3   OH244362   8.071   5.717   4.712
14826TIP3    H144363   8.021   5.694   4.631
14826TIP3    H244364   8.034   5.803   4.737
14827TIP3   OH244365   7.506   5.568   5.093
14827TIP3    H144366   7.556   5.558   5.177
14827TIP3    H244367   7.439   5.499   5.103
14828TIP3   OH244368   8.271   5.617   4.353
14828TIP3    H144369   8.329   5.546   4.317
14828TIP3    H244370   8.304   5.625   4.445
14829TIP3   OH244371   8.322   5.664   4.622
14829TIP3    H144372   8.233   5.675   4.663
14829TIP3    H244373   8.370   5.620   4.694
14830TIP3   OH244374   9.089   4.930   5.899
14830TIP3    H144375   9.011   4.940   5.843
14830TIP3    H244376   9.106   4.834   5.891
14831TIP3   OH244377   7.694   5.336   5.927
14831TIP3    H144378   7.731   5.328   6.017
14831TIP3    H244379   7.615   5.278   5.932
14832TIP3   OH244380   8.087   4.162   5.709
14832TIP3    H144381   7.998   4.131   5.684
14832TIP3    H244382   8.064   4.245   5.754
14833TIP3   OH244383   8.621   4.278   5.904
14833TIP3    H144384   8.690   4.250   5.969
14833TIP3    H244385   8.537   4.257   5.950
14834TIP3   OH244386   8.860   4.704   5.821
14834TIP3    H144387   8.813   4.702   5.907
14834TIP3    H244388   8.836   4.792   5.786
14835TIP3   OH244389   8.520   4.836   4.379
14835TIP3    H144390   8.487   4.810   4.291
14835TIP3    H244391   8.601   4.886   4.355
14836TIP3   OH244392   8.233   4.212   4.681
14836TIP3    H144393   8.201   4.210   4.773
14836TIP3    H244394   8.195   4.128   4.648
14837TIP3   OH244395   8.019   4.677   5.728
14837TIP3    H144396   7.970   4.699   5.810
14837TIP3    H244397   8.003   4.758   5.675
14838TIP3   OH244398   7.904   4.564   5.243
14838TIP3    H144399   7.811   4.537   5.259
14838TIP3    H244400   7.918   4.524   5.154
14839TIP3   OH244401   8.393   4.649   4.970
14839TIP3    H144402   8.341   4.721   4.928
14839TIP3    H244403   8.449   4.620   4.895
14840TIP3   OH244404   8.568   4.930   6.059
14840TIP3    H144405   8.546   4.856   6.119
14840TIP3    H244406   8.663   4.941   6.079
14841TIP3   OH244407   8.551   4.679   5.210
14841TIP3    H144408   8.493   4.708   5.137
14841TIP3    H244409   8.585   4.597   5.168
14842TIP3   OH244410   7.836   4.708   5.940
14842TIP3    H144411   7.878   4.765   6.007
14842TIP3    H244412   7.826   4.624   5.988
14843TIP3   OH244413   7.888   4.183   4.648
14843TIP3    H144414   7.880   4.181   4.745
14843TIP3    H244415   7.810   4.235   4.623
14844TIP3   OH244416   7.431   4.230   5.519
14844TIP3    H144417   7.508   4.261   5.571
14844TIP3    H244418   7.471   4.196   5.437
14845TIP3   OH244419   7.406   4.210   5.038
14845TIP3    H144420   7.449   4.249   4.959
14845TIP3    H244421   7.344   4.283   5.060
14846TIP3   OH244422   8.563   4.925   5.634
14846TIP3    H144423   8.594   4.853   5.575
14846TIP3    H244424   8.534   4.872   5.712
14847TIP3   OH244425   8.229   4.387   5.305
14847TIP3    H144426   8.148   4.384   5.359
14847TIP3    H244427   8.299   4.385   5.373
14848TIP3   OH244428   7.665   4.441   5.314
14848TIP3    H144429   7.570   4.447   5.286
14848TIP3    H244430   7.690   4.350   5.289
14849TIP3   OH244431   7.935   4.439   5.000
14849TIP3    H144432   8.030   4.453   4.980
14849TIP3    H244433   7.890   4.462   4.916
14850TIP3   OH244434   8.722   4.463   5.509
14850TIP3    H144435   8.683   4.473   5.599
14850TIP3    H244436   8.659   4.401   5.469
14851TIP3   OH244437   7.774   4.471   4.780
14851TIP3    H144438   7.704   4.427   4.729
14851TIP3    H244439   7.827   4.509   4.706
14852TIP3   OH244440   8.900   6.141   5.724
14852TIP3    H144441   8.890   6.166   5.630
14852TIP3    H244442   8.970   6.202   5.750
14853TIP3   OH244443   7.839   5.256   6.165
14853TIP3    H144444   7.933   5.283   6.165
14853TIP3    H244445   7.820   5.282   6.256
14854TIP3   OH244446   8.314   4.713   5.401
14854TIP3    H144447   8.387   4.675   5.348
14854TIP3    H244448   8.328   4.670   5.487
14855TIP3   OH244449   7.837   4.202   5.279
14855TIP3    H144450   7.805   4.121   5.324
14855TIP3    H244451   7.889   4.166   5.206
14856TIP3   OH244452   8.290   4.607   5.694
14856TIP3    H144453   8.201   4.645   5.706
14856TIP3    H244454   8.349   4.668   5.743
14857TIP3   OH244455   8.029   5.000   4.788
14857TIP3    H144456   7.954   4.939   4.774
14857TIP3    H244457   8.010   5.034   4.878
14858TIP3   OH244458   8.927   5.241   5.417
14858TIP3    H144459   8.953   5.287   5.335
14858TIP3    H244460   8.843   5.197   5.391
14859TIP3   OH244461   8.486   4.314   4.648
14859TIP3    H144462   8.389   4.299   4.655
14859TIP3    H244463   8.497   4.409   4.671
14860TIP3   OH244464   8.431   5.321   5.784
14860TIP3    H144465   8.446   5.296   5.876
14860TIP3    H244466   8.388   5.407   5.791
14861TIP3   OH244467   8.555   4.560   4.751
14861TIP3    H144468   8.652   4.566   4.767
14861TIP3    H244469   8.537   4.640   4.697
14862TIP3   OH244470   7.717   5.020   5.463
14862TIP3    H144471   7.755   4.998   5.376
14862TIP3    H244472   7.764   4.958   5.520
14863TIP3   OH244473   8.174   5.152   4.610
14863TIP3    H144474   8.127   5.239   4.616
14863TIP3    H244475   8.118   5.096   4.668
14864TIP3   OH244476   7.574   4.962   6.101
14864TIP3    H144477   7.624   4.918   6.173
14864TIP3    H244478   7.528   4.886   6.059
14865TIP3   OH244479   8.324   5.057   6.095
14865TIP3    H144480   8.268   4.999   6.042
14865TIP3    H244481   8.414   5.025   6.069
14866TIP3   OH244482   8.588   5.579   5.672
14866TIP3    H144483   8.491   5.574   5.683
14866TIP3    H244484   8.613   5.628   5.753
14867TIP3   OH244485   8.998   4.650   4.588
14867TIP3    H144486   8.935   4.604   4.527
14867TIP3    H244487   8.994   4.738   4.546
14868TIP3   OH244488   9.212   5.517   5.665
14868TIP3    H144489   9.116   5.498   5.651
14868TIP3    H244490   9.246   5.482   5.579
14869TIP3   OH244491   8.700   5.470   4.496
14869TIP3    H144492   8.672   5.400   4.557
14869TIP3    H244493   8.710   5.424   4.411
14870TIP3   OH244494   8.693   5.099   5.338
14870TIP3    H144495   8.600   5.073   5.348
14870TIP3    H244496   8.729   5.021   5.292
14871TIP3   OH244497   7.820   5.328   5.091
14871TIP3    H144498   7.825   5.408   5.036
14871TIP3    H244499   7.725   5.314   5.092
14872TIP3   OH244500   7.379   4.634   4.781
14872TIP3    H144501   7.430   4.714   4.806
14872TIP3    H244502   7.305   4.637   4.846
14873TIP3   OH244503   7.959   5.094   5.034
14873TIP3    H144504   7.926   5.184   5.050
14873TIP3    H244505   7.921   5.045   5.109
14874TIP3   OH244506   8.089   5.671   5.557
14874TIP3    H144507   8.127   5.744   5.504
14874TIP3    H244508   8.167   5.638   5.603
14875TIP3   OH244509   7.745   5.563   4.944
14875TIP3    H144510   7.657   5.575   4.984
14875TIP3    H244511   7.780   5.655   4.949
14876TIP3   OH244512   8.480   5.307   5.514
14876TIP3    H144513   8.472   5.302   5.612
14876TIP3    H244514   8.555   5.248   5.497
14877TIP3   OH244515   8.452   5.198   4.397
14877TIP3    H144516   8.502   5.173   4.477
14877TIP3    H244517   8.362   5.171   4.423
14878TIP3   OH244518   8.732   5.842   5.571
14878TIP3    H144519   8.654   5.786   5.561
14878TIP3    H244520   8.718   5.906   5.498
14879TIP3   OH244521   8.792   5.673   4.217
14879TIP3    H144522   8.829   5.745   4.164
14879TIP3    H244523   8.712   5.719   4.251
14880TIP3   OH244524   7.812   4.452   6.084
14880TIP3    H144525   7.715   4.454   6.097
14880TIP3    H244526   7.840   4.390   6.154
14881TIP3   OH244527   8.611   5.133   4.616
14881TIP3    H144528   8.602   5.065   4.686
14881TIP3    H244529   8.708   5.131   4.602
14882TIP3   OH244530   7.527   5.535   5.720
14882TIP3    H144531   7.581   5.459   5.747
14882TIP3    H244532   7.563   5.605   5.776
14883TIP3   OH244533   7.825   5.180   4.399
14883TIP3    H144534   7.827   5.089   4.365
14883TIP3    H244535   7.801   5.164   4.493
14884TIP3   OH244536   7.773   5.175   4.672
14884TIP3    H144537   7.844   5.164   4.736
14884TIP3    H244538   7.761   5.272   4.673
14885TIP3   OH244539   7.501   4.874   4.870
14885TIP3    H144540   7.441   4.931   4.924
14885TIP3    H244541   7.542   4.939   4.810
14886TIP3   OH244542   8.643   4.518   5.768
14886TIP3    H144543   8.728   4.552   5.800
14886TIP3    H244544   8.633   4.435   5.820
14887TIP3   OH244545   8.526   4.267   4.928
14887TIP3    H144546   8.514   4.290   4.834
14887TIP3    H244547   8.567   4.348   4.964
14888TIP3   OH244548   8.033   5.383   4.623
14888TIP3    H144549   7.943   5.407   4.654
14888TIP3    H244550   8.043   5.446   4.550
14889TIP3   OH244551   8.218   4.444   5.031
14889TIP3    H144552   8.283   4.514   5.012
14889TIP3    H244553   8.224   4.437   5.129
14890TIP3   OH244554   8.486   4.763   5.841
14890TIP3    H144555   8.509   4.815   5.920
14890TIP3    H244556   8.542   4.684   5.849
14891TIP3   OH244557   8.363   4.173   5.135
14891TIP3    H144558   8.358   4.249   5.195
14891TIP3    H244559   8.423   4.209   5.065
14892TIP3   OH244560   7.774   5.454   4.685
14892TIP3    H144561   7.740   5.520   4.621
14892TIP3    H244562   7.757   5.499   4.770
14893TIP3   OH244563   7.873   4.169   4.925
14893TIP3    H144564   7.871   4.260   4.959
14893TIP3    H244565   7.969   4.151   4.932
14894TIP3   OH244566   9.128   4.663   5.828
14894TIP3    H144567   9.030   4.658   5.826
14894TIP3    H244568   9.148   4.635   5.737
14895TIP3   OH244569   8.778   4.860   5.210
14895TIP3    H144570   8.706   4.796   5.221
14895TIP3    H244571   8.854   4.815   5.254
14896TIP3   OH244572   7.433   4.364   4.814
14896TIP3    H144573   7.434   4.461   4.802
14896TIP3    H244574   7.357   4.339   4.762
14897TIP3   OH244575   8.748   5.813   5.159
14897TIP3    H144576   8.705   5.859   5.084
14897TIP3    H244577   8.842   5.831   5.138
14898TIP3   OH244578   7.822   4.083   5.687
14898TIP3    H144579   7.791   4.049   5.599
14898TIP3    H244580   7.812   4.003   5.743
14899TIP3   OH244581   7.364   5.295   5.076
14899TIP3    H144582   7.287   5.332   5.119
14899TIP3    H244583   7.353   5.334   4.986
14900TIP3   OH244584   7.520   5.844   6.137
14900TIP3    H144585   7.604   5.847   6.188
14900TIP3    H244586   7.497   5.750   6.141
14901TIP3   OH244587   8.003   5.815   6.172
14901TIP3    H144588   8.092   5.786   6.193
14901TIP3    H244589   7.978   5.752   6.102
14902TIP3   OH244590   7.987   5.383   4.315
14902TIP3    H144591   7.925   5.314   4.350
14902TIP3    H244592   8.056   5.327   4.277
14903TIP3   OH244593   8.647   5.700   5.911
14903TIP3    H144594   8.620   5.628   5.973
14903TIP3    H244595   8.692   5.760   5.969
14904TIP3   OH244596   8.420   5.425   4.222
14904TIP3    H144597   8.463   5.359   4.280
14904TIP3    H244598   8.476   5.424   4.142
14905TIP3   OH244599   7.622   4.880   4.531
14905TIP3    H144600   7.684   4.870   4.604
14905TIP3    H244601   7.685   4.900   4.458
14906TIP3   OH244602   8.264   5.333   6.107
14906TIP3    H144603   8.219   5.349   6.022
14906TIP3    H244604   8.292   5.240   6.101
14907TIP3   OH244605   8.143   5.098   4.337
14907TIP3    H144606   8.136   5.112   4.434
14907TIP3    H244607   8.134   5.000   4.332
14908TIP3   OH244608   8.751   5.341   5.721
14908TIP3    H144609   8.820   5.385   5.669
14908TIP3    H244610   8.675   5.399   5.704
14909TIP3   OH244611   7.754   4.986   6.321
14909TIP3    H144612   7.831   4.933   6.294
14909TIP3    H244613   7.788   5.022   6.406
14910TIP3   OH244614   7.834   4.801   4.756
14910TIP3    H144615   7.813   4.754   4.837
14910TIP3    H244616   7.869   4.729   4.699
14911TIP3   OH244617   8.100   4.864   5.978
14911TIP3    H144618   8.027   4.928   5.985
14911TIP3    H244619   8.151   4.899   5.902
14912TIP3   OH244620   7.934   4.595   4.595
14912TIP3    H144621   7.907   4.599   4.501
14912TIP3    H244622   8.032   4.604   4.586
14913TIP3   OH244623   8.620   5.270   6.114
14913TIP3    H144624   8.700   5.245   6.067
14913TIP3    H244625   8.616   5.204   6.185
14914TIP3   OH244626   8.758   4.928   4.255
14914TIP3    H144627   8.735   4.881   4.173
14914TIP3    H244628   8.726   5.018   4.231
14915TIP3   OH244629   8.225   4.654   6.110
14915TIP3    H144630   8.227   4.574   6.054
14915TIP3    H244631   8.183   4.719   6.049
14916TIP3   OH244632   8.229   4.441   5.916
14916TIP3    H144633   8.257   4.482   5.831
14916TIP3    H244634   8.136   4.418   5.896
14917TIP3   OH244635   8.257   4.979   5.790
14917TIP3    H144636   8.339   4.981   5.739
14917TIP3    H244637   8.202   5.046   5.744
14918TIP3   OH244638   8.841   4.945   6.171
14918TIP3    H144639   8.885   4.859   6.178
14918TIP3    H244640   8.912   4.999   6.133
14919TIP3   OH244641   8.882   5.199   5.908
14919TIP3    H144642   8.824   5.251   5.848
14919TIP3    H244643   8.969   5.215   5.865
14920TIP3   OH244644   8.101   4.770   6.335
14920TIP3    H144645   8.034   4.700   6.350
14920TIP3    H244646   8.139   4.743   6.250
14921TIP3   OH244647   8.361   4.206   5.981
14921TIP3    H144648   8.313   4.289   5.959
14921TIP3    H244649   8.292   4.138   5.969
14922TIP3   OH244650   8.486   4.711   6.198
14922TIP3    H144651   8.476   4.699   6.294
14922TIP3    H244652   8.396   4.685   6.169
14923TIP3   OH244653   8.728   4.663   6.054
14923TIP3    H144654   8.652   4.660   6.114
14923TIP3    H244655   8.801   4.629   6.111
14924TIP3   OH244656   8.956   4.600   6.205
14924TIP3    H144657   8.969   4.504   6.223
14924TIP3    H244658   8.953   4.638   6.295
14925TIP3   OH244659   7.943   4.548   6.390
14925TIP3    H144660   7.950   4.458   6.354
14925TIP3    H244661   7.980   4.535   6.480
14926TIP3   OH244662   8.456   4.215   6.239
14926TIP3    H144663   8.524   4.145   6.233
14926TIP3    H244664   8.416   4.209   6.149
14927TIP3   OH244665   8.521   4.430   6.398
14927TIP3    H144666   8.499   4.359   6.333
14927TIP3    H244667   8.444   4.489   6.390
14928TIP3   OH244668   7.743   5.666   4.501
14928TIP3    H144669   7.838   5.658   4.480
14928TIP3    H244670   7.709   5.698   4.416
14929TIP3   OH244671   7.127   5.653   5.126
14929TIP3    H144672   7.063   5.586   5.092
14929TIP3    H244673   7.177   5.598   5.191
14930TIP3   OH244674   7.270   5.508   5.310
14930TIP3    H144675   7.260   5.433   5.370
14930TIP3    H244676   7.323   5.568   5.364
14931TIP3   OH244677   9.001   5.903   5.115
14931TIP3    H144678   9.023   5.952   5.197
14931TIP3    H244679   9.054   5.951   5.050
14932TIP3   OH244680   9.024   5.923   5.404
14932TIP3    H144681   8.988   5.833   5.390
14932TIP3    H244682   9.116   5.905   5.427
14933TIP3   OH244683   8.891   5.115   4.589
14933TIP3    H144684   8.960   5.178   4.561
14933TIP3    H244685   8.933   5.076   4.669
14934TIP3   OH244686   9.017   4.987   4.795
14934TIP3    H144687   8.953   4.941   4.853
14934TIP3    H244688   9.083   5.021   4.858
14935TIP3   OH244689   9.070   5.374   5.226
14935TIP3    H144690   9.128   5.309   5.181
14935TIP3    H244691   9.065   5.446   5.160
14936TIP3   OH244692   8.906   5.671   5.422
14936TIP3    H144693   8.831   5.717   5.465
14936TIP3    H244694   8.861   5.623   5.350
14937TIP3   OH244695   8.957   4.890   4.441
14937TIP3    H144696   8.885   4.893   4.373
14937TIP3    H244697   8.931   4.966   4.496
14938TIP3   OH244698   8.827   4.563   4.395
14938TIP3    H144699   8.786   4.603   4.317
14938TIP3    H244700   8.802   4.469   4.384
14939TIP3   OH244701   8.832   4.838   4.939
14939TIP3    H144702   8.844   4.741   4.935
14939TIP3    H244703   8.821   4.853   5.036
14940TIP3   OH244704   7.460   4.908   5.687
14940TIP3    H144705   7.459   4.881   5.593
14940TIP3    H244706   7.557   4.915   5.703
14941TIP3   OH244707   9.125   5.265   5.798
14941TIP3    H144708   9.194   5.194   5.795
14941TIP3    H244709   9.149   5.317   5.719
14942TIP3   OH244710   9.306   5.072   5.829
14942TIP3    H144711   9.231   5.015   5.858
14942TIP3    H244712   9.380   5.007   5.836
14943TIP3   OH244713   8.771   4.297   4.381
14943TIP3    H144714   8.848   4.268   4.434
14943TIP3    H244715   8.700   4.237   4.408
14944TIP3   OH244716   8.829   4.554   4.835
14944TIP3    H144717   8.870   4.466   4.851
14944TIP3    H244718   8.888   4.588   4.765
14945TIP3   OH244719   9.003   4.738   5.320
14945TIP3    H144720   9.093   4.739   5.280
14945TIP3    H244721   9.022   4.772   5.410
14946TIP3   OH244722   9.062   4.872   5.565
14946TIP3    H144723   8.981   4.906   5.608
14946TIP3    H244724   9.094   4.952   5.518
14947TIP3   OH244725   7.677   4.604   6.364
14947TIP3    H144726   7.774   4.595   6.364
14947TIP3    H244727   7.652   4.518   6.403
14948TIP3   OH244728   9.514   4.464   6.120
14948TIP3    H144729   9.569   4.396   6.075
14948TIP3    H244730   9.484   4.518   6.044
14949TIP3   OH244731   8.937   4.305   4.874
14949TIP3    H144732   8.988   4.289   4.956
14949TIP3    H244733   8.879   4.226   4.873
14950TIP3   OH244734   7.638   4.291   5.695
14950TIP3    H144735   7.700   4.216   5.703
14950TIP3    H244736   7.701   4.365   5.686
14951TIP3   OH244737   7.442   4.567   5.765
14951TIP3    H144738   7.489   4.554   5.681
14951TIP3    H244739   7.474   4.654   5.791
14952TIP3   OH244740   9.382   4.604   5.928
14952TIP3    H144741   9.291   4.640   5.938
14952TIP3    H244742   9.363   4.533   5.864
14953TIP3   OH244743   9.017   4.241   4.502
14953TIP3    H144744   9.061   4.168   4.453
14953TIP3    H244745   9.086   4.311   4.501
14954TIP3   OH244746   7.424   4.070   5.268
14954TIP3    H144747   7.330   4.067   5.291
14954TIP3    H244748   7.423   4.127   5.188
14955TIP3   OH244749   8.584   5.769   4.772
14955TIP3    H144750   8.635   5.754   4.690
14955TIP3    H244751   8.637   5.838   4.816
14956TIP3   OH244752   7.645   4.151   6.082
14956TIP3    H144753   7.594   4.142   6.164
14956TIP3    H244754   7.577   4.186   6.021
14957TIP3   OH244755   7.684   5.553   6.164
14957TIP3    H144756   7.588   5.540   6.156
14957TIP3    H244757   7.696   5.564   6.259
14958TIP3   OH244758   7.861   5.610   5.705
14958TIP3    H144759   7.811   5.682   5.663
14958TIP3    H244760   7.946   5.624   5.660
14959TIP3   OH244761   8.307   5.850   5.844
14959TIP3    H144762   8.349   5.852   5.932
14959TIP3    H244763   8.372   5.902   5.791
14960TIP3   OH244764   8.484   6.003   5.703
14960TIP3    H144765   8.549   5.957   5.648
14960TIP3    H244766   8.541   6.059   5.759
14961TIP3   OH244767   9.280   4.366   5.803
14961TIP3    H144768   9.190   4.362   5.767
14961TIP3    H244769   9.311   4.274   5.788
14962TIP3   OH244770   7.541   5.860   5.733
14962TIP3    H144771   7.456   5.895   5.701
14962TIP3    H244772   7.543   5.900   5.821
14963TIP3   OH244773   7.769   5.850   5.578
14963TIP3    H144774   7.688   5.861   5.634
14963TIP3    H244775   7.733   5.875   5.491
14964TIP3   OH244776   8.205   5.872   5.388
14964TIP3    H144777   8.133   5.886   5.324
14964TIP3    H244778   8.216   5.963   5.423
14965TIP3   OH244779   8.473   5.815   5.442
14965TIP3    H144780   8.379   5.829   5.418
14965TIP3    H244781   8.516   5.885   5.390
14966TIP3   OH244782   8.676   6.000   5.352
14966TIP3    H144783   8.663   6.086   5.306
14966TIP3    H244784   8.702   5.942   5.278
14967TIP3   OH244785   7.448   5.649   5.475
14967TIP3    H144786   7.478   5.626   5.566
14967TIP3    H244787   7.522   5.610   5.422
14968TIP3   OH244788   7.642   5.528   5.329
14968TIP3    H144789   7.662   5.445   5.376
14968TIP3    H244790   7.732   5.568   5.322
14969TIP3   OH244791   7.904   5.623   5.334
14969TIP3    H144792   7.941   5.535   5.316
14969TIP3    H244793   7.953   5.646   5.415
14970TIP3   OH244794   8.484   4.281   5.418
14970TIP3    H144795   8.443   4.210   5.471
14970TIP3    H244796   8.558   4.234   5.374
14971TIP3   OH244797   9.010   4.161   5.328
14971TIP3    H144798   9.048   4.212   5.253
14971TIP3    H244799   8.915   4.181   5.319
14972TIP3   OH244800   9.104   4.260   5.091
14972TIP3    H144801   9.177   4.208   5.050
14972TIP3    H244802   9.140   4.351   5.075
14973TIP3   OH244803   7.735   3.990   5.438
14973TIP3    H144804   7.643   3.956   5.438
14973TIP3    H244805   7.785   3.905   5.435
14974TIP3   OH244806   7.520   3.859   5.084
14974TIP3    H144807   7.552   3.916   5.012
14974TIP3    H244808   7.492   3.924   5.150
14975TIP3   OH244809   8.177   4.024   5.317
14975TIP3    H144810   8.236   4.072   5.258
14975TIP3    H244811   8.202   4.059   5.403
14976TIP3   OH244812   8.725   4.169   5.303
14976TIP3    H144813   8.724   4.134   5.213
14976TIP3    H244814   8.711   4.087   5.356
14977TIP3   OH244815   8.756   4.090   4.863
14977TIP3    H144816   8.669   4.133   4.873
14977TIP3    H244817   8.740   4.005   4.910
14978TIP3   OH244818   7.233   5.420   4.875
14978TIP3    H144819   7.149   5.390   4.834
14978TIP3    H244820   7.235   5.510   4.840
14979TIP3   OH244821   7.638   4.019   4.849
14979TIP3    H144822   7.687   3.957   4.792
14979TIP3    H244823   7.711   4.073   4.885
14980TIP3   OH244824   8.150   4.193   4.947
14980TIP3    H144825   8.212   4.147   5.007
14980TIP3    H244826   8.172   4.286   4.972
14981TIP3   OH244827   8.009   5.622   4.445
14981TIP3    H144828   8.098   5.643   4.409
14981TIP3    H244829   7.988   5.545   4.387
14982TIP3   OH244830   8.730   5.737   4.539
14982TIP3    H144831   8.722   5.639   4.526
14982TIP3    H244832   8.685   5.770   4.459
14983TIP3   OH244833   7.942   4.272   6.329
14983TIP3    H144834   7.910   4.200   6.386
14983TIP3    H244835   8.037   4.272   6.354
14984TIP3   OH244836   8.191   4.268   6.447
14984TIP3    H144837   8.276   4.242   6.407
14984TIP3    H244838   8.179   4.198   6.514
14985TIP3   OH244839   9.016   4.329   6.235
14985TIP3    H144840   9.037   4.298   6.325
14985TIP3    H244841   9.104   4.324   6.191
14986TIP3   OH244842   8.935   5.875   5.775
14986TIP3    H144843   8.865   5.839   5.709
14986TIP3    H244844   8.925   5.970   5.747
14987TIP3   OH244845   9.519   5.159   5.247
14987TIP3    H144846   9.544   5.080   5.299
14987TIP3    H244847   9.607   5.193   5.225
14988TIP3   OH244848   9.484   5.559   4.971
14988TIP3    H144849   9.478   5.461   4.971
14988TIP3    H244850   9.580   5.570   4.960
14989TIP3   OH244851   9.192   4.767   4.758
14989TIP3    H144852   9.140   4.849   4.764
14989TIP3    H244853   9.128   4.707   4.716
14990TIP3   OH244854   9.263   5.042   4.925
14990TIP3    H144855   9.300   4.958   4.956
14990TIP3    H244856   9.318   5.061   4.848
14991TIP3   OH244857   9.969   5.496   4.919
14991TIP3    H144858   9.976   5.429   4.850
14991TIP3    H244859  10.064   5.501   4.944
14992TIP3   OH244860   9.775   4.644   4.928
14992TIP3    H144861   9.748   4.717   4.869
14992TIP3    H244862   9.719   4.572   4.896
14993TIP3   OH244863   9.808   5.061   4.808
14993TIP3    H144864   9.901   5.037   4.825
14993TIP3    H244865   9.772   4.973   4.781
14994TIP3   OH244866   9.752   4.638   5.347
14994TIP3    H144867   9.681   4.639   5.281
14994TIP3    H244868   9.702   4.656   5.429
14995TIP3   OH244869   9.847   5.406   5.143
14995TIP3    H144870   9.789   5.473   5.186
14995TIP3    H244871   9.891   5.459   5.075
14996TIP3   OH244872   9.693   5.600   5.251
14996TIP3    H144873   9.667   5.687   5.213
14996TIP3    H244874   9.614   5.583   5.307
14997TIP3   OH244875   9.096   5.282   4.484
14997TIP3    H144876   9.055   5.307   4.399
14997TIP3    H244877   9.126   5.368   4.519
14998TIP3   OH244878   9.611   5.205   4.694
14998TIP3    H144879   9.571   5.141   4.630
14998TIP3    H244880   9.684   5.150   4.732
14999TIP3   OH244881   9.735   5.616   4.849
14999TIP3    H144882   9.717   5.565   4.768
14999TIP3    H244883   9.821   5.579   4.879
15000TIP3   OH244884   9.761   5.156   5.070
15000TIP3    H144885   9.785   5.139   4.976
15000TIP3    H244886   9.798   5.245   5.086
15001TIP3   OH244887   9.904   5.717   5.389
15001TIP3    H144888   9.844   5.778   5.438
15001TIP3    H244889   9.838   5.662   5.342
15002TIP3   OH244890   9.660   5.278   5.497
15002TIP3    H144891   9.656   5.363   5.543
15002TIP3    H244892   9.565   5.255   5.488
15003TIP3   OH244893   9.934   5.833   4.421
15003TIP3    H144894  10.027   5.809   4.422
15003TIP3    H244895   9.906   5.787   4.340
15004TIP3   OH244896   9.700   5.883   5.475
15004TIP3    H144897   9.664   5.879   5.385
15004TIP3    H244898   9.621   5.862   5.530
15005TIP3   OH244899   9.498   5.026   4.511
15005TIP3    H144900   9.427   5.066   4.456
15005TIP3    H244901   9.459   4.941   4.536
15006TIP3   OH244902   9.277   5.415   5.426
15006TIP3    H144903   9.217   5.390   5.353
15006TIP3    H244904   9.314   5.327   5.453
15007TIP3   OH244905   9.133   5.604   5.059
15007TIP3    H144906   9.229   5.595   5.048
15007TIP3    H244907   9.126   5.687   5.110
15008TIP3   OH244908  10.085   5.852   5.237
15008TIP3    H144909  10.095   5.939   5.280
15008TIP3    H244910  10.022   5.806   5.297
15009TIP3   OH244911   9.303   5.819   4.582
15009TIP3    H144912   9.347   5.809   4.669
15009TIP3    H244913   9.245   5.740   4.583
15010TIP3   OH244914   9.480   5.599   5.419
15010TIP3    H144915   9.534   5.578   5.499
15010TIP3    H244916   9.411   5.529   5.422
15011TIP3   OH244917   9.883   4.419   5.215
15011TIP3    H144918   9.798   4.383   5.182
15011TIP3    H244919   9.857   4.510   5.235
15012TIP3   OH244920   9.845   4.935   5.215
15012TIP3    H144921   9.770   4.920   5.275
15012TIP3    H244922   9.810   5.007   5.159
15013TIP3   OH244923   9.700   4.825   4.723
15013TIP3    H144924   9.610   4.793   4.747
15013TIP3    H244925   9.707   4.787   4.633
15014TIP3   OH244926   9.628   4.965   5.421
15014TIP3    H144927   9.679   5.012   5.488
15014TIP3    H244928   9.613   4.878   5.463
15015TIP3   OH244929   9.670   4.456   4.135
15015TIP3    H144930   9.639   4.438   4.225
15015TIP3    H244931   9.591   4.492   4.093
15016TIP3   OH244932   9.227   4.482   5.005
15016TIP3    H144933   9.270   4.551   5.061
15016TIP3    H244934   9.293   4.468   4.936
15017TIP3   OH244935   9.201   4.467   4.523
15017TIP3    H144936   9.246   4.507   4.446
15017TIP3    H244937   9.141   4.540   4.548
15018TIP3   OH244938   9.466   4.706   4.767
15018TIP3    H144939   9.370   4.710   4.783
15018TIP3    H244940   9.487   4.612   4.779
15019TIP3   OH244941   9.721   4.721   4.466
15019TIP3    H144942   9.788   4.749   4.404
15019TIP3    H244943   9.641   4.726   4.407
15020TIP3   OH244944   9.548   4.731   4.261
15020TIP3    H144945   9.481   4.686   4.206
15020TIP3    H244946   9.611   4.758   4.192
15021TIP3   OH244947   9.641   5.521   5.638
15021TIP3    H144948   9.725   5.547   5.681
15021TIP3    H244949   9.582   5.520   5.716
15022TIP3   OH244950   9.624   4.461   4.762
15022TIP3    H144951   9.591   4.384   4.814
15022TIP3    H244952   9.693   4.421   4.708
15023TIP3   OH244953   9.784   5.281   4.272
15023TIP3    H144954   9.732   5.198   4.270
15023TIP3    H244955   9.806   5.291   4.367
15024TIP3   OH244956  10.178   5.582   5.285
15024TIP3    H144957  10.214   5.553   5.371
15024TIP3    H244958  10.158   5.675   5.300
15025TIP3   OH244959   9.517   5.287   4.950
15025TIP3    H144960   9.546   5.256   4.862
15025TIP3    H244961   9.551   5.217   5.008
15026TIP3   OH244962   9.385   5.210   5.570
15026TIP3    H144963   9.418   5.184   5.658
15026TIP3    H244964   9.332   5.133   5.544
15027TIP3   OH244965  10.086   5.278   5.607
15027TIP3    H144966  10.008   5.233   5.569
15027TIP3    H244967  10.155   5.212   5.590
15028TIP3   OH244968   9.614   5.580   4.571
15028TIP3    H144969   9.614   5.659   4.514
15028TIP3    H244970   9.520   5.560   4.576
15029TIP3   OH244971   9.178   4.888   4.275
15029TIP3    H144972   9.226   4.971   4.296
15029TIP3    H244973   9.102   4.894   4.337
15030TIP3   OH244974   9.792   5.369   4.554
15030TIP3    H144975   9.733   5.446   4.545
15030TIP3    H244976   9.732   5.307   4.600
15031TIP3   OH244977   9.885   5.924   5.045
15031TIP3    H144978   9.926   5.997   4.996
15031TIP3    H244979   9.959   5.892   5.099
15032TIP3   OH244980   9.530   5.822   4.427
15032TIP3    H144981   9.441   5.817   4.469
15032TIP3    H244982   9.561   5.906   4.461
15033TIP3   OH244983   9.608   4.709   5.579
15033TIP3    H144984   9.511   4.704   5.575
15033TIP3    H244985   9.629   4.638   5.642
15034TIP3   OH244986   9.321   5.793   5.207
15034TIP3    H144987   9.374   5.716   5.233
15034TIP3    H244988   9.362   5.862   5.260
15035TIP3   OH244989   9.581   5.417   3.877
15035TIP3    H144990   9.638   5.342   3.853
15035TIP3    H244991   9.593   5.421   3.973
15036TIP3   OH244992   9.562   5.432   4.163
15036TIP3    H144993   9.647   5.401   4.200
15036TIP3    H244994   9.570   5.529   4.168
15037TIP3   OH244995   9.295   5.133   4.358
15037TIP3    H144996   9.230   5.179   4.415
15037TIP3    H244997   9.313   5.203   4.292
15038TIP3   OH244998   9.836   5.711   4.125
15038TIP3    H144999   9.741   5.697   4.142
15038TIP3    H245000   9.830   5.729   4.029
15039TIP3   OH245001   9.561   5.706   4.169
15039TIP3    H145002   9.544   5.764   4.093
15039TIP3    H245003   9.543   5.762   4.247
15040TIP3   OH245004   9.671   4.432   4.416
15040TIP3    H145005   9.639   4.509   4.466
15040TIP3    H245006   9.753   4.469   4.378
15041TIP3   OH245007   9.287   5.347   4.165
15041TIP3    H145008   9.358   5.413   4.175
15041TIP3    H245009   9.329   5.291   4.097
15042TIP3   OH245010   9.233   4.618   4.298
15042TIP3    H145011   9.233   4.716   4.293
15042TIP3    H245012   9.148   4.596   4.259
15043TIP3   OH245013   9.633   4.327   5.167
15043TIP3    H145014   9.578   4.320   5.087
15043TIP3    H245015   9.598   4.257   5.225
15044TIP3   OH245016   9.162   5.565   4.555
15044TIP3    H145017   9.086   5.590   4.609
15044TIP3    H245018   9.135   5.600   4.467
15045TIP3   OH245019   9.316   6.095   5.630
15045TIP3    H145020   9.404   6.101   5.674
15045TIP3    H245021   9.307   5.999   5.620
15046TIP3   OH245022   9.790   6.067   5.668
15046TIP3    H145023   9.884   6.056   5.685
15046TIP3    H245024   9.776   6.004   5.594
15047TIP3   OH245025   9.435   5.496   5.831
15047TIP3    H145026   9.465   5.403   5.824
15047TIP3    H245027   9.359   5.497   5.769
15048TIP3   OH245028   9.417   5.156   4.019
15048TIP3    H145029   9.476   5.127   4.091
15048TIP3    H245030   9.484   5.171   3.948
15049TIP3   OH245031  10.040   5.585   5.600
15049TIP3    H145032  10.011   5.603   5.509
15049TIP3    H245033  10.063   5.491   5.599
15050TIP3   OH245034   9.564   5.240   5.806
15050TIP3    H145035   9.639   5.186   5.778
15050TIP3    H245036   9.592   5.269   5.895
15051TIP3   OH245037   9.632   5.052   4.247
15051TIP3    H145038   9.598   5.016   4.330
15051TIP3    H245039   9.660   4.972   4.198
15052TIP3   OH245040   9.878   5.121   5.490
15052TIP3    H145041   9.799   5.180   5.491
15052TIP3    H245042   9.920   5.153   5.407
15053TIP3   OH245043   9.727   4.845   4.089
15053TIP3    H145044   9.688   4.841   3.999
15053TIP3    H245045   9.820   4.864   4.070
15054TIP3   OH245046   9.989   4.908   5.616
15054TIP3    H145047  10.009   4.827   5.564
15054TIP3    H245048   9.942   4.963   5.551
15055TIP3   OH245049  10.008   4.714   5.418
15055TIP3    H145050  10.050   4.707   5.331
15055TIP3    H245051   9.919   4.677   5.397
15056TIP3   OH245052  10.000   5.243   5.291
15056TIP3    H145053  10.045   5.198   5.219
15056TIP3    H245054   9.953   5.315   5.244
15057TIP3   OH245055   9.876   5.040   5.824
15057TIP3    H145056   9.816   4.963   5.839
15057TIP3    H245057   9.919   5.011   5.740
15058TIP3   OH245058   9.736   4.809   5.878
15058TIP3    H145059   9.749   4.727   5.827
15058TIP3    H245060   9.771   4.784   5.966
15059TIP3   OH245061   9.019   5.297   4.203
15059TIP3    H145062   9.113   5.320   4.188
15059TIP3    H245063   9.014   5.208   4.160
15060TIP3   OH245064   8.932   5.910   4.614
15060TIP3    H145065   8.864   5.848   4.579
15060TIP3    H245066   8.976   5.853   4.680
15061TIP3   OH245067   9.068   5.764   4.802
15061TIP3    H145068   9.056   5.688   4.861
15061TIP3    H245069   9.119   5.823   4.859
15062TIP3   OH245070   9.256   5.181   5.170
15062TIP3    H145071   9.257   5.140   5.080
15062TIP3    H245072   9.351   5.176   5.192
15063TIP3   OH245073   9.468   4.857   5.851
15063TIP3    H145074   9.566   4.849   5.845
15063TIP3    H245075   9.447   4.771   5.892
15064TIP3   OH245076   9.218   4.308   4.740
15064TIP3    H145077   9.131   4.323   4.781
15064TIP3    H245078   9.220   4.377   4.671
15065TIP3   OH245079   9.438   4.405   5.568
15065TIP3    H145080   9.384   4.404   5.649
15065TIP3    H245081   9.375   4.444   5.504
15066TIP3   OH245082   9.481   5.834   5.643
15066TIP3    H145083   9.391   5.800   5.633
15066TIP3    H245084   9.499   5.822   5.737
15067TIP3   OH245085   9.654   5.865   5.191
15067TIP3    H145086   9.610   5.943   5.151
15067TIP3    H245087   9.742   5.876   5.147
15068TIP3   OH245088  10.117   6.118   5.323
15068TIP3    H145089  10.137   6.109   5.420
15068TIP3    H245090  10.199   6.159   5.293
15069TIP3   OH245091   9.336   6.119   5.218
15069TIP3    H145092   9.247   6.150   5.191
15069TIP3    H245093   9.348   6.168   5.301
15070TIP3   OH245094   9.571   6.101   5.072
15070TIP3    H145095   9.486   6.113   5.118
15070TIP3    H245096   9.550   6.135   4.982
15071TIP3   OH245097   9.985   6.134   4.868
15071TIP3    H145098   9.907   6.149   4.810
15071TIP3    H245099   9.994   6.220   4.913
15072TIP3   OH245100  10.248   6.085   4.902
15072TIP3    H145101  10.151   6.075   4.891
15072TIP3    H245102  10.259   6.178   4.882
15073TIP3   OH245103   9.247   5.915   4.960
15073TIP3    H145104   9.271   5.890   5.051
15073TIP3    H245105   9.320   5.871   4.910
15074TIP3   OH245106   9.441   5.786   4.816
15074TIP3    H145107   9.454   5.701   4.865
15074TIP3    H245108   9.532   5.821   4.814
15075TIP3   OH245109   9.708   5.888   4.816
15075TIP3    H145110   9.729   5.793   4.806
15075TIP3    H245111   9.750   5.904   4.902
15076TIP3   OH245112   9.521   4.253   4.914
15076TIP3    H145113   9.429   4.220   4.917
15076TIP3    H245114   9.569   4.168   4.923
15077TIP3   OH245115   9.316   4.113   4.566
15077TIP3    H145116   9.344   4.177   4.498
15077TIP3    H245117   9.285   4.174   4.637
15078TIP3   OH245118   9.035   5.686   4.351
15078TIP3    H145119   8.950   5.651   4.317
15078TIP3    H245120   9.021   5.781   4.333
15079TIP3   OH245121   9.428   4.281   4.339
15079TIP3    H145122   9.470   4.216   4.280
15079TIP3    H245123   9.504   4.327   4.378
15080TIP3   OH245124   9.705   4.516   5.798
15080TIP3    H145125   9.677   4.450   5.862
15080TIP3    H245126   9.799   4.526   5.824
15081TIP3   OH245127   9.941   4.533   5.928
15081TIP3    H145128  10.037   4.538   5.910
15081TIP3    H245129   9.941   4.460   5.994
15082TIP3   OH245130   9.112   5.712   3.990
15082TIP3    H145131   9.112   5.733   4.085
15082TIP3    H245132   9.200   5.670   3.977
15083TIP3   OH245133   0.879   5.785   6.695
15083TIP3    H145134   0.851   5.877   6.677
15083TIP3    H245135   0.799   5.737   6.666
15084TIP3   OH245136   0.891   5.778   7.068
15084TIP3    H145137   0.910   5.754   7.161
15084TIP3    H245138   0.838   5.701   7.039
15085TIP3   OH245139   1.123   6.085   6.758
15085TIP3    H145140   1.103   6.019   6.825
15085TIP3    H245141   1.146   6.163   6.811
15086TIP3   OH245142   0.770   6.553   6.770
15086TIP3    H145143   0.816   6.475   6.733
15086TIP3    H245144   0.741   6.523   6.857
15087TIP3   OH245145   0.665   5.954   7.108
15087TIP3    H145146   0.745   5.913   7.069
15087TIP3    H245147   0.703   6.035   7.144
15088TIP3   OH245148   1.690   5.332   7.123
15088TIP3    H145149   1.717   5.415   7.167
15088TIP3    H245150   1.705   5.354   7.030
15089TIP3   OH245151   1.091   5.513   7.160
15089TIP3    H145152   1.130   5.426   7.178
15089TIP3    H245153   1.056   5.500   7.070
15090TIP3   OH245154   0.461   5.169   7.129
15090TIP3    H145155   0.422   5.246   7.082
15090TIP3    H245156   0.423   5.096   7.075
15091TIP3   OH245157   1.119   5.262   6.747
15091TIP3    H145158   1.192   5.246   6.811
15091TIP3    H245159   1.170   5.299   6.672
15092TIP3   OH245160   0.500   5.580   7.038
15092TIP3    H145161   0.593   5.550   7.041
15092TIP3    H245162   0.456   5.505   6.995
15093TIP3   OH245163   1.763   5.541   7.291
15093TIP3    H145164   1.679   5.587   7.271
15093TIP3    H245165   1.766   5.552   7.387
15094TIP3   OH245166   0.776   6.009   6.563
15094TIP3    H145167   0.729   5.984   6.482
15094TIP3    H245168   0.729   6.092   6.587
15095TIP3   OH245169   1.334   5.263   6.915
15095TIP3    H145170   1.318   5.213   6.996
15095TIP3    H245171   1.383   5.340   6.948
15096TIP3   OH245172   1.195   6.328   6.925
15096TIP3    H145173   1.107   6.319   6.968
15096TIP3    H245174   1.185   6.415   6.881
15097TIP3   OH245175   1.481   5.235   7.290
15097TIP3    H145176   1.392   5.260   7.260
15097TIP3    H245177   1.538   5.263   7.216
15098TIP3   OH245178   0.800   4.877   7.277
15098TIP3    H145179   0.788   4.782   7.255
15098TIP3    H245180   0.714   4.896   7.318
15099TIP3   OH245181   0.898   6.372   6.604
15099TIP3    H145182   0.949   6.293   6.579
15099TIP3    H245183   0.954   6.442   6.563
15100TIP3   OH245184   1.040   6.159   6.504
15100TIP3    H145185   0.990   6.083   6.472
15100TIP3    H245186   1.075   6.126   6.589
15101TIP3   OH245187   1.420   6.243   7.270
15101TIP3    H145188   1.405   6.166   7.211
15101TIP3    H245189   1.398   6.318   7.211
15102TIP3   OH245190   0.709   5.633   6.526
15102TIP3    H145191   0.628   5.684   6.504
15102TIP3    H245192   0.756   5.634   6.441
15103TIP3   OH245193   0.668   5.421   6.246
15103TIP3    H145194   0.736   5.470   6.295
15103TIP3    H245195   0.725   5.357   6.197
15104TIP3   OH245196   1.615   5.882   7.116
15104TIP3    H145197   1.530   5.932   7.121
15104TIP3    H245198   1.641   5.905   7.024
15105TIP3   OH245199   1.056   5.718   6.500
15105TIP3    H145200   1.000   5.744   6.576
15105TIP3    H245201   1.139   5.693   6.545
15106TIP3   OH245202   1.292   5.760   7.409
15106TIP3    H145203   1.288   5.844   7.458
15106TIP3    H245204   1.205   5.763   7.363
15107TIP3   OH245205   0.433   5.674   7.284
15107TIP3    H145206   0.463   5.645   7.195
15107TIP3    H245207   0.471   5.763   7.289
15108TIP3   OH245208   0.958   6.325   7.049
15108TIP3    H145209   0.932   6.403   7.099
15108TIP3    H245210   0.936   6.251   7.109
15109TIP3   OH245211   0.900   5.575   6.325
15109TIP3    H145212   0.957   5.636   6.378
15109TIP3    H245213   0.924   5.601   6.233
15110TIP3   OH245214   0.639   6.258   6.602
15110TIP3    H145215   0.720   6.305   6.627
15110TIP3    H245216   0.588   6.328   6.560
15111TIP3   OH245217   1.412   4.817   6.374
15111TIP3    H145218   1.330   4.835   6.425
15111TIP3    H245219   1.423   4.902   6.326
15112TIP3   OH245220   1.210   6.186   5.920
15112TIP3    H145221   1.217   6.283   5.908
15112TIP3    H245222   1.303   6.158   5.908
15113TIP3   OH245223   1.658   6.588   7.317
15113TIP3    H145224   1.653   6.492   7.330
15113TIP3    H245225   1.573   6.615   7.361
15114TIP3   OH245226   0.779   6.353   7.463
15114TIP3    H145227   0.784   6.447   7.491
15114TIP3    H245228   0.686   6.346   7.436
15115TIP3   OH245229   0.550   6.489   6.423
15115TIP3    H145230   0.510   6.466   6.336
15115TIP3    H245231   0.495   6.564   6.450
15116TIP3   OH245232   0.725   6.405   6.043
15116TIP3    H145233   0.781   6.334   6.005
15116TIP3    H245234   0.764   6.414   6.133
15117TIP3   OH245235   0.791   6.446   6.308
15117TIP3    H145236   0.707   6.455   6.358
15117TIP3    H245237   0.848   6.407   6.377
15118TIP3   OH245238   1.548   5.722   7.587
15118TIP3    H145239   1.465   5.736   7.540
15118TIP3    H245240   1.561   5.626   7.577
15119TIP3   OH245241   0.524   4.958   7.407
15119TIP3    H145242   0.469   4.909   7.344
15119TIP3    H245243   0.528   5.045   7.366
15120TIP3   OH245244   1.073   5.070   7.596
15120TIP3    H145245   1.141   5.038   7.658
15120TIP3    H245246   0.989   5.045   7.639
15121TIP3   OH245247   1.317   5.497   7.515
15121TIP3    H145248   1.266   5.491   7.599
15121TIP3    H245249   1.288   5.582   7.478
15122TIP3   OH245250   0.974   5.621   6.069
15122TIP3    H145251   0.940   5.598   5.980
15122TIP3    H245252   1.050   5.677   6.045
15123TIP3   OH245253   0.688   4.999   6.371
15123TIP3    H145254   0.658   4.997   6.463
15123TIP3    H245255   0.648   4.916   6.338
15124TIP3   OH245256   0.465   5.449   7.429
15124TIP3    H145257   0.413   5.481   7.504
15124TIP3    H245258   0.455   5.526   7.368
15125TIP3   OH245259   0.350   5.341   6.937
15125TIP3    H145260   0.255   5.354   6.925
15125TIP3    H245261   0.373   5.299   6.851
15126TIP3   OH245262   0.847   5.437   6.660
15126TIP3    H145263   0.793   5.509   6.619
15126TIP3    H245264   0.901   5.408   6.584
15127TIP3   OH245265   1.023   5.715   7.746
15127TIP3    H145266   1.000   5.643   7.809
15127TIP3    H245267   1.117   5.729   7.769
15128TIP3   OH245268   1.005   5.467   6.900
15128TIP3    H145269   0.945   5.498   6.830
15128TIP3    H245270   1.036   5.384   6.857
15129TIP3   OH245271   0.347   4.975   6.340
15129TIP3    H145272   0.337   4.972   6.437
15129TIP3    H245273   0.255   4.985   6.310
15130TIP3   OH245274   1.014   5.713   7.324
15130TIP3    H145275   1.047   5.642   7.264
15130TIP3    H245276   0.987   5.659   7.402
15131TIP3   OH245277   0.701   5.187   6.989
15131TIP3    H145278   0.618   5.175   7.040
15131TIP3    H245279   0.768   5.168   7.057
15132TIP3   OH245280   0.393   5.231   6.687
15132TIP3    H145281   0.489   5.244   6.674
15132TIP3    H245282   0.353   5.267   6.606
15133TIP3   OH245283   1.175   5.248   7.196
15133TIP3    H145284   1.139   5.260   7.287
15133TIP3    H245285   1.110   5.186   7.159
15134TIP3   OH245286   0.211   5.287   6.466
15134TIP3    H145287   0.171   5.199   6.448
15134TIP3    H245288   0.272   5.300   6.389
15135TIP3   OH245289   1.347   6.935   7.413
15135TIP3    H145290   1.342   6.963   7.320
15135TIP3    H245291   1.412   6.997   7.449
15136TIP3   OH245292   0.769   5.504   7.092
15136TIP3    H145293   0.834   5.458   7.037
15136TIP3    H245294   0.779   5.458   7.177
15137TIP3   OH245295   0.322   4.996   6.970
15137TIP3    H145296   0.258   4.922   6.982
15137TIP3    H245297   0.386   4.955   6.910
15138TIP3   OH245298   0.744   5.393   7.388
15138TIP3    H145299   0.654   5.431   7.397
15138TIP3    H245300   0.801   5.458   7.434
15139TIP3   OH245301   0.486   5.783   6.465
15139TIP3    H145302   0.409   5.722   6.461
15139TIP3    H245303   0.474   5.823   6.555
15140TIP3   OH245304   1.381   6.023   7.107
15140TIP3    H145305   1.403   6.074   7.026
15140TIP3    H245306   1.294   5.984   7.084
15141TIP3   OH245307   0.937   5.105   6.332
15141TIP3    H145308   0.841   5.086   6.345
15141TIP3    H245309   0.947   5.198   6.360
15142TIP3   OH245310   0.878   6.097   7.479
15142TIP3    H145311   0.903   6.091   7.572
15142TIP3    H245312   0.841   6.188   7.474
15143TIP3   OH245313   1.008   5.348   6.440
15143TIP3    H145314   1.104   5.356   6.457
15143TIP3    H245315   0.988   5.428   6.389
15144TIP3   OH245316   0.635   5.933   6.294
15144TIP3    H145317   0.589   6.020   6.303
15144TIP3    H245318   0.578   5.877   6.352
15145TIP3   OH245319   0.787   5.851   7.794
15145TIP3    H145320   0.729   5.784   7.753
15145TIP3    H245321   0.875   5.822   7.761
15146TIP3   OH245322   1.046   6.362   7.371
15146TIP3    H145323   0.950   6.358   7.384
15146TIP3    H245324   1.072   6.417   7.448
15147TIP3   OH245325   1.453   5.437   6.276
15147TIP3    H145326   1.390   5.392   6.215
15147TIP3    H245327   1.447   5.527   6.236
15148TIP3   OH245328   1.669   6.294   7.359
15148TIP3    H145329   1.571   6.292   7.352
15148TIP3    H245330   1.693   6.266   7.268
15149TIP3   OH245331   1.155   6.258   6.187
15149TIP3    H145332   1.122   6.190   6.248
15149TIP3    H245333   1.160   6.210   6.102
15150TIP3   OH245334   1.149   5.885   7.027
15150TIP3    H145335   1.055   5.860   7.039
15150TIP3    H245336   1.181   5.807   6.979
15151TIP3   OH245337   0.458   5.883   6.713
15151TIP3    H145338   0.445   5.978   6.729
15151TIP3    H245339   0.402   5.845   6.782
15152TIP3   OH245340   0.935   6.093   7.206
15152TIP3    H145341   0.920   6.090   7.303
15152TIP3    H245342   1.014   6.039   7.196
15153TIP3   OH245343   0.904   5.985   6.085
15153TIP3    H145344   0.954   5.960   6.167
15153TIP3    H245345   0.814   5.959   6.111
15154TIP3   OH245346   1.182   6.624   7.254
15154TIP3    H145347   1.101   6.570   7.249
15154TIP3    H245348   1.165   6.691   7.184
15155TIP3   OH245349   1.245   6.461   5.908
15155TIP3    H145350   1.279   6.532   5.852
15155TIP3    H245351   1.165   6.506   5.942
15156TIP3   OH245352   1.063   5.916   6.302
15156TIP3    H145353   1.054   5.853   6.375
15156TIP3    H245354   1.160   5.918   6.292
15157TIP3   OH245355   0.326   5.939   6.110
15157TIP3    H145356   0.336   5.851   6.068
15157TIP3    H245357   0.304   5.914   6.201
15158TIP3   OH245358   1.099   5.305   7.455
15158TIP3    H145359   1.180   5.339   7.495
15158TIP3    H245360   1.083   5.223   7.507
15159TIP3   OH245361   0.983   5.056   6.616
15159TIP3    H145362   0.968   5.081   6.523
15159TIP3    H245363   1.021   5.138   6.654
15160TIP3   OH245364   0.490   6.159   6.316
15160TIP3    H145365   0.399   6.183   6.338
15160TIP3    H245366   0.505   6.211   6.235
15161TIP3   OH245367   0.669   5.234   6.720
15161TIP3    H145368   0.735   5.305   6.702
15161TIP3    H245369   0.679   5.226   6.818
15162TIP3   OH245370   0.935   5.553   7.531
15162TIP3    H145371   0.959   5.606   7.610
15162TIP3    H245372   0.991   5.474   7.541
15163TIP3   OH245373   0.818   4.965   6.825
15163TIP3    H145374   0.807   5.042   6.884
15163TIP3    H245375   0.879   5.000   6.757
15164TIP3   OH245376   0.333   4.972   6.619
15164TIP3    H145377   0.350   5.058   6.664
15164TIP3    H245378   0.424   4.935   6.624
15165TIP3   OH245379   1.583   5.452   7.504
15165TIP3    H145380   1.485   5.454   7.518
15165TIP3    H245381   1.585   5.403   7.421
15166TIP3   OH245382   1.232   5.644   6.897
15166TIP3    H145383   1.154   5.588   6.910
15166TIP3    H245384   1.302   5.596   6.947
15167TIP3   OH245385   1.201   6.599   6.848
15167TIP3    H145386   1.157   6.646   6.773
15167TIP3    H245387   1.295   6.618   6.826
15168TIP3   OH245388   0.476   6.158   6.024
15168TIP3    H145389   0.421   6.082   6.052
15168TIP3    H245390   0.523   6.119   5.948
15169TIP3   OH245391   1.101   6.499   7.602
15169TIP3    H145392   1.092   6.429   7.671
15169TIP3    H245393   1.173   6.554   7.638
15170TIP3   OH245394   0.873   6.214   5.911
15170TIP3    H145395   0.915   6.148   5.969
15170TIP3    H245396   0.929   6.212   5.831
15171TIP3   OH245397   0.726   6.126   7.792
15171TIP3    H145398   0.664   6.113   7.720
15171TIP3    H245399   0.756   6.034   7.807
15172TIP3   OH245400   0.609   5.878   6.022
15172TIP3    H145401   0.598   5.897   6.117
15172TIP3    H245402   0.598   5.780   6.021
15173TIP3   OH245403   1.204   6.127   7.407
15173TIP3    H145404   1.275   6.176   7.363
15173TIP3    H245405   1.130   6.191   7.396
15174TIP3   OH245406   0.295   5.588   6.446
15174TIP3    H145407   0.261   5.534   6.519
15174TIP3    H245408   0.326   5.518   6.384
15175TIP3   OH245409   0.628   5.662   7.666
15175TIP3    H145410   0.540   5.705   7.665
15175TIP3    H245411   0.660   5.687   7.577
15176TIP3   OH245412   0.391   5.380   6.284
15176TIP3    H145413   0.366   5.389   6.189
15176TIP3    H245414   0.489   5.390   6.277
15177TIP3   OH245415   1.069   6.049   7.807
15177TIP3    H145416   1.150   6.033   7.757
15177TIP3    H245417   1.074   5.983   7.878
15178TIP3   OH245418   1.214   5.716   5.944
15178TIP3    H145419   1.187   5.669   5.862
15178TIP3    H245420   1.181   5.806   5.921
15179TIP3   OH245421   0.691   5.427   7.809
15179TIP3    H145422   0.679   5.353   7.748
15179TIP3    H245423   0.660   5.504   7.756
15180TIP3   OH245424   0.675   5.225   7.601
15180TIP3    H145425   0.712   5.269   7.522
15180TIP3    H245426   0.582   5.217   7.577
15181TIP3   OH245427   0.711   5.783   7.435
15181TIP3    H145428   0.801   5.771   7.403
15181TIP3    H245429   0.696   5.877   7.414
15182TIP3   OH245430   1.292   5.733   7.861
15182TIP3    H145431   1.340   5.649   7.867
15182TIP3    H245432   1.360   5.793   7.826
15183TIP3   OH245433   1.332   5.985   7.596
15183TIP3    H145434   1.273   6.038   7.537
15183TIP3    H245435   1.419   6.005   7.554
15184TIP3   OH245436   0.815   4.995   7.673
15184TIP3    H145437   0.764   5.075   7.647
15184TIP3    H245438   0.747   4.925   7.663
15185TIP3   OH245439   0.943   5.499   7.890
15185TIP3    H145440   0.929   5.491   7.986
15185TIP3    H245441   0.854   5.470   7.859
15186TIP3   OH245442   1.181   5.448   7.743
15186TIP3    H145443   1.103   5.449   7.803
15186TIP3    H245444   1.252   5.415   7.801
15187TIP3   OH245445   1.412   5.388   7.894
15187TIP3    H145446   1.422   5.292   7.913
15187TIP3    H245447   1.405   5.427   7.984
15188TIP3   OH245448   0.908   5.003   7.930
15188TIP3    H145449   0.976   4.933   7.923
15188TIP3    H245450   0.869   4.997   7.840
15189TIP3   OH245451   0.973   5.217   8.089
15189TIP3    H145452   0.952   5.146   8.024
15189TIP3    H245453   0.899   5.279   8.077
15190TIP3   OH245454   1.455   6.687   6.803
15190TIP3    H145455   1.475   6.722   6.891
15190TIP3    H245456   1.508   6.745   6.746
15191TIP3   OH245457   1.482   6.710   7.082
15191TIP3    H145458   1.438   6.623   7.081
15191TIP3    H245459   1.554   6.692   7.145
15192TIP3   OH245460   1.531   6.388   7.660
15192TIP3    H145461   1.455   6.396   7.721
15192TIP3    H245462   1.568   6.478   7.663
15193TIP3   OH245463   1.345   5.901   6.279
15193TIP3    H145464   1.413   5.967   6.253
15193TIP3    H245465   1.387   5.862   6.359
15194TIP3   OH245466   1.473   5.768   6.483
15194TIP3    H145467   1.405   5.727   6.540
15194TIP3    H245468   1.533   5.810   6.547
15195TIP3   OH245469   1.528   6.162   6.919
15195TIP3    H145470   1.578   6.100   6.863
15195TIP3    H245471   1.513   6.237   6.858
15196TIP3   OH245472   1.358   6.460   7.112
15196TIP3    H145473   1.287   6.506   7.163
15196TIP3    H245474   1.306   6.414   7.043
15197TIP3   OH245475   1.410   5.677   6.130
15197TIP3    H145476   1.339   5.681   6.062
15197TIP3    H245477   1.383   5.753   6.185
15198TIP3   OH245478   1.285   5.348   6.082
15198TIP3    H145479   1.236   5.392   6.012
15198TIP3    H245480   1.256   5.255   6.070
15199TIP3   OH245481   1.288   5.625   6.629
15199TIP3    H145482   1.292   5.528   6.626
15199TIP3    H245483   1.272   5.642   6.725
15200TIP3   OH245484   1.574   6.049   7.487
15200TIP3    H145485   1.649   5.986   7.475
15200TIP3    H245486   1.597   6.120   7.425
15201TIP3   OH245487   1.766   5.858   7.502
15201TIP3    H145488   1.688   5.812   7.540
15201TIP3    H245489   1.835   5.791   7.519
15202TIP3   OH245490   1.226   5.081   6.067
15202TIP3    H145491   1.297   5.053   6.129
15202TIP3    H245492   1.149   5.028   6.095
15203TIP3   OH245493   1.282   5.342   6.526
15203TIP3    H145494   1.322   5.253   6.541
15203TIP3    H245495   1.340   5.375   6.456
15204TIP3   OH245496   1.445   5.515   7.020
15204TIP3    H145497   1.531   5.543   6.981
15204TIP3    H245498   1.456   5.553   7.109
15205TIP3   OH245499   1.512   5.661   7.252
15205TIP3    H145500   1.433   5.693   7.301
15205TIP3    H245501   1.542   5.743   7.207
15206TIP3   OH245502   1.967   5.249   7.807
15206TIP3    H145503   2.024   5.180   7.767
15206TIP3    H245504   1.941   5.303   7.730
15207TIP3   OH245505   1.392   5.090   6.561
15207TIP3    H145506   1.437   5.075   6.647
15207TIP3    H245507   1.329   5.015   6.560
15208TIP3   OH245508   1.838   5.394   7.612
15208TIP3    H145509   1.750   5.430   7.636
15208TIP3    H245510   1.810   5.319   7.555
15209TIP3   OH245511   1.474   5.028   6.196
15209TIP3    H145512   1.513   4.956   6.142
15209TIP3    H245513   1.539   5.100   6.187
15210TIP3   OH245514   1.037   6.556   6.463
15210TIP3    H145515   1.089   6.544   6.381
15210TIP3    H245516   1.087   6.626   6.508
15211TIP3   OH245517   0.800   6.611   7.545
15211TIP3    H145518   0.798   6.658   7.630
15211TIP3    H245519   0.836   6.680   7.485
15212TIP3   OH245520   0.935   6.798   7.389
15212TIP3    H145521   1.003   6.740   7.351
15212TIP3    H245522   0.990   6.851   7.451
15213TIP3   OH245523   1.735   5.153   7.491
15213TIP3    H145524   1.643   5.145   7.460
15213TIP3    H245525   1.767   5.060   7.480
15214TIP3   OH245526   0.660   6.680   7.043
15214TIP3    H145527   0.564   6.689   7.033
15214TIP3    H245528   0.680   6.762   7.092
15215TIP3   OH245529   0.922   6.604   7.124
15215TIP3    H145530   0.830   6.617   7.094
15215TIP3    H245531   0.966   6.680   7.083
15216TIP3   OH245532   1.133   6.791   7.042
15216TIP3    H145533   1.120   6.877   6.996
15216TIP3    H245534   1.156   6.732   6.967
15217TIP3   OH245535   0.938   5.069   7.112
15217TIP3    H145536   0.893   5.001   7.166
15217TIP3    H245537   1.005   5.017   7.065
15218TIP3   OH245538   1.466   4.949   7.015
15218TIP3    H145539   1.499   5.002   6.940
15218TIP3    H245540   1.369   4.964   7.010
15219TIP3   OH245541   1.559   5.050   6.778
15219TIP3    H145542   1.633   5.000   6.737
15219TIP3    H245543   1.590   5.142   6.764
15220TIP3   OH245544   0.617   4.864   7.010
15220TIP3    H145545   0.696   4.876   6.955
15220TIP3    H245546   0.636   4.781   7.054
15221TIP3   OH245547   1.187   4.958   6.990
15221TIP3    H145548   1.168   4.918   6.905
15221TIP3    H245549   1.176   4.880   7.050
15222TIP3   OH245550   1.208   4.878   6.553
15222TIP3    H145551   1.121   4.920   6.566
15222TIP3    H245552   1.194   4.793   6.601
15223TIP3   OH245553   0.124   4.729   6.578
15223TIP3    H145554   0.124   4.718   6.481
15223TIP3    H245555   0.150   4.822   6.587
15224TIP3   OH245556   0.610   4.981   6.636
15224TIP3    H145557   0.667   4.935   6.701
15224TIP3    H245558   0.630   5.073   6.661
15225TIP3   OH245559   0.472   6.412   6.165
15225TIP3    H145560   0.559   6.415   6.119
15225TIP3    H245561   0.420   6.371   6.092
15226TIP3   OH245562   1.183   6.526   6.229
15226TIP3    H145563   1.175   6.428   6.216
15226TIP3    H245564   1.136   6.559   6.150
15227TIP3   OH245565   0.640   5.031   8.123
15227TIP3    H145566   0.723   5.025   8.073
15227TIP3    H245567   0.660   4.973   8.197
15228TIP3   OH245568   1.468   5.117   7.925
15228TIP3    H145569   1.489   5.086   8.016
15228TIP3    H245570   1.556   5.113   7.882
15229TIP3   OH245571   1.411   6.668   7.415
15229TIP3    H145572   1.331   6.636   7.370
15229TIP3    H245573   1.391   6.764   7.419
15230TIP3   OH245574   2.675   6.043   6.182
15230TIP3    H145575   2.646   6.134   6.161
15230TIP3    H245576   2.597   5.993   6.152
15231TIP3   OH245577   2.677   6.039   6.562
15231TIP3    H145578   2.704   6.011   6.651
15231TIP3    H245579   2.631   5.961   6.529
15232TIP3   OH245580   1.976   5.936   6.926
15232TIP3    H145581   2.009   5.872   6.992
15232TIP3    H245582   2.050   5.997   6.920
15233TIP3   OH245583   2.923   6.339   6.245
15233TIP3    H145584   2.899   6.275   6.313
15233TIP3    H245585   2.942   6.418   6.298
15234TIP3   OH245586   1.945   6.347   6.655
15234TIP3    H145587   1.935   6.250   6.658
15234TIP3    H245588   2.042   6.355   6.649
15235TIP3   OH245589   1.652   5.553   6.441
15235TIP3    H145590   1.601   5.635   6.455
15235TIP3    H245591   1.582   5.496   6.404
15236TIP3   OH245592   1.712   5.839   6.611
15236TIP3    H145593   1.761   5.762   6.648
15236TIP3    H245594   1.767   5.863   6.535
15237TIP3   OH245595   2.564   6.805   6.259
15237TIP3    H145596   2.613   6.733   6.215
15237TIP3    H245597   2.555   6.772   6.349
15238TIP3   OH245598   2.472   6.266   6.612
15238TIP3    H145599   2.509   6.191   6.562
15238TIP3    H245600   2.556   6.310   6.636
15239TIP3   OH245601   3.476   5.588   6.605
15239TIP3    H145602   3.491   5.674   6.646
15239TIP3    H245603   3.495   5.606   6.512
15240TIP3   OH245604   2.888   5.771   6.645
15240TIP3    H145605   2.927   5.683   6.665
15240TIP3    H245606   2.854   5.755   6.555
15241TIP3   OH245607   2.222   5.429   6.610
15241TIP3    H145608   2.200   5.501   6.548
15241TIP3    H245609   2.173   5.355   6.568
15242TIP3   OH245610   2.914   5.518   6.233
15242TIP3    H145611   2.987   5.502   6.298
15242TIP3    H245612   2.966   5.554   6.159
15243TIP3   OH245613   1.856   5.631   6.717
15243TIP3    H145614   1.939   5.609   6.765
15243TIP3    H245615   1.866   5.574   6.638
15244TIP3   OH245616   2.297   5.828   6.508
15244TIP3    H145617   2.390   5.802   6.523
15244TIP3    H245618   2.257   5.744   6.477
15245TIP3   OH245619   3.580   5.806   6.756
15245TIP3    H145620   3.491   5.847   6.749
15245TIP3    H245621   3.590   5.808   6.854
15246TIP3   OH245622   2.220   5.412   7.045
15246TIP3    H145623   2.159   5.447   6.978
15246TIP3    H245624   2.168   5.426   7.126
15247TIP3   OH245625   2.571   6.265   6.051
15247TIP3    H145626   2.523   6.241   5.970
15247TIP3    H245627   2.525   6.349   6.075
15248TIP3   OH245628   2.325   6.187   6.841
15248TIP3    H145629   2.261   6.252   6.879
15248TIP3    H245630   2.366   6.238   6.769
15249TIP3   OH245631   3.127   5.521   6.403
15249TIP3    H145632   3.117   5.469   6.483
15249TIP3    H245633   3.181   5.596   6.434
15250TIP3   OH245634   2.091   5.528   6.830
15250TIP3    H145635   2.154   5.599   6.850
15250TIP3    H245636   2.138   5.485   6.754
15251TIP3   OH245637   2.155   6.379   6.939
15251TIP3    H145638   2.131   6.465   6.899
15251TIP3    H245639   2.075   6.365   6.995
15252TIP3   OH245640   1.551   6.070   6.174
15252TIP3    H145641   1.505   6.095   6.092
15252TIP3    H245642   1.577   6.157   6.210
15253TIP3   OH245643   2.990   6.585   6.411
15253TIP3    H145644   2.900   6.576   6.453
15253TIP3    H245645   2.980   6.672   6.368
15254TIP3   OH245646   3.276   5.493   6.779
15254TIP3    H145647   3.187   5.516   6.750
15254TIP3    H245648   3.331   5.517   6.702
15255TIP3   OH245649   2.576   5.132   6.758
15255TIP3    H145650   2.565   5.037   6.777
15255TIP3    H245651   2.498   5.169   6.804
15256TIP3   OH245652   2.695   6.632   6.092
15256TIP3    H145653   2.744   6.551   6.066
15256TIP3    H245654   2.751   6.699   6.048
15257TIP3   OH245655   2.835   6.416   5.992
15257TIP3    H145656   2.785   6.341   5.959
15257TIP3    H245657   2.870   6.381   6.077
15258TIP3   OH245658   3.214   6.500   6.757
15258TIP3    H145659   3.201   6.423   6.698
15258TIP3    H245660   3.195   6.575   6.696
15259TIP3   OH245661   2.505   5.892   6.013
15259TIP3    H145662   2.423   5.943   5.994
15259TIP3    H245663   2.549   5.892   5.927
15260TIP3   OH245664   2.465   5.676   5.732
15260TIP3    H145665   2.532   5.727   5.781
15260TIP3    H245666   2.523   5.615   5.683
15261TIP3   OH245667   3.406   6.133   6.595
15261TIP3    H145668   3.325   6.186   6.607
15261TIP3    H245669   3.434   6.164   6.506
15262TIP3   OH245670   2.853   5.976   5.986
15262TIP3    H145671   2.795   6.002   6.063
15262TIP3    H245672   2.934   5.948   6.033
15263TIP3   OH245673   3.089   6.015   6.895
15263TIP3    H145674   3.086   6.098   6.947
15263TIP3    H245675   3.002   6.019   6.851
15264TIP3   OH245676   2.084   5.973   6.401
15264TIP3    H145677   2.042   5.916   6.333
15264TIP3    H245678   2.161   5.920   6.429
15265TIP3   OH245679   2.214   6.385   6.551
15265TIP3    H145680   2.192   6.342   6.467
15265TIP3    H245681   2.305   6.351   6.568
15266TIP3   OH245682   2.227   5.942   6.758
15266TIP3    H145683   2.254   5.926   6.666
15266TIP3    H245684   2.264   6.031   6.776
15267TIP3   OH245685   2.750   6.582   6.534
15267TIP3    H145686   2.732   6.662   6.585
15267TIP3    H245687   2.733   6.510   6.597
15268TIP3   OH245688   2.359   6.509   7.085
15268TIP3    H145689   2.296   6.570   7.128
15268TIP3    H245690   2.297   6.450   7.038
15269TIP3   OH245691   2.696   5.831   5.812
15269TIP3    H145692   2.753   5.892   5.864
15269TIP3    H245693   2.720   5.857   5.720
15270TIP3   OH245694   2.111   6.056   7.182
15270TIP3    H145695   2.111   6.145   7.224
15270TIP3    H245696   2.016   6.036   7.189
15271TIP3   OH245697   2.437   6.512   6.087
15271TIP3    H145698   2.511   6.571   6.109
15271TIP3    H245699   2.373   6.573   6.048
15272TIP3   OH245700   2.151   6.671   7.169
15272TIP3    H145701   2.117   6.669   7.077
15272TIP3    H245702   2.072   6.648   7.221
15273TIP3   OH245703   3.212   5.083   5.865
15273TIP3    H145704   3.127   5.098   5.911
15273TIP3    H245705   3.219   5.161   5.807
15274TIP3   OH245706   1.952   5.815   6.205
15274TIP3    H145707   1.886   5.863   6.150
15274TIP3    H245708   1.905   5.733   6.222
15275TIP3   OH245709   3.006   6.443   5.408
15275TIP3    H145710   3.014   6.540   5.394
15275TIP3    H245711   3.099   6.415   5.398
15276TIP3   OH245712   1.733   6.199   7.114
15276TIP3    H145713   1.664   6.181   7.047
15276TIP3    H245714   1.766   6.109   7.134
15277TIP3   OH245715   1.585   6.392   6.749
15277TIP3    H145716   1.682   6.395   6.741
15277TIP3    H245717   1.567   6.474   6.798
15278TIP3   OH245718   3.451   6.843   6.802
15278TIP3    H145719   3.449   6.747   6.818
15278TIP3    H245720   3.367   6.869   6.847
15279TIP3   OH245721   2.559   6.629   6.940
15279TIP3    H145722   2.557   6.722   6.969
15279TIP3    H245723   2.485   6.591   6.993
15280TIP3   OH245724   2.318   6.761   5.889
15280TIP3    H145725   2.270   6.741   5.806
15280TIP3    H245726   2.284   6.849   5.912
15281TIP3   OH245727   1.756   6.609   6.271
15281TIP3    H145728   1.801   6.599   6.357
15281TIP3    H245729   1.693   6.535   6.275
15282TIP3   OH245730   2.520   6.662   5.529
15282TIP3    H145731   2.578   6.591   5.493
15282TIP3    H245732   2.553   6.670   5.621
15283TIP3   OH245733   2.569   6.708   5.800
15283TIP3    H145734   2.480   6.719   5.840
15283TIP3    H245735   2.617   6.667   5.873
15284TIP3   OH245736   3.342   5.977   7.076
15284TIP3    H145737   3.259   5.989   7.029
15284TIP3    H245738   3.358   5.882   7.065
15285TIP3   OH245739   1.938   6.381   7.102
15285TIP3    H145740   1.984   6.368   7.187
15285TIP3    H245741   1.862   6.319   7.109
15286TIP3   OH245742   2.336   5.209   6.883
15286TIP3    H145743   2.246   5.176   6.860
15286TIP3    H245744   2.311   5.290   6.932
15287TIP3   OH245745   2.869   5.323   7.082
15287TIP3    H145746   2.937   5.295   7.147
15287TIP3    H245747   2.785   5.301   7.128
15288TIP3   OH245748   3.114   5.753   7.002
15288TIP3    H145749   3.064   5.747   7.086
15288TIP3    H245750   3.084   5.839   6.966
15289TIP3   OH245751   2.769   5.880   5.555
15289TIP3    H145752   2.736   5.855   5.467
15289TIP3    H245753   2.848   5.932   5.531
15290TIP3   OH245754   2.482   5.255   5.858
15290TIP3    H145755   2.453   5.261   5.951
15290TIP3    H245756   2.445   5.170   5.834
15291TIP3   OH245757   2.272   5.722   6.909
15291TIP3    H145758   2.214   5.740   6.986
15291TIP3    H245759   2.255   5.802   6.854
15292TIP3   OH245760   2.152   5.608   6.419
15292TIP3    H145761   2.059   5.583   6.436
15292TIP3    H245762   2.164   5.567   6.330
15293TIP3   OH245763   2.643   5.695   6.147
15293TIP3    H145764   2.588   5.766   6.106
15293TIP3    H245765   2.696   5.665   6.071
15294TIP3   OH245766   2.817   5.973   7.233
15294TIP3    H145767   2.794   5.903   7.297
15294TIP3    H245768   2.909   5.992   7.258
15295TIP3   OH245769   2.802   5.724   6.386
15295TIP3    H145770   2.740   5.753   6.315
15295TIP3    H245771   2.833   5.641   6.344
15296TIP3   OH245772   2.100   5.753   7.120
15296TIP3    H145773   2.088   5.816   7.192
15296TIP3    H245774   2.077   5.668   7.163
15297TIP3   OH245775   2.136   5.240   5.829
15297TIP3    H145776   2.122   5.241   5.926
15297TIP3    H245777   2.056   5.290   5.800
15298TIP3   OH245778   1.680   5.275   6.693
15298TIP3    H145779   1.756   5.305   6.747
15298TIP3    H245780   1.722   5.240   6.613
15299TIP3   OH245781   1.656   5.256   6.213
15299TIP3    H145782   1.699   5.297   6.135
15299TIP3    H245783   1.593   5.327   6.237
15300TIP3   OH245784   2.813   5.970   6.810
15300TIP3    H145785   2.845   5.897   6.752
15300TIP3    H245786   2.783   5.918   6.888
15301TIP3   OH245787   2.478   5.431   6.481
15301TIP3    H145788   2.395   5.429   6.533
15301TIP3    H245789   2.545   5.429   6.551
15302TIP3   OH245790   1.914   5.487   6.489
15302TIP3    H145791   1.819   5.495   6.463
15302TIP3    H245792   1.935   5.394   6.466
15303TIP3   OH245793   2.185   5.480   6.177
15303TIP3    H145794   2.278   5.501   6.156
15303TIP3    H245795   2.136   5.506   6.096
15304TIP3   OH245796   2.972   5.506   6.682
15304TIP3    H145797   2.937   5.517   6.774
15304TIP3    H245798   2.906   5.444   6.646
15305TIP3   OH245799   2.025   5.513   5.958
15305TIP3    H145800   1.949   5.473   5.912
15305TIP3    H245801   2.075   5.550   5.882
15306TIP3   OH245802   3.141   7.194   6.901
15306TIP3    H145803   3.137   7.219   6.807
15306TIP3    H245804   3.217   7.246   6.932
15307TIP3   OH245805   2.099   6.299   7.323
15307TIP3    H145806   2.177   6.332   7.373
15307TIP3    H245807   2.031   6.302   7.393
15308TIP3   OH245808   2.563   5.759   6.580
15308TIP3    H145809   2.633   5.715   6.530
15308TIP3    H245810   2.571   5.717   6.668
15309TIP3   OH245811   2.087   5.245   6.457
15309TIP3    H145812   2.051   5.167   6.504
15309TIP3    H245813   2.139   5.206   6.386
15310TIP3   OH245814   2.541   5.655   6.865
15310TIP3    H145815   2.450   5.689   6.880
15310TIP3    H245816   2.597   5.714   6.918
15311TIP3   OH245817   2.278   6.045   5.965
15311TIP3    H145818   2.204   5.981   5.952
15311TIP3    H245819   2.259   6.080   6.055
15312TIP3   OH245820   3.177   6.280   6.594
15312TIP3    H145821   3.198   6.330   6.512
15312TIP3    H245822   3.090   6.241   6.572
15313TIP3   OH245823   2.733   5.362   5.820
15313TIP3    H145824   2.636   5.348   5.832
15313TIP3    H245825   2.745   5.456   5.847
15314TIP3   OH245826   2.679   6.366   6.956
15314TIP3    H145827   2.691   6.340   7.048
15314TIP3    H245828   2.635   6.453   6.964
15315TIP3   OH245829   2.804   5.604   5.927
15315TIP3    H145830   2.901   5.612   5.942
15315TIP3    H245831   2.784   5.684   5.874
15316TIP3   OH245832   1.971   6.070   6.641
15316TIP3    H145833   2.007   6.040   6.555
15316TIP3    H245834   2.002   6.000   6.701
15317TIP3   OH245835   2.422   6.196   5.786
15317TIP3    H145836   2.375   6.283   5.791
15317TIP3    H245837   2.366   6.141   5.845
15318TIP3   OH245838   1.852   5.979   7.248
15318TIP3    H145839   1.860   5.969   7.345
15318TIP3    H245840   1.774   5.922   7.230
15319TIP3   OH245841   2.838   6.623   6.856
15319TIP3    H145842   2.741   6.621   6.868
15319TIP3    H245843   2.864   6.675   6.935
15320TIP3   OH245844   3.248   5.695   5.764
15320TIP3    H145845   3.185   5.649   5.704
15320TIP3    H245846   3.244   5.783   5.721
15321TIP3   OH245847   3.464   6.550   6.847
15321TIP3    H145848   3.366   6.547   6.838
15321TIP3    H245849   3.490   6.523   6.756
15322TIP3   OH245850   2.954   6.513   5.675
15322TIP3    H145851   2.916   6.445   5.733
15322TIP3    H245852   2.958   6.468   5.589
15323TIP3   OH245853   2.942   6.143   6.513
15323TIP3    H145854   2.849   6.118   6.526
15323TIP3    H245855   2.975   6.063   6.467
15324TIP3   OH245856   2.068   6.370   6.262
15324TIP3    H145857   2.068   6.453   6.210
15324TIP3    H245858   1.973   6.357   6.275
15325TIP3   OH245859   1.633   5.676   5.969
15325TIP3    H145860   1.677   5.761   5.987
15325TIP3    H245861   1.554   5.682   6.027
15326TIP3   OH245862   2.211   6.139   6.211
15326TIP3    H145863   2.173   6.228   6.226
15326TIP3    H245864   2.171   6.089   6.284
15327TIP3   OH245865   2.338   6.716   6.733
15327TIP3    H145866   2.376   6.789   6.682
15327TIP3    H245867   2.415   6.684   6.782
15328TIP3   OH245868   1.990   6.609   6.118
15328TIP3    H145869   1.903   6.617   6.162
15328TIP3    H245870   2.021   6.702   6.120
15329TIP3   OH245871   2.728   6.349   6.689
15329TIP3    H145872   2.719   6.350   6.787
15329TIP3    H245873   2.808   6.296   6.679
15330TIP3   OH245874   2.699   6.241   5.573
15330TIP3    H145875   2.750   6.216   5.653
15330TIP3    H245876   2.609   6.217   5.600
15331TIP3   OH245877   2.976   6.883   6.741
15331TIP3    H145878   2.896   6.828   6.734
15331TIP3    H245879   2.961   6.949   6.670
15332TIP3   OH245880   3.041   6.718   5.395
15332TIP3    H145881   3.076   6.788   5.338
15332TIP3    H245882   2.961   6.764   5.429
15333TIP3   OH245883   2.060   5.496   7.262
15333TIP3    H145884   1.963   5.499   7.274
15333TIP3    H245885   2.086   5.431   7.330
15334TIP3   OH245886   2.858   6.174   5.789
15334TIP3    H145887   2.849   6.110   5.862
15334TIP3    H245888   2.955   6.175   5.778
15335TIP3   OH245889   1.780   6.579   6.890
15335TIP3    H145890   1.829   6.504   6.926
15335TIP3    H245891   1.799   6.649   6.954
15336TIP3   OH245892   2.071   6.222   5.573
15336TIP3    H145893   2.080   6.130   5.544
15336TIP3    H245894   2.050   6.211   5.668
15337TIP3   OH245895   2.016   6.227   5.844
15337TIP3    H145896   2.081   6.203   5.911
15337TIP3    H245897   2.016   6.326   5.851
15338TIP3   OH245898   1.750   5.923   6.050
15338TIP3    H145899   1.683   5.967   6.106
15338TIP3    H245900   1.762   5.993   5.982
15339TIP3   OH245901   2.898   5.558   6.940
15339TIP3    H145902   2.976   5.595   6.984
15339TIP3    H245903   2.881   5.477   6.994
15340TIP3   OH245904   2.774   5.312   6.104
15340TIP3    H145905   2.764   5.338   6.010
15340TIP3    H245906   2.815   5.392   6.142
15341TIP3   OH245907   2.279   6.427   5.796
15341TIP3    H145908   2.192   6.453   5.831
15341TIP3    H245909   2.294   6.498   5.731
15342TIP3   OH245910   2.468   5.487   6.207
15342TIP3    H145911   2.533   5.560   6.191
15342TIP3    H245912   2.471   5.481   6.305
15343TIP3   OH245913   2.734   5.809   7.020
15343TIP3    H145914   2.755   5.867   7.096
15343TIP3    H245915   2.792   5.733   7.035
15344TIP3   OH245916   2.612   5.217   6.312
15344TIP3    H145917   2.606   5.293   6.373
15344TIP3    H245918   2.672   5.254   6.243
15345TIP3   OH245919   2.021   6.500   5.862
15345TIP3    H145920   1.991   6.569   5.798
15345TIP3    H245921   2.004   6.544   5.948
15346TIP3   OH245922   2.123   5.213   6.102
15346TIP3    H145923   2.117   5.304   6.139
15346TIP3    H245924   2.220   5.198   6.111
15347TIP3   OH245925   3.379   5.709   6.979
15347TIP3    H145926   3.283   5.715   6.999
15347TIP3    H245927   3.375   5.645   6.907
15348TIP3   OH245928   3.029   5.901   6.382
15348TIP3    H145929   2.951   5.844   6.396
15348TIP3    H245930   3.098   5.853   6.432
15349TIP3   OH245931   1.739   6.131   5.857
15349TIP3    H145932   1.798   6.208   5.863
15349TIP3    H245933   1.785   6.080   5.788
15350TIP3   OH245934   1.686   5.406   5.984
15350TIP3    H145935   1.683   5.504   5.983
15350TIP3    H245936   1.598   5.384   5.952
15351TIP3   OH245937   2.996   6.856   6.335
15351TIP3    H145938   2.952   6.903   6.260
15351TIP3    H245939   3.090   6.876   6.314
15352TIP3   OH245940   2.073   5.126   6.863
15352TIP3    H145941   2.040   5.093   6.777
15352TIP3    H245942   2.062   5.048   6.921
15353TIP3   OH245943   1.611   6.344   6.244
15353TIP3    H145944   1.540   6.376   6.301
15353TIP3    H245945   1.585   6.385   6.158
15354TIP3   OH245946   1.767   6.883   7.310
15354TIP3    H145947   1.851   6.884   7.361
15354TIP3    H245948   1.742   6.790   7.314
15355TIP3   OH245949   2.252   6.849   7.362
15355TIP3    H145950   2.347   6.831   7.362
15355TIP3    H245951   2.223   6.795   7.286
15356TIP3   OH245952   2.231   6.428   5.488
15356TIP3    H145953   2.174   6.357   5.525
15356TIP3    H245954   2.305   6.375   5.452
15357TIP3   OH245955   2.889   6.755   7.093
15357TIP3    H145956   2.880   6.686   7.162
15357TIP3    H245957   2.965   6.807   7.124
15358TIP3   OH245958   2.667   6.469   5.398
15358TIP3    H145959   2.712   6.403   5.453
15358TIP3    H245960   2.721   6.470   5.317
15359TIP3   OH245961   1.899   6.293   7.514
15359TIP3    H145962   1.913   6.197   7.518
15359TIP3    H245963   1.810   6.298   7.472
15360TIP3   OH245964   1.875   5.945   5.705
15360TIP3    H145965   1.929   5.913   5.779
15360TIP3    H245966   1.943   5.950   5.635
15361TIP3   OH245967   2.388   6.142   5.515
15361TIP3    H145968   2.385   6.156   5.611
15361TIP3    H245969   2.382   6.044   5.510
15362TIP3   OH245970   2.999   6.384   6.892
15362TIP3    H145971   3.072   6.434   6.850
15362TIP3    H245972   2.926   6.448   6.882
15363TIP3   OH245973   2.021   6.030   7.496
15363TIP3    H145974   2.071   5.948   7.491
15363TIP3    H245975   2.042   6.062   7.586
15364TIP3   OH245976   2.087   5.846   5.932
15364TIP3    H145977   2.054   5.807   6.014
15364TIP3    H245978   2.118   5.768   5.882
15365TIP3   OH245979   2.368   5.958   7.187
15365TIP3    H145980   2.274   5.981   7.166
15365TIP3    H245981   2.410   5.966   7.099
15366TIP3   OH245982   2.183   5.636   5.770
15366TIP3    H145983   2.154   5.643   5.677
15366TIP3    H245984   2.280   5.649   5.761
15367TIP3   OH245985   2.864   6.314   7.298
15367TIP3    H145986   2.941   6.290   7.245
15367TIP3    H245987   2.868   6.246   7.369
15368TIP3   OH245988   3.009   5.972   5.432
15368TIP3    H145989   2.985   5.925   5.349
15368TIP3    H245990   2.977   6.062   5.408
15369TIP3   OH245991   2.473   5.696   7.283
15369TIP3    H145992   2.479   5.610   7.234
15369TIP3    H245993   2.434   5.752   7.214
15370TIP3   OH245994   2.477   5.490   7.093
15370TIP3    H145995   2.505   5.525   7.006
15370TIP3    H245996   2.384   5.462   7.074
15371TIP3   OH245997   2.504   6.020   6.964
15371TIP3    H145998   2.587   6.028   6.914
15371TIP3    H245999   2.448   6.088   6.919
15372TIP3   OH246000   3.088   5.988   7.345
15372TIP3    H146001   3.136   5.906   7.360
15372TIP3    H246002   3.158   6.047   7.314
15373TIP3   OH246003   3.128   6.240   7.080
15373TIP3    H146004   3.071   6.294   7.021
15373TIP3    H246005   3.216   6.261   7.040
15374TIP3   OH246006   2.350   5.839   7.475
15374TIP3    H146007   2.286   5.781   7.522
15374TIP3    H246008   2.389   5.771   7.415
15375TIP3   OH246009   2.610   5.251   7.153
15375TIP3    H146010   2.559   5.333   7.135
15375TIP3    H246011   2.540   5.182   7.146
15376TIP3   OH246012   2.733   5.759   7.376
15376TIP3    H146013   2.728   5.742   7.472
15376TIP3    H246014   2.647   5.723   7.347
15377TIP3   OH246015   2.975   5.701   7.228
15377TIP3    H146016   2.901   5.704   7.291
15377TIP3    H246017   3.049   5.672   7.285
15378TIP3   OH246018   3.203   5.643   7.380
15378TIP3    H146019   3.216   5.548   7.399
15378TIP3    H246020   3.199   5.683   7.469
15379TIP3   OH246021   2.206   5.601   7.562
15379TIP3    H146022   2.202   5.509   7.528
15379TIP3    H246023   2.234   5.582   7.655
15380TIP3   OH246024   2.712   5.269   7.408
15380TIP3    H146025   2.771   5.191   7.413
15380TIP3    H246026   2.668   5.253   7.322
15381TIP3   OH246027   2.769   5.479   7.570
15381TIP3    H146028   2.752   5.404   7.509
15381TIP3    H246029   2.688   5.531   7.563
15382TIP3   OH246030   1.990   6.701   5.675
15382TIP3    H146031   2.086   6.702   5.654
15382TIP3    H246032   1.957   6.750   5.597
15383TIP3   OH246033   1.470   6.084   5.892
15383TIP3    H146034   1.565   6.106   5.879
15383TIP3    H246035   1.465   5.996   5.849
15384TIP3   OH246036   1.387   6.697   6.303
15384TIP3    H146037   1.317   6.637   6.268
15384TIP3    H246038   1.429   6.640   6.370
15385TIP3   OH246039   1.523   6.549   6.490
15385TIP3    H146040   1.506   6.477   6.552
15385TIP3    H246041   1.570   6.612   6.548
15386TIP3   OH246042   3.251   6.943   6.290
15386TIP3    H146043   3.272   6.980   6.378
15386TIP3    H246044   3.304   6.998   6.231
15387TIP3   OH246045   3.278   6.969   6.572
15387TIP3    H146046   3.235   6.881   6.569
15387TIP3    H246047   3.352   6.949   6.631
15388TIP3   OH246048   3.323   6.646   7.144
15388TIP3    H146049   3.250   6.654   7.209
15388TIP3    H246050   3.364   6.735   7.150
15389TIP3   OH246051   3.140   6.159   5.768
15389TIP3    H146052   3.205   6.226   5.741
15389TIP3    H246053   3.183   6.120   5.846
15390TIP3   OH246054   3.268   6.029   5.979
15390TIP3    H146055   3.194   5.975   6.014
15390TIP3    H246056   3.293   6.077   6.058
15391TIP3   OH246057   3.324   6.416   6.403
15391TIP3    H146058   3.376   6.359   6.345
15391TIP3    H246059   3.309   6.495   6.348
15392TIP3   OH246060   3.153   6.718   6.597
15392TIP3    H146061   3.084   6.763   6.650
15392TIP3    H246062   3.100   6.672   6.529
15393TIP3   OH246063   3.206   5.935   5.617
15393TIP3    H146064   3.136   5.935   5.548
15393TIP3    H246065   3.176   6.013   5.669
15394TIP3   OH246066   3.077   5.611   5.572
15394TIP3    H146067   3.036   5.647   5.494
15394TIP3    H246068   3.052   5.516   5.564
15395TIP3   OH246069   3.085   5.880   6.113
15395TIP3    H146070   3.088   5.783   6.108
15395TIP3    H246071   3.069   5.894   6.209
15396TIP3   OH246072   1.709   5.952   6.864
15396TIP3    H146073   1.706   5.925   6.769
15396TIP3    H246074   1.807   5.956   6.878
15397TIP3   OH246075   3.370   6.307   6.972
15397TIP3    H146076   3.444   6.242   6.964
15397TIP3    H246077   3.400   6.379   6.915
15398TIP3   OH246078   3.556   6.113   6.986
15398TIP3    H146079   3.483   6.063   7.028
15398TIP3    H246080   3.630   6.051   7.002
15399TIP3   OH246081   3.019   5.347   5.565
15399TIP3    H146082   3.100   5.310   5.607
15399TIP3    H246083   2.951   5.281   5.583
15400TIP3   OH246084   3.079   5.601   6.013
15400TIP3    H146085   3.118   5.511   6.029
15400TIP3    H246086   3.136   5.630   5.940
15401TIP3   OH246087   3.246   5.775   6.504
15401TIP3    H146088   3.334   5.800   6.470
15401TIP3    H246089   3.252   5.812   6.595
15402TIP3   OH246090   3.311   5.915   6.737
15402TIP3    H146091   3.234   5.944   6.789
15402TIP3    H246092   3.338   5.999   6.695
15403TIP3   OH246093   1.933   5.648   7.544
15403TIP3    H146094   2.030   5.634   7.541
15403TIP3    H246095   1.903   5.561   7.580
15404TIP3   OH246096   3.755   5.505   7.293
15404TIP3    H146097   3.818   5.441   7.252
15404TIP3    H246098   3.736   5.565   7.219
15405TIP3   OH246099   3.185   5.350   6.050
15405TIP3    H146100   3.233   5.331   6.133
15405TIP3    H246101   3.127   5.272   6.046
15406TIP3   OH246102   1.888   5.334   6.865
15406TIP3    H146103   1.951   5.260   6.878
15406TIP3    H246104   1.949   5.410   6.863
15407TIP3   OH246105   1.693   5.609   6.944
15407TIP3    H146106   1.739   5.603   6.858
15407TIP3    H246107   1.714   5.699   6.971
15408TIP3   OH246108   3.632   5.652   7.099
15408TIP3    H146109   3.544   5.687   7.123
15408TIP3    H246110   3.607   5.576   7.044
15409TIP3   OH246111   3.273   5.285   5.672
15409TIP3    H146112   3.330   5.217   5.633
15409TIP3    H246113   3.332   5.363   5.671
15410TIP3   OH246114   1.673   5.112   6.442
15410TIP3    H146115   1.579   5.109   6.469
15410TIP3    H246116   1.669   5.170   6.364
15411TIP3   OH246117   2.835   6.812   5.950
15411TIP3    H146118   2.884   6.800   5.866
15411TIP3    H246119   2.883   6.885   5.991
15412TIP3   OH246120   1.893   5.195   7.258
15412TIP3    H146121   1.843   5.185   7.340
15412TIP3    H246122   1.825   5.232   7.199
15413TIP3   OH246123   1.936   6.608   7.339
15413TIP3    H146124   1.843   6.590   7.316
15413TIP3    H246125   1.933   6.605   7.435
15414TIP3   OH246126   2.113   6.650   6.883
15414TIP3    H146127   2.060   6.723   6.845
15414TIP3    H246128   2.197   6.668   6.836
15415TIP3   OH246129   2.558   6.895   7.017
15415TIP3    H146130   2.598   6.900   7.106
15415TIP3    H246131   2.622   6.947   6.965
15416TIP3   OH246132   2.736   7.047   6.877
15416TIP3    H146133   2.808   6.997   6.837
15416TIP3    H246134   2.786   7.105   6.939
15417TIP3   OH246135   3.531   5.410   6.974
15417TIP3    H146136   3.438   5.398   6.948
15417TIP3    H246137   3.564   5.318   6.965
15418TIP3   OH246138   1.789   6.909   6.906
15418TIP3    H146139   1.700   6.942   6.880
15418TIP3    H246140   1.795   6.945   6.995
15419TIP3   OH246141   2.025   6.887   6.762
15419TIP3    H146142   1.939   6.900   6.809
15419TIP3    H246143   2.003   6.921   6.673
15420TIP3   OH246144   2.451   6.917   6.559
15420TIP3    H146145   2.380   6.937   6.495
15420TIP3    H246146   2.463   7.004   6.602
15421TIP3   OH246147   2.718   6.856   6.610
15421TIP3    H146148   2.623   6.872   6.592
15421TIP3    H246149   2.759   6.934   6.570
15422TIP3   OH246150   2.929   7.049   6.528
15422TIP3    H146151   2.912   7.134   6.481
15422TIP3    H246152   2.951   6.990   6.453
15423TIP3   OH246153   1.701   6.705   6.648
15423TIP3    H146154   1.725   6.678   6.740
15423TIP3    H246155   1.773   6.660   6.598
15424TIP3   OH246156   1.893   6.573   6.505
15424TIP3    H146157   1.908   6.490   6.556
15424TIP3    H246158   1.983   6.611   6.502
15425TIP3   OH246159   2.159   6.670   6.507
15425TIP3    H146160   2.190   6.578   6.496
15425TIP3    H246161   2.200   6.692   6.593
15426TIP3   OH246162   2.734   5.325   6.595
15426TIP3    H146163   2.691   5.257   6.650
15426TIP3    H246164   2.806   5.275   6.552
15427TIP3   OH246165   3.259   5.210   6.505
15427TIP3    H146166   3.294   5.259   6.427
15427TIP3    H246167   3.163   5.223   6.495
15428TIP3   OH246168   3.352   5.309   6.267
15428TIP3    H146169   3.424   5.255   6.227
15428TIP3    H246170   3.388   5.400   6.251
15429TIP3   OH246171   1.985   5.034   6.613
15429TIP3    H146172   1.892   5.001   6.614
15429TIP3    H246173   2.034   4.950   6.610
15430TIP3   OH246174   1.774   4.904   6.259
15430TIP3    H146175   1.797   4.966   6.188
15430TIP3    H246176   1.739   4.964   6.327
15431TIP3   OH246177   2.426   5.067   6.492
15431TIP3    H146178   2.487   5.118   6.437
15431TIP3    H246179   2.444   5.102   6.580
15432TIP3   OH246180   2.977   5.213   6.477
15432TIP3    H146181   2.973   5.175   6.389
15432TIP3    H246182   2.962   5.133   6.533
15433TIP3   OH246183   3.002   5.137   6.041
15433TIP3    H146184   2.914   5.176   6.053
15433TIP3    H246185   2.990   5.051   6.087
15434TIP3   OH246186   1.489   6.473   6.041
15434TIP3    H146187   1.403   6.441   6.007
15434TIP3    H246188   1.477   6.568   6.024
15435TIP3   OH246189   1.884   5.066   6.026
15435TIP3    H146190   1.935   5.005   5.970
15435TIP3    H246191   1.955   5.121   6.065
15436TIP3   OH246192   2.402   5.237   6.123
15436TIP3    H146193   2.461   5.193   6.186
15436TIP3    H246194   2.419   5.330   6.148
15437TIP3   OH246195   2.260   6.664   5.624
15437TIP3    H146196   2.347   6.688   5.586
15437TIP3    H246197   2.237   6.590   5.564
15438TIP3   OH246198   2.979   6.782   5.716
15438TIP3    H146199   2.972   6.684   5.702
15438TIP3    H246200   2.933   6.815   5.636
15439TIP3   OH246201   2.193   5.323   7.511
15439TIP3    H146202   2.160   5.247   7.562
15439TIP3    H246203   2.288   5.318   7.534
15440TIP3   OH246204   2.447   5.315   7.623
15440TIP3    H146205   2.528   5.273   7.587
15440TIP3    H246206   2.428   5.252   7.696
15441TIP3   OH246207   1.562   6.499   5.681
15441TIP3    H146208   1.559   6.530   5.772
15441TIP3    H246209   1.652   6.460   5.673
15442TIP3   OH246210   3.265   5.374   7.412
15442TIP3    H146211   3.284   5.343   7.503
15442TIP3    H246212   3.354   5.368   7.370
15443TIP3   OH246213   3.206   6.926   6.903
15443TIP3    H146214   3.126   6.894   6.856
15443TIP3    H246215   3.186   7.022   6.906
15444TIP3   OH246216   4.470   6.297   5.671
15444TIP3    H146217   4.442   6.388   5.651
15444TIP3    H246218   4.394   6.248   5.635
15445TIP3   OH246219   4.459   6.298   6.055
15445TIP3    H146220   4.498   6.271   6.140
15445TIP3    H246221   4.427   6.213   6.020
15446TIP3   OH246222   3.772   6.210   6.411
15446TIP3    H146223   3.802   6.174   6.495
15446TIP3    H246224   3.856   6.249   6.381
15447TIP3   OH246225   4.709   6.600   5.733
15447TIP3    H146226   4.703   6.529   5.799
15447TIP3    H246227   4.742   6.674   5.786
15448TIP3   OH246228   3.741   6.601   6.133
15448TIP3    H146229   3.733   6.511   6.166
15448TIP3    H246230   3.838   6.615   6.132
15449TIP3   OH246231   3.445   5.813   5.931
15449TIP3    H146232   3.389   5.892   5.939
15449TIP3    H246233   3.381   5.751   5.892
15450TIP3   OH246234   4.360   7.061   5.748
15450TIP3    H146235   4.406   6.990   5.699
15450TIP3    H246236   4.360   7.026   5.838
15451TIP3   OH246237   4.270   6.522   6.095
15451TIP3    H146238   4.313   6.442   6.058
15451TIP3    H246239   4.352   6.570   6.120
15452TIP3   OH246240   5.279   5.844   6.095
15452TIP3    H146241   5.308   5.925   6.140
15452TIP3    H246242   5.306   5.861   6.004
15453TIP3   OH246243   4.682   6.027   6.131
15453TIP3    H146244   4.724   5.942   6.153
15453TIP3    H246245   4.651   6.010   6.040
15454TIP3   OH246246   4.015   5.684   6.101
15454TIP3    H146247   3.994   5.762   6.048
15454TIP3    H246248   3.964   5.615   6.054
15455TIP3   OH246249   4.711   5.774   5.719
15455TIP3    H146250   4.784   5.759   5.785
15455TIP3    H246251   4.763   5.811   5.645
15456TIP3   OH246252   3.665   5.879   6.216
15456TIP3    H146253   3.761   5.892   6.222
15456TIP3    H246254   3.658   5.832   6.130
15457TIP3   OH246255   4.093   6.093   6.003
15457TIP3    H146256   4.187   6.064   6.013
15457TIP3    H246257   4.052   6.013   5.964
15458TIP3   OH246258   5.352   6.047   6.268
15458TIP3    H146259   5.270   6.098   6.249
15458TIP3    H246260   5.372   6.079   6.358
15459TIP3   OH246261   4.353   6.515   5.544
15459TIP3    H146262   4.325   6.501   5.453
15459TIP3    H246263   4.317   6.603   5.563
15460TIP3   OH246264   4.121   6.443   6.325
15460TIP3    H146265   4.060   6.509   6.365
15460TIP3    H246266   4.168   6.497   6.259
15461TIP3   OH246267   4.922   5.778   5.891
15461TIP3    H146268   4.916   5.730   5.974
15461TIP3    H246269   4.978   5.853   5.915
15462TIP3   OH246270   3.945   6.636   6.419
15462TIP3    H146271   3.922   6.726   6.386
15462TIP3    H246272   3.869   6.622   6.480
15463TIP3   OH246273   3.351   6.326   5.666
15463TIP3    H146274   3.304   6.344   5.582
15463TIP3    H246275   3.372   6.418   5.695
15464TIP3   OH246276   4.782   6.842   5.901
15464TIP3    H146277   4.691   6.834   5.939
15464TIP3    H246278   4.776   6.928   5.856
15465TIP3   OH246279   5.074   5.743   6.262
15465TIP3    H146280   4.987   5.776   6.233
15465TIP3    H246281   5.134   5.776   6.191
15466TIP3   OH246282   4.372   5.385   6.242
15466TIP3    H146283   4.363   5.290   6.262
15466TIP3    H246284   4.296   5.421   6.292
15467TIP3   OH246285   4.482   6.889   5.573
15467TIP3    H146286   4.534   6.808   5.552
15467TIP3    H246287   4.543   6.956   5.532
15468TIP3   OH246288   4.623   6.673   5.481
15468TIP3    H146289   4.603   6.592   5.434
15468TIP3    H246290   4.660   6.639   5.565
15469TIP3   OH246291   5.009   6.757   6.244
15469TIP3    H146292   5.000   6.679   6.185
15469TIP3    H246293   4.995   6.831   6.181
15470TIP3   OH246294   4.300   6.151   5.499
15470TIP3    H146295   4.221   6.202   5.472
15470TIP3    H246296   4.351   6.146   5.416
15471TIP3   OH246297   4.260   5.933   5.219
15471TIP3    H146298   4.329   5.983   5.267
15471TIP3    H246299   4.317   5.869   5.171
15472TIP3   OH246300   5.203   6.389   6.086
15472TIP3    H146301   5.123   6.445   6.092
15472TIP3    H246302   5.235   6.413   5.997
15473TIP3   OH246303   4.647   6.231   5.473
15473TIP3    H146304   4.595   6.257   5.553
15473TIP3    H246305   4.732   6.204   5.516
15474TIP3   OH246306   4.884   6.272   6.383
15474TIP3    H146307   4.881   6.356   6.433
15474TIP3    H246308   4.797   6.276   6.338
15475TIP3   OH246309   4.009   6.629   6.042
15475TIP3    H146310   4.002   6.607   5.949
15475TIP3    H246311   4.102   6.605   6.063
15476TIP3   OH246312   3.997   6.219   6.227
15476TIP3    H146313   4.048   6.178   6.155
15476TIP3    H246314   4.059   6.287   6.262
15477TIP3   OH246315   4.538   6.840   6.020
15477TIP3    H146316   4.529   6.919   6.075
15477TIP3    H246317   4.529   6.766   6.083
15478TIP3   OH246318   4.153   6.759   6.565
15478TIP3    H146319   4.095   6.821   6.614
15478TIP3    H246320   4.087   6.705   6.519
15479TIP3   OH246321   4.487   6.093   5.299
15479TIP3    H146322   4.548   6.150   5.351
15479TIP3    H246323   4.514   6.117   5.207
15480TIP3   OH246324   3.896   6.329   6.656
15480TIP3    H146325   3.908   6.411   6.708
15480TIP3    H246326   3.807   6.303   6.684
15481TIP3   OH246327   4.227   6.774   5.579
15481TIP3    H146328   4.310   6.824   5.592
15481TIP3    H246329   4.171   6.838   5.534
15482TIP3   OH246330   3.949   6.928   6.654
15482TIP3    H146331   3.913   6.925   6.563
15482TIP3    H246332   3.869   6.906   6.708
15483TIP3   OH246333   5.002   5.338   5.348
15483TIP3    H146334   4.920   5.355   5.400
15483TIP3    H246335   5.012   5.422   5.299
15484TIP3   OH246336   3.687   6.100   5.744
15484TIP3    H146337   3.652   6.120   5.654
15484TIP3    H246338   3.717   6.008   5.730
15485TIP3   OH246339   4.803   6.699   4.896
15485TIP3    H146340   4.812   6.796   4.881
15485TIP3    H246341   4.896   6.670   4.882
15486TIP3   OH246342   3.529   6.456   6.601
15486TIP3    H146343   3.459   6.433   6.537
15486TIP3    H246344   3.564   6.368   6.629
15487TIP3   OH246345   3.385   6.647   6.237
15487TIP3    H146346   3.481   6.661   6.232
15487TIP3    H246347   3.359   6.727   6.285
15488TIP3   OH246348   5.246   7.100   6.288
15488TIP3    H146349   5.246   7.003   6.301
15488TIP3    H246350   5.163   7.123   6.335
15489TIP3   OH246351   4.352   6.889   6.423
15489TIP3    H146352   4.352   6.981   6.457
15489TIP3    H246353   4.282   6.849   6.478
15490TIP3   OH246354   4.111   7.014   5.378
15490TIP3    H146355   4.068   6.996   5.292
15490TIP3    H246356   4.081   7.105   5.398
15491TIP3   OH246357   3.550   6.866   5.758
15491TIP3    H146358   3.599   6.856   5.842
15491TIP3    H246359   3.478   6.802   5.771
15492TIP3   OH246360   4.315   6.916   5.017
15492TIP3    H146361   4.374   6.847   4.980
15492TIP3    H246362   4.351   6.925   5.108
15493TIP3   OH246363   4.364   6.966   5.287
15493TIP3    H146364   4.277   6.974   5.331
15493TIP3    H246365   4.417   6.926   5.359
15494TIP3   OH246366   5.135   6.232   6.564
15494TIP3    H146367   5.056   6.244   6.509
15494TIP3    H246368   5.151   6.136   6.554
15495TIP3   OH246369   3.734   6.640   6.590
15495TIP3    H146370   3.784   6.625   6.673
15495TIP3    H246371   3.661   6.576   6.600
15496TIP3   OH246372   4.136   5.464   6.372
15496TIP3    H146373   4.043   5.441   6.356
15496TIP3    H246374   4.132   5.559   6.387
15497TIP3   OH246375   4.654   5.577   6.577
15497TIP3    H146376   4.731   5.553   6.633
15497TIP3    H246377   4.586   5.597   6.644
15498TIP3   OH246378   4.906   6.007   6.487
15498TIP3    H146379   4.858   6.004   6.573
15498TIP3    H246380   4.880   6.094   6.451
15499TIP3   OH246381   4.564   6.138   5.042
15499TIP3    H146382   4.532   6.112   4.954
15499TIP3    H246383   4.646   6.186   5.019
15500TIP3   OH246384   4.276   5.516   5.344
15500TIP3    H146385   4.248   5.513   5.438
15500TIP3    H246386   4.240   5.432   5.312
15501TIP3   OH246387   4.008   5.977   6.413
15501TIP3    H146388   4.060   6.010   6.488
15501TIP3    H246389   4.026   6.043   6.345
15502TIP3   OH246390   3.940   5.872   5.905
15502TIP3    H146391   3.853   5.830   5.924
15502TIP3    H246392   3.964   5.826   5.821
15503TIP3   OH246393   4.436   5.949   5.632
15503TIP3    H146394   4.385   6.021   5.590
15503TIP3    H246395   4.495   5.921   5.558
15504TIP3   OH246396   4.612   6.234   6.730
15504TIP3    H146397   4.586   6.157   6.785
15504TIP3    H246398   4.708   6.239   6.747
15505TIP3   OH246399   4.598   5.979   5.873
15505TIP3    H146400   4.537   6.009   5.803
15505TIP3    H246401   4.630   5.897   5.830
15506TIP3   OH246402   3.934   5.484   5.312
15506TIP3    H146403   3.925   5.483   5.409
15506TIP3    H246404   3.855   5.535   5.286
15507TIP3   OH246405   3.480   5.534   6.186
15507TIP3    H146406   3.564   5.560   6.227
15507TIP3    H246407   3.507   5.494   6.101
15508TIP3   OH246408   3.449   5.510   5.702
15508TIP3    H146409   3.494   5.548   5.623
15508TIP3    H246410   3.388   5.583   5.722
15509TIP3   OH246411   4.607   6.229   6.292
15509TIP3    H146412   4.639   6.155   6.235
15509TIP3    H246413   4.582   6.178   6.372
15510TIP3   OH246414   4.270   5.690   5.969
15510TIP3    H146415   4.191   5.686   6.027
15510TIP3    H246416   4.342   5.687   6.033
15511TIP3   OH246417   3.709   5.740   5.977
15511TIP3    H146418   3.615   5.745   5.948
15511TIP3    H246419   3.736   5.650   5.952
15512TIP3   OH246420   3.980   5.743   5.665
15512TIP3    H146421   4.076   5.753   5.648
15512TIP3    H246422   3.939   5.762   5.578
15513TIP3   OH246423   4.768   5.764   6.168
15513TIP3    H146424   4.734   5.774   6.260
15513TIP3    H246425   4.703   5.702   6.131
15514TIP3   OH246426   3.818   5.781   5.443
15514TIP3    H146427   3.748   5.731   5.397
15514TIP3    H246428   3.870   5.812   5.367
15515TIP3   OH246429   4.936   7.452   6.388
15515TIP3    H146430   4.935   7.474   6.293
15515TIP3    H246431   5.015   7.500   6.418
15516TIP3   OH246432   3.894   6.564   6.810
15516TIP3    H146433   3.975   6.592   6.858
15516TIP3    H246434   3.830   6.563   6.885
15517TIP3   OH246435   4.356   6.019   6.061
15517TIP3    H146436   4.432   5.972   6.024
15517TIP3    H246437   4.356   5.986   6.154
15518TIP3   OH246438   3.877   5.505   5.941
15518TIP3    H146439   3.848   5.424   5.988
15518TIP3    H246440   3.941   5.469   5.878
15519TIP3   OH246441   4.336   5.938   6.328
15519TIP3    H146442   4.266   5.905   6.386
15519TIP3    H246443   4.404   5.961   6.395
15520TIP3   OH246444   4.069   6.303   5.445
15520TIP3    H146445   3.997   6.236   5.434
15520TIP3    H246446   4.050   6.334   5.536
15521TIP3   OH246447   4.973   6.541   6.080
15521TIP3    H146448   4.999   6.588   5.998
15521TIP3    H246449   4.888   6.499   6.054
15522TIP3   OH246450   4.528   5.623   5.321
15522TIP3    H146451   4.431   5.609   5.326
15522TIP3    H246452   4.540   5.718   5.343
15523TIP3   OH246453   4.468   6.619   6.447
15523TIP3    H146454   4.495   6.595   6.536
15523TIP3    H246455   4.434   6.710   6.457
15524TIP3   OH246456   4.601   5.867   5.416
15524TIP3    H146457   4.698   5.870   5.432
15524TIP3    H246458   4.586   5.946   5.361
15525TIP3   OH246459   3.759   6.263   6.069
15525TIP3    H146460   3.850   6.297   6.071
15525TIP3    H246461   3.758   6.234   6.162
15526TIP3   OH246462   4.219   6.453   5.270
15526TIP3    H146463   4.171   6.539   5.277
15526TIP3    H246464   4.164   6.397   5.329
15527TIP3   OH246465   3.643   6.242   6.739
15527TIP3    H146466   3.672   6.235   6.833
15527TIP3    H246467   3.571   6.177   6.737
15528TIP3   OH246468   4.369   6.359   6.758
15528TIP3    H146469   4.318   6.300   6.700
15528TIP3    H246470   4.460   6.328   6.737
15529TIP3   OH246471   4.631   6.881   6.342
15529TIP3    H146472   4.535   6.880   6.354
15529TIP3    H246473   4.659   6.932   6.421
15530TIP3   OH246474   5.042   5.950   5.251
15530TIP3    H146475   4.979   5.906   5.190
15530TIP3    H246476   5.039   6.039   5.210
15531TIP3   OH246477   5.260   6.812   6.332
15531TIP3    H146478   5.162   6.804   6.324
15531TIP3    H246479   5.286   6.780   6.243
15532TIP3   OH246480   4.739   6.771   5.158
15532TIP3    H146481   4.720   6.698   5.219
15532TIP3    H246482   4.755   6.726   5.073
15533TIP3   OH246483   4.737   6.402   5.997
15533TIP3    H146484   4.645   6.374   6.012
15533TIP3    H246485   4.774   6.322   5.954
15534TIP3   OH246486   3.860   6.624   5.754
15534TIP3    H146487   3.881   6.703   5.701
15534TIP3    H246488   3.764   6.630   5.755
15535TIP3   OH246489   3.429   5.932   5.454
15535TIP3    H146490   3.472   6.018   5.469
15535TIP3    H246491   3.351   5.939   5.513
15536TIP3   OH246492   3.989   6.384   5.695
15536TIP3    H146493   3.961   6.476   5.709
15536TIP3    H246494   4.027   6.359   5.780
15537TIP3   OH246495   4.134   6.971   6.219
15537TIP3    H146496   4.175   7.044   6.169
15537TIP3    H246497   4.211   6.938   6.269
15538TIP3   OH246498   3.788   6.866   5.606
15538TIP3    H146499   3.700   6.876   5.648
15538TIP3    H246500   3.819   6.959   5.607
15539TIP3   OH246501   4.523   6.608   6.178
15539TIP3    H146502   4.514   6.604   6.276
15539TIP3    H246503   4.603   6.555   6.164
15540TIP3   OH246504   4.497   6.497   5.062
15540TIP3    H146505   4.550   6.474   5.142
15540TIP3    H246506   4.408   6.472   5.093
15541TIP3   OH246507   4.770   7.143   6.231
15541TIP3    H146508   4.693   7.084   6.222
15541TIP3    H246509   4.756   7.206   6.158
15542TIP3   OH246510   4.836   6.974   4.881
15542TIP3    H146511   4.875   7.045   4.828
15542TIP3    H246512   4.757   7.021   4.914
15543TIP3   OH246513   4.656   6.436   5.283
15543TIP3    H146514   4.648   6.366   5.351
15543TIP3    H246515   4.753   6.432   5.266
15544TIP3   OH246516   3.577   6.833   6.379
15544TIP3    H146517   3.628   6.763   6.423
15544TIP3    H246518   3.597   6.908   6.436
15545TIP3   OH246519   3.863   6.480   5.062
15545TIP3    H146520   3.878   6.390   5.030
15545TIP3    H246521   3.844   6.465   5.156
15546TIP3   OH246522   3.810   6.484   5.336
15546TIP3    H146523   3.888   6.461   5.388
15546TIP3    H246524   3.812   6.582   5.339
15547TIP3   OH246525   3.544   6.183   5.525
15547TIP3    H146526   3.474   6.229   5.576
15547TIP3    H246527   3.561   6.249   5.455
15548TIP3   OH246528   4.692   5.809   6.426
15548TIP3    H146529   4.769   5.850   6.469
15548TIP3    H246530   4.674   5.732   6.483
15549TIP3   OH246531   4.570   5.569   5.594
15549TIP3    H146532   4.560   5.592   5.500
15549TIP3    H246533   4.613   5.649   5.631
15550TIP3   OH246534   4.073   6.681   5.284
15550TIP3    H146535   3.986   6.713   5.316
15550TIP3    H246536   4.093   6.750   5.218
15551TIP3   OH246537   4.259   5.746   5.695
15551TIP3    H146538   4.326   5.815   5.677
15551TIP3    H246539   4.267   5.737   5.793
15552TIP3   OH246540   4.544   6.071   6.503
15552TIP3    H146541   4.551   6.120   6.587
15552TIP3    H246542   4.585   5.986   6.525
15553TIP3   OH246543   4.408   5.473   5.798
15553TIP3    H146544   4.411   5.544   5.864
15553TIP3    H246545   4.468   5.510   5.729
15554TIP3   OH246546   3.815   6.757   5.349
15554TIP3    H146547   3.787   6.826   5.284
15554TIP3    H246548   3.800   6.803   5.434
15555TIP3   OH246549   3.919   5.471   5.587
15555TIP3    H146550   3.916   5.560   5.627
15555TIP3    H246551   4.014   5.452   5.597
15556TIP3   OH246552   5.173   5.965   6.486
15556TIP3    H146553   5.075   5.962   6.491
15556TIP3    H246554   5.186   5.929   6.397
15557TIP3   OH246555   4.823   6.161   5.873
15557TIP3    H146556   4.749   6.099   5.885
15557TIP3    H246557   4.896   6.115   5.920
15558TIP3   OH246558   3.535   6.392   5.339
15558TIP3    H146559   3.599   6.465   5.347
15558TIP3    H246560   3.580   6.338   5.271
15559TIP3   OH246561   3.481   5.662   5.477
15559TIP3    H146562   3.477   5.760   5.470
15559TIP3    H246563   3.402   5.636   5.429
15560TIP3   OH246564   4.791   7.114   5.822
15560TIP3    H146565   4.749   7.161   5.747
15560TIP3    H246566   4.885   7.133   5.802
15561TIP3   OH246567   3.861   5.387   6.353
15561TIP3    H146568   3.837   5.350   6.265
15561TIP3    H246569   3.859   5.307   6.409
15562TIP3   OH246570   3.406   6.591   5.733
15562TIP3    H146571   3.336   6.630   5.788
15562TIP3    H246572   3.389   6.636   5.648
15563TIP3   OH246573   3.563   7.142   6.801
15563TIP3    H146574   3.649   7.142   6.848
15563TIP3    H246575   3.542   7.047   6.800
15564TIP3   OH246576   4.047   7.110   6.844
15564TIP3    H146577   4.141   7.088   6.854
15564TIP3    H246578   4.022   7.051   6.770
15565TIP3   OH246579   4.028   6.685   4.976
15565TIP3    H146580   3.972   6.612   5.012
15565TIP3    H246581   4.102   6.634   4.938
15566TIP3   OH246582   4.682   7.015   6.579
15566TIP3    H146583   4.675   6.944   6.646
15566TIP3    H246584   4.762   7.064   6.608
15567TIP3   OH246585   4.462   6.725   4.884
15567TIP3    H146586   4.511   6.663   4.942
15567TIP3    H246587   4.518   6.727   4.803
15568TIP3   OH246588   3.695   6.551   7.001
15568TIP3    H146589   3.712   6.455   7.009
15568TIP3    H246590   3.606   6.551   6.959
15569TIP3   OH246591   3.670   6.202   5.194
15569TIP3    H146592   3.726   6.166   5.265
15569TIP3    H246593   3.735   6.206   5.121
15570TIP3   OH246594   4.302   6.633   6.774
15570TIP3    H146595   4.262   6.647   6.686
15570TIP3    H246596   4.334   6.541   6.769
15571TIP3   OH246597   4.177   6.397   5.001
15571TIP3    H146598   4.182   6.412   5.098
15571TIP3    H246599   4.178   6.299   4.997
15572TIP3   OH246600   4.794   6.642   6.380
15572TIP3    H146601   4.869   6.686   6.336
15572TIP3    H246602   4.724   6.709   6.367
15573TIP3   OH246603   3.812   6.281   6.978
15573TIP3    H146604   3.888   6.223   6.959
15573TIP3    H246605   3.836   6.314   7.067
15574TIP3   OH246606   3.882   6.097   5.419
15574TIP3    H146607   3.867   6.035   5.491
15574TIP3    H246608   3.918   6.035   5.352
15575TIP3   OH246609   4.115   6.156   6.610
15575TIP3    H146610   4.056   6.230   6.633
15575TIP3    H246611   4.187   6.199   6.560
15576TIP3   OH246612   3.980   5.899   5.256
15576TIP3    H146613   3.954   5.899   5.161
15576TIP3    H246614   4.078   5.904   5.248
15577TIP3   OH246615   4.666   6.571   6.778
15577TIP3    H146616   4.745   6.546   6.729
15577TIP3    H246617   4.662   6.502   6.847
15578TIP3   OH246618   4.801   6.229   4.920
15578TIP3    H146619   4.780   6.182   4.837
15578TIP3    H246620   4.771   6.319   4.895
15579TIP3   OH246621   4.303   6.285   6.462
15579TIP3    H146622   4.382   6.271   6.409
15579TIP3    H246623   4.252   6.350   6.409
15580TIP3   OH246624   4.886   6.246   6.835
15580TIP3    H146625   4.930   6.160   6.842
15580TIP3    H246626   4.956   6.300   6.796
15581TIP3   OH246627   4.925   6.500   6.570
15581TIP3    H146628   4.868   6.553   6.509
15581TIP3    H246629   5.013   6.518   6.529
15582TIP3   OH246630   4.144   6.069   6.989
15582TIP3    H146631   4.080   5.996   7.005
15582TIP3    H246632   4.173   6.049   6.898
15583TIP3   OH246633   4.523   6.007   6.852
15583TIP3    H146634   4.507   5.995   6.948
15583TIP3    H246635   4.453   5.947   6.818
15584TIP3   OH246636   4.772   5.962   6.718
15584TIP3    H146637   4.694   5.956   6.777
15584TIP3    H246638   4.844   5.928   6.776
15585TIP3   OH246639   5.006   5.902   6.869
15585TIP3    H146640   5.014   5.806   6.886
15585TIP3    H246641   4.998   5.939   6.959
15586TIP3   OH246642   3.986   5.848   7.052
15586TIP3    H146643   4.008   5.765   7.006
15586TIP3    H246644   4.026   5.831   7.140
15587TIP3   OH246645   4.517   5.530   6.885
15587TIP3    H146646   4.564   5.444   6.888
15587TIP3    H246647   4.439   5.512   6.832
15588TIP3   OH246648   4.584   5.753   7.031
15588TIP3    H146649   4.562   5.669   6.986
15588TIP3    H246650   4.496   5.793   7.041
15589TIP3   OH246651   3.787   6.958   5.161
15589TIP3    H146652   3.882   6.957   5.142
15589TIP3    H246653   3.755   7.007   5.083
15590TIP3   OH246654   3.270   6.334   5.391
15590TIP3    H146655   3.361   6.361   5.368
15590TIP3    H246656   3.262   6.250   5.341
15591TIP3   OH246657   3.182   6.953   5.791
15591TIP3    H146658   3.113   6.893   5.754
15591TIP3    H246659   3.225   6.894   5.856
15592TIP3   OH246660   3.323   6.804   5.974
15592TIP3    H146661   3.301   6.735   6.039
15592TIP3    H246662   3.370   6.868   6.030
15593TIP3   OH246663   5.042   7.210   5.777
15593TIP3    H146664   5.072   7.241   5.864
15593TIP3    H246665   5.107   7.248   5.717
15594TIP3   OH246666   5.074   7.227   6.061
15594TIP3    H146667   5.031   7.139   6.055
15594TIP3    H246668   5.150   7.204   6.116
15595TIP3   OH246669   5.120   6.904   6.632
15595TIP3    H146670   5.047   6.911   6.697
15595TIP3    H246671   5.161   6.992   6.638
15596TIP3   OH246672   4.935   6.417   5.253
15596TIP3    H146673   5.005   6.480   5.224
15596TIP3    H246674   4.978   6.377   5.332
15597TIP3   OH246675   5.062   6.286   5.456
15597TIP3    H146676   5.000   6.242   5.518
15597TIP3    H246677   5.132   6.320   5.517
15598TIP3   OH246678   5.114   6.673   5.886
15598TIP3    H146679   5.172   6.609   5.839
15598TIP3    H246680   5.110   6.748   5.823
15599TIP3   OH246681   4.950   6.976   6.083
15599TIP3    H146682   4.879   7.016   6.136
15599TIP3    H246683   4.901   6.926   6.015
15600TIP3   OH246684   5.001   6.190   5.104
15600TIP3    H146685   4.929   6.195   5.037
15600TIP3    H246686   4.976   6.267   5.160
15601TIP3   OH246687   4.870   5.866   5.059
15601TIP3    H146688   4.831   5.904   4.980
15601TIP3    H246689   4.847   5.771   5.048
15602TIP3   OH246690   4.876   6.139   5.603
15602TIP3    H146691   4.889   6.042   5.600
15602TIP3    H246692   4.865   6.155   5.699
15603TIP3   OH246693   3.512   6.206   6.343
15603TIP3    H146694   3.528   6.171   6.255
15603TIP3    H246695   3.604   6.213   6.377
15604TIP3   OH246696   5.167   6.564   6.460
15604TIP3    H146697   5.240   6.498   6.452
15604TIP3    H246698   5.196   6.632   6.396
15605TIP3   OH246699   5.352   6.371   6.486
15605TIP3    H146700   5.277   6.318   6.521
15605TIP3    H246701   5.425   6.306   6.495
15606TIP3   OH246702   4.821   5.600   5.042
15606TIP3    H146703   4.898   5.570   5.094
15606TIP3    H246704   4.752   5.536   5.066
15607TIP3   OH246705   4.873   5.855   5.497
15607TIP3    H146706   4.914   5.767   5.514
15607TIP3    H246707   4.933   5.888   5.429
15608TIP3   OH246708   5.037   6.033   5.991
15608TIP3    H146709   5.123   6.058   5.951
15608TIP3    H246710   5.051   6.067   6.082
15609TIP3   OH246711   5.104   6.173   6.227
15609TIP3    H146712   5.026   6.208   6.274
15609TIP3    H246713   5.137   6.253   6.180
15610TIP3   OH246714   3.723   5.898   7.015
15610TIP3    H146715   3.821   5.893   7.026
15610TIP3    H246716   3.697   5.817   7.063
15611TIP3   OH246717   5.558   5.765   6.783
15611TIP3    H146718   5.614   5.698   6.739
15611TIP3    H246719   5.529   5.820   6.707
15612TIP3   OH246720   4.982   5.606   5.537
15612TIP3    H146721   5.032   5.590   5.619
15612TIP3    H246722   4.924   5.527   5.535
15613TIP3   OH246723   3.705   5.610   6.383
15613TIP3    H146724   3.752   5.524   6.383
15613TIP3    H246725   3.755   5.658   6.317
15614TIP3   OH246726   3.509   5.862   6.446
15614TIP3    H146727   3.555   5.854   6.360
15614TIP3    H246728   3.503   5.958   6.455
15615TIP3   OH246729   5.427   5.905   6.590
15615TIP3    H146730   5.339   5.943   6.606
15615TIP3    H246731   5.403   5.833   6.529
15616TIP3   OH246732   5.064   5.545   5.165
15616TIP3    H146733   5.111   5.473   5.119
15616TIP3    H246734   5.132   5.616   5.165
15617TIP3   OH246735   3.468   5.385   5.941
15617TIP3    H146736   3.373   5.367   5.956
15617TIP3    H246737   3.466   5.432   5.854
15618TIP3   OH246738   4.627   7.072   5.436
15618TIP3    H146739   4.678   7.055   5.354
15618TIP3    H246740   4.683   7.138   5.480
15619TIP3   OH246741   3.689   5.476   6.742
15619TIP3    H146742   3.649   5.447   6.826
15619TIP3    H246743   3.610   5.481   6.685
15620TIP3   OH246744   3.729   6.875   6.821
15620TIP3    H146745   3.636   6.848   6.805
15620TIP3    H246746   3.740   6.857   6.915
15621TIP3   OH246747   3.907   6.906   6.367
15621TIP3    H146748   3.859   6.982   6.330
15621TIP3    H246749   3.994   6.921   6.324
15622TIP3   OH246750   4.353   7.154   6.507
15622TIP3    H146751   4.396   7.154   6.595
15622TIP3    H246752   4.420   7.204   6.454
15623TIP3   OH246753   4.532   7.304   6.364
15623TIP3    H146754   4.603   7.253   6.322
15623TIP3    H246755   4.584   7.362   6.424
15624TIP3   OH246756   5.326   5.667   6.465
15624TIP3    H146757   5.234   5.662   6.432
15624TIP3    H246758   5.356   5.575   6.452
15625TIP3   OH246759   3.583   7.162   6.393
15625TIP3    H146760   3.495   7.198   6.368
15625TIP3    H246761   3.593   7.201   6.480
15626TIP3   OH246762   3.820   7.142   6.249
15626TIP3    H146763   3.734   7.156   6.295
15626TIP3    H246764   3.800   7.178   6.160
15627TIP3   OH246765   4.245   7.173   6.048
15627TIP3    H146766   4.178   7.196   5.981
15627TIP3    H246767   4.260   7.261   6.090
15628TIP3   OH246768   4.515   7.113   6.098
15628TIP3    H146769   4.420   7.130   6.078
15628TIP3    H246770   4.558   7.189   6.056
15629TIP3   OH246771   4.722   7.305   6.014
15629TIP3    H146772   4.708   7.390   5.966
15629TIP3    H246773   4.748   7.245   5.941
15630TIP3   OH246774   3.496   6.960   6.135
15630TIP3    H146775   3.522   6.936   6.226
15630TIP3    H246776   3.569   6.918   6.085
15631TIP3   OH246777   3.689   6.832   5.991
15631TIP3    H146778   3.706   6.748   6.039
15631TIP3    H246779   3.778   6.872   5.988
15632TIP3   OH246780   3.952   6.927   5.998
15632TIP3    H146781   3.991   6.840   5.983
15632TIP3    H246782   3.996   6.952   6.081
15633TIP3   OH246783   4.524   5.579   6.073
15633TIP3    H146784   4.487   5.511   6.132
15633TIP3    H246785   4.603   5.534   6.037
15634TIP3   OH246786   5.055   5.462   5.990
15634TIP3    H146787   5.092   5.514   5.915
15634TIP3    H246788   4.960   5.483   5.983
15635TIP3   OH246789   5.149   5.563   5.753
15635TIP3    H146790   5.222   5.510   5.713
15635TIP3    H246791   5.184   5.654   5.738
15636TIP3   OH246792   3.779   5.292   6.102
15636TIP3    H146793   3.688   5.256   6.102
15636TIP3    H246794   3.831   5.208   6.098
15637TIP3   OH246795   3.562   5.164   5.751
15637TIP3    H146796   3.600   5.222   5.683
15637TIP3    H246797   3.535   5.226   5.820
15638TIP3   OH246798   4.219   5.328   5.981
15638TIP3    H146799   4.281   5.376   5.923
15638TIP3    H246800   4.248   5.357   6.069
15639TIP3   OH246801   4.768   5.470   5.966
15639TIP3    H146802   4.772   5.433   5.877
15639TIP3    H246803   4.756   5.388   6.020
15640TIP3   OH246804   4.798   5.392   5.527
15640TIP3    H146805   4.711   5.433   5.540
15640TIP3    H246806   4.786   5.307   5.574
15641TIP3   OH246807   3.284   6.731   5.534
15641TIP3    H146808   3.200   6.698   5.498
15641TIP3    H246809   3.274   6.825   5.511
15642TIP3   OH246810   3.683   5.322   5.509
15642TIP3    H146811   3.733   5.258   5.457
15642TIP3    H246812   3.754   5.376   5.548
15643TIP3   OH246813   4.197   5.494   5.611
15643TIP3    H146814   4.257   5.449   5.673
15643TIP3    H246815   4.217   5.587   5.636
15644TIP3   OH246816   4.056   6.921   5.111
15644TIP3    H146817   4.144   6.944   5.074
15644TIP3    H246818   4.033   6.846   5.052
15645TIP3   OH246819   4.772   7.038   5.203
15645TIP3    H146820   4.764   6.940   5.189
15645TIP3    H246821   4.730   7.072   5.122
15646TIP3   OH246822   3.988   5.555   6.992
15646TIP3    H146823   3.966   5.489   7.060
15646TIP3    H246824   4.083   5.568   7.011
15647TIP3   OH246825   4.238   5.567   7.120
15647TIP3    H146826   4.319   5.574   7.068
15647TIP3    H246827   4.266   5.500   7.185
15648TIP3   OH246828   3.359   6.754   5.167
15648TIP3    H146829   3.360   6.789   5.258
15648TIP3    H246830   3.448   6.715   5.158
15649TIP3   OH246831   5.060   5.630   6.897
15649TIP3    H146832   5.079   5.601   6.988
15649TIP3    H246833   5.149   5.625   6.855
15650TIP3   OH246834   5.000   7.183   6.392
15650TIP3    H146835   4.922   7.151   6.344
15650TIP3    H246836   4.981   7.279   6.394
15651TIP3   OH246837   6.269   6.556   5.154
15651TIP3    H146838   6.240   6.648   5.135
15651TIP3    H246839   6.189   6.507   5.129
15652TIP3   OH246840   6.267   6.553   5.537
15652TIP3    H146841   6.297   6.525   5.625
15652TIP3    H246842   6.222   6.473   5.506
15653TIP3   OH246843   5.565   6.456   5.911
15653TIP3    H146844   5.593   6.385   5.972
15653TIP3    H246845   5.650   6.478   5.868
15654TIP3   OH246846   6.510   6.854   5.219
15654TIP3    H146847   6.494   6.787   5.286
15654TIP3    H246848   6.537   6.931   5.273
15655TIP3   OH246849   5.535   6.857   5.629
15655TIP3    H146850   5.525   6.760   5.631
15655TIP3    H246851   5.632   6.864   5.625
15656TIP3   OH246852   5.240   6.062   5.414
15656TIP3    H146853   5.195   6.147   5.427
15656TIP3    H246854   5.169   6.009   5.375
15657TIP3   OH246855   5.304   6.343   5.584
15657TIP3    H146856   5.355   6.268   5.623
15657TIP3    H246857   5.368   6.378   5.520
15658TIP3   OH246858   6.157   7.318   5.234
15658TIP3    H146859   6.205   7.247   5.187
15658TIP3    H246860   6.152   7.282   5.324
15659TIP3   OH246861   6.064   6.782   5.585
15659TIP3    H146862   6.098   6.703   5.539
15659TIP3    H246863   6.149   6.824   5.608
15660TIP3   OH246864   7.077   6.101   5.582
15660TIP3    H146865   7.105   6.183   5.626
15660TIP3    H246866   7.106   6.117   5.490
15661TIP3   OH246867   6.485   6.286   5.618
15661TIP3    H146868   6.521   6.197   5.638
15661TIP3    H246869   6.445   6.270   5.530
15662TIP3   OH246870   6.504   6.027   5.211
15662TIP3    H146871   6.577   6.013   5.275
15662TIP3    H246872   6.554   6.064   5.137
15663TIP3   OH246873   5.464   6.140   5.695
15663TIP3    H146874   5.558   6.151   5.715
15663TIP3    H246875   5.470   6.082   5.616
15664TIP3   OH246876   5.886   6.343   5.489
15664TIP3    H146877   5.976   6.309   5.508
15664TIP3    H246878   5.841   6.260   5.459
15665TIP3   OH246879   7.150   6.309   5.752
15665TIP3    H146880   7.066   6.356   5.734
15665TIP3    H246881   7.160   6.327   5.847
15666TIP3   OH246882   5.813   5.930   6.021
15666TIP3    H146883   5.788   5.972   5.937
15666TIP3    H246884   5.745   5.959   6.084
15667TIP3   OH246885   6.163   6.779   5.024
15667TIP3    H146886   6.114   6.753   4.945
15667TIP3    H246887   6.117   6.862   5.048
15668TIP3   OH246888   5.925   6.702   5.819
15668TIP3    H146889   5.857   6.763   5.854
15668TIP3    H246890   5.962   6.752   5.744
15669TIP3   OH246891   6.721   6.035   5.376
15669TIP3    H146892   6.706   5.986   5.458
15669TIP3    H246893   6.772   6.112   5.407
15670TIP3   OH246894   5.745   6.893   5.911
15670TIP3    H146895   5.718   6.978   5.872
15670TIP3    H246896   5.666   6.876   5.967
15671TIP3   OH246897   5.139   6.584   5.148
15671TIP3    H146898   5.100   6.610   5.063
15671TIP3    H246899   5.171   6.669   5.184
15672TIP3   OH246900   6.580   7.098   5.387
15672TIP3    H146901   6.490   7.090   5.427
15672TIP3    H246902   6.572   7.185   5.342
15673TIP3   OH246903   6.871   6.001   5.751
15673TIP3    H146904   6.783   6.030   5.722
15673TIP3    H246905   6.928   6.032   5.677
15674TIP3   OH246906   6.174   5.646   5.734
15674TIP3    H146907   6.155   5.552   5.747
15674TIP3    H246908   6.094   5.685   5.777
15675TIP3   OH246909   6.284   7.146   5.062
15675TIP3    H146910   6.334   7.065   5.040
15675TIP3    H246911   6.342   7.213   5.020
15676TIP3   OH246912   6.426   6.930   4.967
15676TIP3    H146913   6.376   6.854   4.935
15676TIP3    H246914   6.462   6.896   5.051
15677TIP3   OH246915   6.807   7.014   5.730
15677TIP3    H146916   6.795   6.936   5.672
15677TIP3    H246917   6.789   7.088   5.669
15678TIP3   OH246918   6.096   6.405   4.986
15678TIP3    H146919   6.014   6.455   4.966
15678TIP3    H246920   6.141   6.405   4.900
15679TIP3   OH246921   6.056   6.190   4.704
15679TIP3    H146922   6.124   6.239   4.755
15679TIP3    H246923   6.114   6.128   4.656
15680TIP3   OH246924   7.002   6.651   5.576
15680TIP3    H146925   6.919   6.702   5.582
15680TIP3    H246926   7.029   6.672   5.484
15681TIP3   OH246927   6.447   6.488   4.960
15681TIP3    H146928   6.389   6.514   5.036
15681TIP3    H246929   6.528   6.461   5.008
15682TIP3   OH246930   6.681   6.529   5.869
15682TIP3    H146931   6.676   6.613   5.919
15682TIP3    H246932   6.593   6.531   5.825
15683TIP3   OH246933   5.680   6.488   5.372
15683TIP3    H146934   5.640   6.428   5.306
15683TIP3    H246935   5.753   6.434   5.407
15684TIP3   OH246936   5.807   6.900   5.524
15684TIP3    H146937   5.786   6.852   5.442
15684TIP3    H246938   5.897   6.866   5.543
15685TIP3   OH246939   5.785   6.478   5.724
15685TIP3    H146940   5.831   6.430   5.652
15685TIP3    H246941   5.851   6.544   5.751
15686TIP3   OH246942   6.339   7.096   5.507
15686TIP3    H146943   6.325   7.175   5.562
15686TIP3    H246944   6.325   7.022   5.570
15687TIP3   OH246945   5.950   7.015   6.054
15687TIP3    H146946   5.891   7.078   6.100
15687TIP3    H246947   5.885   6.961   6.005
15688TIP3   OH246948   6.289   6.345   4.786
15688TIP3    H146949   6.346   6.406   4.838
15688TIP3    H246950   6.313   6.371   4.694
15689TIP3   OH246951   5.712   6.573   6.162
15689TIP3    H146952   5.706   6.660   6.206
15689TIP3    H246953   5.618   6.553   6.149
15690TIP3   OH246954   6.028   7.027   5.060
15690TIP3    H146955   6.106   7.082   5.080
15690TIP3    H246956   5.966   7.090   5.022
15691TIP3   OH246957   5.745   7.185   6.140
15691TIP3    H146958   5.711   7.181   6.049
15691TIP3    H246959   5.665   7.163   6.193
15692TIP3   OH246960   6.794   5.597   4.833
15692TIP3    H146961   6.715   5.613   4.888
15692TIP3    H246962   6.807   5.683   4.789
15693TIP3   OH246963   5.548   6.335   5.172
15693TIP3    H146964   5.472   6.368   5.120
15693TIP3    H246965   5.517   6.249   5.202
15694TIP3   OH246966   6.599   6.955   4.382
15694TIP3    H146967   6.606   7.052   4.367
15694TIP3    H246968   6.692   6.927   4.369
15695TIP3   OH246969   5.323   6.716   6.087
15695TIP3    H146970   5.262   6.688   6.016
15695TIP3    H246971   5.361   6.631   6.117
15696TIP3   OH246972   5.179   6.905   5.721
15696TIP3    H146973   5.274   6.895   5.710
15696TIP3    H246974   5.174   6.985   5.777
15697TIP3   OH246975   7.044   7.357   5.776
15697TIP3    H146976   7.042   7.260   5.790
15697TIP3    H246977   6.960   7.382   5.821
15698TIP3   OH246978   6.149   7.145   5.910
15698TIP3    H146979   6.148   7.237   5.943
15698TIP3    H246980   6.078   7.105   5.965
15699TIP3   OH246981   5.908   7.273   4.863
15699TIP3    H146982   5.863   7.253   4.779
15699TIP3    H246983   5.877   7.363   4.884
15700TIP3   OH246984   5.347   7.122   5.246
15700TIP3    H146985   5.395   7.112   5.331
15700TIP3    H246986   5.290   7.043   5.249
15701TIP3   OH246987   6.111   7.174   4.504
15701TIP3    H146988   6.170   7.104   4.467
15701TIP3    H246989   6.146   7.182   4.595
15702TIP3   OH246990   6.160   7.222   4.774
15702TIP3    H146991   6.072   7.231   4.816
15702TIP3    H246992   6.211   7.181   4.846
15703TIP3   OH246993   6.935   6.491   6.049
15703TIP3    H146994   6.852   6.503   5.999
15703TIP3    H246995   6.949   6.395   6.040
15704TIP3   OH246996   5.529   6.899   6.079
15704TIP3    H146997   5.580   6.879   6.160
15704TIP3    H246998   5.456   6.833   6.084
15705TIP3   OH246999   5.932   5.715   5.854
15705TIP3    H147000   5.838   5.691   5.840
15705TIP3    H247001   5.921   5.813   5.852
15706TIP3   OH247002   6.461   5.836   6.054
15706TIP3    H147003   6.528   5.809   6.121
15706TIP3    H247004   6.376   5.816   6.099
15707TIP3   OH247005   6.706   6.266   5.976
15707TIP3    H147006   6.655   6.261   6.060
15707TIP3    H247007   6.676   6.351   5.938
15708TIP3   OH247008   6.363   6.396   4.530
15708TIP3    H147009   6.330   6.367   4.443
15708TIP3    H247010   6.439   6.450   4.503
15709TIP3   OH247011   6.076   5.769   4.831
15709TIP3    H147012   6.045   5.769   4.924
15709TIP3    H247013   6.035   5.686   4.801
15710TIP3   OH247014   5.733   6.143   5.373
15710TIP3    H147015   5.670   6.093   5.428
15710TIP3    H247016   5.748   6.079   5.301
15711TIP3   OH247017   6.235   6.209   5.121
15711TIP3    H147018   6.180   6.280   5.081
15711TIP3    H247019   6.285   6.178   5.044
15712TIP3   OH247020   6.410   6.488   6.210
15712TIP3    H147021   6.387   6.414   6.270
15712TIP3    H247022   6.504   6.500   6.231
15713TIP3   OH247023   6.396   6.238   5.359
15713TIP3    H147024   6.333   6.267   5.290
15713TIP3    H247025   6.425   6.153   5.318
15714TIP3   OH247026   5.650   6.271   6.103
15714TIP3    H147027   5.715   6.325   6.149
15714TIP3    H247028   5.663   6.184   6.144
15715TIP3   OH247029   5.726   5.737   4.795
15715TIP3    H147030   5.723   5.738   4.893
15715TIP3    H247031   5.651   5.796   4.774
15716TIP3   OH247032   5.274   5.786   5.669
15716TIP3    H147033   5.348   5.820   5.723
15716TIP3    H247034   5.319   5.758   5.588
15717TIP3   OH247035   5.245   5.767   5.185
15717TIP3    H147036   5.292   5.808   5.109
15717TIP3    H247037   5.187   5.840   5.211
15718TIP3   OH247038   6.406   6.485   5.782
15718TIP3    H147039   6.438   6.411   5.724
15718TIP3    H247040   6.376   6.433   5.860
15719TIP3   OH247041   6.063   5.947   5.459
15719TIP3    H147042   5.983   5.967   5.512
15719TIP3    H247043   6.129   5.945   5.531
15720TIP3   OH247044   5.508   5.994   5.470
15720TIP3    H147045   5.417   5.995   5.435
15720TIP3    H247046   5.543   5.907   5.440
15721TIP3   OH247047   5.779   5.984   5.148
15721TIP3    H147048   5.871   6.012   5.132
15721TIP3    H247049   5.731   6.017   5.069
15722TIP3   OH247050   6.561   6.018   5.654
15722TIP3    H147051   6.529   6.031   5.746
15722TIP3    H247052   6.493   5.957   5.620
15723TIP3   OH247053   5.613   6.031   4.929
15723TIP3    H147054   5.541   5.988   4.879
15723TIP3    H247055   5.666   6.067   4.856
15724TIP3   OH247056   6.733   7.708   5.875
15724TIP3    H147057   6.731   7.731   5.780
15724TIP3    H247058   6.811   7.757   5.906
15725TIP3   OH247059   5.688   6.822   6.298
15725TIP3    H147060   5.769   6.849   6.345
15725TIP3    H247061   5.625   6.819   6.372
15726TIP3   OH247062   6.160   6.275   5.559
15726TIP3    H147063   6.221   6.223   5.505
15726TIP3    H247064   6.161   6.226   5.643
15727TIP3   OH247065   5.647   5.756   5.403
15727TIP3    H147066   5.638   5.687   5.470
15727TIP3    H247067   5.741   5.751   5.380
15728TIP3   OH247068   6.146   6.164   5.844
15728TIP3    H147069   6.053   6.188   5.834
15728TIP3    H247070   6.186   6.236   5.896
15729TIP3   OH247071   5.868   6.559   4.936
15729TIP3    H147072   5.795   6.494   4.926
15729TIP3    H247073   5.851   6.593   5.028
15730TIP3   OH247074   6.769   6.795   5.567
15730TIP3    H147075   6.793   6.844   5.485
15730TIP3    H247076   6.683   6.755   5.543
15731TIP3   OH247077   6.324   5.874   4.786
15731TIP3    H147078   6.229   5.856   4.803
15731TIP3    H247079   6.335   5.967   4.817
15732TIP3   OH247080   6.273   6.880   5.933
15732TIP3    H147081   6.287   6.852   6.024
15732TIP3    H247082   6.229   6.966   5.943
15733TIP3   OH247083   6.392   6.115   4.900
15733TIP3    H147084   6.487   6.123   4.920
15733TIP3    H247085   6.373   6.196   4.849
15734TIP3   OH247086   5.553   6.577   5.607
15734TIP3    H147087   5.593   6.553   5.521
15734TIP3    H247088   5.614   6.531   5.667
15735TIP3   OH247089   6.013   6.708   4.757
15735TIP3    H147090   5.966   6.795   4.764
15735TIP3    H247091   5.958   6.653   4.817
15736TIP3   OH247092   5.431   6.511   6.231
15736TIP3    H147093   5.464   6.491   6.320
15736TIP3    H247094   5.378   6.433   6.211
15737TIP3   OH247095   6.165   6.615   6.247
15737TIP3    H147096   6.105   6.558   6.194
15737TIP3    H247097   6.252   6.582   6.218
15738TIP3   OH247098   6.429   7.140   5.827
15738TIP3    H147099   6.333   7.135   5.840
15738TIP3    H247100   6.456   7.190   5.907
15739TIP3   OH247101   7.056   7.066   5.820
15739TIP3    H147102   6.958   7.061   5.812
15739TIP3    H247103   7.082   7.036   5.729
15740TIP3   OH247104   6.539   7.028   4.647
15740TIP3    H147105   6.511   6.958   4.707
15740TIP3    H247106   6.550   6.981   4.562
15741TIP3   OH247107   6.533   6.658   5.485
15741TIP3    H147108   6.440   6.631   5.499
15741TIP3    H247109   6.568   6.578   5.441
15742TIP3   OH247110   5.660   6.884   5.237
15742TIP3    H147111   5.662   6.966   5.184
15742TIP3    H247112   5.565   6.868   5.245
15743TIP3   OH247113   5.223   6.189   4.939
15743TIP3    H147114   5.271   6.272   4.960
15743TIP3    H247115   5.147   6.196   5.001
15744TIP3   OH247116   5.803   6.653   5.182
15744TIP3    H147117   5.765   6.740   5.202
15744TIP3    H247118   5.767   6.599   5.255
15745TIP3   OH247119   5.930   7.229   5.708
15745TIP3    H147120   5.971   7.301   5.656
15745TIP3    H247121   6.007   7.194   5.756
15746TIP3   OH247122   5.581   7.124   5.090
15746TIP3    H147123   5.495   7.132   5.136
15746TIP3    H247124   5.612   7.217   5.093
15747TIP3   OH247125   6.321   6.864   5.664
15747TIP3    H147126   6.311   6.863   5.762
15747TIP3    H247127   6.399   6.808   5.652
15748TIP3   OH247128   6.291   6.754   4.547
15748TIP3    H147129   6.343   6.729   4.627
15748TIP3    H247130   6.202   6.729   4.577
15749TIP3   OH247131   6.568   7.398   5.717
15749TIP3    H147132   6.490   7.339   5.710
15749TIP3    H247133   6.551   7.461   5.644
15750TIP3   OH247134   6.633   7.231   4.368
15750TIP3    H147135   6.670   7.302   4.313
15750TIP3    H247136   6.553   7.278   4.401
15751TIP3   OH247137   5.652   6.012   6.236
15751TIP3    H147138   5.556   6.013   6.248
15751TIP3    H247139   5.681   5.945   6.300
15752TIP3   OH247140   6.452   6.686   4.762
15752TIP3    H147141   6.443   6.623   4.836
15752TIP3    H247142   6.549   6.686   4.750
15753TIP3   OH247143   5.367   7.093   5.868
15753TIP3    H147144   5.419   7.015   5.895
15753TIP3    H247145   5.401   7.159   5.929
15754TIP3   OH247146   5.660   6.736   4.547
15754TIP3    H147147   5.674   6.644   4.518
15754TIP3    H247148   5.641   6.723   4.642
15755TIP3   OH247149   5.605   6.741   4.820
15755TIP3    H147150   5.675   6.713   4.881
15755TIP3    H247151   5.610   6.839   4.827
15756TIP3   OH247152   5.336   6.433   5.020
15756TIP3    H147153   5.273   6.479   5.079
15756TIP3    H247154   5.355   6.503   4.956
15757TIP3   OH247155   6.493   6.071   5.913
15757TIP3    H147156   6.570   6.108   5.958
15757TIP3    H247157   6.473   5.991   5.966
15758TIP3   OH247158   6.370   5.822   5.076
15758TIP3    H147159   6.354   5.852   4.985
15758TIP3    H247160   6.408   5.903   5.118
15759TIP3   OH247161   5.870   6.939   4.769
15759TIP3    H147162   5.784   6.967   4.804
15759TIP3    H247163   5.887   7.010   4.705
15760TIP3   OH247164   6.063   5.999   5.183
15760TIP3    H147165   6.125   6.073   5.169
15760TIP3    H247166   6.060   5.994   5.281
15761TIP3   OH247167   6.331   6.327   5.991
15761TIP3    H147168   6.350   6.379   6.072
15761TIP3    H247169   6.381   6.245   6.005
15762TIP3   OH247170   6.203   5.731   5.288
15762TIP3    H147171   6.190   5.808   5.346
15762TIP3    H247172   6.263   5.769   5.220
15763TIP3   OH247173   5.613   7.014   4.835
15763TIP3    H147174   5.583   7.084   4.772
15763TIP3    H247175   5.597   7.058   4.922
15764TIP3   OH247176   5.716   5.724   5.068
15764TIP3    H147177   5.711   5.811   5.113
15764TIP3    H247178   5.811   5.705   5.083
15765TIP3   OH247179   6.970   6.222   5.967
15765TIP3    H147180   6.872   6.222   5.978
15765TIP3    H247181   6.976   6.178   5.881
15766TIP3   OH247182   6.620   6.417   5.357
15766TIP3    H147183   6.543   6.359   5.372
15766TIP3    H247184   6.690   6.370   5.407
15767TIP3   OH247185   5.331   6.647   4.829
15767TIP3    H147186   5.397   6.718   4.837
15767TIP3    H247187   5.377   6.592   4.762
15768TIP3   OH247188   5.278   5.919   4.959
15768TIP3    H147189   5.279   6.017   4.956
15768TIP3    H247190   5.189   5.900   4.927
15769TIP3   OH247191   6.587   7.370   5.309
15769TIP3    H147192   6.545   7.417   5.234
15769TIP3    H247193   6.682   7.389   5.288
15770TIP3   OH247194   5.662   5.640   5.840
15770TIP3    H147195   5.633   5.610   5.751
15770TIP3    H247196   5.652   5.560   5.894
15771TIP3   OH247197   5.205   6.862   5.219
15771TIP3    H147198   5.130   6.891   5.271
15771TIP3    H247199   5.182   6.900   5.131
15772TIP3   OH247200   5.358   7.398   6.289
15772TIP3    H147201   5.445   7.397   6.334
15772TIP3    H247202   5.338   7.303   6.285
15773TIP3   OH247203   5.842   7.366   6.331
15773TIP3    H147204   5.936   7.345   6.340
15773TIP3    H247205   5.817   7.308   6.257
15774TIP3   OH247206   5.823   6.941   4.462
15774TIP3    H147207   5.767   6.869   4.499
15774TIP3    H247208   5.897   6.889   4.427
15775TIP3   OH247209   6.480   7.271   6.065
15775TIP3    H147210   6.471   7.200   6.133
15775TIP3    H247211   6.558   7.321   6.096
15776TIP3   OH247212   6.259   6.983   4.371
15776TIP3    H147213   6.306   6.919   4.428
15776TIP3    H247214   6.314   6.984   4.290
15777TIP3   OH247215   5.489   6.805   6.490
15777TIP3    H147216   5.508   6.709   6.490
15777TIP3    H247217   5.402   6.807   6.444
15778TIP3   OH247218   5.467   6.458   4.681
15778TIP3    H147219   5.522   6.424   4.754
15778TIP3    H247220   5.534   6.462   4.610
15779TIP3   OH247221   6.097   6.890   6.261
15779TIP3    H147222   6.056   6.904   6.174
15779TIP3    H247223   6.129   6.797   6.255
15780TIP3   OH247224   5.976   6.655   4.488
15780TIP3    H147225   5.977   6.668   4.585
15780TIP3    H247226   5.975   6.557   4.484
15781TIP3   OH247227   6.592   6.897   5.867
15781TIP3    H147228   6.664   6.946   5.823
15781TIP3    H247229   6.518   6.959   5.856
15782TIP3   OH247230   5.606   6.541   6.470
15782TIP3    H147231   5.681   6.486   6.443
15782TIP3    H247232   5.635   6.571   6.558
15783TIP3   OH247233   5.675   6.361   4.903
15783TIP3    H147234   5.648   6.326   4.989
15783TIP3    H247235   5.709   6.282   4.857
15784TIP3   OH247236   5.942   6.423   6.134
15784TIP3    H147237   5.865   6.483   6.139
15784TIP3    H247238   5.987   6.455   6.053
15785TIP3   OH247239   5.776   6.151   4.744
15785TIP3    H147240   5.748   6.155   4.650
15785TIP3    H247241   5.873   6.161   4.736
15786TIP3   OH247242   6.461   6.827   6.266
15786TIP3    H147243   6.541   6.804   6.218
15786TIP3    H247244   6.458   6.759   6.336
15787TIP3   OH247245   6.611   6.485   4.409
15787TIP3    H147246   6.584   6.436   4.328
15787TIP3    H247247   6.576   6.574   4.385
15788TIP3   OH247248   6.068   6.212   6.259
15788TIP3    H147249   6.066   6.132   6.202
15788TIP3    H247250   6.023   6.278   6.201
15789TIP3   OH247251   6.071   5.998   6.064
15789TIP3    H147252   6.098   6.036   5.978
15789TIP3    H247253   5.978   5.971   6.045
15790TIP3   OH247254   6.101   6.535   5.941
15790TIP3    H147255   6.181   6.540   5.886
15790TIP3    H247256   6.044   6.603   5.898
15791TIP3   OH247257   6.680   6.503   6.320
15791TIP3    H147258   6.727   6.419   6.332
15791TIP3    H247259   6.749   6.561   6.286
15792TIP3   OH247260   6.721   6.755   6.056
15792TIP3    H147261   6.663   6.808   5.996
15792TIP3    H247262   6.808   6.774   6.015
15793TIP3   OH247263   5.945   6.326   6.489
15793TIP3    H147264   5.876   6.258   6.500
15793TIP3    H247265   5.980   6.303   6.400
15794TIP3   OH247266   6.201   5.764   6.131
15794TIP3    H147267   6.154   5.847   6.108
15794TIP3    H247268   6.131   5.697   6.117
15795TIP3   OH247269   6.328   6.269   6.347
15795TIP3    H147270   6.316   6.257   6.443
15795TIP3    H247271   6.238   6.243   6.317
15796TIP3   OH247272   6.568   6.216   6.202
15796TIP3    H147273   6.491   6.218   6.263
15796TIP3    H247274   6.640   6.185   6.260
15797TIP3   OH247275   6.798   6.157   6.354
15797TIP3    H147276   6.809   6.061   6.374
15797TIP3    H247277   6.792   6.197   6.443
15798TIP3   OH247278   5.783   6.107   6.541
15798TIP3    H147279   5.791   6.018   6.502
15798TIP3    H247280   5.820   6.091   6.630
15799TIP3   OH247281   6.296   5.772   6.389
15799TIP3    H147282   6.364   5.702   6.382
15799TIP3    H247283   6.256   5.767   6.300
15800TIP3   OH247284   6.362   5.987   6.548
15800TIP3    H147285   6.339   5.917   6.483
15800TIP3    H247286   6.285   6.047   6.541
15801TIP3   OH247287   5.583   7.216   4.648
15801TIP3    H147288   5.678   7.213   4.629
15801TIP3    H247289   5.552   7.264   4.569
15802TIP3   OH247290   5.063   6.598   4.865
15802TIP3    H147291   5.158   6.621   4.852
15802TIP3    H247292   5.058   6.509   4.823
15803TIP3   OH247293   4.975   7.210   5.279
15803TIP3    H147294   4.908   7.148   5.243
15803TIP3    H247295   5.021   7.154   5.345
15804TIP3   OH247296   5.112   7.064   5.465
15804TIP3    H147297   5.103   6.988   5.525
15804TIP3    H247298   5.164   7.125   5.521
15805TIP3   OH247299   6.840   7.462   5.264
15805TIP3    H147300   6.866   7.496   5.351
15805TIP3    H247301   6.901   7.508   5.204
15806TIP3   OH247302   6.870   7.483   5.546
15806TIP3    H147303   6.827   7.395   5.542
15806TIP3    H247304   6.945   7.461   5.604
15807TIP3   OH247305   6.916   7.160   6.119
15807TIP3    H147306   6.843   7.167   6.183
15807TIP3    H247307   6.957   7.248   6.124
15808TIP3   OH247308   6.737   6.664   4.734
15808TIP3    H147309   6.800   6.735   4.708
15808TIP3    H247310   6.777   6.634   4.818
15809TIP3   OH247311   6.861   6.537   4.943
15809TIP3    H147312   6.795   6.501   5.006
15809TIP3    H247313   6.927   6.578   5.003
15810TIP3   OH247314   6.914   6.931   5.376
15810TIP3    H147315   6.968   6.868   5.324
15810TIP3    H247316   6.905   7.006   5.314
15811TIP3   OH247317   6.746   7.232   5.571
15811TIP3    H147318   6.675   7.274   5.623
15811TIP3    H247319   6.695   7.184   5.502
15812TIP3   OH247320   6.794   6.426   4.605
15812TIP3    H147321   6.725   6.431   4.533
15812TIP3    H247322   6.767   6.507   4.654
15813TIP3   OH247323   6.678   6.390   5.093
15813TIP3    H147324   6.673   6.294   5.098
15813TIP3    H247325   6.663   6.415   5.187
15814TIP3   OH247326   5.302   6.474   5.836
15814TIP3    H147327   5.303   6.441   5.743
15814TIP3    H247328   5.398   6.476   5.855
15815TIP3   OH247329   6.963   6.820   5.946
15815TIP3    H147330   7.036   6.755   5.937
15815TIP3    H247331   6.990   6.891   5.886
15816TIP3   OH247332   7.151   6.628   5.963
15816TIP3    H147333   7.075   6.579   6.001
15816TIP3    H247334   7.222   6.563   5.979
15817TIP3   OH247335   6.617   5.855   4.537
15817TIP3    H147336   6.691   5.827   4.593
15817TIP3    H247337   6.544   5.798   4.564
15818TIP3   OH247338   6.662   6.105   4.996
15818TIP3    H147339   6.698   6.014   5.008
15818TIP3    H247340   6.733   6.145   4.946
15819TIP3   OH247341   6.832   6.287   5.479
15819TIP3    H147342   6.919   6.314   5.440
15819TIP3    H247343   6.844   6.322   5.569
15820TIP3   OH247344   6.900   6.430   5.712
15820TIP3    H147345   6.822   6.463   5.761
15820TIP3    H247346   6.932   6.511   5.668
15821TIP3   OH247347   5.516   6.157   6.513
15821TIP3    H147348   5.613   6.150   6.510
15821TIP3    H247349   5.493   6.071   6.554
15822TIP3   OH247350   7.346   6.019   6.265
15822TIP3    H147351   7.409   5.957   6.223
15822TIP3    H247352   7.323   6.079   6.191
15823TIP3   OH247353   6.780   5.859   5.021
15823TIP3    H147354   6.828   5.845   5.106
15823TIP3    H247355   6.719   5.782   5.022
15824TIP3   OH247356   5.480   5.849   5.846
15824TIP3    H147357   5.546   5.777   5.854
15824TIP3    H247358   5.537   5.924   5.826
15825TIP3   OH247359   5.283   6.124   5.911
15825TIP3    H147360   5.339   6.113   5.832
15825TIP3    H247361   5.318   6.206   5.947
15826TIP3   OH247362   7.225   6.166   6.071
15826TIP3    H147363   7.138   6.202   6.097
15826TIP3    H247364   7.196   6.092   6.015
15827TIP3   OH247365   6.880   5.805   4.656
15827TIP3    H147366   6.904   5.718   4.616
15827TIP3    H247367   6.922   5.864   4.592
15828TIP3   OH247368   5.263   5.622   5.413
15828TIP3    H147369   5.170   5.626   5.442
15828TIP3    H247370   5.264   5.684   5.338
15829TIP3   OH247371   6.424   7.328   4.922
15829TIP3    H147372   6.475   7.313   4.840
15829TIP3    H247373   6.478   7.396   4.966
15830TIP3   OH247374   5.485   5.706   6.232
15830TIP3    H147375   5.434   5.701   6.314
15830TIP3    H247376   5.419   5.744   6.170
15831TIP3   OH247377   5.524   7.136   6.308
15831TIP3    H147378   5.434   7.104   6.290
15831TIP3    H247379   5.536   7.112   6.401
15832TIP3   OH247380   5.702   7.165   5.856
15832TIP3    H147381   5.655   7.241   5.816
15832TIP3    H247382   5.789   7.177   5.812
15833TIP3   OH247383   6.149   7.411   5.994
15833TIP3    H147384   6.191   7.411   6.082
15833TIP3    H247385   6.216   7.460   5.941
15834TIP3   OH247386   6.328   7.561   5.850
15834TIP3    H147387   6.399   7.509   5.810
15834TIP3    H247388   6.380   7.618   5.911
15835TIP3   OH247389   7.121   5.926   5.952
15835TIP3    H147390   7.029   5.921   5.919
15835TIP3    H247391   7.150   5.833   5.939
15836TIP3   OH247392   5.380   7.423   5.877
15836TIP3    H147393   5.291   7.458   5.854
15836TIP3    H247394   5.388   7.454   5.968
15837TIP3   OH247395   5.617   7.402   5.736
15837TIP3    H147396   5.530   7.414   5.781
15837TIP3    H247397   5.597   7.434   5.646
15838TIP3   OH247398   6.043   7.431   5.534
15838TIP3    H147399   5.974   7.451   5.468
15838TIP3    H247400   6.056   7.518   5.576
15839TIP3   OH247401   6.311   7.371   5.585
15839TIP3    H147402   6.216   7.386   5.565
15839TIP3    H247403   6.353   7.447   5.543
15840TIP3   OH247404   6.520   7.562   5.501
15840TIP3    H147405   6.505   7.647   5.453
15840TIP3    H247406   6.544   7.502   5.428
15841TIP3   OH247407   5.291   7.216   5.625
15841TIP3    H147408   5.319   7.190   5.715
15841TIP3    H247409   5.363   7.173   5.573
15842TIP3   OH247410   5.484   7.087   5.481
15842TIP3    H147411   5.501   7.002   5.528
15842TIP3    H247412   5.575   7.124   5.476
15843TIP3   OH247413   5.751   7.183   5.482
15843TIP3    H147414   5.782   7.091   5.469
15843TIP3    H247415   5.795   7.203   5.567
15844TIP3   OH247416   6.333   5.841   5.572
15844TIP3    H147417   6.284   5.776   5.626
15844TIP3    H247418   6.399   5.786   5.527
15845TIP3   OH247419   6.854   5.718   5.474
15845TIP3    H147420   6.889   5.774   5.401
15845TIP3    H247421   6.758   5.736   5.469
15846TIP3   OH247422   6.948   5.829   5.238
15846TIP3    H147423   7.020   5.773   5.201
15846TIP3    H247424   6.984   5.919   5.226
15847TIP3   OH247425   5.577   5.547   5.593
15847TIP3    H147426   5.485   5.515   5.588
15847TIP3    H247427   5.627   5.463   5.585
15848TIP3   OH247428   5.351   5.421   5.237
15848TIP3    H147429   5.389   5.482   5.171
15848TIP3    H247430   5.327   5.483   5.309
15849TIP3   OH247431   6.020   5.577   5.467
15849TIP3    H147432   6.078   5.632   5.412
15849TIP3    H247433   6.025   5.622   5.552
15850TIP3   OH247434   6.573   5.725   5.449
15850TIP3    H147435   6.564   5.688   5.361
15850TIP3    H247436   6.557   5.645   5.506
15851TIP3   OH247437   6.593   5.651   5.015
15851TIP3    H147438   6.506   5.693   5.030
15851TIP3    H247439   6.581   5.565   5.061
15852TIP3   OH247440   5.079   6.987   5.016
15852TIP3    H147441   4.994   6.954   4.980
15852TIP3    H247442   5.068   7.082   4.997
15853TIP3   OH247443   5.482   5.581   4.991
15853TIP3    H147444   5.552   5.516   4.976
15853TIP3    H247445   5.534   5.650   5.037
15854TIP3   OH247446   5.996   5.748   5.096
15854TIP3    H147447   6.054   5.707   5.162
15854TIP3    H247448   6.009   5.842   5.121
15855TIP3   OH247449   5.851   7.178   4.597
15855TIP3    H147450   5.939   7.200   4.560
15855TIP3    H247451   5.829   7.102   4.538
15856TIP3   OH247452   6.570   7.295   4.690
15856TIP3    H147453   6.562   7.197   4.676
15856TIP3    H247454   6.526   7.329   4.609
15857TIP3   OH247455   5.782   5.827   6.479
15857TIP3    H147456   5.751   5.756   6.538
15857TIP3    H247457   5.877   5.830   6.504
15858TIP3   OH247458   6.032   5.827   6.598
15858TIP3    H147459   6.116   5.803   6.556
15858TIP3    H247460   6.021   5.755   6.663
15859TIP3   OH247461   5.155   7.013   4.654
15859TIP3    H147462   5.157   7.041   4.747
15859TIP3    H247463   5.244   6.972   4.643
15860TIP3   OH247464   6.857   5.886   6.386
15860TIP3    H147465   6.877   5.856   6.477
15860TIP3    H247466   6.945   5.882   6.344
15861TIP3   OH247467   6.798   7.440   5.877
15861TIP3    H147468   6.719   7.407   5.830
15861TIP3    H247469   6.778   7.535   5.880
15862TIP3   OH247470   8.063   6.812   4.645
15862TIP3    H147471   8.034   6.903   4.623
15862TIP3    H247472   7.987   6.761   4.611
15863TIP3   OH247473   8.059   6.812   5.024
15863TIP3    H147474   8.088   6.779   5.110
15863TIP3    H247475   8.020   6.733   4.984
15864TIP3   OH247476   7.361   6.709   5.393
15864TIP3    H147477   7.396   6.640   5.453
15864TIP3    H247478   7.441   6.761   5.375
15865TIP3   OH247479   8.304   7.114   4.705
15865TIP3    H147480   8.292   7.042   4.769
15865TIP3    H247481   8.333   7.187   4.761
15866TIP3   OH247482   7.333   7.114   5.116
15866TIP3    H147483   7.323   7.017   5.118
15866TIP3    H247484   7.429   7.123   5.108
15867TIP3   OH247485   6.976   6.307   4.844
15867TIP3    H147486   6.959   6.396   4.880
15867TIP3    H247487   6.982   6.257   4.925
15868TIP3   OH247488   7.102   6.602   5.064
15868TIP3    H147489   7.154   6.530   5.108
15868TIP3    H247490   7.169   6.641   5.006
15869TIP3   OH247491   7.953   7.575   4.721
15869TIP3    H147492   8.000   7.504   4.673
15869TIP3    H247493   7.947   7.538   4.810
15870TIP3   OH247494   7.860   7.034   5.076
15870TIP3    H147495   7.897   6.959   5.026
15870TIP3    H247496   7.943   7.080   5.097
15871TIP3   OH247497   8.878   6.376   5.088
15871TIP3    H147498   8.901   6.463   5.127
15871TIP3    H247499   8.891   6.394   4.994
15872TIP3   OH247500   8.272   6.543   5.109
15872TIP3    H147501   8.315   6.457   5.127
15872TIP3    H247502   8.240   6.527   5.018
15873TIP3   OH247503   8.304   6.289   4.694
15873TIP3    H147504   8.377   6.273   4.759
15873TIP3    H247505   8.356   6.324   4.620
15874TIP3   OH247506   7.250   6.401   5.177
15874TIP3    H147507   7.332   6.379   5.226
15874TIP3    H247508   7.266   6.347   5.097
15875TIP3   OH247509   7.685   6.600   4.977
15875TIP3    H147510   7.778   6.571   4.986
15875TIP3    H247511   7.643   6.519   4.940
15876TIP3   OH247512   7.616   6.191   5.522
15876TIP3    H147513   7.566   6.179   5.439
15876TIP3    H247514   7.545   6.210   5.586
15877TIP3   OH247515   7.955   7.033   4.514
15877TIP3    H147516   7.913   7.010   4.431
15877TIP3    H247517   7.911   7.117   4.536
15878TIP3   OH247518   7.722   6.952   5.311
15878TIP3    H147519   7.656   7.017   5.343
15878TIP3    H247520   7.762   7.001   5.236
15879TIP3   OH247521   8.516   6.290   4.864
15879TIP3    H147522   8.510   6.241   4.946
15879TIP3    H247523   8.567   6.369   4.892
15880TIP3   OH247524   7.483   6.290   5.278
15880TIP3    H147525   7.556   6.352   5.299
15880TIP3    H247526   7.533   6.225   5.223
15881TIP3   OH247527   7.543   7.147   5.397
15881TIP3    H147528   7.517   7.232   5.356
15881TIP3    H247529   7.464   7.133   5.454
15882TIP3   OH247530   6.937   6.840   4.635
15882TIP3    H147531   6.896   6.867   4.550
15882TIP3    H247532   6.966   6.927   4.671
15883TIP3   OH247533   8.377   7.356   4.876
15883TIP3    H147534   8.286   7.347   4.913
15883TIP3    H247535   8.369   7.441   4.829
15884TIP3   OH247536   8.666   6.247   5.232
15884TIP3    H147537   8.582   6.288   5.207
15884TIP3    H247538   8.730   6.292   5.173
15885TIP3   OH247539   7.980   5.909   5.229
15885TIP3    H147540   7.952   5.816   5.219
15885TIP3    H247541   7.894   5.954   5.225
15886TIP3   OH247542   8.079   7.403   4.549
15886TIP3    H147543   8.128   7.321   4.527
15886TIP3    H247544   8.138   7.469   4.507
15887TIP3   OH247545   8.220   7.188   4.453
15887TIP3    H147546   8.183   7.108   4.413
15887TIP3    H247547   8.256   7.153   4.537
15888TIP3   OH247548   8.601   7.268   5.219
15888TIP3    H147549   8.592   7.191   5.158
15888TIP3    H247550   8.586   7.343   5.158
15889TIP3   OH247551   7.894   6.664   4.474
15889TIP3    H147552   7.813   6.714   4.450
15889TIP3    H247553   7.941   6.659   4.389
15890TIP3   OH247554   7.851   6.447   4.193
15890TIP3    H147555   7.921   6.496   4.241
15890TIP3    H247556   7.906   6.383   4.145
15891TIP3   OH247557   8.808   6.920   5.063
15891TIP3    H147558   8.717   6.955   5.069
15891TIP3    H247559   8.826   6.930   4.967
15892TIP3   OH247560   8.240   6.746   4.447
15892TIP3    H147561   8.186   6.771   4.525
15892TIP3    H247562   8.323   6.718   4.491
15893TIP3   OH247563   8.470   6.787   5.369
15893TIP3    H147564   8.471   6.873   5.415
15893TIP3    H247565   8.404   6.803   5.299
15894TIP3   OH247566   7.474   6.745   4.864
15894TIP3    H147567   7.432   6.687   4.797
15894TIP3    H247568   7.550   6.689   4.892
15895TIP3   OH247569   7.601   7.152   5.012
15895TIP3    H147570   7.582   7.111   4.927
15895TIP3    H247571   7.692   7.120   5.030
15896TIP3   OH247572   7.604   6.717   5.217
15896TIP3    H147573   7.639   6.690   5.129
15896TIP3    H247574   7.653   6.800   5.234
15897TIP3   OH247575   8.134   7.353   4.994
15897TIP3    H147576   8.120   7.432   5.048
15897TIP3    H247577   8.120   7.279   5.057
15898TIP3   OH247578   7.746   7.268   5.544
15898TIP3    H147579   7.687   7.333   5.588
15898TIP3    H247580   7.681   7.217   5.493
15899TIP3   OH247581   8.082   6.604   4.273
15899TIP3    H147582   8.141   6.662   4.325
15899TIP3    H247583   8.108   6.628   4.181
15900TIP3   OH247584   7.510   6.820   5.651
15900TIP3    H147585   7.511   6.910   5.690
15900TIP3    H247586   7.414   6.805   5.648
15901TIP3   OH247587   7.824   7.284   4.549
15901TIP3    H147588   7.902   7.339   4.566
15901TIP3    H247589   7.763   7.348   4.508
15902TIP3   OH247590   7.542   7.439   5.628
15902TIP3    H147591   7.507   7.438   5.536
15902TIP3    H247592   7.463   7.418   5.681
15903TIP3   OH247593   8.598   5.845   4.321
15903TIP3    H147594   8.516   5.863   4.372
15903TIP3    H247595   8.608   5.929   4.271
15904TIP3   OH247596   7.339   6.594   4.670
15904TIP3    H147597   7.270   6.630   4.610
15904TIP3    H247598   7.314   6.501   4.678
15905TIP3   OH247599   8.395   7.212   3.868
15905TIP3    H147600   8.403   7.309   3.855
15905TIP3    H247601   8.488   7.183   3.855
15906TIP3   OH247602   7.121   6.969   5.575
15906TIP3    H147603   7.055   6.947   5.507
15906TIP3    H247604   7.158   6.881   5.598
15907TIP3   OH247605   6.975   7.162   5.209
15907TIP3    H147606   7.071   7.158   5.199
15907TIP3    H247607   6.963   7.242   5.261
15908TIP3   OH247608   8.842   7.615   5.267
15908TIP3    H147609   8.840   7.517   5.280
15908TIP3    H247610   8.757   7.639   5.309
15909TIP3   OH247611   7.947   7.399   5.399
15909TIP3    H147612   7.946   7.492   5.430
15909TIP3    H247613   7.875   7.361   5.454
15910TIP3   OH247614   7.705   7.529   4.350
15910TIP3    H147615   7.659   7.509   4.266
15910TIP3    H247616   7.673   7.619   4.371
15911TIP3   OH247617   7.143   7.379   4.732
15911TIP3    H147618   7.191   7.369   4.817
15911TIP3    H247619   7.082   7.303   4.737
15912TIP3   OH247620   7.908   7.431   3.990
15912TIP3    H147621   7.966   7.360   3.954
15912TIP3    H247622   7.942   7.439   4.082
15913TIP3   OH247623   7.957   7.479   4.261
15913TIP3    H147624   7.869   7.488   4.303
15913TIP3    H247625   8.007   7.436   4.332
15914TIP3   OH247626   8.738   6.755   5.535
15914TIP3    H147627   8.659   6.759   5.481
15914TIP3    H247628   8.762   6.660   5.525
15915TIP3   OH247629   7.327   7.151   5.564
15915TIP3    H147630   7.375   7.136   5.647
15915TIP3    H247631   7.252   7.089   5.572
15916TIP3   OH247632   8.257   6.098   5.546
15916TIP3    H147633   8.324   6.062   5.607
15916TIP3    H247634   8.172   6.071   5.586
15917TIP3   OH247635   8.489   6.515   5.452
15917TIP3    H147636   8.452   6.518   5.543
15917TIP3    H247637   8.479   6.606   5.421
15918TIP3   OH247638   8.158   6.653   4.017
15918TIP3    H147639   8.124   6.625   3.929
15918TIP3    H247640   8.239   6.701   3.991
15919TIP3   OH247641   7.869   6.026   4.316
15919TIP3    H147642   7.839   6.023   4.409
15919TIP3    H247643   7.834   5.940   4.285
15920TIP3   OH247644   7.668   6.501   5.372
15920TIP3    H147645   7.601   6.504   5.444
15920TIP3    H247646   7.638   6.574   5.313
15921TIP3   OH247647   7.536   6.398   4.869
15921TIP3    H147648   7.463   6.349   4.910
15921TIP3    H247649   7.556   6.341   4.793
15922TIP3   OH247650   8.032   6.466   4.608
15922TIP3    H147651   7.978   6.536   4.566
15922TIP3    H247652   8.086   6.434   4.533
15923TIP3   OH247653   8.180   6.708   5.722
15923TIP3    H147654   8.219   6.679   5.806
15923TIP3    H247655   8.262   6.739   5.681
15924TIP3   OH247656   8.191   6.495   4.846
15924TIP3    H147657   8.130   6.521   4.774
15924TIP3    H247658   8.223   6.411   4.807
15925TIP3   OH247659   7.482   6.523   5.576
15925TIP3    H147660   7.472   6.585   5.649
15925TIP3    H247661   7.466   6.437   5.620
15926TIP3   OH247662   7.525   5.995   4.283
15926TIP3    H147663   7.524   5.996   4.381
15926TIP3    H247664   7.447   6.049   4.262
15927TIP3   OH247665   7.071   6.065   5.143
15927TIP3    H147666   7.145   6.082   5.206
15927TIP3    H247667   7.110   6.006   5.076
15928TIP3   OH247668   8.177   6.734   5.274
15928TIP3    H147669   8.216   6.667   5.211
15928TIP3    H247670   8.209   6.699   5.357
15929TIP3   OH247671   7.875   6.208   4.934
15929TIP3    H147672   7.791   6.181   4.978
15929TIP3    H247673   7.935   6.203   5.010
15930TIP3   OH247674   7.299   6.253   4.951
15930TIP3    H147675   7.217   6.224   4.909
15930TIP3    H247676   7.348   6.170   4.961
15931TIP3   OH247677   7.571   6.250   4.637
15931TIP3    H147678   7.667   6.263   4.624
15931TIP3    H247679   7.532   6.277   4.551
15932TIP3   OH247680   8.353   6.277   5.143
15932TIP3    H147681   8.315   6.287   5.233
15932TIP3    H247682   8.291   6.213   5.104
15933TIP3   OH247683   7.401   6.291   4.410
15933TIP3    H147684   7.344   6.240   4.350
15933TIP3    H247685   7.464   6.329   4.344
15934TIP3   OH247686   8.528   7.964   5.362
15934TIP3    H147687   8.526   7.988   5.267
15934TIP3    H247688   8.607   8.013   5.392
15935TIP3   OH247689   7.488   7.073   5.784
15935TIP3    H147690   7.566   7.107   5.833
15935TIP3    H247691   7.421   7.072   5.855
15936TIP3   OH247692   7.955   6.532   5.040
15936TIP3    H147693   8.017   6.484   4.983
15936TIP3    H247694   7.956   6.477   5.121
15937TIP3   OH247695   7.923   6.417   5.308
15937TIP3    H147696   7.831   6.446   5.329
15937TIP3    H247697   7.978   6.480   5.356
15938TIP3   OH247698   7.663   6.817   4.422
15938TIP3    H147699   7.590   6.752   4.412
15938TIP3    H247700   7.647   6.849   4.514
15939TIP3   OH247701   8.563   7.052   5.055
15939TIP3    H147702   8.590   7.099   4.973
15939TIP3    H247703   8.479   7.009   5.027
15940TIP3   OH247704   8.121   6.130   4.283
15940TIP3    H147705   8.025   6.112   4.293
15940TIP3    H247706   8.131   6.224   4.309
15941TIP3   OH247707   8.060   7.131   5.426
15941TIP3    H147708   8.092   7.125   5.516
15941TIP3    H247709   8.025   7.221   5.421
15942TIP3   OH247710   8.192   6.375   4.389
15942TIP3    H147711   8.288   6.380   4.405
15942TIP3    H247712   8.174   6.454   4.335
15943TIP3   OH247713   7.353   6.832   5.099
15943TIP3    H147714   7.394   6.809   5.013
15943TIP3    H247715   7.401   6.772   5.159
15944TIP3   OH247716   7.810   6.966   4.244
15944TIP3    H147717   7.763   7.052   4.252
15944TIP3    H247718   7.755   6.910   4.304
15945TIP3   OH247719   7.239   6.754   5.710
15945TIP3    H147720   7.254   6.743   5.806
15945TIP3    H247721   7.166   6.692   5.695
15946TIP3   OH247722   7.954   6.858   5.735
15946TIP3    H147723   7.901   6.851   5.654
15946TIP3    H247724   8.046   6.849   5.702
15947TIP3   OH247725   8.225   7.389   5.320
15947TIP3    H147726   8.128   7.393   5.328
15947TIP3    H247727   8.252   7.444   5.396
15948TIP3   OH247728   8.636   6.464   4.224
15948TIP3    H147729   8.573   6.418   4.163
15948TIP3    H247730   8.632   6.553   4.183
15949TIP3   OH247731   8.852   7.331   5.302
15949TIP3    H147732   8.754   7.319   5.296
15949TIP3    H247733   8.878   7.292   5.216
15950TIP3   OH247734   8.335   7.284   4.133
15950TIP3    H147735   8.310   7.214   4.194
15950TIP3    H247736   8.346   7.237   4.049
15951TIP3   OH247737   8.329   6.912   4.977
15951TIP3    H147738   8.235   6.886   4.983
15951TIP3    H247739   8.366   6.834   4.931
15952TIP3   OH247740   7.457   7.141   4.726
15952TIP3    H147741   7.460   7.222   4.672
15952TIP3    H247742   7.362   7.127   4.732
15953TIP3   OH247743   7.023   6.453   4.432
15953TIP3    H147744   7.077   6.535   4.443
15953TIP3    H247745   6.935   6.488   4.456
15954TIP3   OH247746   7.597   6.908   4.670
15954TIP3    H147747   7.562   6.997   4.688
15954TIP3    H247748   7.561   6.857   4.744
15955TIP3   OH247749   7.726   7.485   5.194
15955TIP3    H147750   7.765   7.558   5.142
15955TIP3    H247751   7.804   7.452   5.242
15956TIP3   OH247752   7.378   7.380   4.578
15956TIP3    H147753   7.291   7.388   4.622
15956TIP3    H247754   7.409   7.473   4.580
15957TIP3   OH247755   8.115   7.121   5.153
15957TIP3    H147756   8.109   7.115   5.250
15957TIP3    H247757   8.194   7.068   5.134
15958TIP3   OH247758   8.089   7.012   4.034
15958TIP3    H147759   8.141   6.987   4.114
15958TIP3    H247760   8.000   6.985   4.063
15959TIP3   OH247761   8.363   7.654   5.203
15959TIP3    H147762   8.284   7.599   5.193
15959TIP3    H247763   8.350   7.720   5.131
15960TIP3   OH247764   8.429   7.488   3.854
15960TIP3    H147765   8.466   7.560   3.801
15960TIP3    H247766   8.349   7.533   3.888
15961TIP3   OH247767   7.442   6.273   5.725
15961TIP3    H147768   7.345   6.271   5.737
15961TIP3    H247769   7.472   6.205   5.788
15962TIP3   OH247770   8.248   6.947   4.252
15962TIP3    H147771   8.239   6.880   4.323
15962TIP3    H247772   8.345   6.945   4.240
15963TIP3   OH247773   7.165   7.349   5.353
15963TIP3    H147774   7.217   7.273   5.384
15963TIP3    H247775   7.193   7.418   5.415
15964TIP3   OH247776   7.456   6.993   4.034
15964TIP3    H147777   7.470   6.902   4.004
15964TIP3    H247778   7.437   6.979   4.129
15965TIP3   OH247779   7.401   6.997   4.308
15965TIP3    H147780   7.474   6.971   4.366
15965TIP3    H247781   7.405   7.095   4.313
15966TIP3   OH247782   7.134   6.691   4.508
15966TIP3    H147783   7.072   6.740   4.565
15966TIP3    H247784   7.154   6.760   4.441
15967TIP3   OH247785   8.273   6.333   5.399
15967TIP3    H147786   8.355   6.375   5.429
15967TIP3    H247787   8.267   6.252   5.455
15968TIP3   OH247788   8.165   6.082   4.565
15968TIP3    H147789   8.151   6.105   4.471
15968TIP3    H247790   8.205   6.163   4.602
15969TIP3   OH247791   7.666   7.196   4.257
15969TIP3    H147792   7.579   7.224   4.291
15969TIP3    H247793   7.683   7.265   4.191
15970TIP3   OH247794   7.852   6.261   4.667
15970TIP3    H147795   7.920   6.330   4.651
15970TIP3    H247796   7.858   6.252   4.765
15971TIP3   OH247797   8.000   5.990   4.774
15971TIP3    H147798   7.988   6.069   4.830
15971TIP3    H247799   8.061   6.026   4.705
15972TIP3   OH247800   7.408   7.270   4.322
15972TIP3    H147801   7.379   7.340   4.259
15972TIP3    H247802   7.393   7.315   4.408
15973TIP3   OH247803   7.507   5.986   4.558
15973TIP3    H147804   7.515   6.073   4.602
15973TIP3    H247805   7.599   5.954   4.572
15974TIP3   OH247806   8.767   6.487   5.468
15974TIP3    H147807   8.675   6.468   5.444
15974TIP3    H247808   8.810   6.504   5.382
15975TIP3   OH247809   8.415   6.675   4.847
15975TIP3    H147810   8.341   6.613   4.857
15975TIP3    H247811   8.488   6.625   4.891
15976TIP3   OH247812   7.127   6.902   4.316
15976TIP3    H147813   7.191   6.975   4.324
15976TIP3    H247814   7.174   6.848   4.248
15977TIP3   OH247815   7.010   6.194   4.504
15977TIP3    H147816   7.059   6.265   4.459
15977TIP3    H247817   6.993   6.135   4.430
15978TIP3   OH247818   8.384   7.628   4.796
15978TIP3    H147819   8.341   7.674   4.721
15978TIP3    H247820   8.478   7.646   4.775
15979TIP3   OH247821   7.431   5.900   5.349
15979TIP3    H147822   7.439   5.883   5.253
15979TIP3    H247823   7.442   5.811   5.387
15980TIP3   OH247824   6.999   7.113   4.705
15980TIP3    H147825   6.926   7.146   4.759
15980TIP3    H247826   6.978   7.154   4.618
15981TIP3   OH247827   7.155   7.655   5.774
15981TIP3    H147828   7.241   7.655   5.822
15981TIP3    H247829   7.133   7.560   5.773
15982TIP3   OH247830   7.638   7.622   5.819
15982TIP3    H147831   7.733   7.604   5.826
15982TIP3    H247832   7.613   7.564   5.744
15983TIP3   OH247833   7.620   7.197   3.949
15983TIP3    H147834   7.563   7.126   3.986
15983TIP3    H247835   7.694   7.145   3.914
15984TIP3   OH247836   8.276   7.528   5.553
15984TIP3    H147837   8.270   7.456   5.621
15984TIP3    H247838   8.354   7.578   5.582
15985TIP3   OH247839   8.056   7.239   3.858
15985TIP3    H147840   8.100   7.174   3.916
15985TIP3    H247841   8.112   7.239   3.779
15986TIP3   OH247842   7.287   7.063   5.974
15986TIP3    H147843   7.303   6.967   5.978
15986TIP3    H247844   7.198   7.066   5.932
15987TIP3   OH247845   7.263   6.713   4.169
15987TIP3    H147846   7.322   6.681   4.240
15987TIP3    H247847   7.329   6.718   4.096
15988TIP3   OH247848   7.896   7.148   5.748
15988TIP3    H147849   7.852   7.167   5.663
15988TIP3    H247850   7.925   7.056   5.740
15989TIP3   OH247851   7.772   6.912   3.975
15989TIP3    H147852   7.774   6.925   4.072
15989TIP3    H247853   7.772   6.813   3.970
15990TIP3   OH247854   8.386   7.155   5.354
15990TIP3    H147855   8.461   7.198   5.308
15990TIP3    H247856   8.317   7.223   5.340
15991TIP3   OH247857   7.404   6.800   5.957
15991TIP3    H147858   7.466   6.727   5.948
15991TIP3    H247859   7.428   6.832   6.047
15992TIP3   OH247860   7.469   6.617   4.389
15992TIP3    H147861   7.451   6.575   4.474
15992TIP3    H247862   7.507   6.543   4.337
15993TIP3   OH247863   7.771   6.673   5.632
15993TIP3    H147864   7.685   6.717   5.649
15993TIP3    H247865   7.777   6.689   5.536
15994TIP3   OH247866   7.572   6.410   4.233
15994TIP3    H147867   7.546   6.411   4.138
15994TIP3    H247868   7.670   6.416   4.225
15995TIP3   OH247869   8.250   7.069   5.747
15995TIP3    H147870   8.338   7.068   5.707
15995TIP3    H247871   8.263   7.015   5.827
15996TIP3   OH247872   8.396   6.743   3.892
15996TIP3    H147873   8.372   6.695   3.810
15996TIP3    H247874   8.363   6.833   3.867
15997TIP3   OH247875   7.876   6.260   5.546
15997TIP3    H147876   7.893   6.284   5.453
15997TIP3    H247877   7.781   6.234   5.541
15998TIP3   OH247878   7.918   6.791   5.427
15998TIP3    H147879   7.989   6.797   5.361
15998TIP3    H247880   7.852   6.852   5.387
15999TIP3   OH247881   8.482   6.762   5.811
15999TIP3    H147882   8.526   6.676   5.814
15999TIP3    H247883   8.551   6.817   5.772
16000TIP3   OH247884   8.517   7.015   5.542
16000TIP3    H147885   8.463   7.070   5.482
16000TIP3    H247886   8.606   7.029   5.503
16001TIP3   OH247887   7.739   6.581   5.958
16001TIP3    H147888   7.677   6.518   5.999
16001TIP3    H247889   7.712   6.576   5.866
16002TIP3   OH247890   7.996   6.021   5.618
16002TIP3    H147891   7.951   6.104   5.593
16002TIP3    H247892   7.926   5.955   5.600
16003TIP3   OH247893   8.376   6.481   5.702
16003TIP3    H147894   8.313   6.419   5.740
16003TIP3    H247895   8.459   6.452   5.746
16004TIP3   OH247896   8.595   6.410   5.844
16004TIP3    H147897   8.606   6.315   5.866
16004TIP3    H247898   8.592   6.453   5.933
16005TIP3   OH247899   7.585   6.363   6.026
16005TIP3    H147900   7.585   6.272   5.991
16005TIP3    H247901   7.618   6.347   6.117
16006TIP3   OH247902   8.095   6.033   5.874
16006TIP3    H147903   8.159   5.959   5.869
16006TIP3    H247904   8.052   6.025   5.786
16007TIP3   OH247905   8.160   6.249   6.028
16007TIP3    H147906   8.136   6.174   5.969
16007TIP3    H247907   8.080   6.305   6.024
16008TIP3   OH247908   7.379   7.472   4.135
16008TIP3    H147909   7.474   7.470   4.115
16008TIP3    H247910   7.347   7.521   4.056
16009TIP3   OH247911   6.860   6.852   4.355
16009TIP3    H147912   6.954   6.876   4.339
16009TIP3    H247913   6.854   6.766   4.309
16010TIP3   OH247914   6.772   7.467   4.765
16010TIP3    H147915   6.705   7.405   4.729
16010TIP3    H247916   6.817   7.410   4.831
16011TIP3   OH247917   6.910   7.319   4.951
16011TIP3    H147918   6.898   7.246   5.012
16011TIP3    H247919   6.960   7.381   5.007
16012TIP3   OH247920   8.636   7.720   4.750
16012TIP3    H147921   8.663   7.753   4.837
16012TIP3    H247922   8.697   7.765   4.690
16013TIP3   OH247923   8.665   7.740   5.033
16013TIP3    H147924   8.623   7.652   5.028
16013TIP3    H247925   8.742   7.718   5.089
16014TIP3   OH247926   8.711   7.416   5.607
16014TIP3    H147927   8.638   7.425   5.672
16014TIP3    H247928   8.752   7.505   5.610
16015TIP3   OH247929   8.529   6.930   4.227
16015TIP3    H147930   8.598   6.992   4.200
16015TIP3    H247931   8.570   6.889   4.306
16016TIP3   OH247932   8.655   6.797   4.430
16016TIP3    H147933   8.591   6.753   4.490
16016TIP3    H247934   8.721   6.834   4.493
16017TIP3   OH247935   8.710   7.188   4.864
16017TIP3    H147936   8.765   7.123   4.815
16017TIP3    H247937   8.701   7.261   4.799
16018TIP3   OH247938   8.543   7.488   5.059
16018TIP3    H147939   8.471   7.530   5.109
16018TIP3    H247940   8.494   7.439   4.989
16019TIP3   OH247941   8.595   6.704   4.077
16019TIP3    H147942   8.523   6.707   4.010
16019TIP3    H247943   8.568   6.780   4.133
16020TIP3   OH247944   8.466   6.377   4.031
16020TIP3    H147945   8.422   6.415   3.954
16020TIP3    H247946   8.441   6.283   4.022
16021TIP3   OH247947   8.470   6.652   4.577
16021TIP3    H147948   8.479   6.555   4.573
16021TIP3    H247949   8.458   6.667   4.673
16022TIP3   OH247950   7.097   6.725   5.320
16022TIP3    H147951   7.098   6.697   5.227
16022TIP3    H247952   7.194   6.728   5.339
16023TIP3   OH247953   8.766   7.070   5.434
16023TIP3    H147954   8.838   7.007   5.418
16023TIP3    H247955   8.787   7.142   5.373
16024TIP3   OH247956   8.973   6.876   5.460
16024TIP3    H147957   8.891   6.839   5.499
16024TIP3    H247958   9.005   6.794   5.416
16025TIP3   OH247959   8.409   6.111   4.018
16025TIP3    H147960   8.484   6.080   4.073
16025TIP3    H247961   8.335   6.053   4.043
16026TIP3   OH247962   8.466   6.368   4.472
16026TIP3    H147963   8.507   6.280   4.488
16026TIP3    H247964   8.525   6.401   4.402
16027TIP3   OH247965   8.626   6.535   4.955
16027TIP3    H147966   8.713   6.565   4.919
16027TIP3    H247967   8.631   6.578   5.043
16028TIP3   OH247968   8.654   6.686   5.178
16028TIP3    H147969   8.604   6.733   5.246
16028TIP3    H247970   8.739   6.734   5.175
16029TIP3   OH247971   7.317   6.418   6.002
16029TIP3    H147972   7.414   6.406   6.001
16029TIP3    H247973   7.289   6.332   6.040
16030TIP3   OH247974   9.152   6.271   5.763
16030TIP3    H147975   9.210   6.211   5.711
16030TIP3    H247976   9.115   6.328   5.691
16031TIP3   OH247977   8.576   6.118   4.509
16031TIP3    H147978   8.623   6.102   4.594
16031TIP3    H247979   8.515   6.042   4.508
16032TIP3   OH247980   7.269   6.113   5.332
16032TIP3    H147981   7.323   6.032   5.344
16032TIP3    H247982   7.340   6.179   5.318
16033TIP3   OH247983   7.077   6.382   5.400
16033TIP3    H147984   7.132   6.368   5.321
16033TIP3    H247985   7.110   6.467   5.431
16034TIP3   OH247986   9.012   6.411   5.585
16034TIP3    H147987   8.930   6.463   5.576
16034TIP3    H247988   9.014   6.374   5.496
16035TIP3   OH247989   8.657   6.055   4.141
16035TIP3    H147990   8.696   5.981   4.090
16035TIP3    H247991   8.725   6.124   4.133
16036TIP3   OH247992   7.050   5.912   4.900
16036TIP3    H147993   6.965   5.879   4.933
16036TIP3    H247994   7.034   5.917   4.806
16037TIP3   OH247995   8.221   7.585   4.409
16037TIP3    H147996   8.272   7.569   4.327
16037TIP3    H247997   8.275   7.652   4.453
16038TIP3   OH247998   7.284   5.966   5.722
16038TIP3    H147999   7.230   5.959   5.802
16038TIP3    H248000   7.218   6.000   5.658
16039TIP3   OH248001   7.322   7.386   5.795
16039TIP3    H148002   7.230   7.361   5.778
16039TIP3    H248003   7.329   7.371   5.890
16040TIP3   OH248004   7.500   7.420   5.343
16040TIP3    H148005   7.450   7.495   5.304
16040TIP3    H248006   7.585   7.435   5.297
16041TIP3   OH248007   7.946   7.665   5.479
16041TIP3    H148008   7.987   7.668   5.568
16041TIP3    H248009   8.011   7.717   5.427
16042TIP3   OH248010   8.124   7.817   5.338
16042TIP3    H148011   8.196   7.767   5.296
16042TIP3    H248012   8.175   7.875   5.399
16043TIP3   OH248013   8.914   6.176   5.439
16043TIP3    H148014   8.827   6.185   5.398
16043TIP3    H248015   8.938   6.082   5.420
16044TIP3   OH248016   7.177   7.679   5.365
16044TIP3    H148017   7.088   7.713   5.341
16044TIP3    H248018   7.185   7.714   5.455
16045TIP3   OH248019   7.413   7.657   5.223
16045TIP3    H148020   7.327   7.670   5.268
16045TIP3    H248021   7.393   7.690   5.133
16046TIP3   OH248022   7.839   7.686   5.021
16046TIP3    H148023   7.770   7.707   4.955
16046TIP3    H248024   7.852   7.774   5.063
16047TIP3   OH248025   8.107   7.626   5.073
16047TIP3    H148026   8.012   7.642   5.053
16047TIP3    H248027   8.149   7.702   5.030
16048TIP3   OH248028   8.316   7.819   4.988
16048TIP3    H148029   8.301   7.904   4.941
16048TIP3    H248030   8.341   7.759   4.915
16049TIP3   OH248031   7.087   7.473   5.110
16049TIP3    H148032   7.114   7.447   5.201
16049TIP3    H248033   7.160   7.430   5.060
16050TIP3   OH248034   7.281   7.344   4.967
16050TIP3    H148035   7.297   7.260   5.015
16050TIP3    H248036   7.371   7.381   4.962
16051TIP3   OH248037   7.546   7.440   4.969
16051TIP3    H148038   7.578   7.349   4.955
16051TIP3    H248039   7.590   7.461   5.054
16052TIP3   OH248040   8.129   6.098   5.062
16052TIP3    H148041   8.083   6.030   5.114
16052TIP3    H248042   8.193   6.045   5.011
16053TIP3   OH248043   8.649   5.974   4.963
16053TIP3    H148044   8.684   6.027   4.888
16053TIP3    H248045   8.553   5.992   4.957
16054TIP3   OH248046   8.742   6.077   4.727
16054TIP3    H148047   8.815   6.026   4.686
16054TIP3    H248048   8.775   6.169   4.712
16055TIP3   OH248049   7.359   5.807   5.091
16055TIP3    H148050   7.275   5.758   5.087
16055TIP3    H248051   7.423   5.737   5.072
16056TIP3   OH248052   7.157   5.671   4.724
16056TIP3    H148053   7.196   5.726   4.655
16056TIP3    H248054   7.143   5.733   4.797
16057TIP3   OH248055   7.818   5.833   4.964
16057TIP3    H148056   7.876   5.887   4.909
16057TIP3    H248057   7.765   5.900   5.011
16058TIP3   OH248058   8.368   5.982   4.937
16058TIP3    H148059   8.358   5.946   4.848
16058TIP3    H248060   8.352   5.903   4.993
16059TIP3   OH248061   8.393   5.905   4.500
16059TIP3    H148062   8.305   5.946   4.511
16059TIP3    H248063   8.379   5.820   4.547
16060TIP3   OH248064   6.875   7.244   4.503
16060TIP3    H148065   6.791   7.211   4.468
16060TIP3    H248066   6.865   7.339   4.484
16061TIP3   OH248067   7.278   5.842   4.485
16061TIP3    H148068   7.330   5.764   4.463
16061TIP3    H248069   7.348   5.901   4.521
16062TIP3   OH248070   7.789   6.009   4.581
16062TIP3    H148071   7.843   5.958   4.643
16062TIP3    H248072   7.811   6.100   4.610
16063TIP3   OH248073   7.648   7.435   4.084
16063TIP3    H148074   7.736   7.457   4.047
16063TIP3    H248075   7.625   7.359   4.025
16064TIP3   OH248076   8.367   7.551   4.176
16064TIP3    H148077   8.358   7.454   4.163
16064TIP3    H248078   8.321   7.584   4.096
16065TIP3   OH248079   7.580   6.087   5.969
16065TIP3    H148080   7.547   6.015   6.024
16065TIP3    H248081   7.675   6.087   5.993
16066TIP3   OH248082   7.829   6.079   6.087
16066TIP3    H148083   7.913   6.049   6.048
16066TIP3    H248084   7.816   6.010   6.156
16067TIP3   OH248085   6.951   7.268   4.141
16067TIP3    H148086   6.953   7.299   4.233
16067TIP3    H248087   7.041   7.228   4.130
16068TIP3   OH248088   8.658   6.141   5.874
16068TIP3    H148089   8.684   6.115   5.964
16068TIP3    H248090   8.744   6.143   5.827
16069TIP3   OH248091   8.594   7.696   5.363
16069TIP3    H148092   8.515   7.664   5.316
16069TIP3    H248093   8.574   7.792   5.366
16070TIP3   OH248094   9.864   7.060   4.122
16070TIP3    H148095   9.843   7.154   4.107
16070TIP3    H248096   9.783   7.017   4.092
16071TIP3   OH248097   9.810   7.071   4.523
16071TIP3    H148098   9.873   7.052   4.595
16071TIP3    H248099   9.811   6.988   4.473
16072TIP3   OH248100   9.163   6.976   4.889
16072TIP3    H148101   9.191   6.900   4.944
16072TIP3    H248102   9.246   6.999   4.845
16073TIP3   OH248103   9.130   7.373   4.606
16073TIP3    H148104   9.120   7.275   4.606
16073TIP3    H248105   9.226   7.380   4.595
16074TIP3   OH248106   8.835   6.579   4.387
16074TIP3    H148107   8.784   6.661   4.401
16074TIP3    H248108   8.766   6.521   4.351
16075TIP3   OH248109   8.896   6.864   4.557
16075TIP3    H148110   8.944   6.787   4.595
16075TIP3    H248111   8.955   6.889   4.485
16076TIP3   OH248112   9.742   7.820   4.220
16076TIP3    H148113   9.785   7.739   4.188
16076TIP3    H248114   9.733   7.800   4.315
16077TIP3   OH248115   9.652   7.295   4.563
16077TIP3    H148116   9.694   7.211   4.531
16077TIP3    H248117   9.735   7.344   4.580
16078TIP3   OH248118  10.075   6.805   4.596
16078TIP3    H148119  10.053   6.712   4.615
16078TIP3    H248120  10.055   6.808   4.500
16079TIP3   OH248121   9.400   6.456   4.561
16079TIP3    H148122   9.383   6.528   4.497
16079TIP3    H248123   9.356   6.382   4.515
16080TIP3   OH248124  10.093   6.539   4.205
16080TIP3    H148125  10.179   6.519   4.242
16080TIP3    H248126  10.119   6.596   4.131
16081TIP3   OH248127   9.043   6.660   4.664
16081TIP3    H148128   9.124   6.635   4.712
16081TIP3    H248129   9.053   6.603   4.585
16082TIP3   OH248130   9.479   6.854   4.462
16082TIP3    H148131   9.574   6.830   4.472
16082TIP3    H248132   9.442   6.770   4.427
16083TIP3   OH248133   9.406   6.434   4.988
16083TIP3    H148134   9.343   6.473   4.924
16083TIP3    H248135   9.358   6.451   5.072
16084TIP3   OH248136   9.758   7.297   3.999
16084TIP3    H148137   9.709   7.265   3.922
16084TIP3    H248138   9.708   7.379   4.020
16085TIP3   OH248139   9.510   7.212   4.788
16085TIP3    H148140   9.449   7.282   4.820
16085TIP3    H248141   9.557   7.259   4.716
16086TIP3   OH248142   9.272   6.555   4.779
16086TIP3    H148143   9.337   6.626   4.800
16086TIP3    H248144   9.319   6.512   4.703
16087TIP3   OH248145   9.337   7.406   4.884
16087TIP3    H148146   9.312   7.491   4.842
16087TIP3    H248147   9.260   7.392   4.943
16088TIP3   OH248148   8.734   7.097   4.121
16088TIP3    H148149   8.691   7.122   4.038
16088TIP3    H248150   8.763   7.183   4.157
16089TIP3   OH248151   9.759   6.148   4.713
16089TIP3    H148152   9.739   6.054   4.735
16089TIP3    H248153   9.677   6.190   4.745
16090TIP3   OH248154   9.875   7.661   4.026
16090TIP3    H148155   9.943   7.596   4.047
16090TIP3    H248156   9.923   7.744   4.022
16091TIP3   OH248157   9.683   6.916   3.956
16091TIP3    H148158   9.601   6.968   3.942
16091TIP3    H248159   9.724   6.921   3.868
16092TIP3   OH248160   9.646   6.705   3.676
16092TIP3    H148161   9.710   6.743   3.738
16092TIP3    H248162   9.701   6.638   3.632
16093TIP3   OH248163   9.270   7.001   4.349
16093TIP3    H148164   9.229   6.942   4.282
16093TIP3    H248165   9.347   6.947   4.380
16094TIP3   OH248166   9.398   7.410   4.499
16094TIP3    H148167   9.382   7.364   4.416
16094TIP3    H248168   9.489   7.380   4.520
16095TIP3   OH248169   9.397   6.974   4.707
16095TIP3    H148170   9.434   6.947   4.620
16095TIP3    H248171   9.447   7.056   4.726
16096TIP3   OH248172   9.889   7.616   4.472
16096TIP3    H148173   9.923   7.691   4.524
16096TIP3    H248174   9.909   7.541   4.531
16097TIP3   OH248175   9.542   7.528   5.030
16097TIP3    H148176   9.482   7.591   5.074
16097TIP3    H248177   9.478   7.476   4.977
16098TIP3   OH248178   9.889   6.866   3.764
16098TIP3    H148179   9.932   6.927   3.826
16098TIP3    H248180   9.915   6.902   3.678
16099TIP3   OH248181   9.292   7.104   5.163
16099TIP3    H148182   9.293   7.185   5.111
16099TIP3    H248183   9.206   7.065   5.136
16100TIP3   OH248184   9.616   7.539   4.030
16100TIP3    H148185   9.690   7.595   4.057
16100TIP3    H248186   9.551   7.603   3.998
16101TIP3   OH248187   9.336   7.697   5.112
16101TIP3    H148188   9.305   7.698   5.020
16101TIP3    H248189   9.257   7.669   5.162
16102TIP3   OH248190   9.136   6.843   4.154
16102TIP3    H148191   9.069   6.887   4.097
16102TIP3    H248192   9.097   6.757   4.168
16103TIP3   OH248193   8.917   7.225   5.061
16103TIP3    H148194   8.850   7.205   4.992
16103TIP3    H248195   8.946   7.135   5.086
16104TIP3   OH248196   8.770   7.419   4.695
16104TIP3    H148197   8.865   7.412   4.683
16104TIP3    H248198   8.762   7.499   4.748
16105TIP3   OH248199   9.739   7.659   4.883
16105TIP3    H148200   9.740   7.751   4.916
16105TIP3    H248201   9.671   7.618   4.941
16106TIP3   OH248202   9.499   7.795   3.832
16106TIP3    H148203   9.449   7.769   3.752
16106TIP3    H248204   9.460   7.881   3.856
16107TIP3   OH248205   8.940   7.636   4.219
16107TIP3    H148206   8.987   7.625   4.305
16107TIP3    H248207   8.882   7.557   4.222
16108TIP3   OH248208   9.709   7.688   3.490
16108TIP3    H148209   9.775   7.622   3.465
16108TIP3    H248210   9.735   7.707   3.583
16109TIP3   OH248211   9.749   7.733   3.757
16109TIP3    H148212   9.659   7.746   3.794
16109TIP3    H248213   9.791   7.686   3.831
16110TIP3   OH248214   9.137   7.390   5.068
16110TIP3    H148215   9.128   7.441   5.151
16110TIP3    H248216   9.054   7.338   5.066
16111TIP3   OH248217   9.521   6.233   4.832
16111TIP3    H148218   9.432   6.203   4.807
16111TIP3    H248219   9.497   6.316   4.878
16112TIP3   OH248220  10.046   6.350   5.034
16112TIP3    H148221  10.092   6.336   5.118
16112TIP3    H248222   9.953   6.331   5.062
16113TIP3   OH248223   9.677   6.290   3.804
16113TIP3    H148224   9.641   6.282   3.894
16113TIP3    H248225   9.636   6.210   3.764
16114TIP3   OH248226   9.454   6.748   4.851
16114TIP3    H148227   9.406   6.768   4.934
16114TIP3    H248228   9.438   6.829   4.799
16115TIP3   OH248229   9.335   6.635   4.367
16115TIP3    H148230   9.243   6.607   4.384
16115TIP3    H248231   9.351   6.593   4.279
16116TIP3   OH248232   9.824   6.715   4.087
16116TIP3    H148233   9.771   6.789   4.052
16116TIP3    H248234   9.882   6.693   4.013
16117TIP3   OH248235  10.002   6.999   5.179
16117TIP3    H148236   9.979   6.929   5.244
16117TIP3    H248237  10.094   7.018   5.205
16118TIP3   OH248238   9.964   6.745   4.350
16118TIP3    H148239   9.935   6.797   4.274
16118TIP3    H248240  10.001   6.668   4.303
16119TIP3   OH248241   9.272   6.782   5.060
16119TIP3    H148242   9.302   6.828   5.140
16119TIP3    H248243   9.238   6.699   5.099
16120TIP3   OH248244   9.315   6.256   3.775
16120TIP3    H148245   9.311   6.252   3.873
16120TIP3    H248246   9.236   6.308   3.754
16121TIP3   OH248247   8.864   6.302   4.640
16121TIP3    H148248   8.940   6.331   4.695
16121TIP3    H248249   8.905   6.265   4.561
16122TIP3   OH248250   8.840   6.281   4.161
16122TIP3    H148251   8.885   6.321   4.083
16122TIP3    H248252   8.778   6.354   4.183
16123TIP3   OH248253   9.966   7.001   4.751
16123TIP3    H148254  10.023   6.942   4.696
16123TIP3    H248255   9.959   6.947   4.832
16124TIP3   OH248256   9.647   6.458   4.426
16124TIP3    H148257   9.568   6.456   4.484
16124TIP3    H248258   9.717   6.475   4.488
16125TIP3   OH248259   9.097   6.513   4.436
16125TIP3    H148260   9.002   6.520   4.410
16125TIP3    H248261   9.120   6.421   4.415
16126TIP3   OH248262   9.366   6.508   4.126
16126TIP3    H148263   9.462   6.521   4.110
16126TIP3    H248264   9.324   6.534   4.041
16127TIP3   OH248265  10.021   6.534   4.650
16127TIP3    H148266  10.036   6.563   4.741
16127TIP3    H248267  10.095   6.471   4.640
16128TIP3   OH248268   9.205   6.544   3.903
16128TIP3    H148269   9.133   6.500   3.855
16128TIP3    H248270   9.258   6.577   3.828
16129TIP3   OH248271   9.742   6.770   4.520
16129TIP3    H148272   9.820   6.749   4.466
16129TIP3    H248273   9.768   6.738   4.608
16130TIP3   OH248274   9.271   6.273   4.403
16130TIP3    H148275   9.236   6.192   4.446
16130TIP3    H248276   9.308   6.240   4.320
16131TIP3   OH248277   9.726   6.675   4.827
16131TIP3    H148278   9.637   6.714   4.829
16131TIP3    H248279   9.781   6.743   4.871
16132TIP3   OH248280   9.458   7.072   3.911
16132TIP3    H148281   9.386   7.006   3.900
16132TIP3    H248282   9.440   7.106   4.002
16133TIP3   OH248283   9.917   6.405   3.752
16133TIP3    H148284   9.828   6.374   3.783
16133TIP3    H248285   9.930   6.488   3.803
16134TIP3   OH248286   9.851   7.384   4.912
16134TIP3    H148287   9.883   7.372   5.001
16134TIP3    H248288   9.829   7.479   4.909
16135TIP3   OH248289  10.006   6.639   3.867
16135TIP3    H148290  10.098   6.665   3.883
16135TIP3    H248291   9.973   6.714   3.813
16136TIP3   OH248292   9.152   7.094   4.584
16136TIP3    H148293   9.189   7.070   4.497
16136TIP3    H248294   9.198   7.032   4.642
16137TIP3   OH248295   9.601   7.220   3.732
16137TIP3    H148296   9.556   7.308   3.740
16137TIP3    H248297   9.546   7.166   3.792
16138TIP3   OH248298   9.020   7.003   5.213
16138TIP3    H148299   9.021   6.950   5.294
16138TIP3    H248300   8.954   6.952   5.161
16139TIP3   OH248301   9.758   7.127   5.219
16139TIP3    H148302   9.704   7.068   5.164
16139TIP3    H248303   9.848   7.099   5.192
16140TIP3   OH248304  10.019   7.646   4.806
16140TIP3    H148305   9.922   7.654   4.805
16140TIP3    H248306  10.043   7.700   4.883
16141TIP3   OH248307   9.251   7.397   4.210
16141TIP3    H148308   9.253   7.480   4.158
16141TIP3    H248309   9.157   7.382   4.219
16142TIP3   OH248310   8.815   6.703   3.912
16142TIP3    H148311   8.863   6.786   3.934
16142TIP3    H248312   8.739   6.708   3.974
16143TIP3   OH248313   9.392   7.165   4.155
16143TIP3    H148314   9.357   7.254   4.175
16143TIP3    H248315   9.359   7.114   4.231
16144TIP3   OH248316   9.523   7.741   4.682
16144TIP3    H148317   9.565   7.812   4.630
16144TIP3    H248318   9.600   7.704   4.728
16145TIP3   OH248319   9.173   7.637   4.063
16145TIP3    H148320   9.087   7.644   4.109
16145TIP3    H248321   9.203   7.730   4.068
16146TIP3   OH248322   9.908   7.380   4.638
16146TIP3    H148323   9.902   7.379   4.735
16146TIP3    H248324   9.984   7.323   4.623
16147TIP3   OH248325   9.265   6.508   5.210
16147TIP3    H148326   9.175   6.541   5.233
16147TIP3    H248327   9.284   6.452   5.286
16148TIP3   OH248328   8.957   7.608   4.839
16148TIP3    H148329   9.014   7.533   4.859
16148TIP3    H248330   8.993   7.677   4.897
16149TIP3   OH248331   9.251   7.250   3.521
16149TIP3    H148332   9.265   7.158   3.491
16149TIP3    H248333   9.234   7.236   3.616
16150TIP3   OH248334   9.197   7.254   3.794
16150TIP3    H148335   9.266   7.225   3.855
16150TIP3    H248336   9.203   7.352   3.801
16151TIP3   OH248337   8.933   6.948   3.996
16151TIP3    H148338   8.867   6.992   4.054
16151TIP3    H248339   8.948   7.018   3.930
16152TIP3   OH248340  10.114   6.583   4.910
16152TIP3    H148341  10.145   6.633   4.987
16152TIP3    H248342  10.076   6.505   4.953
16153TIP3   OH248343   9.922   6.354   4.049
16153TIP3    H148344   9.957   6.356   3.960
16153TIP3    H248345   9.981   6.412   4.099
16154TIP3   OH248346   9.463   7.454   3.743
16154TIP3    H148347   9.376   7.481   3.779
16154TIP3    H248348   9.475   7.521   3.674
16155TIP3   OH248349   9.643   6.515   4.155
16155TIP3    H148350   9.716   6.579   4.138
16155TIP3    H248351   9.653   6.501   4.252
16156TIP3   OH248352   9.922   6.833   4.967
16156TIP3    H148353   9.936   6.896   5.041
16156TIP3    H248354   9.984   6.763   4.991
16157TIP3   OH248355   9.206   7.528   3.809
16157TIP3    H148356   9.175   7.597   3.747
16157TIP3    H248357   9.189   7.571   3.896
16158TIP3   OH248358   9.307   6.240   4.054
16158TIP3    H148359   9.304   6.333   4.085
16158TIP3    H248360   9.404   6.225   4.058
16159TIP3   OH248361   8.924   7.159   3.802
16159TIP3    H148362   8.989   7.231   3.811
16159TIP3    H248363   8.969   7.104   3.735
16160TIP3   OH248364   8.870   6.433   3.934
16160TIP3    H148365   8.867   6.531   3.930
16160TIP3    H248366   8.785   6.408   3.897
16161TIP3   OH248367   9.258   6.152   4.808
16161TIP3    H148368   9.224   6.120   4.722
16161TIP3    H248369   9.246   6.073   4.866
16162TIP3   OH248370   8.798   7.376   4.192
16162TIP3    H148371   8.723   7.404   4.246
16162TIP3    H248372   8.772   7.413   4.105
16163TIP3   OH248373   8.953   7.912   5.259
16163TIP3    H148374   9.037   7.914   5.310
16163TIP3    H248375   8.928   7.818   5.263
16164TIP3   OH248376   9.431   7.878   5.307
16164TIP3    H148377   9.527   7.872   5.313
16164TIP3    H248378   9.413   7.820   5.230
16165TIP3   OH248379   9.415   7.454   3.439
16165TIP3    H148380   9.358   7.383   3.475
16165TIP3    H248381   9.488   7.401   3.402
16166TIP3   OH248382  10.078   7.779   5.043
16166TIP3    H148383  10.057   7.707   5.106
16166TIP3    H248384  10.153   7.822   5.086
16167TIP3   OH248385   9.059   6.971   3.653
16167TIP3    H148386   9.113   6.936   3.727
16167TIP3    H248387   9.128   6.976   3.583
16168TIP3   OH248388   9.683   7.402   5.240
16168TIP3    H148389   9.651   7.420   5.149
16168TIP3    H248390   9.722   7.312   5.231
16169TIP3   OH248391   9.564   7.169   3.461
16169TIP3    H148392   9.576   7.186   3.557
16169TIP3    H248393   9.563   7.071   3.461
16170TIP3   OH248394   9.268   6.873   3.878
16170TIP3    H148395   9.241   6.832   3.962
16170TIP3    H248396   9.302   6.796   3.828
16171TIP3   OH248397   9.539   6.935   5.103
16171TIP3    H148398   9.467   6.999   5.113
16171TIP3    H248399   9.587   6.969   5.024
16172TIP3   OH248400   9.366   6.667   3.718
16172TIP3    H148401   9.339   6.667   3.624
16172TIP3    H248402   9.463   6.675   3.709
16173TIP3   OH248403  10.046   7.339   5.242
16173TIP3    H148404  10.131   7.321   5.201
16173TIP3    H248405  10.045   7.275   5.316
16174TIP3   OH248406   9.662   6.727   5.235
16174TIP3    H148407   9.659   6.645   5.183
16174TIP3    H248408   9.618   6.791   5.175
16175TIP3   OH248409   9.663   6.509   5.040
16175TIP3    H148410   9.688   6.556   4.958
16175TIP3    H248411   9.569   6.487   5.021
16176TIP3   OH248412   9.694   7.047   4.909
16176TIP3    H148413   9.776   7.049   4.857
16176TIP3    H248414   9.642   7.117   4.865
16177TIP3   OH248415  10.282   7.022   5.288
16177TIP3    H148416  10.319   6.937   5.317
16177TIP3    H248417  10.361   7.078   5.290
16178TIP3   OH248418   9.524   6.853   5.453
16178TIP3    H148419   9.468   6.775   5.472
16178TIP3    H248420   9.574   6.820   5.375
16179TIP3   OH248421   9.793   6.275   5.097
16179TIP3    H148422   9.742   6.358   5.081
16179TIP3    H248423   9.722   6.207   5.090
16180TIP3   OH248424   9.924   6.781   5.320
16180TIP3    H148425   9.918   6.767   5.416
16180TIP3    H248426   9.833   6.757   5.294
16181TIP3   OH248427  10.151   6.695   5.165
16181TIP3    H148428  10.075   6.721   5.222
16181TIP3    H248429  10.222   6.690   5.232
16182TIP3   OH248430  10.368   6.662   5.351
16182TIP3    H148431  10.414   6.590   5.396
16182TIP3    H248432  10.367   6.730   5.421
16183TIP3   OH248433   9.392   6.625   5.515
16183TIP3    H148434   9.374   6.540   5.472
16183TIP3    H248435   9.412   6.597   5.606
16184TIP3   OH248436   9.890   6.288   5.357
16184TIP3    H148437   9.956   6.217   5.355
16184TIP3    H248438   9.847   6.277   5.269
16185TIP3   OH248439   9.963   6.507   5.511
16185TIP3    H148440   9.933   6.433   5.454
16185TIP3    H248441   9.882   6.562   5.519
16186TIP3   OH248442   9.176   7.732   3.623
16186TIP3    H148443   9.270   7.727   3.601
16186TIP3    H248444   9.142   7.776   3.543
16187TIP3   OH248445   8.655   7.112   3.838
16187TIP3    H148446   8.750   7.133   3.825
16187TIP3    H248447   8.650   7.023   3.797
16188TIP3   OH248448   8.569   7.724   4.251
16188TIP3    H148449   8.501   7.662   4.216
16188TIP3    H248450   8.613   7.667   4.317
16189TIP3   OH248451   8.705   7.577   4.438
16189TIP3    H148452   8.693   7.502   4.498
16189TIP3    H248453   8.756   7.638   4.495
16190TIP3   OH248454   8.895   6.990   4.806
16190TIP3    H148455   8.895   6.955   4.714
16190TIP3    H248456   8.991   6.991   4.825
16191TIP3   OH248457   9.073   6.360   4.811
16191TIP3    H148458   9.136   6.286   4.825
16191TIP3    H248459   9.133   6.436   4.811
16192TIP3   OH248460   8.870   6.637   4.883
16192TIP3    H148461   8.923   6.636   4.801
16192TIP3    H248462   8.911   6.707   4.934
16193TIP3   OH248463   8.858   6.141   4.391
16193TIP3    H148464   8.764   6.137   4.416
16193TIP3    H248465   8.855   6.198   4.311
16194TIP3   OH248466   9.073   6.206   5.203
16194TIP3    H148467   9.029   6.214   5.290
16194TIP3    H248468   9.013   6.262   5.149
16195TIP3   OH248469   9.117   7.607   5.276
16195TIP3    H148470   9.019   7.609   5.273
16195TIP3    H248471   9.134   7.634   5.368
16196TIP3   OH248472   9.294   7.678   4.830
16196TIP3    H148473   9.249   7.755   4.789
16196TIP3    H248474   9.382   7.691   4.787
16197TIP3   OH248475   9.741   7.924   4.968
16197TIP3    H148476   9.782   7.927   5.058
16197TIP3    H248477   9.808   7.975   4.917
16198TIP3   OH248478   9.920   8.073   4.822
16198TIP3    H148479   9.968   8.011   4.765
16198TIP3    H248480   9.993   8.134   4.843
16199TIP3   OH248481   8.972   7.934   4.853
16199TIP3    H148482   8.883   7.969   4.829
16199TIP3    H248483   8.982   7.973   4.941
16200TIP3   OH248484   9.206   7.911   4.709
16200TIP3    H148485   9.121   7.926   4.755
16200TIP3    H248486   9.187   7.946   4.620
16201TIP3   OH248487   9.636   7.941   4.498
16201TIP3    H148488   9.559   7.964   4.443
16201TIP3    H248489   9.650   8.024   4.550
16202TIP3   OH248490   9.905   7.889   4.563
16202TIP3    H148491   9.811   7.900   4.539
16202TIP3    H248492   9.947   7.967   4.523
16203TIP3   OH248493   8.884   7.731   4.596
16203TIP3    H148494   8.909   7.705   4.688
16203TIP3    H248495   8.956   7.687   4.546
16204TIP3   OH248496   9.078   7.600   4.454
16204TIP3    H148497   9.094   7.516   4.502
16204TIP3    H248498   9.168   7.637   4.450
16205TIP3   OH248499   9.344   7.695   4.458
16205TIP3    H148500   9.376   7.604   4.444
16205TIP3    H248501   9.389   7.716   4.542
16206TIP3   OH248502   9.922   6.242   4.495
16206TIP3    H148503   9.871   6.258   4.575
16206TIP3    H248504   9.982   6.316   4.491
16207TIP3   OH248505   9.168   6.059   4.559
16207TIP3    H148506   9.076   6.027   4.561
16207TIP3    H248507   9.216   5.973   4.558
16208TIP3   OH248508   8.955   5.930   4.210
16208TIP3    H148509   8.984   5.987   4.137
16208TIP3    H248510   8.925   5.995   4.276
16209TIP3   OH248511   8.672   7.500   3.988
16209TIP3    H148512   8.587   7.466   3.954
16209TIP3    H248513   8.660   7.594   3.971
16210TIP3   OH248514   9.071   6.091   3.971
16210TIP3    H148515   9.119   6.027   3.915
16210TIP3    H248516   9.145   6.144   4.009
16211TIP3   OH248517   9.584   6.262   4.071
16211TIP3    H148518   9.663   6.215   4.099
16211TIP3    H248519   9.607   6.353   4.100
16212TIP3   OH248520   9.442   7.694   3.567
16212TIP3    H148521   9.531   7.714   3.530
16212TIP3    H248522   9.420   7.617   3.509
16213TIP3   OH248523   9.375   6.338   5.448
16213TIP3    H148524   9.344   6.272   5.512
16213TIP3    H248525   9.469   6.346   5.476
16214TIP3   OH248526   9.623   6.338   5.572
16214TIP3    H148527   9.711   6.318   5.535
16214TIP3    H248528   9.614   6.266   5.638
16215TIP3   OH248529   8.749   7.529   3.628
16215TIP3    H148530   8.746   7.552   3.722
16215TIP3    H248531   8.837   7.486   3.619
16216TIP3   OH248532   0.717   7.901   6.425
16216TIP3    H148533   0.731   7.824   6.484
16216TIP3    H248534   0.793   7.954   6.450
16217TIP3   OH248535   1.328   7.148   6.759
16217TIP3    H148536   1.356   7.231   6.804
16217TIP3    H248537   1.344   7.170   6.666
16218TIP3   OH248538   0.800   7.324   6.784
16218TIP3    H148539   0.828   7.234   6.808
16218TIP3    H248540   0.766   7.307   6.695
16219TIP3   OH248541   0.753   7.078   6.388
16219TIP3    H148542   0.830   7.059   6.448
16219TIP3    H248543   0.801   7.107   6.308
16220TIP3   OH248544   1.405   7.356   6.926
16220TIP3    H148545   1.319   7.401   6.907
16220TIP3    H248546   1.407   7.367   7.022
16221TIP3   OH248547   0.971   7.077   6.553
16221TIP3    H148548   0.946   7.037   6.638
16221TIP3    H248549   1.025   7.153   6.581
16222TIP3   OH248550   1.128   7.043   6.930
16222TIP3    H148551   1.039   7.081   6.917
16222TIP3    H248552   1.177   7.076   6.852
16223TIP3   OH248553   0.611   7.932   6.155
16223TIP3    H148554   0.613   7.886   6.078
16223TIP3    H248555   0.701   7.918   6.191
16224TIP3   OH248556   1.067   8.067   6.911
16224TIP3    H148557   1.035   7.984   6.872
16224TIP3    H248558   1.050   8.132   6.840
16225TIP3   OH248559   1.270   7.684   6.749
16225TIP3    H148560   1.184   7.731   6.760
16225TIP3    H248561   1.291   7.711   6.657
16226TIP3   OH248562   0.696   7.556   6.162
16226TIP3    H148563   0.634   7.494   6.202
16226TIP3    H248564   0.781   7.510   6.177
16227TIP3   OH248565   0.949   7.600   7.015
16227TIP3    H148566   0.943   7.662   7.089
16227TIP3    H248567   0.855   7.579   7.001
16228TIP3   OH248568   0.593   7.366   5.963
16228TIP3    H148569   0.574   7.451   6.004
16228TIP3    H248570   0.584   7.390   5.868
16229TIP3   OH248571   1.051   6.632   6.010
16229TIP3    H148572   0.969   6.651   6.062
16229TIP3    H248573   1.062   6.716   5.961
16230TIP3   OH248574   0.850   8.004   5.561
16230TIP3    H148575   0.862   8.099   5.544
16230TIP3    H248576   0.940   7.969   5.546
16231TIP3   OH248577   1.305   8.393   6.948
16231TIP3    H148578   1.304   8.298   6.971
16231TIP3    H248579   1.213   8.418   6.970
16232TIP3   OH248580   1.191   7.539   7.215
16232TIP3    H148581   1.100   7.545   7.182
16232TIP3    H248582   1.196   7.444   7.235
16233TIP3   OH248583   0.726   6.876   7.227
16233TIP3    H148584   0.793   6.841   7.290
16233TIP3    H248585   0.643   6.857   7.272
16234TIP3   OH248586   0.989   7.332   7.131
16234TIP3    H148587   0.950   7.314   7.220
16234TIP3    H248588   0.921   7.391   7.096
16235TIP3   OH248589   0.616   7.437   5.701
16235TIP3    H148590   0.567   7.414   5.621
16235TIP3    H248591   0.694   7.482   5.667
16236TIP3   OH248592   0.653   7.285   6.541
16236TIP3    H148593   0.566   7.297   6.498
16236TIP3    H248594   0.681   7.202   6.497
16237TIP3   OH248595   0.822   7.052   6.807
16237TIP3    H148596   0.822   7.054   6.906
16237TIP3    H248597   0.750   6.988   6.791
16238TIP3   OH248598   1.044   7.826   6.742
16238TIP3    H148599   1.061   7.879   6.662
16238TIP3    H248600   0.947   7.834   6.751
16239TIP3   OH248601   0.534   6.921   5.970
16239TIP3    H148602   0.453   6.974   5.978
16239TIP3    H248603   0.600   6.992   5.989
16240TIP3   OH248604   0.678   7.127   6.056
16240TIP3    H148605   0.763   7.161   6.090
16240TIP3    H248606   0.635   7.211   6.026
16241TIP3   OH248607   1.089   7.252   5.914
16241TIP3    H148608   1.027   7.205   5.852
16241TIP3    H248609   1.084   7.340   5.872
16242TIP3   OH248610   1.315   8.111   6.998
16242TIP3    H148611   1.216   8.106   6.992
16242TIP3    H248612   1.338   8.081   6.908
16243TIP3   OH248613   0.793   8.067   5.828
16243TIP3    H148614   0.757   7.990   5.874
16243TIP3    H248615   0.806   8.032   5.737
16244TIP3   OH248616   0.770   7.706   6.617
16244TIP3    H148617   0.715   7.672   6.689
16244TIP3    H248618   0.823   7.626   6.595
16245TIP3   OH248619   0.877   8.283   5.547
16245TIP3    H148620   0.929   8.352   5.502
16245TIP3    H248621   0.788   8.315   5.526
16246TIP3   OH248622   0.717   7.774   5.971
16246TIP3    H148623   0.687   7.691   6.011
16246TIP3    H248624   0.807   7.746   5.938
16247TIP3   OH248625   0.831   7.080   7.072
16247TIP3    H148626   0.853   7.159   7.125
16247TIP3    H248627   0.803   7.016   7.141
16248TIP3   OH248628   0.635   6.860   6.240
16248TIP3    H148629   0.600   6.901   6.159
16248TIP3    H248630   0.653   6.937   6.296
16249TIP3   OH248631   1.240   7.247   7.136
16249TIP3    H148632   1.145   7.272   7.145
16249TIP3    H248633   1.237   7.210   7.047
16250TIP3   OH248634   0.874   7.463   6.528
16250TIP3    H148635   0.798   7.401   6.535
16250TIP3    H248636   0.943   7.416   6.580
16251TIP3   OH248637   0.841   8.325   6.470
16251TIP3    H148638   0.806   8.392   6.410
16251TIP3    H248639   0.933   8.350   6.474
16252TIP3   OH248640   0.850   7.536   5.579
16252TIP3    H148641   0.829   7.484   5.499
16252TIP3    H248642   0.818   7.624   5.549
16253TIP3   OH248643   0.968   7.539   7.473
16253TIP3    H148644   0.984   7.477   7.546
16253TIP3    H248645   1.001   7.621   7.511
16254TIP3   OH248646   0.972   7.794   7.209
16254TIP3    H148647   0.920   7.860   7.163
16254TIP3    H248648   1.063   7.814   7.176
16255TIP3   OH248649   0.857   7.275   7.350
16255TIP3    H148650   0.773   7.257   7.396
16255TIP3    H248651   0.920   7.250   7.422
16256TIP3   OH248652   0.986   7.176   7.561
16256TIP3    H148653   1.037   7.093   7.561
16256TIP3    H248654   1.041   7.230   7.623
16257TIP3   OH248655   1.154   8.642   6.436
16257TIP3    H148656   1.152   8.592   6.519
16257TIP3    H248657   1.193   8.581   6.372
16258TIP3   OH248658   1.123   8.520   6.695
16258TIP3    H148659   1.087   8.432   6.715
16258TIP3    H248660   1.188   8.529   6.766
16259TIP3   OH248661   1.158   8.210   7.284
16259TIP3    H148662   1.111   8.203   7.367
16259TIP3    H248663   1.205   8.295   7.293
16260TIP3   OH248664   0.985   7.718   5.914
16260TIP3    H148665   1.056   7.778   5.887
16260TIP3    H248666   1.025   7.676   5.994
16261TIP3   OH248667   1.108   7.588   6.121
16261TIP3    H148668   1.044   7.539   6.177
16261TIP3    H248669   1.173   7.621   6.185
16262TIP3   OH248670   1.145   7.976   6.536
16262TIP3    H148671   1.210   7.911   6.501
16262TIP3    H248672   1.164   8.055   6.481
16263TIP3   OH248673   0.980   8.269   6.738
16263TIP3    H148674   0.926   8.324   6.796
16263TIP3    H248675   0.924   8.257   6.660
16264TIP3   OH248676   1.047   7.492   5.766
16264TIP3    H148677   0.975   7.494   5.699
16264TIP3    H248678   1.019   7.568   5.821
16265TIP3   OH248679   0.926   7.163   5.716
16265TIP3    H148680   0.872   7.206   5.648
16265TIP3    H248681   0.896   7.070   5.708
16266TIP3   OH248682   0.927   7.435   6.261
16266TIP3    H148683   0.935   7.338   6.254
16266TIP3    H248684   0.917   7.447   6.359
16267TIP3   OH248685   1.216   7.867   7.120
16267TIP3    H148686   1.286   7.798   7.114
16267TIP3    H248687   1.249   7.935   7.060
16268TIP3   OH248688   1.404   7.676   7.136
16268TIP3    H148689   1.328   7.626   7.172
16268TIP3    H248690   1.475   7.610   7.154
16269TIP3   OH248691   0.861   6.899   5.712
16269TIP3    H148692   0.939   6.870   5.764
16269TIP3    H248693   0.791   6.837   5.737
16270TIP3   OH248694   0.933   7.164   6.171
16270TIP3    H148695   0.969   7.073   6.186
16270TIP3    H248696   0.983   7.190   6.092
16271TIP3   OH248697   1.083   7.329   6.651
16271TIP3    H148698   1.170   7.357   6.615
16271TIP3    H248699   1.090   7.365   6.741
16272TIP3   OH248700   1.155   7.468   6.882
16272TIP3    H148701   1.080   7.504   6.935
16272TIP3    H248702   1.189   7.551   6.842
16273TIP3   OH248703   1.615   7.068   7.448
16273TIP3    H148704   1.661   6.998   7.398
16273TIP3    H248705   1.576   7.122   7.375
16274TIP3   OH248706   1.030   6.907   6.198
16274TIP3    H148707   1.075   6.890   6.284
16274TIP3    H248708   0.967   6.832   6.195
16275TIP3   OH248709   1.482   7.206   7.260
16275TIP3    H148710   1.399   7.246   7.293
16275TIP3    H248711   1.444   7.144   7.195
16276TIP3   OH248712   1.110   6.842   5.831
16276TIP3    H148713   1.150   6.770   5.779
16276TIP3    H248714   1.176   6.914   5.822
16277TIP3   OH248715   1.374   6.968   7.127
16277TIP3    H148716   1.281   6.970   7.096
16277TIP3    H248717   1.397   6.873   7.113
16278TIP3   OH248718   0.622   6.858   6.771
16278TIP3    H148719   0.599   6.779   6.824
16278TIP3    H248720   0.691   6.821   6.712
16279TIP3   OH248721   1.105   6.762   6.652
16279TIP3    H148722   1.139   6.817   6.578
16279TIP3    H248723   1.009   6.781   6.647
16280TIP3   OH248724   1.196   6.865   6.415
16280TIP3    H148725   1.269   6.815   6.374
16280TIP3    H248726   1.227   6.957   6.401
16281TIP3   OH248727   0.830   6.764   6.618
16281TIP3    H148728   0.821   6.729   6.529
16281TIP3    H248729   0.815   6.683   6.673
16282TIP3   OH248730   0.848   6.694   6.188
16282TIP3    H148731   0.764   6.742   6.204
16282TIP3    H248732   0.830   6.609   6.234
16283TIP3   OH248733   0.820   8.340   5.851
16283TIP3    H148734   0.814   8.242   5.862
16283TIP3    H248735   0.784   8.347   5.761
16284TIP3   OH248736   1.108   6.927   7.560
16284TIP3    H148737   1.128   6.903   7.653
16284TIP3    H248738   1.197   6.926   7.520
16285TIP3   OH248739   1.048   8.478   6.990
16285TIP3    H148740   0.973   8.438   7.036
16285TIP3    H248741   1.058   8.557   7.045
16286TIP3   OH248742   2.312   7.856   5.821
16286TIP3    H148743   2.284   7.948   5.800
16286TIP3    H248744   2.235   7.807   5.787
16287TIP3   OH248745   2.313   7.855   6.199
16287TIP3    H148746   2.340   7.825   6.288
16287TIP3    H248747   2.268   7.777   6.164
16288TIP3   OH248748   1.608   7.751   6.565
16288TIP3    H148749   1.639   7.684   6.629
16288TIP3    H248750   1.684   7.810   6.562
16289TIP3   OH248751   2.555   8.157   5.882
16289TIP3    H148752   2.538   8.089   5.948
16289TIP3    H248753   2.581   8.233   5.936
16290TIP3   OH248754   1.580   8.159   6.292
16290TIP3    H148755   1.573   8.061   6.294
16290TIP3    H248756   1.677   8.169   6.290
16291TIP3   OH248757   1.288   7.368   6.078
16291TIP3    H148758   1.236   7.450   6.089
16291TIP3    H248759   1.220   7.309   6.042
16292TIP3   OH248760   1.347   7.653   6.250
16292TIP3    H148761   1.396   7.576   6.287
16292TIP3    H248762   1.404   7.676   6.175
16293TIP3   OH248763   2.201   8.620   5.897
16293TIP3    H148764   2.249   8.548   5.851
16293TIP3    H248765   2.195   8.585   5.987
16294TIP3   OH248766   2.109   8.081   6.249
16294TIP3    H148767   2.146   8.006   6.200
16294TIP3    H248768   2.193   8.126   6.273
16295TIP3   OH248769   3.123   7.401   6.247
16295TIP3    H148770   3.150   7.485   6.291
16295TIP3    H248771   3.141   7.423   6.154
16296TIP3   OH248772   2.523   7.584   6.283
16296TIP3    H148773   2.563   7.497   6.302
16296TIP3    H248774   2.491   7.570   6.192
16297TIP3   OH248775   1.860   7.243   6.247
16297TIP3    H148776   1.837   7.315   6.185
16297TIP3    H248777   1.812   7.169   6.204
16298TIP3   OH248778   2.553   7.333   5.872
16298TIP3    H148779   2.627   7.318   5.934
16298TIP3    H248780   2.602   7.369   5.796
16299TIP3   OH248781   1.494   7.447   6.354
16299TIP3    H148782   1.576   7.424   6.402
16299TIP3    H248783   1.503   7.389   6.275
16300TIP3   OH248784   1.934   7.643   6.145
16300TIP3    H148785   2.027   7.616   6.160
16300TIP3    H248786   1.893   7.559   6.114
16301TIP3   OH248787   3.195   7.609   6.417
16301TIP3    H148788   3.112   7.657   6.397
16301TIP3    H248789   3.208   7.634   6.510
16302TIP3   OH248790   1.856   7.226   6.682
16302TIP3    H148791   1.795   7.262   6.615
16302TIP3    H248792   1.804   7.243   6.763
16303TIP3   OH248793   2.206   8.078   5.690
16303TIP3    H148794   2.161   8.054   5.607
16303TIP3    H248795   2.161   8.162   5.712
16304TIP3   OH248796   1.963   8.001   6.478
16304TIP3    H148797   1.899   8.065   6.516
16304TIP3    H248798   2.004   8.053   6.407
16305TIP3   OH248799   2.767   7.333   6.041
16305TIP3    H148800   2.751   7.288   6.125
16305TIP3    H248801   2.818   7.411   6.069
16306TIP3   OH248802   1.727   7.341   6.466
16306TIP3    H148803   1.789   7.414   6.489
16306TIP3    H248804   1.776   7.300   6.391
16307TIP3   OH248805   1.790   8.194   6.573
16307TIP3    H148806   1.764   8.281   6.536
16307TIP3    H248807   1.712   8.178   6.631
16308TIP3   OH248808   1.187   7.885   5.811
16308TIP3    H148809   1.145   7.909   5.726
16308TIP3    H248810   1.216   7.972   5.846
16309TIP3   OH248811   2.626   8.399   6.050
16309TIP3    H148812   2.536   8.391   6.090
16309TIP3    H248813   2.618   8.486   6.006
16310TIP3   OH248814   2.915   7.302   6.413
16310TIP3    H148815   2.827   7.331   6.385
16310TIP3    H248816   2.972   7.333   6.340
16311TIP3   OH248817   2.215   6.947   6.398
16311TIP3    H148818   2.199   6.851   6.412
16311TIP3    H248819   2.136   6.984   6.442
16312TIP3   OH248820   2.329   8.447   5.727
16312TIP3    H148821   2.379   8.365   5.704
16312TIP3    H248822   2.387   8.514   5.684
16313TIP3   OH248823   2.470   8.232   5.629
16313TIP3    H148824   2.429   8.154   5.592
16313TIP3    H248825   2.505   8.197   5.714
16314TIP3   OH248826   2.852   8.314   6.394
16314TIP3    H148827   2.840   8.237   6.335
16314TIP3    H248828   2.833   8.389   6.334
16315TIP3   OH248829   2.142   7.708   5.651
16315TIP3    H148830   2.061   7.758   5.629
16315TIP3    H248831   2.187   7.704   5.564
16316TIP3   OH248832   2.101   7.491   5.371
16316TIP3    H148833   2.171   7.541   5.416
16316TIP3    H248834   2.156   7.427   5.322
16317TIP3   OH248835   3.046   7.950   6.239
16317TIP3    H148836   2.963   8.002   6.244
16317TIP3    H248837   3.075   7.974   6.148
16318TIP3   OH248838   2.489   7.791   5.623
16318TIP3    H148839   2.434   7.816   5.701
16318TIP3    H248840   2.572   7.764   5.668
16319TIP3   OH248841   2.725   7.830   6.533
16319TIP3    H148842   2.721   7.915   6.581
16319TIP3    H248843   2.638   7.832   6.488
16320TIP3   OH248844   1.721   7.789   6.039
16320TIP3    H148845   1.679   7.731   5.972
16320TIP3    H248846   1.798   7.735   6.067
16321TIP3   OH248847   1.851   8.200   6.188
16321TIP3    H148848   1.831   8.155   6.104
16321TIP3    H248849   1.941   8.167   6.207
16322TIP3   OH248850   1.860   7.758   6.394
16322TIP3    H148851   1.892   7.740   6.303
16322TIP3    H248852   1.901   7.845   6.414
16323TIP3   OH248853   2.385   8.396   6.171
16323TIP3    H148854   2.369   8.477   6.224
16323TIP3    H248855   2.369   8.324   6.235
16324TIP3   OH248856   1.995   8.315   6.718
16324TIP3    H148857   1.936   8.378   6.764
16324TIP3    H248858   1.929   8.262   6.669
16325TIP3   OH248859   2.332   7.646   5.450
16325TIP3    H148860   2.390   7.707   5.501
16325TIP3    H248861   2.357   7.671   5.357
16326TIP3   OH248862   1.749   7.873   6.816
16326TIP3    H148863   1.754   7.959   6.863
16326TIP3    H248864   1.654   7.853   6.829
16327TIP3   OH248865   2.073   8.328   5.724
16327TIP3    H148866   2.150   8.384   5.744
16327TIP3    H248867   2.011   8.391   5.685
16328TIP3   OH248868   1.792   8.484   6.804
16328TIP3    H148869   1.754   8.483   6.714
16328TIP3    H248870   1.714   8.463   6.860
16329TIP3   OH248871   2.847   6.889   5.498
16329TIP3    H148872   2.765   6.909   5.548
16329TIP3    H248873   2.859   6.972   5.447
16330TIP3   OH248874   1.587   7.631   5.847
16330TIP3    H148875   1.523   7.675   5.788
16330TIP3    H248876   1.546   7.544   5.857
16331TIP3   OH248877   2.644   8.257   5.045
16331TIP3    H148878   2.652   8.354   5.031
16331TIP3    H248879   2.736   8.228   5.032
16332TIP3   OH248880   1.371   8.012   6.752
16332TIP3    H148881   1.309   7.981   6.684
16332TIP3    H248882   1.411   7.928   6.784
16333TIP3   OH248883   1.230   8.211   6.395
16333TIP3    H148884   1.318   8.185   6.364
16333TIP3    H248885   1.254   8.284   6.455
16334TIP3   OH248886   3.090   8.658   6.441
16334TIP3    H148887   3.086   8.561   6.454
16334TIP3    H248888   3.006   8.684   6.485
16335TIP3   OH248889   2.195   8.444   6.575
16335TIP3    H148890   2.194   8.537   6.607
16335TIP3    H248891   2.123   8.406   6.629
16336TIP3   OH248892   1.954   8.574   5.526
16336TIP3    H148893   1.907   8.555   5.443
16336TIP3    H248894   1.921   8.664   5.548
16337TIP3   OH248895   1.390   8.424   5.908
16337TIP3    H148896   1.444   8.412   5.990
16337TIP3    H248897   1.336   8.343   5.910
16338TIP3   OH248898   2.156   8.476   5.167
16338TIP3    H148899   2.215   8.405   5.131
16338TIP3    H248900   2.190   8.484   5.258
16339TIP3   OH248901   2.206   8.523   5.437
16339TIP3    H148902   2.117   8.533   5.479
16339TIP3    H248903   2.256   8.481   5.509
16340TIP3   OH248904   2.979   7.791   6.714
16340TIP3    H148905   2.897   7.805   6.663
16340TIP3    H248906   2.992   7.694   6.703
16341TIP3   OH248907   1.575   8.197   6.740
16341TIP3    H148908   1.625   8.183   6.823
16341TIP3    H248909   1.501   8.133   6.749
16342TIP3   OH248910   1.974   7.022   6.523
16342TIP3    H148911   1.885   6.990   6.498
16342TIP3    H248912   1.949   7.104   6.569
16343TIP3   OH248913   2.506   7.137   6.718
16343TIP3    H148914   2.572   7.110   6.785
16343TIP3    H248915   2.421   7.117   6.763
16344TIP3   OH248916   2.750   7.567   6.639
16344TIP3    H148917   2.699   7.563   6.723
16344TIP3    H248918   2.722   7.653   6.602
16345TIP3   OH248919   2.409   7.696   5.195
16345TIP3    H148920   2.373   7.670   5.107
16345TIP3    H248921   2.488   7.746   5.167
16346TIP3   OH248922   2.122   7.068   5.495
16346TIP3    H148923   2.087   7.068   5.586
16346TIP3    H248924   2.080   6.987   5.461
16347TIP3   OH248925   1.907   7.536   6.543
16347TIP3    H148926   1.855   7.556   6.624
16347TIP3    H248927   1.890   7.617   6.490
16348TIP3   OH248928   1.789   7.423   6.056
16348TIP3    H148929   1.696   7.397   6.073
16348TIP3    H248930   1.802   7.382   5.967
16349TIP3   OH248931   2.280   7.510   5.784
16349TIP3    H148932   2.226   7.581   5.743
16349TIP3    H248933   2.333   7.480   5.708
16350TIP3   OH248934   2.454   7.788   6.871
16350TIP3    H148935   2.430   7.715   6.933
16350TIP3    H248936   2.548   7.801   6.894
16351TIP3   OH248937   2.438   7.538   6.024
16351TIP3    H148938   2.378   7.569   5.953
16351TIP3    H248939   2.469   7.456   5.981
16352TIP3   OH248940   1.725   7.566   6.751
16352TIP3    H148941   1.745   7.629   6.822
16352TIP3    H248942   1.709   7.483   6.801
16353TIP3   OH248943   1.778   7.044   5.462
16353TIP3    H148944   1.764   7.041   5.558
16353TIP3    H248945   1.697   7.093   5.434
16354TIP3   OH248946   1.317   7.091   6.330
16354TIP3    H148947   1.394   7.119   6.384
16354TIP3    H248948   1.356   7.054   6.250
16355TIP3   OH248949   1.293   7.070   5.852
16355TIP3    H148950   1.335   7.110   5.773
16355TIP3    H248951   1.230   7.141   5.874
16356TIP3   OH248952   2.451   7.785   6.447
16356TIP3    H148953   2.482   7.712   6.388
16356TIP3    H248954   2.419   7.733   6.524
16357TIP3   OH248955   2.116   7.243   6.119
16357TIP3    H148956   2.032   7.242   6.168
16357TIP3    H248957   2.181   7.247   6.191
16358TIP3   OH248958   1.551   7.301   6.126
16358TIP3    H148959   1.456   7.309   6.100
16358TIP3    H248960   1.572   7.209   6.103
16359TIP3   OH248961   1.822   7.298   5.814
16359TIP3    H148962   1.915   7.314   5.789
16359TIP3    H248963   1.773   7.321   5.731
16360TIP3   OH248964   2.609   7.318   6.318
16360TIP3    H148965   2.575   7.332   6.410
16360TIP3    H248966   2.541   7.258   6.283
16361TIP3   OH248967   1.661   7.331   5.595
16361TIP3    H148968   1.590   7.284   5.548
16361TIP3    H248969   1.712   7.366   5.519
16362TIP3   OH248970   2.778   9.008   6.538
16362TIP3    H148971   2.775   9.033   6.444
16362TIP3    H248972   2.855   9.058   6.569
16363TIP3   OH248973   1.736   8.120   6.959
16363TIP3    H148974   1.815   8.151   7.008
16363TIP3    H248975   1.671   8.117   7.033
16364TIP3   OH248976   2.200   7.573   6.216
16364TIP3    H148977   2.272   7.531   6.166
16364TIP3    H248978   2.209   7.531   6.304
16365TIP3   OH248979   1.726   7.060   6.094
16365TIP3    H148980   1.690   6.981   6.139
16365TIP3    H248981   1.769   7.022   6.017
16366TIP3   OH248982   2.176   7.469   6.505
16366TIP3    H148983   2.086   7.504   6.519
16366TIP3    H248984   2.232   7.530   6.557
16367TIP3   OH248985   1.913   7.861   5.600
16367TIP3    H148986   1.841   7.795   5.589
16367TIP3    H248987   1.895   7.894   5.692
16368TIP3   OH248988   2.814   8.096   6.231
16368TIP3    H148989   2.838   8.145   6.149
16368TIP3    H248990   2.728   8.056   6.207
16369TIP3   OH248991   2.372   7.173   5.463
16369TIP3    H148992   2.275   7.156   5.470
16369TIP3    H248993   2.380   7.268   5.484
16370TIP3   OH248994   2.315   8.179   6.597
16370TIP3    H148995   2.330   8.156   6.690
16370TIP3    H248996   2.274   8.267   6.604
16371TIP3   OH248997   2.441   7.420   5.566
16371TIP3    H148998   2.537   7.427   5.579
16371TIP3    H248999   2.420   7.498   5.512
16372TIP3   OH249000   1.605   7.883   6.277
16372TIP3    H149001   1.643   7.854   6.192
16372TIP3    H249002   1.641   7.818   6.339
16373TIP3   OH249003   2.059   8.011   5.423
16373TIP3    H149004   2.012   8.097   5.429
16373TIP3    H249005   2.004   7.954   5.481
16374TIP3   OH249006   1.487   7.804   6.890
16374TIP3    H149007   1.503   7.788   6.985
16374TIP3    H249008   1.419   7.736   6.870
16375TIP3   OH249009   2.209   7.916   6.910
16375TIP3    H149010   2.149   7.857   6.862
16375TIP3    H249011   2.296   7.883   6.880
16376TIP3   OH249012   2.474   8.436   6.493
16376TIP3    H149013   2.377   8.436   6.504
16376TIP3    H249014   2.501   8.489   6.571
16377TIP3   OH249015   2.885   7.509   5.401
16377TIP3    H149016   2.822   7.463   5.340
16377TIP3    H249017   2.880   7.598   5.360
16378TIP3   OH249018   3.102   8.366   6.484
16378TIP3    H149019   3.004   8.362   6.475
16378TIP3    H249020   3.127   8.337   6.393
16379TIP3   OH249021   2.586   8.329   5.311
16379TIP3    H149022   2.556   8.260   5.371
16379TIP3    H249023   2.594   8.282   5.226
16380TIP3   OH249024   2.579   7.958   6.150
16380TIP3    H149025   2.486   7.932   6.163
16380TIP3    H249026   2.613   7.879   6.104
16381TIP3   OH249027   1.706   8.185   5.901
16381TIP3    H149028   1.708   8.267   5.848
16381TIP3    H249029   1.611   8.172   5.910
16382TIP3   OH249030   1.271   7.490   5.606
16382TIP3    H149031   1.316   7.574   5.626
16382TIP3    H249032   1.192   7.496   5.664
16383TIP3   OH249033   1.847   7.953   5.847
16383TIP3    H149034   1.811   8.042   5.864
16383TIP3    H249035   1.809   7.902   5.921
16384TIP3   OH249036   1.975   8.529   6.371
16384TIP3    H149037   2.014   8.603   6.320
16384TIP3    H249038   2.052   8.497   6.420
16385TIP3   OH249039   1.626   8.425   5.754
16385TIP3    H149040   1.540   8.434   5.798
16385TIP3    H249041   1.658   8.518   5.757
16386TIP3   OH249042   2.364   8.164   6.328
16386TIP3    H149043   2.356   8.163   6.427
16386TIP3    H249044   2.444   8.111   6.316
16387TIP3   OH249045   2.337   8.057   5.211
16387TIP3    H149046   2.388   8.032   5.290
16387TIP3    H249047   2.248   8.029   5.238
16388TIP3   OH249048   2.613   8.698   6.379
16388TIP3    H149049   2.534   8.642   6.371
16388TIP3    H249050   2.598   8.763   6.307
16389TIP3   OH249051   2.678   8.533   5.032
16389TIP3    H149052   2.715   8.605   4.978
16389TIP3    H249053   2.598   8.578   5.065
16390TIP3   OH249054   1.697   7.308   6.897
16390TIP3    H149055   1.601   7.318   6.912
16390TIP3    H249056   1.722   7.249   6.970
16391TIP3   OH249057   2.497   7.991   5.428
16391TIP3    H149058   2.487   7.925   5.499
16391TIP3    H249059   2.594   7.989   5.416
16392TIP3   OH249060   1.408   8.389   6.532
16392TIP3    H149061   1.467   8.320   6.567
16392TIP3    H249062   1.433   8.464   6.587
16393TIP3   OH249063   1.705   8.038   5.211
16393TIP3    H149064   1.717   7.947   5.179
16393TIP3    H249065   1.685   8.023   5.306
16394TIP3   OH249066   1.648   8.043   5.485
16394TIP3    H149067   1.720   8.015   5.543
16394TIP3    H249068   1.654   8.140   5.491
16395TIP3   OH249069   1.387   7.737   5.686
16395TIP3    H149070   1.321   7.781   5.743
16395TIP3    H249071   1.401   7.806   5.619
16396TIP3   OH249072   2.536   7.372   6.577
16396TIP3    H149073   2.613   7.410   6.621
16396TIP3    H249074   2.518   7.292   6.631
16397TIP3   OH249075   2.415   7.124   5.742
16397TIP3    H149076   2.398   7.147   5.648
16397TIP3    H249077   2.453   7.207   5.777
16398TIP3   OH249078   1.915   8.240   5.433
16398TIP3    H149079   1.828   8.269   5.468
16398TIP3    H249080   1.931   8.309   5.367
16399TIP3   OH249081   2.107   7.301   5.845
16399TIP3    H149082   2.170   7.374   5.827
16399TIP3    H249083   2.109   7.297   5.943
16400TIP3   OH249084   2.373   7.623   6.653
16400TIP3    H149085   2.390   7.678   6.732
16400TIP3    H249086   2.428   7.545   6.671
16401TIP3   OH249087   2.251   7.033   5.951
16401TIP3    H149088   2.236   7.112   6.006
16401TIP3    H249089   2.309   7.069   5.881
16402TIP3   OH249090   1.658   8.316   5.499
16402TIP3    H149091   1.628   8.385   5.436
16402TIP3    H249092   1.642   8.360   5.585
16403TIP3   OH249093   1.759   7.027   5.739
16403TIP3    H149094   1.755   7.119   5.773
16403TIP3    H249095   1.855   7.011   5.746
16404TIP3   OH249096   3.015   7.521   6.633
16404TIP3    H149097   2.917   7.521   6.643
16404TIP3    H249098   3.023   7.483   6.544
16405TIP3   OH249099   2.665   7.716   6.022
16405TIP3    H149100   2.588   7.658   6.034
16405TIP3    H249101   2.735   7.668   6.071
16406TIP3   OH249102   1.376   7.948   5.493
16406TIP3    H149103   1.443   8.017   5.500
16406TIP3    H249104   1.420   7.891   5.426
16407TIP3   OH249105   1.322   7.220   5.626
16407TIP3    H149106   1.319   7.318   5.621
16407TIP3    H249107   1.239   7.195   5.584
16408TIP3   OH249108   2.633   8.671   5.972
16408TIP3    H149109   2.590   8.718   5.897
16408TIP3    H249110   2.727   8.690   5.952
16409TIP3   OH249111   1.712   6.941   6.499
16409TIP3    H149112   1.677   6.909   6.413
16409TIP3    H249113   1.699   6.863   6.556
16410TIP3   OH249114   1.250   8.167   5.886
16410TIP3    H149115   1.169   8.195   5.930
16410TIP3    H249116   1.233   8.200   5.795
16411TIP3   OH249117   1.404   8.694   6.948
16411TIP3    H149118   1.489   8.701   6.998
16411TIP3    H249119   1.390   8.598   6.949
16412TIP3   OH249120   1.888   8.666   6.997
16412TIP3    H149121   1.983   8.648   7.002
16412TIP3    H249122   1.862   8.608   6.922
16413TIP3   OH249123   1.868   8.242   5.126
16413TIP3    H149124   1.812   8.170   5.163
16413TIP3    H249125   1.942   8.189   5.091
16414TIP3   OH249126   2.526   8.571   6.727
16414TIP3    H149127   2.517   8.502   6.796
16414TIP3    H249128   2.602   8.624   6.759
16415TIP3   OH249129   2.305   8.284   5.036
16415TIP3    H149130   2.348   8.218   5.093
16415TIP3    H249131   2.360   8.283   4.955
16416TIP3   OH249132   1.539   8.107   7.154
16416TIP3    H149133   1.557   8.011   7.158
16416TIP3    H249134   1.452   8.109   7.109
16417TIP3   OH249135   1.511   7.761   5.344
16417TIP3    H149136   1.566   7.723   5.415
16417TIP3    H249137   1.577   7.763   5.271
16418TIP3   OH249138   2.145   8.192   6.924
16418TIP3    H149139   2.100   8.207   6.838
16418TIP3    H249140   2.174   8.098   6.917
16419TIP3   OH249141   2.022   7.958   5.152
16419TIP3    H149142   2.023   7.970   5.249
16419TIP3    H249143   2.021   7.860   5.146
16420TIP3   OH249144   2.637   8.198   6.531
16420TIP3    H149145   2.708   8.246   6.487
16420TIP3    H249146   2.563   8.261   6.521
16421TIP3   OH249147   1.657   7.845   7.132
16421TIP3    H149148   1.722   7.775   7.119
16421TIP3    H249149   1.679   7.875   7.223
16422TIP3   OH249150   1.723   7.661   5.569
16422TIP3    H149151   1.694   7.617   5.650
16422TIP3    H249152   1.757   7.586   5.515
16423TIP3   OH249153   1.991   7.728   6.797
16423TIP3    H149154   1.911   7.785   6.800
16423TIP3    H249155   2.036   7.761   6.716
16424TIP3   OH249156   1.820   7.455   5.408
16424TIP3    H149157   1.792   7.455   5.314
16424TIP3    H249158   1.917   7.462   5.398
16425TIP3   OH249159   2.505   8.128   6.930
16425TIP3    H149160   2.584   8.104   6.880
16425TIP3    H249161   2.503   8.060   6.999
16426TIP3   OH249162   2.646   7.787   5.069
16426TIP3    H149163   2.622   7.740   4.987
16426TIP3    H249164   2.613   7.877   5.044
16427TIP3   OH249165   2.115   7.514   6.920
16427TIP3    H149166   2.111   7.434   6.865
16427TIP3    H249167   2.069   7.580   6.864
16428TIP3   OH249168   2.115   7.298   6.727
16428TIP3    H149169   2.141   7.341   6.642
16428TIP3    H249170   2.021   7.276   6.710
16429TIP3   OH249171   2.145   7.837   6.600
16429TIP3    H149172   2.226   7.846   6.548
16429TIP3    H249173   2.086   7.904   6.558
16430TIP3   OH249174   2.726   7.804   6.984
16430TIP3    H149175   2.774   7.720   6.992
16430TIP3    H249176   2.793   7.863   6.947
16431TIP3   OH249177   2.766   8.056   6.720
16431TIP3    H149178   2.707   8.109   6.661
16431TIP3    H249179   2.853   8.076   6.679
16432TIP3   OH249180   1.994   7.626   7.151
16432TIP3    H149181   1.922   7.561   7.167
16432TIP3    H249182   2.025   7.600   7.063
16433TIP3   OH249183   2.247   7.064   6.794
16433TIP3    H149184   2.199   7.147   6.772
16433TIP3    H249185   2.176   6.998   6.783
16434TIP3   OH249186   2.374   7.569   7.011
16434TIP3    H149187   2.359   7.558   7.107
16434TIP3    H249188   2.284   7.545   6.979
16435TIP3   OH249189   2.613   7.517   6.866
16435TIP3    H149190   2.535   7.520   6.926
16435TIP3    H249191   2.684   7.486   6.925
16436TIP3   OH249192   2.847   7.459   7.019
16436TIP3    H149193   2.855   7.363   7.038
16436TIP3    H249194   2.838   7.499   7.108
16437TIP3   OH249195   1.832   7.407   7.201
16437TIP3    H149196   1.835   7.315   7.168
16437TIP3    H249197   1.863   7.394   7.293
16438TIP3   OH249198   2.343   7.074   7.052
16438TIP3    H149199   2.409   7.002   7.044
16438TIP3    H249200   2.301   7.068   6.964
16439TIP3   OH249201   2.407   7.289   7.211
16439TIP3    H149202   2.383   7.219   7.147
16439TIP3    H249203   2.330   7.349   7.206
16440TIP3   OH249204   1.627   8.518   5.312
16440TIP3    H149205   1.723   8.515   5.292
16440TIP3    H249206   1.596   8.566   5.233
16441TIP3   OH249207   1.107   7.899   5.530
16441TIP3    H149208   1.202   7.921   5.515
16441TIP3    H249209   1.102   7.810   5.488
16442TIP3   OH249210   1.027   8.508   5.934
16442TIP3    H149211   0.956   8.448   5.900
16442TIP3    H249212   1.066   8.453   6.005
16443TIP3   OH249213   1.146   8.362   6.131
16443TIP3    H149214   1.151   8.283   6.187
16443TIP3    H249215   1.210   8.419   6.177
16444TIP3   OH249216   2.886   8.761   5.927
16444TIP3    H149217   2.909   8.797   6.015
16444TIP3    H249218   2.941   8.814   5.869
16445TIP3   OH249219   2.914   8.784   6.209
16445TIP3    H149220   2.872   8.695   6.206
16445TIP3    H249221   2.989   8.765   6.266
16446TIP3   OH249222   2.963   8.459   6.784
16446TIP3    H149223   2.888   8.468   6.846
16446TIP3    H249224   3.002   8.549   6.787
16447TIP3   OH249225   2.778   7.973   5.403
16447TIP3    H149226   2.846   8.037   5.376
16447TIP3    H249227   2.820   7.933   5.482
16448TIP3   OH249228   2.905   7.841   5.606
16448TIP3    H149229   2.839   7.798   5.665
16448TIP3    H249230   2.968   7.881   5.670
16449TIP3   OH249231   2.959   8.233   6.041
16449TIP3    H149232   3.012   8.170   5.987
16449TIP3    H249233   2.948   8.308   5.979
16450TIP3   OH249234   2.791   8.532   6.236
16450TIP3    H149235   2.720   8.576   6.286
16450TIP3    H249236   2.740   8.485   6.166
16451TIP3   OH249237   2.843   7.748   5.254
16451TIP3    H149238   2.772   7.751   5.186
16451TIP3    H249239   2.816   7.825   5.309
16452TIP3   OH249240   2.716   7.421   5.208
16452TIP3    H149241   2.672   7.463   5.133
16452TIP3    H249242   2.689   7.327   5.196
16453TIP3   OH249243   2.720   7.697   5.753
16453TIP3    H149244   2.726   7.600   5.748
16453TIP3    H249245   2.706   7.712   5.849
16454TIP3   OH249246   1.344   7.785   6.496
16454TIP3    H149247   1.342   7.747   6.406
16454TIP3    H249248   1.441   7.780   6.515
16455TIP3   OH249249   3.008   8.121   6.611
16455TIP3    H149250   3.081   8.057   6.601
16455TIP3    H249251   3.033   8.192   6.549
16456TIP3   OH249252   3.194   7.929   6.628
16456TIP3    H149253   3.119   7.879   6.667
16456TIP3    H249254   3.266   7.864   6.642
16457TIP3   OH249255   2.658   7.155   5.195
16457TIP3    H149256   2.731   7.123   5.252
16457TIP3    H249257   2.583   7.098   5.219
16458TIP3   OH249258   2.716   7.414   5.650
16458TIP3    H149259   2.756   7.325   5.665
16458TIP3    H249260   2.773   7.447   5.579
16459TIP3   OH249261   2.878   7.586   6.144
16459TIP3    H149262   2.964   7.614   6.104
16459TIP3    H249263   2.890   7.625   6.233
16460TIP3   OH249264   2.945   7.731   6.377
16460TIP3    H149265   2.867   7.765   6.424
16460TIP3    H249266   2.976   7.813   6.331
16461TIP3   OH249267   1.565   7.460   7.174
16461TIP3    H149268   1.662   7.451   7.178
16461TIP3    H249269   1.538   7.377   7.217
16462TIP3   OH249270   3.399   7.324   6.933
16462TIP3    H149271   3.455   7.256   6.889
16462TIP3    H249272   3.369   7.378   6.857
16463TIP3   OH249273   2.825   7.163   5.686
16463TIP3    H149274   2.871   7.146   5.771
16463TIP3    H249275   2.763   7.087   5.684
16464TIP3   OH249276   1.526   7.149   6.502
16464TIP3    H149277   1.588   7.075   6.515
16464TIP3    H249278   1.587   7.224   6.500
16465TIP3   OH249279   1.329   7.422   6.579
16465TIP3    H149280   1.378   7.419   6.494
16465TIP3    H249281   1.361   7.505   6.617
16466TIP3   OH249282   3.269   7.463   6.740
16466TIP3    H149283   3.182   7.502   6.759
16466TIP3    H249284   3.241   7.392   6.679
16467TIP3   OH249285   2.907   7.097   5.321
16467TIP3    H149286   2.946   7.027   5.265
16467TIP3    H249287   2.972   7.170   5.310
16468TIP3   OH249288   1.310   6.929   6.082
16468TIP3    H149289   1.216   6.925   6.107
16468TIP3    H249290   1.308   6.985   6.002
16469TIP3   OH249291   2.469   8.629   5.585
16469TIP3    H149292   2.522   8.615   5.504
16469TIP3    H249293   2.520   8.697   5.631
16470TIP3   OH249294   1.530   7.004   6.893
16470TIP3    H149295   1.482   7.000   6.977
16470TIP3    H249296   1.463   7.046   6.835
16471TIP3   OH249297   1.577   8.430   6.972
16471TIP3    H149298   1.484   8.405   6.954
16471TIP3    H249299   1.582   8.417   7.068
16472TIP3   OH249300   1.747   8.463   6.517
16472TIP3    H149301   1.700   8.541   6.481
16472TIP3    H249302   1.833   8.478   6.473
16473TIP3   OH249303   2.195   8.710   6.656
16473TIP3    H149304   2.235   8.713   6.745
16473TIP3    H249305   2.260   8.762   6.604
16474TIP3   OH249306   2.373   8.862   6.514
16474TIP3    H149307   2.445   8.811   6.474
16474TIP3    H249308   2.423   8.920   6.575
16475TIP3   OH249309   3.167   7.226   6.615
16475TIP3    H149310   3.076   7.223   6.582
16475TIP3    H249311   3.195   7.132   6.602
16476TIP3   OH249312   1.427   8.719   6.545
16476TIP3    H149313   1.340   8.744   6.509
16476TIP3    H249314   1.428   8.771   6.627
16477TIP3   OH249315   1.663   8.701   6.399
16477TIP3    H149316   1.578   8.715   6.447
16477TIP3    H249317   1.641   8.737   6.311
16478TIP3   OH249318   2.088   8.732   6.197
16478TIP3    H149319   2.018   8.752   6.131
16478TIP3    H249320   2.100   8.819   6.240
16479TIP3   OH249321   2.356   8.671   6.248
16479TIP3    H149322   2.261   8.687   6.229
16479TIP3    H249323   2.397   8.748   6.207
16480TIP3   OH249324   2.564   8.863   6.165
16480TIP3    H149325   2.550   8.948   6.118
16480TIP3    H249326   2.589   8.803   6.091
16481TIP3   OH249327   1.340   8.498   6.278
16481TIP3    H149328   1.372   8.480   6.368
16481TIP3    H249329   1.414   8.461   6.226
16482TIP3   OH249330   1.538   8.381   6.133
16482TIP3    H149331   1.556   8.298   6.184
16482TIP3    H249332   1.628   8.421   6.131
16483TIP3   OH249333   1.799   8.484   6.145
16483TIP3    H149334   1.832   8.393   6.134
16483TIP3    H249335   1.840   8.507   6.230
16484TIP3   OH249336   2.376   7.142   6.239
16484TIP3    H149337   2.328   7.073   6.289
16484TIP3    H249338   2.441   7.090   6.189
16485TIP3   OH249339   2.898   7.020   6.141
16485TIP3    H149340   2.933   7.073   6.066
16485TIP3    H249341   2.802   7.037   6.134
16486TIP3   OH249342   2.992   7.120   5.904
16486TIP3    H149343   3.065   7.070   5.861
16486TIP3    H249344   3.023   7.212   5.889
16487TIP3   OH249345   1.621   6.849   6.251
16487TIP3    H149346   1.529   6.816   6.251
16487TIP3    H249347   1.670   6.764   6.247
16488TIP3   OH249348   1.411   6.718   5.899
16488TIP3    H149349   1.437   6.776   5.825
16488TIP3    H249350   1.377   6.782   5.964
16489TIP3   OH249351   2.066   6.879   6.129
16489TIP3    H149352   2.124   6.933   6.074
16489TIP3    H249353   2.078   6.920   6.216
16490TIP3   OH249354   2.618   7.027   6.115
16490TIP3    H149355   2.604   6.994   6.025
16490TIP3    H249356   2.600   6.946   6.168
16491TIP3   OH249357   2.642   6.950   5.677
16491TIP3    H149358   2.555   6.994   5.687
16491TIP3    H249359   2.624   6.865   5.723
16492TIP3   OH249360   1.124   8.287   5.680
16492TIP3    H149361   1.039   8.256   5.646
16492TIP3    H249362   1.115   8.382   5.663
16493TIP3   OH249363   1.523   6.877   5.664
16493TIP3    H149364   1.572   6.816   5.605
16493TIP3    H249365   1.595   6.932   5.699
16494TIP3   OH249366   2.037   7.052   5.761
16494TIP3    H149367   2.095   7.005   5.822
16494TIP3    H249368   2.058   7.145   5.785
16495TIP3   OH249369   1.896   8.479   5.259
16495TIP3    H149370   1.984   8.501   5.224
16495TIP3    H249371   1.874   8.403   5.201
16496TIP3   OH249372   2.617   8.596   5.353
16496TIP3    H149373   2.608   8.499   5.340
16496TIP3    H249374   2.570   8.629   5.273
16497TIP3   OH249375   1.829   7.131   7.140
16497TIP3    H149376   1.793   7.063   7.199
16497TIP3    H249377   1.923   7.131   7.169
16498TIP3   OH249378   2.077   7.127   7.262
16498TIP3    H149379   2.162   7.099   7.223
16498TIP3    H249380   2.062   7.056   7.328
16499TIP3   OH249381   1.201   8.316   5.319
16499TIP3    H149382   1.205   8.342   5.412
16499TIP3    H249383   1.289   8.273   5.305
16500TIP3   OH249384   2.901   7.187   7.049
16500TIP3    H149385   2.921   7.157   7.140
16500TIP3    H249386   2.990   7.183   7.007
16501TIP3   OH249387   2.843   8.740   6.541
16501TIP3    H149388   2.763   8.709   6.493
16501TIP3    H249389   2.824   8.836   6.543
16502TIP3   OH249390   4.110   8.104   5.313
16502TIP3    H149391   4.080   8.195   5.293
16502TIP3    H249392   4.034   8.055   5.276
16503TIP3   OH249393   4.105   8.113   5.688
16503TIP3    H149394   4.136   8.082   5.775
16503TIP3    H249395   4.064   8.033   5.651
16504TIP3   OH249396   3.407   8.008   6.052
16504TIP3    H149397   3.439   7.942   6.116
16504TIP3    H249398   3.484   8.067   6.047
16505TIP3   OH249399   4.350   8.414   5.368
16505TIP3    H149400   4.337   8.344   5.434
16505TIP3    H249401   4.376   8.489   5.424
16506TIP3   OH249402   3.377   8.418   5.777
16506TIP3    H149403   3.367   8.320   5.781
16506TIP3    H249404   3.474   8.426   5.779
16507TIP3   OH249405   3.084   7.623   5.565
16507TIP3    H149406   3.034   7.705   5.578
16507TIP3    H249407   3.015   7.567   5.526
16508TIP3   OH249408   3.145   7.909   5.735
16508TIP3    H149409   3.193   7.832   5.772
16508TIP3    H249410   3.201   7.933   5.660
16509TIP3   OH249411   3.991   8.876   5.378
16509TIP3    H149412   4.033   8.801   5.330
16509TIP3    H249413   3.988   8.843   5.469
16510TIP3   OH249414   3.906   8.338   5.735
16510TIP3    H149415   3.944   8.260   5.690
16510TIP3    H249416   3.989   8.383   5.759
16511TIP3   OH249417   4.917   7.658   5.733
16511TIP3    H149418   4.946   7.741   5.777
16511TIP3    H249419   4.941   7.676   5.641
16512TIP3   OH249420   4.317   7.840   5.770
16512TIP3    H149421   4.360   7.755   5.789
16512TIP3    H249422   4.287   7.825   5.678
16513TIP3   OH249423   3.655   7.499   5.735
16513TIP3    H149424   3.634   7.572   5.672
16513TIP3    H249425   3.607   7.426   5.691
16514TIP3   OH249426   4.348   7.590   5.357
16514TIP3    H149427   4.422   7.575   5.422
16514TIP3    H249428   4.399   7.625   5.282
16515TIP3   OH249429   3.289   7.702   5.842
16515TIP3    H149430   3.372   7.681   5.889
16515TIP3    H249431   3.300   7.646   5.762
16516TIP3   OH249432   3.730   7.900   5.632
16516TIP3    H149433   3.823   7.873   5.647
16516TIP3    H249434   3.690   7.815   5.601
16517TIP3   OH249435   4.991   7.865   5.904
16517TIP3    H149436   4.907   7.913   5.885
16517TIP3    H249437   5.007   7.891   5.996
16518TIP3   OH249438   3.652   7.482   6.169
16518TIP3    H149439   3.592   7.519   6.101
16518TIP3    H249440   3.600   7.502   6.250
16519TIP3   OH249441   3.994   8.315   5.182
16519TIP3    H149442   3.968   8.298   5.090
16519TIP3    H249443   3.998   8.411   5.187
16520TIP3   OH249444   3.758   8.257   5.965
16520TIP3    H149445   3.694   8.322   6.003
16520TIP3    H249446   3.801   8.310   5.895
16521TIP3   OH249447   4.560   7.592   5.528
16521TIP3    H149448   4.554   7.542   5.610
16521TIP3    H249449   4.616   7.668   5.554
16522TIP3   OH249450   3.523   7.597   5.954
16522TIP3    H149451   3.585   7.671   5.975
16522TIP3    H249452   3.571   7.557   5.878
16523TIP3   OH249453   3.585   8.450   6.059
16523TIP3    H149454   3.561   8.538   6.023
16523TIP3    H249455   3.507   8.435   6.117
16524TIP3   OH249456   2.984   8.141   5.297
16524TIP3    H149457   2.939   8.165   5.214
16524TIP3    H249458   3.010   8.228   5.333
16525TIP3   OH249459   4.422   8.657   5.538
16525TIP3    H149460   4.332   8.647   5.578
16525TIP3    H249461   4.412   8.743   5.493
16526TIP3   OH249462   4.711   7.559   5.900
16526TIP3    H149463   4.624   7.588   5.870
16526TIP3    H249464   4.770   7.590   5.828
16527TIP3   OH249465   4.010   7.204   5.881
16527TIP3    H149466   3.997   7.109   5.898
16527TIP3    H249467   3.932   7.241   5.928
16528TIP3   OH249468   4.122   8.703   5.211
16528TIP3    H149469   4.170   8.622   5.184
16528TIP3    H249470   4.170   8.770   5.158
16529TIP3   OH249471   4.254   8.482   5.117
16529TIP3    H149472   4.259   8.402   5.061
16529TIP3    H249473   4.294   8.450   5.201
16530TIP3   OH249474   4.647   8.572   5.880
16530TIP3    H149475   4.636   8.494   5.822
16530TIP3    H249476   4.630   8.646   5.818
16531TIP3   OH249477   3.939   7.965   5.138
16531TIP3    H149478   3.858   8.013   5.113
16531TIP3    H249479   3.985   7.959   5.052
16532TIP3   OH249480   3.898   7.747   4.858
16532TIP3    H149481   3.968   7.798   4.903
16532TIP3    H249482   3.953   7.683   4.809
16533TIP3   OH249483   4.842   8.207   5.725
16533TIP3    H149484   4.759   8.259   5.731
16533TIP3    H249485   4.871   8.229   5.634
16534TIP3   OH249486   4.285   8.043   5.112
16534TIP3    H149487   4.231   8.067   5.191
16534TIP3    H249488   4.369   8.016   5.155
16535TIP3   OH249489   4.521   8.086   6.021
16535TIP3    H149490   4.518   8.171   6.070
16535TIP3    H249491   4.434   8.090   5.975
16536TIP3   OH249492   3.520   8.046   5.524
16536TIP3    H149493   3.476   7.987   5.459
16536TIP3    H249494   3.595   7.991   5.554
16537TIP3   OH249495   3.652   8.460   5.672
16537TIP3    H149496   3.629   8.405   5.595
16537TIP3    H249497   3.741   8.426   5.693
16538TIP3   OH249498   3.658   8.014   5.881
16538TIP3    H149499   3.689   7.996   5.790
16538TIP3    H249500   3.698   8.101   5.901
16539TIP3   OH249501   4.181   8.652   5.657
16539TIP3    H149502   4.165   8.733   5.710
16539TIP3    H249503   4.166   8.580   5.721
16540TIP3   OH249504   3.791   8.571   6.205
16540TIP3    H149505   3.732   8.635   6.251
16540TIP3    H249506   3.725   8.519   6.156
16541TIP3   OH249507   4.125   7.905   4.936
16541TIP3    H149508   4.186   7.962   4.988
16541TIP3    H249509   4.152   7.928   4.844
16542TIP3   OH249510   3.546   8.128   6.305
16542TIP3    H149511   3.550   8.216   6.349
16542TIP3    H249512   3.450   8.110   6.313
16543TIP3   OH249513   3.587   8.740   6.291
16543TIP3    H149514   3.551   8.740   6.200
16543TIP3    H249515   3.508   8.719   6.345
16544TIP3   OH249516   4.642   7.146   4.984
16544TIP3    H149517   4.561   7.167   5.035
16544TIP3    H249518   4.655   7.229   4.933
16545TIP3   OH249519   3.383   7.888   5.333
16545TIP3    H149520   3.318   7.933   5.275
16545TIP3    H249521   3.342   7.801   5.344
16546TIP3   OH249522   4.447   8.517   4.533
16546TIP3    H149523   4.457   8.613   4.516
16546TIP3    H249524   4.538   8.484   4.520
16547TIP3   OH249525   3.165   8.271   6.238
16547TIP3    H149526   3.099   8.250   6.169
16547TIP3    H249527   3.201   8.183   6.261
16548TIP3   OH249528   3.019   8.464   5.872
16548TIP3    H149529   3.115   8.462   5.865
16548TIP3    H249530   3.004   8.545   5.924
16549TIP3   OH249531   4.883   8.914   5.924
16549TIP3    H149532   4.883   8.818   5.939
16549TIP3    H249533   4.800   8.939   5.971
16550TIP3   OH249534   3.991   8.701   6.062
16550TIP3    H149535   3.991   8.794   6.093
16550TIP3    H249536   3.919   8.663   6.116
16551TIP3   OH249537   3.191   8.678   5.394
16551TIP3    H149538   3.235   8.670   5.481
16551TIP3    H249539   3.129   8.604   5.398
16552TIP3   OH249540   3.969   8.755   4.661
16552TIP3    H149541   3.964   8.677   4.598
16552TIP3    H249542   4.025   8.712   4.728
16553TIP3   OH249543   4.774   8.047   6.201
16553TIP3    H149544   4.694   8.060   6.148
16553TIP3    H249545   4.789   7.951   6.190
16554TIP3   OH249546   3.372   8.452   6.226
16554TIP3    H149547   3.420   8.438   6.310
16554TIP3    H249548   3.297   8.390   6.235
16555TIP3   OH249549   3.770   7.277   6.011
16555TIP3    H149550   3.680   7.247   5.986
16555TIP3    H249551   3.746   7.361   6.055
16556TIP3   OH249552   4.303   7.393   6.205
16556TIP3    H149553   4.372   7.366   6.269
16556TIP3    H249554   4.219   7.373   6.251
16557TIP3   OH249555   4.543   7.822   6.123
16557TIP3    H149556   4.495   7.818   6.209
16557TIP3    H249557   4.518   7.909   6.088
16558TIP3   OH249558   4.203   7.951   4.681
16558TIP3    H149559   4.169   7.926   4.593
16558TIP3    H249560   4.279   8.006   4.655
16559TIP3   OH249561   3.916   7.327   4.981
16559TIP3    H149562   3.883   7.325   5.073
16559TIP3    H249563   3.877   7.244   4.948
16560TIP3   OH249564   3.702   7.792   6.030
16560TIP3    H149565   3.650   7.813   6.110
16560TIP3    H249566   3.686   7.873   5.976
16561TIP3   OH249567   3.585   7.679   5.543
16561TIP3    H149568   3.492   7.653   5.560
16561TIP3    H249569   3.599   7.639   5.455
16562TIP3   OH249570   4.076   7.765   5.270
16562TIP3    H149571   4.022   7.836   5.229
16562TIP3    H249572   4.130   7.735   5.195
16563TIP3   OH249573   4.250   8.045   6.358
16563TIP3    H149574   4.228   7.971   6.420
16563TIP3    H249575   4.345   8.057   6.379
16564TIP3   OH249576   4.234   7.794   5.510
16564TIP3    H149577   4.174   7.825   5.438
16564TIP3    H249578   4.266   7.712   5.468
16565TIP3   OH249579   3.521   7.823   6.238
16565TIP3    H149580   3.544   7.887   6.307
16565TIP3    H249581   3.508   7.741   6.290
16566TIP3   OH249582   3.572   7.300   4.949
16566TIP3    H149583   3.561   7.297   5.046
16566TIP3    H249584   3.492   7.350   4.923
16567TIP3   OH249585   3.113   7.345   5.820
16567TIP3    H149586   3.190   7.376   5.872
16567TIP3    H249587   3.152   7.313   5.737
16568TIP3   OH249588   3.089   7.327   5.339
16568TIP3    H149589   3.132   7.366   5.260
16568TIP3    H249590   3.026   7.398   5.361
16569TIP3   OH249591   4.244   8.041   5.933
16569TIP3    H149592   4.276   7.968   5.875
16569TIP3    H249593   4.215   7.989   6.011
16570TIP3   OH249594   3.912   7.501   5.605
16570TIP3    H149595   3.829   7.500   5.658
16570TIP3    H249596   3.980   7.501   5.675
16571TIP3   OH249597   3.346   7.557   5.613
16571TIP3    H149598   3.252   7.565   5.587
16571TIP3    H249599   3.369   7.466   5.589
16572TIP3   OH249600   3.617   7.554   5.301
16572TIP3    H149601   3.711   7.569   5.279
16572TIP3    H249602   3.570   7.578   5.218
16573TIP3   OH249603   4.405   7.577   5.808
16573TIP3    H149604   4.368   7.589   5.898
16573TIP3    H249605   4.340   7.516   5.769
16574TIP3   OH249606   3.457   7.587   5.081
16574TIP3    H149607   3.385   7.542   5.033
16574TIP3    H249608   3.509   7.623   5.005
16575TIP3   OH249609   4.574   9.265   6.027
16575TIP3    H149610   4.572   9.287   5.932
16575TIP3    H249611   4.651   9.316   6.059
16576TIP3   OH249612   3.532   8.374   6.448
16576TIP3    H149613   3.610   8.407   6.495
16576TIP3    H249614   3.466   8.377   6.520
16577TIP3   OH249615   3.996   7.829   5.702
16577TIP3    H149616   4.068   7.790   5.650
16577TIP3    H249617   4.008   7.787   5.789
16578TIP3   OH249618   3.521   7.318   5.580
16578TIP3    H149619   3.487   7.237   5.624
16578TIP3    H249620   3.568   7.282   5.503
16579TIP3   OH249621   3.972   7.723   5.995
16579TIP3    H149622   3.883   7.761   6.007
16579TIP3    H249623   4.030   7.785   6.044
16580TIP3   OH249624   3.707   8.120   5.086
16580TIP3    H149625   3.637   8.051   5.076
16580TIP3    H249626   3.691   8.149   5.179
16581TIP3   OH249627   4.610   8.354   5.717
16581TIP3    H149628   4.634   8.402   5.635
16581TIP3    H249629   4.524   8.312   5.693
16582TIP3   OH249630   4.168   7.429   4.951
16582TIP3    H149631   4.071   7.413   4.956
16582TIP3    H249632   4.178   7.524   4.971
16583TIP3   OH249633   4.110   8.436   6.084
16583TIP3    H149634   4.129   8.414   6.176
16583TIP3    H249635   4.070   8.524   6.091
16584TIP3   OH249636   4.237   7.677   5.052
16584TIP3    H149637   4.334   7.682   5.066
16584TIP3    H249638   4.219   7.755   4.997
16585TIP3   OH249639   3.404   8.140   5.764
16585TIP3    H149640   3.441   8.110   5.678
16585TIP3    H249641   3.438   8.074   5.826
16586TIP3   OH249642   3.862   8.271   4.922
16586TIP3    H149643   3.797   8.339   4.903
16586TIP3    H249644   3.809   8.206   4.973
16587TIP3   OH249645   3.282   8.057   6.375
16587TIP3    H149646   3.300   8.044   6.470
16587TIP3    H249647   3.210   7.993   6.359
16588TIP3   OH249648   4.006   8.172   6.398
16588TIP3    H149649   3.947   8.115   6.346
16588TIP3    H249650   4.094   8.140   6.369
16589TIP3   OH249651   4.270   8.695   5.978
16589TIP3    H149652   4.173   8.694   5.991
16589TIP3    H249653   4.297   8.746   6.057
16590TIP3   OH249654   4.680   7.766   4.889
16590TIP3    H149655   4.618   7.720   4.828
16590TIP3    H249656   4.677   7.854   4.846
16591TIP3   OH249657   4.897   8.624   5.969
16591TIP3    H149658   4.799   8.619   5.962
16591TIP3    H249659   4.923   8.594   5.879
16592TIP3   OH249660   4.376   8.584   4.795
16592TIP3    H149661   4.351   8.508   4.849
16592TIP3    H249662   4.386   8.543   4.707
16593TIP3   OH249663   4.375   8.215   5.636
16593TIP3    H149664   4.282   8.189   5.649
16593TIP3    H249665   4.410   8.135   5.591
16594TIP3   OH249666   3.497   8.441   5.379
16594TIP3    H149667   3.491   8.529   5.337
16594TIP3    H249668   3.405   8.425   5.403
16595TIP3   OH249669   3.066   7.747   5.092
16595TIP3    H149670   3.111   7.831   5.112
16595TIP3    H249671   2.988   7.753   5.151
16596TIP3   OH249672   3.643   8.212   5.334
16596TIP3    H149673   3.601   8.298   5.352
16596TIP3    H249674   3.608   8.158   5.407
16597TIP3   OH249675   3.771   8.786   5.857
16597TIP3    H149676   3.810   8.860   5.808
16597TIP3    H249677   3.848   8.754   5.907
16598TIP3   OH249678   3.422   8.683   5.242
16598TIP3    H149679   3.336   8.687   5.289
16598TIP3    H249680   3.452   8.776   5.251
16599TIP3   OH249681   4.161   8.421   5.815
16599TIP3    H149682   4.152   8.420   5.913
16599TIP3    H249683   4.240   8.367   5.803
16600TIP3   OH249684   4.142   8.298   4.707
16600TIP3    H149685   4.180   8.281   4.795
16600TIP3    H249686   4.047   8.288   4.722
16601TIP3   OH249687   4.409   8.954   5.866
16601TIP3    H149688   4.330   8.897   5.860
16601TIP3    H249689   4.392   9.019   5.795
16602TIP3   OH249690   4.474   8.794   4.519
16602TIP3    H149691   4.516   8.863   4.465
16602TIP3    H249692   4.388   8.836   4.536
16603TIP3   OH249693   3.494   7.565   6.385
16603TIP3    H149694   3.397   7.571   6.398
16603TIP3    H249695   3.520   7.504   6.456
16604TIP3   OH249696   4.295   8.260   4.940
16604TIP3    H149697   4.288   8.182   4.998
16604TIP3    H249698   4.388   8.250   4.910
16605TIP3   OH249699   3.211   8.649   6.016
16605TIP3    H149700   3.263   8.576   6.053
16605TIP3    H249701   3.235   8.721   6.076
16606TIP3   OH249702   3.489   8.303   4.696
16606TIP3    H149703   3.526   8.220   4.661
16606TIP3    H249704   3.474   8.278   4.790
16607TIP3   OH249705   3.450   8.308   4.974
16607TIP3    H149706   3.507   8.267   5.040
16607TIP3    H249707   3.469   8.402   4.983
16608TIP3   OH249708   3.183   7.994   5.173
16608TIP3    H149709   3.116   8.037   5.230
16608TIP3    H249710   3.195   8.063   5.105
16609TIP3   OH249711   4.328   7.631   6.066
16609TIP3    H149712   4.410   7.667   6.103
16609TIP3    H249713   4.315   7.549   6.120
16610TIP3   OH249714   4.208   7.382   5.229
16610TIP3    H149715   4.195   7.404   5.135
16610TIP3    H249716   4.249   7.464   5.265
16611TIP3   OH249717   3.901   7.559   5.332
16611TIP3    H149718   3.966   7.630   5.313
16611TIP3    H249719   3.905   7.553   5.430
16612TIP3   OH249720   4.168   7.879   6.141
16612TIP3    H149721   4.189   7.933   6.220
16612TIP3    H249722   4.225   7.801   6.153
16613TIP3   OH249723   4.045   7.288   5.436
16613TIP3    H149724   4.038   7.365   5.495
16613TIP3    H249725   4.105   7.324   5.366
16614TIP3   OH249726   3.496   8.600   4.992
16614TIP3    H149727   3.435   8.633   4.922
16614TIP3    H249728   3.443   8.613   5.074
16615TIP3   OH249729   3.555   7.284   5.226
16615TIP3    H149730   3.552   7.376   5.260
16615TIP3    H249731   3.652   7.267   5.233
16616TIP3   OH249732   4.810   7.780   6.121
16616TIP3    H149733   4.712   7.778   6.127
16616TIP3    H249734   4.822   7.739   6.034
16617TIP3   OH249735   4.460   7.974   5.510
16617TIP3    H149736   4.385   7.914   5.521
16617TIP3    H249737   4.532   7.927   5.557
16618TIP3   OH249738   3.173   8.203   4.980
16618TIP3    H149739   3.235   8.277   4.982
16618TIP3    H249740   3.217   8.147   4.913
16619TIP3   OH249741   3.118   7.477   5.112
16619TIP3    H149742   3.116   7.575   5.108
16619TIP3    H249743   3.035   7.453   5.070
16620TIP3   OH249744   4.430   8.929   5.458
16620TIP3    H149745   4.384   8.974   5.384
16620TIP3    H249746   4.522   8.953   5.436
16621TIP3   OH249747   3.506   7.198   5.987
16621TIP3    H149748   3.473   7.167   5.900
16621TIP3    H249749   3.494   7.119   6.043
16622TIP3   OH249750   3.046   8.418   5.367
16622TIP3    H149751   2.975   8.447   5.426
16622TIP3    H249752   3.016   8.458   5.282
16623TIP3   OH249753   3.200   8.956   6.439
16623TIP3    H149754   3.286   8.958   6.486
16623TIP3    H249755   3.180   8.861   6.438
16624TIP3   OH249756   3.682   8.921   6.486
16624TIP3    H149757   3.778   8.908   6.489
16624TIP3    H249758   3.658   8.865   6.409
16625TIP3   OH249759   3.671   8.502   4.640
16625TIP3    H149760   3.617   8.420   4.646
16625TIP3    H249761   3.750   8.471   4.591
16626TIP3   OH249762   4.324   8.827   6.213
16626TIP3    H149763   4.314   8.758   6.283
16626TIP3    H249764   4.399   8.879   6.246
16627TIP3   OH249765   3.331   8.363   6.639
16627TIP3    H149766   3.348   8.267   6.639
16627TIP3    H249767   3.243   8.367   6.596
16628TIP3   OH249768   3.307   8.019   4.832
16628TIP3    H149769   3.362   7.978   4.900
16628TIP3    H249770   3.372   8.022   4.758
16629TIP3   OH249771   3.940   8.448   6.411
16629TIP3    H149772   3.897   8.464   6.325
16629TIP3    H249773   3.970   8.355   6.403
16630TIP3   OH249774   3.771   8.202   4.656
16630TIP3    H149775   3.821   8.215   4.738
16630TIP3    H249776   3.793   8.109   4.636
16631TIP3   OH249777   4.432   8.455   6.017
16631TIP3    H149778   4.505   8.503   5.973
16631TIP3    H249779   4.359   8.519   6.006
16632TIP3   OH249780   3.449   8.097   6.621
16632TIP3    H149781   3.524   8.041   6.599
16632TIP3    H249782   3.475   8.131   6.709
16633TIP3   OH249783   3.521   7.917   5.057
16633TIP3    H149784   3.490   7.873   5.137
16633TIP3    H249785   3.554   7.842   5.003
16634TIP3   OH249786   3.786   7.984   6.283
16634TIP3    H149787   3.708   8.043   6.286
16634TIP3    H249788   3.833   8.016   6.203
16635TIP3   OH249789   3.616   7.712   4.895
16635TIP3    H149790   3.589   7.713   4.801
16635TIP3    H249791   3.714   7.718   4.886
16636TIP3   OH249792   4.301   8.384   6.416
16636TIP3    H149793   4.382   8.363   6.368
16636TIP3    H249794   4.300   8.316   6.485
16637TIP3   OH249795   4.440   8.047   4.556
16637TIP3    H149796   4.417   8.000   4.474
16637TIP3    H249797   4.407   8.137   4.533
16638TIP3   OH249798   3.908   7.770   6.409
16638TIP3    H149799   3.908   7.690   6.353
16638TIP3    H249800   3.865   7.836   6.351
16639TIP3   OH249801   3.911   7.556   6.215
16639TIP3    H149802   3.938   7.598   6.131
16639TIP3    H249803   3.817   7.534   6.197
16640TIP3   OH249804   3.940   8.094   6.089
16640TIP3    H149805   4.021   8.100   6.037
16640TIP3    H249806   3.883   8.161   6.045
16641TIP3   OH249807   4.523   8.061   6.472
16641TIP3    H149808   4.570   7.976   6.477
16641TIP3    H249809   4.591   8.119   6.435
16642TIP3   OH249810   4.562   8.313   6.206
16642TIP3    H149811   4.504   8.366   6.147
16642TIP3    H249812   4.649   8.332   6.166
16643TIP3   OH249813   3.787   7.883   6.640
16643TIP3    H149814   3.717   7.816   6.652
16643TIP3    H249815   3.821   7.860   6.551
16644TIP3   OH249816   4.043   7.321   6.282
16644TIP3    H149817   3.995   7.404   6.259
16644TIP3    H249818   3.973   7.254   6.269
16645TIP3   OH249819   4.169   7.826   6.498
16645TIP3    H149820   4.157   7.815   6.594
16645TIP3    H249821   4.079   7.801   6.468
16646TIP3   OH249822   4.410   7.776   6.353
16646TIP3    H149823   4.333   7.776   6.414
16646TIP3    H249824   4.482   7.744   6.411
16647TIP3   OH249825   4.638   7.715   6.506
16647TIP3    H149826   4.650   7.620   6.524
16647TIP3    H249827   4.634   7.754   6.596
16648TIP3   OH249828   3.626   7.664   6.691
16648TIP3    H149829   3.633   7.574   6.654
16648TIP3    H249830   3.661   7.649   6.781
16649TIP3   OH249831   4.138   7.331   6.539
16649TIP3    H149832   4.206   7.261   6.534
16649TIP3    H249833   4.098   7.325   6.450
16650TIP3   OH249834   4.203   7.545   6.699
16650TIP3    H149835   4.181   7.474   6.634
16650TIP3    H249836   4.126   7.605   6.690
16651TIP3   OH249837   3.435   8.778   4.799
16651TIP3    H149838   3.515   8.796   4.747
16651TIP3    H249839   3.370   8.810   4.734
16652TIP3   OH249840   2.904   8.155   5.016
16652TIP3    H149841   2.999   8.176   5.002
16652TIP3    H249842   2.897   8.067   4.974
16653TIP3   OH249843   2.819   8.768   5.427
16653TIP3    H149844   2.750   8.707   5.393
16653TIP3    H249845   2.862   8.711   5.494
16654TIP3   OH249846   2.956   8.621   5.614
16654TIP3    H149847   2.941   8.548   5.676
16654TIP3    H249848   3.004   8.683   5.671
16655TIP3   OH249849   4.678   9.036   5.410
16655TIP3    H149850   4.707   9.045   5.502
16655TIP3    H249851   4.759   9.047   5.358
16656TIP3   OH249852   4.723   9.037   5.685
16656TIP3    H149853   4.671   8.953   5.689
16656TIP3    H249854   4.787   9.018   5.755
16657TIP3   OH249855   4.758   8.717   6.269
16657TIP3    H149856   4.684   8.725   6.333
16657TIP3    H249857   4.798   8.806   6.274
16658TIP3   OH249858   4.572   8.231   4.891
16658TIP3    H149859   4.641   8.292   4.861
16658TIP3    H249860   4.615   8.190   4.969
16659TIP3   OH249861   4.701   8.099   5.094
16659TIP3    H149862   4.636   8.055   5.153
16659TIP3    H249863   4.766   8.135   5.157
16660TIP3   OH249864   4.755   8.489   5.525
16660TIP3    H149865   4.809   8.424   5.476
16660TIP3    H249866   4.741   8.559   5.459
16661TIP3   OH249867   4.588   8.792   5.720
16661TIP3    H149868   4.517   8.832   5.774
16661TIP3    H249869   4.536   8.742   5.653
16662TIP3   OH249870   4.639   8.005   4.741
16662TIP3    H149871   4.568   8.008   4.673
16662TIP3    H249872   4.611   8.082   4.796
16663TIP3   OH249873   4.510   7.679   4.697
16663TIP3    H149874   4.469   7.719   4.619
16663TIP3    H249875   4.484   7.585   4.685
16664TIP3   OH249876   4.516   7.953   5.240
16664TIP3    H149877   4.524   7.856   5.235
16664TIP3    H249878   4.503   7.967   5.336
16665TIP3   OH249879   3.142   8.025   5.987
16665TIP3    H149880   3.140   7.997   5.894
16665TIP3    H249881   3.239   8.028   6.003
16666TIP3   OH249882   4.804   8.378   6.097
16666TIP3    H149883   4.876   8.313   6.088
16666TIP3    H249884   4.832   8.448   6.035
16667TIP3   OH249885   4.990   8.185   6.117
16667TIP3    H149886   4.915   8.134   6.155
16667TIP3    H249887   5.063   8.121   6.130
16668TIP3   OH249888   4.454   7.413   4.684
16668TIP3    H149889   4.529   7.381   4.737
16668TIP3    H249890   4.381   7.353   4.707
16669TIP3   OH249891   4.511   7.670   5.136
16669TIP3    H149892   4.552   7.582   5.151
16669TIP3    H249893   4.569   7.703   5.065
16670TIP3   OH249894   4.673   7.846   5.630
16670TIP3    H149895   4.760   7.872   5.590
16670TIP3    H249896   4.687   7.881   5.720
16671TIP3   OH249897   4.741   7.988   5.864
16671TIP3    H149898   4.663   8.022   5.911
16671TIP3    H249899   4.774   8.069   5.818
16672TIP3   OH249900   3.359   7.715   6.663
16672TIP3    H149901   3.456   7.707   6.663
16672TIP3    H249902   3.334   7.630   6.704
16673TIP3   OH249903   5.193   7.578   6.419
16673TIP3    H149904   5.251   7.512   6.376
16673TIP3    H249905   5.166   7.634   6.343
16674TIP3   OH249906   4.620   7.420   5.174
16674TIP3    H149907   4.669   7.403   5.257
16674TIP3    H249908   4.560   7.343   5.172
16675TIP3   OH249909   3.321   7.406   5.992
16675TIP3    H149910   3.385   7.332   6.002
16675TIP3    H249911   3.382   7.482   5.987
16676TIP3   OH249912   3.125   7.680   6.068
16676TIP3    H149913   3.172   7.673   5.982
16676TIP3    H249914   3.150   7.769   6.096
16677TIP3   OH249915   5.065   7.720   6.225
16677TIP3    H149916   4.977   7.757   6.243
16677TIP3    H249917   5.040   7.647   6.166
16678TIP3   OH249918   4.702   7.355   4.806
16678TIP3    H149919   4.742   7.283   4.753
16678TIP3    H249920   4.769   7.426   4.797
16679TIP3   OH249921   3.106   7.185   5.569
16679TIP3    H149922   3.012   7.182   5.592
16679TIP3    H249923   3.105   7.242   5.489
16680TIP3   OH249924   4.253   8.895   5.062
16680TIP3    H149925   4.314   8.872   4.989
16680TIP3    H249926   4.309   8.948   5.120
16681TIP3   OH249927   3.326   7.261   6.380
16681TIP3    H149928   3.276   7.258   6.464
16681TIP3    H249929   3.260   7.303   6.321
16682TIP3   OH249930   3.368   8.683   6.457
16682TIP3    H149931   3.274   8.662   6.440
16682TIP3    H249932   3.373   8.678   6.553
16683TIP3   OH249933   3.544   8.720   6.005
16683TIP3    H149934   3.494   8.795   5.968
16683TIP3    H249935   3.630   8.737   5.960
16684TIP3   OH249936   3.991   8.966   6.141
16684TIP3    H149937   4.031   8.969   6.231
16684TIP3    H249938   4.057   9.019   6.090
16685TIP3   OH249939   4.170   9.118   6.000
16685TIP3    H149940   4.244   9.067   5.964
16685TIP3    H249941   4.219   9.177   6.062
16686TIP3   OH249942   4.963   7.481   6.103
16686TIP3    H149943   4.872   7.475   6.069
16686TIP3    H249944   4.994   7.389   6.090
16687TIP3   OH249945   3.222   8.978   6.031
16687TIP3    H149946   3.133   9.011   6.006
16687TIP3    H249947   3.233   9.022   6.116
16688TIP3   OH249948   3.456   8.956   5.885
16688TIP3    H149949   3.371   8.970   5.932
16688TIP3    H249950   3.436   8.994   5.797
16689TIP3   OH249951   3.885   8.989   5.682
16689TIP3    H149952   3.813   9.010   5.619
16689TIP3    H249953   3.897   9.075   5.727
16690TIP3   OH249954   4.152   8.928   5.733
16690TIP3    H149955   4.057   8.943   5.715
16690TIP3    H249956   4.191   9.009   5.697
16691TIP3   OH249957   4.363   9.122   5.651
16691TIP3    H149958   4.348   9.206   5.602
16691TIP3    H249959   4.385   9.060   5.578
16692TIP3   OH249960   3.133   8.774   5.772
16692TIP3    H149961   3.158   8.749   5.864
16692TIP3    H249962   3.206   8.730   5.723
16693TIP3   OH249963   3.327   8.644   5.628
16693TIP3    H149964   3.341   8.561   5.679
16693TIP3    H249965   3.417   8.682   5.628
16694TIP3   OH249966   3.593   8.738   5.631
16694TIP3    H149967   3.624   8.646   5.626
16694TIP3    H249968   3.634   8.765   5.716
16695TIP3   OH249969   4.168   7.397   5.720
16695TIP3    H149970   4.125   7.327   5.772
16695TIP3    H249971   4.240   7.349   5.675
16696TIP3   OH249972   4.692   7.278   5.628
16696TIP3    H149973   4.729   7.329   5.552
16696TIP3    H249974   4.596   7.296   5.619
16697TIP3   OH249975   4.786   7.378   5.391
16697TIP3    H149976   4.859   7.326   5.350
16697TIP3    H249977   4.820   7.469   5.375
16698TIP3   OH249978   3.417   7.106   5.739
16698TIP3    H149979   3.325   7.073   5.737
16698TIP3    H249980   3.467   7.022   5.732
16699TIP3   OH249981   3.209   6.974   5.387
16699TIP3    H149982   3.235   7.031   5.313
16699TIP3    H249983   3.174   7.038   5.451
16700TIP3   OH249984   3.861   7.136   5.618
16700TIP3    H149985   3.918   7.187   5.558
16700TIP3    H249986   3.882   7.177   5.703
16701TIP3   OH249987   4.408   7.284   5.603
16701TIP3    H149988   4.406   7.249   5.513
16701TIP3    H249989   4.394   7.202   5.656
16702TIP3   OH249990   4.437   7.206   5.164
16702TIP3    H149991   4.350   7.248   5.173
16702TIP3    H249992   4.422   7.121   5.210
16703TIP3   OH249993   2.923   8.545   5.163
16703TIP3    H149994   2.838   8.511   5.131
16703TIP3    H249995   2.908   8.640   5.149
16704TIP3   OH249996   3.319   7.133   5.151
16704TIP3    H149997   3.368   7.072   5.092
16704TIP3    H249998   3.392   7.188   5.186
16705TIP3   OH249999   3.833   7.309   5.248
16705TIP3    H150000   3.894   7.263   5.308
16705TIP3    H250001   3.853   7.402   5.272
16706TIP3   OH250002   3.715   8.712   4.792
16706TIP3    H150003   3.795   8.731   4.740
16706TIP3    H250004   3.682   8.635   4.738
16707TIP3   OH250005   4.410   8.849   4.835
16707TIP3    H150006   4.404   8.750   4.830
16707TIP3    H250007   4.380   8.872   4.746
16708TIP3   OH250008   3.625   7.385   6.628
16708TIP3    H150009   3.592   7.315   6.687
16708TIP3    H250010   3.719   7.387   6.654
16709TIP3   OH250011   3.873   7.384   6.748
16709TIP3    H150012   3.958   7.359   6.708
16709TIP3    H250013   3.861   7.313   6.814
16710TIP3   OH250014   2.999   8.573   4.803
16710TIP3    H150015   2.992   8.597   4.896
16710TIP3    H250016   3.086   8.528   4.797
16711TIP3   OH250017   4.698   7.445   6.536
16711TIP3    H150018   4.718   7.413   6.626
16711TIP3    H250019   4.786   7.440   6.492
16712TIP3   OH250020   4.639   8.998   6.026
16712TIP3    H150021   4.558   8.965   5.981
16712TIP3    H250022   4.618   9.093   6.031
16713TIP3   OH250023   5.903   8.368   4.796
16713TIP3    H150024   5.876   8.460   4.775
16713TIP3    H250025   5.827   8.319   4.760
16714TIP3   OH250026   5.900   8.370   5.175
16714TIP3    H150027   5.932   8.339   5.262
16714TIP3    H250028   5.861   8.290   5.138
16715TIP3   OH250029   5.201   8.266   5.542
16715TIP3    H150030   5.233   8.199   5.605
16715TIP3    H250031   5.282   8.318   5.528
16716TIP3   OH250032   6.145   8.670   4.856
16716TIP3    H150033   6.134   8.601   4.923
16716TIP3    H250034   6.175   8.745   4.910
16717TIP3   OH250035   5.172   8.674   5.268
16717TIP3    H150036   5.164   8.576   5.269
16717TIP3    H250037   5.268   8.683   5.259
16718TIP3   OH250038   4.879   7.879   5.052
16718TIP3    H150039   4.829   7.962   5.063
16718TIP3    H250040   4.810   7.823   5.013
16719TIP3   OH250041   4.940   8.165   5.221
16719TIP3    H150042   4.989   8.088   5.259
16719TIP3    H250043   4.998   8.191   5.148
16720TIP3   OH250044   5.794   9.132   4.874
16720TIP3    H150045   5.839   9.062   4.821
16720TIP3    H250046   5.794   9.093   4.962
16721TIP3   OH250047   5.701   8.595   5.224
16721TIP3    H150048   5.739   8.518   5.177
16721TIP3    H250049   5.785   8.640   5.247
16722TIP3   OH250050   6.714   7.915   5.220
16722TIP3    H150051   6.742   7.998   5.264
16722TIP3    H250052   6.736   7.935   5.127
16723TIP3   OH250053   6.113   8.097   5.257
16723TIP3    H150054   6.156   8.012   5.276
16723TIP3    H250055   6.083   8.082   5.165
16724TIP3   OH250056   5.450   7.756   5.222
16724TIP3    H150057   5.430   7.828   5.159
16724TIP3    H250058   5.403   7.682   5.177
16725TIP3   OH250059   6.145   7.847   4.844
16725TIP3    H150060   6.218   7.831   4.908
16725TIP3    H250061   6.195   7.882   4.769
16726TIP3   OH250062   5.085   7.958   5.329
16726TIP3    H150063   5.168   7.937   5.375
16726TIP3    H250064   5.096   7.903   5.248
16727TIP3   OH250065   5.525   8.156   5.122
16727TIP3    H150066   5.619   8.131   5.134
16727TIP3    H250067   5.487   8.072   5.089
16728TIP3   OH250068   6.787   8.121   5.391
16728TIP3    H150069   6.704   8.170   5.372
16728TIP3    H250070   6.803   8.149   5.483
16729TIP3   OH250071   5.448   7.739   5.655
16729TIP3    H150072   5.388   7.775   5.587
16729TIP3    H250073   5.396   7.757   5.736
16730TIP3   OH250074   5.793   8.588   4.666
16730TIP3    H150075   5.756   8.568   4.579
16730TIP3    H250076   5.750   8.673   4.687
16731TIP3   OH250077   5.555   8.514   5.451
16731TIP3    H150078   5.492   8.580   5.488
16731TIP3    H250079   5.598   8.565   5.380
16732TIP3   OH250080   6.357   7.848   5.015
16732TIP3    H150081   6.350   7.799   5.097
16732TIP3    H250082   6.412   7.924   5.041
16733TIP3   OH250083   5.318   7.854   5.440
16733TIP3    H150084   5.381   7.927   5.462
16733TIP3    H250085   5.367   7.813   5.365
16734TIP3   OH250086   5.381   8.707   5.549
16734TIP3    H150087   5.356   8.792   5.508
16734TIP3    H250088   5.303   8.692   5.606
16735TIP3   OH250089   4.777   8.396   4.784
16735TIP3    H150090   4.737   8.419   4.698
16735TIP3    H250091   4.807   8.482   4.818
16736TIP3   OH250092   6.216   8.913   5.025
16736TIP3    H150093   6.125   8.906   5.062
16736TIP3    H250094   6.210   8.998   4.979
16737TIP3   OH250095   6.507   7.815   5.386
16737TIP3    H150096   6.420   7.845   5.357
16737TIP3    H250097   6.566   7.847   5.315
16738TIP3   OH250098   5.806   7.459   5.368
16738TIP3    H150099   5.794   7.363   5.386
16738TIP3    H250100   5.727   7.495   5.415
16739TIP3   OH250101   5.917   8.962   4.697
16739TIP3    H150102   5.967   8.879   4.677
16739TIP3    H250103   5.977   9.027   4.656
16740TIP3   OH250104   6.058   8.746   4.605
16740TIP3    H150105   6.031   8.665   4.559
16740TIP3    H250106   6.094   8.710   4.689
16741TIP3   OH250107   6.442   8.827   5.368
16741TIP3    H150108   6.433   8.750   5.308
16741TIP3    H250109   6.427   8.902   5.307
16742TIP3   OH250110   5.734   8.222   4.624
16742TIP3    H150111   5.654   8.272   4.600
16742TIP3    H250112   5.782   8.218   4.539
16743TIP3   OH250113   5.694   8.004   4.344
16743TIP3    H150114   5.763   8.054   4.390
16743TIP3    H250115   5.749   7.940   4.295
16744TIP3   OH250116   6.638   8.462   5.212
16744TIP3    H150117   6.556   8.516   5.217
16744TIP3    H250118   6.668   8.486   5.122
16745TIP3   OH250119   6.081   8.303   4.597
16745TIP3    H150120   6.027   8.328   4.676
16745TIP3    H250121   6.164   8.276   4.641
16746TIP3   OH250122   6.317   8.343   5.508
16746TIP3    H150123   6.315   8.427   5.557
16746TIP3    H250124   6.231   8.347   5.461
16747TIP3   OH250125   5.313   8.302   5.014
16747TIP3    H150126   5.271   8.244   4.947
16747TIP3    H250127   5.390   8.248   5.042
16748TIP3   OH250128   5.442   8.712   5.163
16748TIP3    H150129   5.423   8.669   5.078
16748TIP3    H250130   5.532   8.679   5.181
16749TIP3   OH250131   5.448   8.273   5.368
16749TIP3    H150132   5.482   8.251   5.279
16749TIP3    H250133   5.493   8.358   5.388
16750TIP3   OH250134   5.972   8.911   5.144
16750TIP3    H150135   5.962   8.990   5.200
16750TIP3    H250136   5.961   8.837   5.206
16751TIP3   OH250137   5.588   8.830   5.691
16751TIP3    H150138   5.528   8.892   5.738
16751TIP3    H250139   5.522   8.776   5.643
16752TIP3   OH250140   5.923   8.161   4.423
16752TIP3    H150141   5.982   8.220   4.475
16752TIP3    H250142   5.948   8.185   4.331
16753TIP3   OH250143   5.342   8.387   5.792
16753TIP3    H150144   5.346   8.473   5.838
16753TIP3    H250145   5.247   8.367   5.799
16754TIP3   OH250146   5.663   8.844   4.702
16754TIP3    H150147   5.744   8.895   4.715
16754TIP3    H250148   5.605   8.907   4.656
16755TIP3   OH250149   5.382   8.999   5.778
16755TIP3    H150150   5.347   8.994   5.686
16755TIP3    H250151   5.302   8.977   5.831
16756TIP3   OH250152   6.439   7.403   4.471
16756TIP3    H150153   6.357   7.423   4.522
16756TIP3    H250154   6.451   7.486   4.420
16757TIP3   OH250155   5.178   8.145   4.822
16757TIP3    H150156   5.115   8.189   4.762
16757TIP3    H250157   5.140   8.056   4.829
16758TIP3   OH250158   6.237   8.770   4.020
16758TIP3    H150159   6.245   8.867   4.004
16758TIP3    H250160   6.329   8.741   4.006
16759TIP3   OH250161   4.962   8.528   5.724
16759TIP3    H150162   4.897   8.503   5.656
16759TIP3    H250163   4.999   8.442   5.751
16760TIP3   OH250164   4.818   8.724   5.353
16760TIP3    H150165   4.912   8.705   5.343
16760TIP3    H250166   4.818   8.792   5.422
16761TIP3   OH250167   6.682   9.171   5.416
16761TIP3    H150168   6.679   9.074   5.427
16761TIP3    H250169   6.597   9.196   5.459
16762TIP3   OH250170   5.786   8.960   5.547
16762TIP3    H150171   5.785   9.052   5.580
16762TIP3    H250172   5.716   8.920   5.602
16763TIP3   OH250173   5.542   9.083   4.502
16763TIP3    H150174   5.502   9.065   4.415
16763TIP3    H250175   5.516   9.175   4.519
16764TIP3   OH250176   4.983   8.939   4.884
16764TIP3    H150177   5.032   8.926   4.969
16764TIP3    H250178   4.931   8.856   4.882
16765TIP3   OH250179   5.748   8.987   4.141
16765TIP3    H150180   5.806   8.918   4.104
16765TIP3    H250181   5.784   8.996   4.232
16766TIP3   OH250182   5.797   9.038   4.412
16766TIP3    H150183   5.709   9.043   4.456
16766TIP3    H250184   5.851   8.996   4.481
16767TIP3   OH250185   6.570   8.303   5.688
16767TIP3    H150186   6.491   8.316   5.635
16767TIP3    H250187   6.586   8.207   5.678
16768TIP3   OH250188   5.166   8.713   5.715
16768TIP3    H150189   5.217   8.694   5.797
16768TIP3    H250190   5.093   8.647   5.722
16769TIP3   OH250191   5.565   7.534   5.496
16769TIP3    H150192   5.476   7.503   5.472
16769TIP3    H250193   5.541   7.617   5.542
16770TIP3   OH250194   6.099   7.650   5.692
16770TIP3    H150195   6.168   7.622   5.756
16770TIP3    H250196   6.016   7.629   5.738
16771TIP3   OH250197   6.339   8.078   5.609
16771TIP3    H150198   6.291   8.075   5.695
16771TIP3    H250199   6.315   8.166   5.575
16772TIP3   OH250200   5.999   8.210   4.168
16772TIP3    H150201   5.965   8.183   4.080
16772TIP3    H250202   6.080   8.258   4.142
16773TIP3   OH250203   5.712   7.584   4.468
16773TIP3    H150204   5.679   7.582   4.560
16773TIP3    H250205   5.673   7.500   4.435
16774TIP3   OH250206   5.497   8.050   5.516
16774TIP3    H150207   5.447   8.071   5.597
16774TIP3    H250208   5.481   8.130   5.462
16775TIP3   OH250209   5.381   7.936   5.030
16775TIP3    H150210   5.288   7.909   5.047
16775TIP3    H250211   5.395   7.896   4.941
16776TIP3   OH250212   5.871   8.022   4.757
16776TIP3    H150213   5.818   8.093   4.715
16776TIP3    H250214   5.926   7.992   4.682
16777TIP3   OH250215   6.046   8.302   5.846
16777TIP3    H150216   6.024   8.228   5.906
16777TIP3    H250217   6.141   8.314   5.866
16778TIP3   OH250218   6.029   8.051   4.997
16778TIP3    H150219   5.971   8.081   4.925
16778TIP3    H250220   6.062   7.969   4.955
16779TIP3   OH250221   5.315   8.080   5.726
16779TIP3    H150222   5.347   8.141   5.793
16779TIP3    H250223   5.305   7.997   5.776
16780TIP3   OH250224   5.367   7.556   4.435
16780TIP3    H150225   5.358   7.553   4.532
16780TIP3    H250226   5.288   7.607   4.410
16781TIP3   OH250227   4.909   7.602   5.307
16781TIP3    H150228   4.986   7.633   5.359
16781TIP3    H250229   4.948   7.568   5.225
16782TIP3   OH250230   4.884   7.582   4.826
16782TIP3    H150231   4.928   7.621   4.747
16782TIP3    H250232   4.822   7.655   4.847
16783TIP3   OH250233   6.039   8.297   5.420
16783TIP3    H150234   6.072   8.225   5.362
16783TIP3    H250235   6.011   8.245   5.498
16784TIP3   OH250236   5.708   7.760   5.092
16784TIP3    H150237   5.626   7.756   5.146
16784TIP3    H250238   5.777   7.757   5.161
16785TIP3   OH250239   5.143   7.813   5.101
16785TIP3    H150240   5.048   7.819   5.074
16785TIP3    H250241   5.167   7.722   5.076
16786TIP3   OH250242   5.413   7.811   4.788
16786TIP3    H150243   5.508   7.825   4.767
16786TIP3    H250244   5.368   7.834   4.704
16787TIP3   OH250245   6.201   7.834   5.294
16787TIP3    H150246   6.164   7.845   5.385
16787TIP3    H250247   6.136   7.772   5.256
16788TIP3   OH250248   5.252   7.845   4.567
16788TIP3    H150249   5.182   7.799   4.518
16788TIP3    H250250   5.305   7.880   4.492
16789TIP3   OH250251   6.369   9.524   5.512
16789TIP3    H150252   6.369   9.544   5.416
16789TIP3    H250253   6.450   9.569   5.541
16790TIP3   OH250254   5.327   8.634   5.934
16790TIP3    H150255   5.407   8.663   5.981
16790TIP3    H250256   5.263   8.632   6.008
16791TIP3   OH250257   5.792   8.086   5.188
16791TIP3    H150258   5.864   8.046   5.136
16791TIP3    H250259   5.804   8.043   5.275
16792TIP3   OH250260   5.316   7.574   5.066
16792TIP3    H150261   5.283   7.494   5.111
16792TIP3    H250262   5.367   7.538   4.993
16793TIP3   OH250263   5.769   7.980   5.481
16793TIP3    H150264   5.679   8.018   5.494
16793TIP3    H250265   5.827   8.041   5.531
16794TIP3   OH250266   5.503   8.375   4.573
16794TIP3    H150267   5.432   8.309   4.563
16794TIP3    H250268   5.487   8.407   4.665
16795TIP3   OH250269   6.407   8.610   5.204
16795TIP3    H150270   6.432   8.658   5.122
16795TIP3    H250271   6.321   8.570   5.178
16796TIP3   OH250272   5.964   7.686   4.437
16796TIP3    H150273   5.867   7.671   4.443
16796TIP3    H250274   5.974   7.781   4.458
16797TIP3   OH250275   5.902   8.689   5.572
16797TIP3    H150276   5.929   8.669   5.662
16797TIP3    H250277   5.867   8.780   5.578
16798TIP3   OH250278   6.033   7.933   4.539
16798TIP3    H150279   6.130   7.939   4.553
16798TIP3    H250280   6.015   8.012   4.484
16799TIP3   OH250281   5.197   8.397   5.250
16799TIP3    H150282   5.234   8.369   5.164
16799TIP3    H250283   5.238   8.333   5.311
16800TIP3   OH250284   5.652   8.524   4.396
16800TIP3    H150285   5.605   8.610   4.403
16800TIP3    H250286   5.597   8.468   4.455
16801TIP3   OH250287   5.075   8.319   5.864
16801TIP3    H150288   5.099   8.303   5.958
16801TIP3    H250289   5.009   8.249   5.848
16802TIP3   OH250290   5.803   8.429   5.884
16802TIP3    H150291   5.745   8.372   5.830
16802TIP3    H250292   5.891   8.397   5.857
16803TIP3   OH250293   6.065   8.950   5.468
16803TIP3    H150294   5.969   8.951   5.478
16803TIP3    H250295   6.093   9.003   5.545
16804TIP3   OH250296   6.476   8.022   4.375
16804TIP3    H150297   6.414   7.977   4.314
16804TIP3    H250298   6.473   8.111   4.333
16805TIP3   OH250299   6.693   8.879   5.458
16805TIP3    H150300   6.595   8.875   5.448
16805TIP3    H250301   6.719   8.850   5.367
16806TIP3   OH250302   6.172   8.842   4.283
16806TIP3    H150303   6.152   8.768   4.342
16806TIP3    H250304   6.188   8.798   4.197
16807TIP3   OH250305   6.171   8.472   5.124
16807TIP3    H150306   6.077   8.445   5.135
16807TIP3    H250307   6.206   8.393   5.078
16808TIP3   OH250308   5.298   8.700   4.879
16808TIP3    H150309   5.303   8.779   4.823
16808TIP3    H250310   5.204   8.681   4.876
16809TIP3   OH250311   4.861   8.004   4.578
16809TIP3    H150312   4.908   8.087   4.598
16809TIP3    H250313   4.784   8.010   4.638
16810TIP3   OH250314   5.437   8.466   4.820
16810TIP3    H150315   5.405   8.556   4.840
16810TIP3    H250316   5.401   8.415   4.895
16811TIP3   OH250317   5.567   9.043   5.344
16811TIP3    H150318   5.609   9.115   5.292
16811TIP3    H250319   5.644   9.008   5.392
16812TIP3   OH250320   5.218   8.939   4.728
16812TIP3    H150321   5.132   8.947   4.773
16812TIP3    H250322   5.250   9.032   4.731
16813TIP3   OH250323   5.957   8.679   5.302
16813TIP3    H150324   5.949   8.675   5.400
16813TIP3    H250325   6.036   8.625   5.287
16814TIP3   OH250326   5.929   8.569   4.186
16814TIP3    H150327   5.982   8.546   4.265
16814TIP3    H250328   5.841   8.542   4.214
16815TIP3   OH250329   6.204   9.214   5.355
16815TIP3    H150330   6.126   9.156   5.344
16815TIP3    H250331   6.190   9.278   5.281
16816TIP3   OH250332   6.270   9.046   4.005
16816TIP3    H150333   6.311   9.118   3.954
16816TIP3    H250334   6.190   9.092   4.036
16817TIP3   OH250335   5.291   7.823   5.872
16817TIP3    H150336   5.194   7.826   5.885
16817TIP3    H250337   5.318   7.761   5.941
16818TIP3   OH250338   6.089   8.508   4.406
16818TIP3    H150339   6.080   8.438   4.474
16818TIP3    H250340   6.186   8.504   4.390
16819TIP3   OH250341   5.006   8.910   5.506
16819TIP3    H150342   5.056   8.829   5.523
16819TIP3    H250343   5.039   8.965   5.578
16820TIP3   OH250344   5.296   8.553   4.186
16820TIP3    H150345   5.310   8.463   4.152
16820TIP3    H250346   5.276   8.535   4.280
16821TIP3   OH250347   5.240   8.555   4.462
16821TIP3    H150348   5.317   8.528   4.514
16821TIP3    H250349   5.247   8.653   4.465
16822TIP3   OH250350   4.979   8.249   4.659
16822TIP3    H150351   4.912   8.293   4.715
16822TIP3    H250352   4.995   8.318   4.593
16823TIP3   OH250353   6.124   7.888   5.553
16823TIP3    H150354   6.206   7.924   5.590
16823TIP3    H250355   6.111   7.806   5.606
16824TIP3   OH250356   6.005   7.639   4.716
16824TIP3    H150357   5.991   7.661   4.622
16824TIP3    H250358   6.045   7.721   4.751
16825TIP3   OH250359   5.507   8.753   4.409
16825TIP3    H150360   5.421   8.784   4.441
16825TIP3    H250361   5.524   8.814   4.337
16826TIP3   OH250362   5.696   7.816   4.819
16826TIP3    H150363   5.761   7.887   4.800
16826TIP3    H250364   5.702   7.810   4.917
16827TIP3   OH250365   5.964   8.135   5.628
16827TIP3    H150366   5.986   8.188   5.707
16827TIP3    H250367   6.021   8.057   5.640
16828TIP3   OH250368   5.842   7.545   4.923
16828TIP3    H150369   5.835   7.622   4.982
16828TIP3    H250370   5.901   7.581   4.853
16829TIP3   OH250371   5.249   8.829   4.472
16829TIP3    H150372   5.220   8.898   4.408
16829TIP3    H250373   5.235   8.874   4.558
16830TIP3   OH250374   5.351   7.541   4.712
16830TIP3    H150375   5.349   7.632   4.747
16830TIP3    H250376   5.447   7.523   4.720
16831TIP3   OH250377   6.606   8.036   5.608
16831TIP3    H150378   6.508   8.034   5.614
16831TIP3    H250379   6.618   7.997   5.520
16832TIP3   OH250380   6.256   8.231   4.997
16832TIP3    H150381   6.181   8.170   5.008
16832TIP3    H250382   6.328   8.183   5.044
16833TIP3   OH250383   4.970   8.461   4.466
16833TIP3    H150384   5.040   8.529   4.474
16833TIP3    H250385   5.013   8.404   4.399
16834TIP3   OH250386   4.913   7.734   4.600
16834TIP3    H150387   4.912   7.831   4.594
16834TIP3    H250388   4.832   7.710   4.554
16835TIP3   OH250389   6.225   9.185   4.946
16835TIP3    H150390   6.183   9.233   4.871
16835TIP3    H250391   6.319   9.206   4.927
16836TIP3   OH250392   5.300   7.455   5.474
16836TIP3    H150393   5.269   7.421   5.387
16836TIP3    H250394   5.290   7.375   5.531
16837TIP3   OH250395   4.847   8.683   4.858
16837TIP3    H150396   4.767   8.707   4.906
16837TIP3    H250397   4.825   8.715   4.768
16838TIP3   OH250398   4.997   9.213   5.921
16838TIP3    H150399   5.082   9.214   5.970
16838TIP3    H250400   4.975   9.118   5.924
16839TIP3   OH250401   5.479   9.181   5.968
16839TIP3    H150402   5.573   9.161   5.978
16839TIP3    H250403   5.455   9.122   5.894
16840TIP3   OH250404   5.462   8.756   4.103
16840TIP3    H150405   5.406   8.682   4.136
16840TIP3    H250406   5.535   8.706   4.061
16841TIP3   OH250407   6.115   9.087   5.703
16841TIP3    H150408   6.108   9.015   5.771
16841TIP3    H250409   6.195   9.135   5.732
16842TIP3   OH250410   5.896   8.798   4.009
16842TIP3    H150411   5.943   8.734   4.066
16842TIP3    H250412   5.951   8.798   3.928
16843TIP3   OH250413   5.127   8.620   6.125
16843TIP3    H150414   5.145   8.524   6.129
16843TIP3    H250415   5.039   8.622   6.082
16844TIP3   OH250416   5.103   8.273   4.318
16844TIP3    H150417   5.159   8.237   4.389
16844TIP3    H250418   5.169   8.277   4.245
16845TIP3   OH250419   5.735   8.704   5.899
16845TIP3    H150420   5.695   8.719   5.811
16845TIP3    H250421   5.767   8.612   5.892
16846TIP3   OH250422   5.612   8.468   4.127
16846TIP3    H150423   5.616   8.481   4.223
16846TIP3    H250424   5.612   8.370   4.122
16847TIP3   OH250425   6.228   8.713   5.505
16847TIP3    H150426   6.303   8.757   5.460
16847TIP3    H250427   6.157   8.779   5.491
16848TIP3   OH250428   5.245   8.354   6.106
16848TIP3    H150429   5.321   8.297   6.085
16848TIP3    H250430   5.271   8.386   6.195
16849TIP3   OH250431   5.313   8.174   4.541
16849TIP3    H150432   5.288   8.129   4.623
16849TIP3    H250433   5.349   8.100   4.488
16850TIP3   OH250434   5.580   8.238   5.768
16850TIP3    H150435   5.504   8.300   5.772
16850TIP3    H250436   5.629   8.271   5.689
16851TIP3   OH250437   5.413   7.968   4.382
16851TIP3    H150438   5.386   7.969   4.288
16851TIP3    H250439   5.510   7.975   4.373
16852TIP3   OH250440   6.097   8.641   5.902
16852TIP3    H150441   6.179   8.620   5.854
16852TIP3    H250442   6.097   8.573   5.972
16853TIP3   OH250443   6.236   8.300   4.044
16853TIP3    H150444   6.214   8.253   3.961
16853TIP3    H250445   6.205   8.390   4.019
16854TIP3   OH250446   5.703   8.027   5.897
16854TIP3    H150447   5.705   7.946   5.841
16854TIP3    H250448   5.661   8.092   5.837
16855TIP3   OH250449   5.707   7.814   5.703
16855TIP3    H150450   5.735   7.854   5.618
16855TIP3    H250451   5.614   7.790   5.683
16856TIP3   OH250452   5.735   8.350   5.576
16856TIP3    H150453   5.818   8.355   5.526
16856TIP3    H250454   5.680   8.418   5.531
16857TIP3   OH250455   6.318   8.318   5.958
16857TIP3    H150456   6.365   8.233   5.966
16857TIP3    H250457   6.387   8.375   5.922
16858TIP3   OH250458   6.358   8.569   5.693
16858TIP3    H150459   6.300   8.623   5.633
16858TIP3    H250460   6.445   8.589   5.652
16859TIP3   OH250461   5.580   8.141   6.125
16859TIP3    H150462   5.513   8.072   6.138
16859TIP3    H250463   5.617   8.116   6.038
16860TIP3   OH250464   5.840   7.578   5.768
16860TIP3    H150465   5.791   7.661   5.746
16860TIP3    H250466   5.770   7.511   5.756
16861TIP3   OH250467   5.965   8.083   5.985
16861TIP3    H150468   5.955   8.071   6.081
16861TIP3    H250469   5.875   8.058   5.956
16862TIP3   OH250470   6.206   8.033   5.840
16862TIP3    H150471   6.129   8.032   5.901
16862TIP3    H250472   6.278   8.001   5.897
16863TIP3   OH250473   6.433   7.971   5.992
16863TIP3    H150474   6.446   7.876   6.011
16863TIP3    H250475   6.429   8.011   6.082
16864TIP3   OH250476   5.421   7.921   6.178
16864TIP3    H150477   5.429   7.830   6.141
16864TIP3    H250478   5.458   7.907   6.268
16865TIP3   OH250479   5.934   7.588   6.026
16865TIP3    H150480   6.002   7.518   6.021
16865TIP3    H250481   5.894   7.581   5.937
16866TIP3   OH250482   5.999   7.802   6.185
16866TIP3    H150483   5.977   7.731   6.121
16866TIP3    H250484   5.922   7.861   6.177
16867TIP3   OH250485   5.220   9.033   4.287
16867TIP3    H150486   5.316   9.028   4.268
16867TIP3    H250487   5.190   9.077   4.206
16868TIP3   OH250488   4.703   8.412   4.504
16868TIP3    H150489   4.798   8.433   4.488
16868TIP3    H250490   4.696   8.324   4.462
16869TIP3   OH250491   4.611   9.024   4.915
16869TIP3    H150492   4.546   8.959   4.881
16869TIP3    H250493   4.658   8.969   4.981
16870TIP3   OH250494   4.747   8.881   5.104
16870TIP3    H150495   4.740   8.802   5.159
16870TIP3    H250496   4.799   8.939   5.162
16871TIP3   OH250497   6.474   9.284   4.900
16871TIP3    H150498   6.510   9.317   4.985
16871TIP3    H250499   6.541   9.314   4.837
16872TIP3   OH250500   6.503   9.300   5.187
16872TIP3    H150501   6.465   9.210   5.181
16872TIP3    H250502   6.587   9.280   5.230
16873TIP3   OH250503   6.553   8.974   5.757
16873TIP3    H150504   6.480   8.982   5.821
16873TIP3    H250505   6.594   9.063   5.761
16874TIP3   OH250506   6.369   8.488   4.377
16874TIP3    H150507   6.438   8.551   4.348
16874TIP3    H250508   6.412   8.447   4.455
16875TIP3   OH250509   6.497   8.354   4.579
16875TIP3    H150510   6.432   8.312   4.639
16875TIP3    H250511   6.562   8.393   4.641
16876TIP3   OH250512   6.549   8.745   5.012
16876TIP3    H150513   6.604   8.683   4.961
16876TIP3    H250514   6.545   8.822   4.952
16877TIP3   OH250515   6.383   9.045   5.209
16877TIP3    H150516   6.312   9.088   5.259
16877TIP3    H250517   6.334   8.997   5.139
16878TIP3   OH250518   6.435   8.262   4.228
16878TIP3    H150519   6.364   8.265   4.160
16878TIP3    H250520   6.409   8.339   4.283
16879TIP3   OH250521   6.306   7.935   4.183
16879TIP3    H150522   6.266   7.976   4.106
16879TIP3    H250523   6.280   7.841   4.172
16880TIP3   OH250524   6.311   8.210   4.727
16880TIP3    H150525   6.320   8.113   4.722
16880TIP3    H250526   6.298   8.225   4.823
16881TIP3   OH250527   4.938   8.286   5.473
16881TIP3    H150528   4.937   8.254   5.380
16881TIP3    H250529   5.035   8.287   5.490
16882TIP3   OH250530   6.600   8.634   5.584
16882TIP3    H150531   6.673   8.569   5.575
16882TIP3    H250532   6.627   8.705   5.523
16883TIP3   OH250533   6.786   8.442   5.603
16883TIP3    H150534   6.711   8.391   5.642
16883TIP3    H250535   6.859   8.378   5.616
16884TIP3   OH250536   6.250   7.669   4.170
16884TIP3    H150537   6.325   7.638   4.224
16884TIP3    H250538   6.177   7.610   4.194
16885TIP3   OH250539   6.307   7.926   4.623
16885TIP3    H150540   6.349   7.838   4.638
16885TIP3    H250541   6.365   7.960   4.552
16886TIP3   OH250542   6.470   8.102   5.117
16886TIP3    H150543   6.556   8.128   5.077
16886TIP3    H250544   6.483   8.138   5.206
16887TIP3   OH250545   6.538   8.245   5.350
16887TIP3    H150546   6.459   8.279   5.398
16887TIP3    H250547   6.570   8.325   5.304
16888TIP3   OH250548   5.154   7.972   6.150
16888TIP3    H150549   5.252   7.965   6.150
16888TIP3    H250550   5.131   7.887   6.191
16889TIP3   OH250551   6.990   7.835   5.906
16889TIP3    H150552   7.047   7.769   5.862
16889TIP3    H250553   6.962   7.891   5.831
16890TIP3   OH250554   6.416   7.676   4.660
16890TIP3    H150555   6.465   7.660   4.744
16890TIP3    H250556   6.356   7.599   4.658
16891TIP3   OH250557   5.116   7.663   5.482
16891TIP3    H150558   5.178   7.588   5.490
16891TIP3    H250559   5.179   7.738   5.474
16892TIP3   OH250560   4.919   7.938   5.553
16892TIP3    H150561   4.968   7.927   5.468
16892TIP3    H250562   4.952   8.023   5.583
16893TIP3   OH250563   6.861   7.976   5.713
16893TIP3    H150564   6.774   8.015   5.733
16893TIP3    H250565   6.834   7.904   5.653
16894TIP3   OH250566   6.499   7.612   4.293
16894TIP3    H150567   6.538   7.540   4.239
16894TIP3    H250568   6.565   7.683   4.284
16895TIP3   OH250569   4.902   7.443   5.056
16895TIP3    H150570   4.808   7.439   5.078
16895TIP3    H250571   4.901   7.499   4.975
16896TIP3   OH250572   6.060   9.145   4.560
16896TIP3    H150573   6.110   9.126   4.477
16896TIP3    H250574   6.118   9.208   4.604
16897TIP3   OH250575   5.123   7.523   5.870
16897TIP3    H150576   5.071   7.515   5.952
16897TIP3    H250577   5.056   7.559   5.809
16898TIP3   OH250578   5.162   8.948   5.944
16898TIP3    H150579   5.070   8.918   5.929
16898TIP3    H250580   5.173   8.928   6.038
16899TIP3   OH250581   5.340   8.978   5.492
16899TIP3    H150582   5.295   9.056   5.452
16899TIP3    H250583   5.427   8.989   5.449
16900TIP3   OH250584   5.786   9.226   5.631
16900TIP3    H150585   5.829   9.225   5.719
16900TIP3    H250586   5.853   9.275   5.578
16901TIP3   OH250587   5.965   9.376   5.487
16901TIP3    H150588   6.036   9.325   5.445
16901TIP3    H250589   6.017   9.432   5.548
16902TIP3   OH250590   6.759   7.738   5.589
16902TIP3    H150591   6.668   7.733   5.556
16902TIP3    H250592   6.789   7.645   5.576
16903TIP3   OH250593   5.021   9.245   5.514
16903TIP3    H150594   4.925   9.239   5.515
16903TIP3    H250595   5.042   9.271   5.605
16904TIP3   OH250596   5.258   9.216   5.373
16904TIP3    H150597   5.172   9.231   5.418
16904TIP3    H250598   5.237   9.243   5.282
16905TIP3   OH250599   5.678   9.245   5.173
16905TIP3    H150600   5.614   9.267   5.103
16905TIP3    H250601   5.694   9.332   5.214
16906TIP3   OH250602   5.948   9.185   5.224
16906TIP3    H150603   5.854   9.201   5.202
16906TIP3    H250604   5.993   9.259   5.179
16907TIP3   OH250605   6.153   9.376   5.137
16907TIP3    H150606   6.141   9.461   5.089
16907TIP3    H250607   6.182   9.317   5.065
16908TIP3   OH250608   4.930   9.036   5.269
16908TIP3    H150609   4.961   9.001   5.355
16908TIP3    H250610   4.997   8.991   5.211
16909TIP3   OH250611   5.119   8.905   5.120
16909TIP3    H150612   5.135   8.818   5.164
16909TIP3    H250613   5.211   8.940   5.114
16910TIP3   OH250614   5.386   8.998   5.121
16910TIP3    H150615   5.418   8.908   5.104
16910TIP3    H250616   5.434   9.017   5.204
16911TIP3   OH250617   5.963   7.653   5.206
16911TIP3    H150618   5.921   7.583   5.259
16911TIP3    H250619   6.035   7.605   5.162
16912TIP3   OH250620   6.488   7.534   5.114
16912TIP3    H150621   6.525   7.585   5.039
16912TIP3    H250622   6.393   7.552   5.107
16913TIP3   OH250623   6.583   7.634   4.878
16913TIP3    H150624   6.656   7.582   4.836
16913TIP3    H250625   6.616   7.725   4.862
16914TIP3   OH250626   5.213   7.362   5.226
16914TIP3    H150627   5.121   7.328   5.225
16914TIP3    H250628   5.263   7.277   5.222
16915TIP3   OH250629   5.000   7.231   4.872
16915TIP3    H150630   5.030   7.288   4.799
16915TIP3    H250631   4.970   7.296   4.938
16916TIP3   OH250632   5.655   7.396   5.104
16916TIP3    H150633   5.715   7.445   5.046
16916TIP3    H250634   5.680   7.431   5.191
16917TIP3   OH250635   6.205   7.541   5.090
16917TIP3    H150636   6.201   7.505   5.000
16917TIP3    H250637   6.191   7.459   5.144
16918TIP3   OH250638   6.234   7.463   4.651
16918TIP3    H150639   6.146   7.505   4.660
16918TIP3    H250640   6.218   7.378   4.697
16919TIP3   OH250641   4.716   8.801   4.654
16919TIP3    H150642   4.633   8.765   4.617
16919TIP3    H250643   4.704   8.895   4.632
16920TIP3   OH250644   5.116   7.391   4.637
16920TIP3    H150645   5.164   7.328   4.579
16920TIP3    H250646   5.189   7.445   4.673
16921TIP3   OH250647   5.628   7.566   4.735
16921TIP3    H150648   5.689   7.519   4.794
16921TIP3    H250649   5.650   7.658   4.759
16922TIP3   OH250650   5.488   8.995   4.234
16922TIP3    H150651   5.577   9.015   4.198
16922TIP3    H250652   5.466   8.918   4.176
16923TIP3   OH250653   6.204   9.108   4.328
16923TIP3    H150654   6.197   9.011   4.313
16923TIP3    H250655   6.163   9.142   4.245
16924TIP3   OH250656   5.420   7.644   6.117
16924TIP3    H150657   5.388   7.572   6.174
16924TIP3    H250658   5.515   7.645   6.141
16925TIP3   OH250659   5.669   7.641   6.234
16925TIP3    H150660   5.754   7.616   6.194
16925TIP3    H250661   5.658   7.570   6.300
16926TIP3   OH250662   4.797   8.832   4.292
16926TIP3    H150663   4.803   8.848   4.387
16926TIP3    H250664   4.883   8.787   4.273
16927TIP3   OH250665   6.494   7.701   6.023
16927TIP3    H150666   6.514   7.670   6.114
16927TIP3    H250667   6.582   7.696   5.980
16928TIP3   OH250668   6.433   9.254   5.517
16928TIP3    H150669   6.355   9.222   5.467
16928TIP3    H250670   6.415   9.350   5.517
16929TIP3   OH250671   7.700   8.627   4.280
16929TIP3    H150672   7.672   8.718   4.259
16929TIP3    H250673   7.623   8.577   4.247
16930TIP3   OH250674   7.703   8.625   4.659
16930TIP3    H150675   7.729   8.594   4.748
16930TIP3    H250676   7.657   8.547   4.624
16931TIP3   OH250677   6.999   8.522   5.028
16931TIP3    H150678   7.032   8.455   5.091
16931TIP3    H250679   7.076   8.579   5.018
16932TIP3   OH250680   7.944   8.927   4.340
16932TIP3    H150681   7.925   8.859   4.406
16932TIP3    H250682   7.968   9.004   4.396
16933TIP3   OH250683   6.970   8.929   4.756
16933TIP3    H150684   6.963   8.831   4.757
16933TIP3    H250685   7.067   8.939   4.743
16934TIP3   OH250686   6.676   8.134   4.539
16934TIP3    H150687   6.627   8.218   4.551
16934TIP3    H250688   6.606   8.080   4.499
16935TIP3   OH250689   6.735   8.421   4.708
16935TIP3    H150690   6.785   8.345   4.745
16935TIP3    H250691   6.795   8.452   4.638
16936TIP3   OH250692   7.590   9.394   4.352
16936TIP3    H150693   7.639   9.317   4.317
16936TIP3    H250694   7.572   9.369   4.444
16937TIP3   OH250695   7.499   8.849   4.710
16937TIP3    H150696   7.537   8.775   4.660
16937TIP3    H250697   7.582   8.895   4.734
16938TIP3   OH250698   8.510   8.172   4.707
16938TIP3    H150699   8.539   8.255   4.751
16938TIP3    H250700   8.531   8.192   4.614
16939TIP3   OH250701   7.911   8.354   4.743
16939TIP3    H150702   7.952   8.267   4.762
16939TIP3    H250703   7.879   8.339   4.652
16940TIP3   OH250704   7.247   8.012   4.708
16940TIP3    H150705   7.226   8.085   4.646
16940TIP3    H250706   7.199   7.939   4.664
16941TIP3   OH250707   7.941   8.103   4.332
16941TIP3    H150708   8.014   8.088   4.395
16941TIP3    H250709   7.991   8.139   4.256
16942TIP3   OH250710   6.881   8.215   4.816
16942TIP3    H150711   6.964   8.194   4.862
16942TIP3    H250712   6.893   8.159   4.735
16943TIP3   OH250713   7.322   8.412   4.607
16943TIP3    H150714   7.416   8.386   4.621
16943TIP3    H250715   7.283   8.329   4.575
16944TIP3   OH250716   8.584   8.379   4.877
16944TIP3    H150717   8.500   8.427   4.858
16944TIP3    H250718   8.596   8.401   4.970
16945TIP3   OH250719   7.244   7.996   5.142
16945TIP3    H150720   7.185   8.032   5.074
16945TIP3    H250721   7.192   8.014   5.223
16946TIP3   OH250722   7.596   8.849   4.148
16946TIP3    H150723   7.551   8.825   4.066
16946TIP3    H250724   7.550   8.932   4.171
16947TIP3   OH250725   7.351   8.771   4.939
16947TIP3    H150726   7.287   8.836   4.976
16947TIP3    H250727   7.391   8.822   4.866
16948TIP3   OH250728   8.154   8.105   4.501
16948TIP3    H150729   8.143   8.056   4.584
16948TIP3    H250730   8.207   8.181   4.529
16949TIP3   OH250731   7.115   8.110   4.927
16949TIP3    H150732   7.177   8.184   4.949
16949TIP3    H250733   7.164   8.070   4.852
16950TIP3   OH250734   7.179   8.964   5.036
16950TIP3    H150735   7.155   9.048   4.992
16950TIP3    H250736   7.099   8.951   5.092
16951TIP3   OH250737   6.574   8.654   4.272
16951TIP3    H150738   6.534   8.680   4.187
16951TIP3    H250739   6.604   8.740   4.308
16952TIP3   OH250740   8.014   9.167   4.511
16952TIP3    H150741   7.926   9.157   4.553
16952TIP3    H250742   8.001   9.253   4.466
16953TIP3   OH250743   8.304   8.072   4.874
16953TIP3    H150744   8.216   8.101   4.845
16953TIP3    H250745   8.362   8.103   4.801
16954TIP3   OH250746   7.603   7.716   4.856
16954TIP3    H150747   7.589   7.621   4.872
16954TIP3    H250748   7.524   7.753   4.902
16955TIP3   OH250749   7.720   9.216   4.189
16955TIP3    H150750   7.770   9.134   4.164
16955TIP3    H250751   7.777   9.283   4.145
16956TIP3   OH250752   7.862   9.002   4.085
16956TIP3    H150753   7.815   8.924   4.052
16956TIP3    H250754   7.896   8.968   4.171
16957TIP3   OH250755   8.237   9.086   4.854
16957TIP3    H150756   8.227   9.008   4.795
16957TIP3    H250757   8.220   9.160   4.791
16958TIP3   OH250758   7.531   8.477   4.111
16958TIP3    H150759   7.449   8.528   4.090
16958TIP3    H250760   7.575   8.475   4.025
16959TIP3   OH250761   7.490   8.260   3.831
16959TIP3    H150762   7.559   8.311   3.878
16959TIP3    H250763   7.546   8.197   3.782
16960TIP3   OH250764   8.435   8.721   4.699
16960TIP3    H150765   8.351   8.772   4.705
16960TIP3    H250766   8.462   8.743   4.607
16961TIP3   OH250767   7.878   8.559   4.085
16961TIP3    H150768   7.822   8.585   4.162
16961TIP3    H250769   7.961   8.532   4.131
16962TIP3   OH250770   8.114   8.600   4.994
16962TIP3    H150771   8.110   8.685   5.042
16962TIP3    H250772   8.027   8.602   4.948
16963TIP3   OH250773   7.109   8.557   4.501
16963TIP3    H150774   7.068   8.500   4.432
16963TIP3    H250775   7.187   8.505   4.527
16964TIP3   OH250776   7.237   8.953   4.657
16964TIP3    H150777   7.220   8.927   4.566
16964TIP3    H250778   7.331   8.928   4.669
16965TIP3   OH250779   7.248   8.529   4.855
16965TIP3    H150780   7.279   8.510   4.764
16965TIP3    H250781   7.289   8.616   4.874
16966TIP3   OH250782   7.776   9.166   4.633
16966TIP3    H150783   7.755   9.246   4.684
16966TIP3    H250784   7.757   9.093   4.696
16967TIP3   OH250785   7.383   9.084   5.180
16967TIP3    H150786   7.323   9.149   5.223
16967TIP3    H250787   7.319   9.033   5.127
16968TIP3   OH250788   7.721   8.415   3.910
16968TIP3    H150789   7.778   8.476   3.962
16968TIP3    H250790   7.745   8.440   3.818
16969TIP3   OH250791   7.139   8.641   5.280
16969TIP3    H150792   7.143   8.728   5.323
16969TIP3    H250793   7.043   8.623   5.286
16970TIP3   OH250794   7.464   9.096   4.183
16970TIP3    H150795   7.536   9.155   4.208
16970TIP3    H250796   7.398   9.156   4.147
16971TIP3   OH250797   7.179   9.258   5.265
16971TIP3    H150798   7.147   9.255   5.173
16971TIP3    H250799   7.099   9.234   5.316
16972TIP3   OH250800   8.235   7.659   3.958
16972TIP3    H150801   8.153   7.678   4.009
16972TIP3    H250802   8.246   7.743   3.908
16973TIP3   OH250803   6.976   8.400   4.306
16973TIP3    H150804   6.912   8.447   4.248
16973TIP3    H250805   6.933   8.314   4.316
16974TIP3   OH250806   8.066   9.048   3.488
16974TIP3    H150807   8.019   9.132   3.465
16974TIP3    H250808   8.045   8.992   3.412
16975TIP3   OH250809   6.757   8.784   5.213
16975TIP3    H150810   6.694   8.763   5.141
16975TIP3    H250811   6.794   8.697   5.236
16976TIP3   OH250812   6.613   8.975   4.849
16976TIP3    H150813   6.708   8.968   4.833
16976TIP3    H250814   6.610   9.056   4.902
16977TIP3   OH250815   8.465   9.420   4.892
16977TIP3    H150816   8.473   9.325   4.913
16977TIP3    H250817   8.383   9.444   4.941
16978TIP3   OH250818   7.591   9.212   5.042
16978TIP3    H150819   7.584   9.306   5.070
16978TIP3    H250820   7.512   9.174   5.086
16979TIP3   OH250821   7.345   9.346   3.984
16979TIP3    H150822   7.296   9.324   3.903
16979TIP3    H250823   7.308   9.433   4.009
16980TIP3   OH250824   6.779   9.193   4.368
16980TIP3    H150825   6.828   9.185   4.453
16980TIP3    H250826   6.720   9.116   4.376
16981TIP3   OH250827   7.546   9.239   3.625
16981TIP3    H150828   7.573   9.152   3.590
16981TIP3    H250829   7.581   9.238   3.716
16982TIP3   OH250830   7.596   9.287   3.900
16982TIP3    H150831   7.505   9.301   3.936
16982TIP3    H250832   7.640   9.246   3.976
16983TIP3   OH250833   8.366   8.561   5.173
16983TIP3    H150834   8.286   8.573   5.121
16983TIP3    H250835   8.381   8.465   5.165
16984TIP3   OH250836   6.964   8.967   5.202
16984TIP3    H150837   7.014   8.948   5.285
16984TIP3    H250838   6.889   8.904   5.209
16985TIP3   OH250839   7.362   7.791   4.984
16985TIP3    H150840   7.273   7.760   4.959
16985TIP3    H250841   7.338   7.874   5.029
16986TIP3   OH250842   7.895   7.907   5.179
16986TIP3    H150843   7.963   7.879   5.244
16986TIP3    H250844   7.811   7.886   5.224
16987TIP3   OH250845   8.137   8.336   5.098
16987TIP3    H150846   8.088   8.332   5.183
16987TIP3    H250847   8.110   8.422   5.062
16988TIP3   OH250848   7.797   8.461   3.654
16988TIP3    H150849   7.761   8.437   3.567
16988TIP3    H250850   7.870   8.520   3.630
16989TIP3   OH250851   7.509   7.839   3.955
16989TIP3    H150852   7.475   7.838   4.047
16989TIP3    H250853   7.469   7.756   3.922
16990TIP3   OH250854   7.294   8.306   5.003
16990TIP3    H150855   7.243   8.327   5.084
16990TIP3    H250856   7.278   8.387   4.949
16991TIP3   OH250857   7.178   8.192   4.517
16991TIP3    H150858   7.085   8.167   4.533
16991TIP3    H250859   7.191   8.152   4.428
16992TIP3   OH250860   7.668   8.279   4.244
16992TIP3    H150861   7.614   8.350   4.203
16992TIP3    H250862   7.722   8.249   4.168
16993TIP3   OH250863   7.843   8.557   5.331
16993TIP3    H150864   7.819   8.485   5.393
16993TIP3    H250865   7.936   8.571   5.354
16994TIP3   OH250866   7.826   8.308   4.484
16994TIP3    H150867   7.766   8.338   4.413
16994TIP3    H250868   7.858   8.226   4.441
16995TIP3   OH250869   7.114   8.336   5.212
16995TIP3    H150870   7.138   8.400   5.280
16995TIP3    H250871   7.101   8.254   5.264
16996TIP3   OH250872   7.164   7.813   3.922
16996TIP3    H150873   7.154   7.810   4.019
16996TIP3    H250874   7.085   7.864   3.897
16997TIP3   OH250875   6.705   7.858   4.794
16997TIP3    H150876   6.782   7.890   4.846
16997TIP3    H250877   6.745   7.826   4.711
16998TIP3   OH250878   6.680   7.839   4.312
16998TIP3    H150879   6.724   7.878   4.234
16998TIP3    H250880   6.619   7.912   4.334
16999TIP3   OH250881   7.839   8.554   4.908
16999TIP3    H150882   7.870   8.482   4.849
16999TIP3    H250883   7.808   8.502   4.985
17000TIP3   OH250884   7.504   8.014   4.579
17000TIP3    H150885   7.421   8.013   4.631
17000TIP3    H250886   7.571   8.015   4.650
17001TIP3   OH250887   6.939   8.070   4.588
17001TIP3    H150888   6.844   8.077   4.561
17001TIP3    H250889   6.962   7.979   4.563
17002TIP3   OH250890   7.210   8.067   4.274
17002TIP3    H150891   7.304   8.083   4.252
17002TIP3    H250892   7.162   8.091   4.192
17003TIP3   OH250893   7.997   8.090   4.780
17003TIP3    H150894   7.962   8.102   4.871
17003TIP3    H250895   7.931   8.028   4.743
17004TIP3   OH250896   7.049   8.099   4.054
17004TIP3    H150897   6.978   8.055   4.005
17004TIP3    H250898   7.101   8.136   3.980
17005TIP3   OH250899   8.163   9.775   4.991
17005TIP3    H150900   8.160   9.791   4.894
17005TIP3    H250901   8.221   9.847   5.019
17006TIP3   OH250902   7.124   8.887   5.422
17006TIP3    H150903   7.203   8.920   5.468
17006TIP3    H250904   7.059   8.889   5.495
17007TIP3   OH250905   7.589   8.342   4.676
17007TIP3    H150906   7.661   8.302   4.625
17007TIP3    H250907   7.599   8.300   4.763
17008TIP3   OH250908   7.113   7.831   4.554
17008TIP3    H150909   7.079   7.750   4.598
17008TIP3    H250910   7.161   7.794   4.478
17009TIP3   OH250911   7.565   8.237   4.968
17009TIP3    H150912   7.475   8.274   4.980
17009TIP3    H250913   7.622   8.299   5.017
17010TIP3   OH250914   7.302   8.629   4.062
17010TIP3    H150915   7.228   8.566   4.049
17010TIP3    H250916   7.283   8.663   4.153
17011TIP3   OH250917   8.203   8.866   4.691
17011TIP3    H150918   8.225   8.915   4.609
17011TIP3    H250919   8.116   8.825   4.668
17012TIP3   OH250920   7.760   7.942   3.923
17012TIP3    H150921   7.663   7.926   3.930
17012TIP3    H250922   7.769   8.037   3.945
17013TIP3   OH250923   7.705   8.949   5.058
17013TIP3    H150924   7.719   8.926   5.151
17013TIP3    H250925   7.663   9.037   5.063
17014TIP3   OH250926   7.830   8.189   4.026
17014TIP3    H150927   7.926   8.197   4.040
17014TIP3    H250928   7.809   8.268   3.973
17015TIP3   OH250929   6.991   8.649   4.738
17015TIP3    H150930   7.031   8.625   4.651
17015TIP3    H250931   7.035   8.586   4.797
17016TIP3   OH250932   7.452   8.781   3.888
17016TIP3    H150933   7.403   8.867   3.891
17016TIP3    H250934   7.394   8.725   3.943
17017TIP3   OH250935   6.873   8.572   5.350
17017TIP3    H150936   6.895   8.559   5.444
17017TIP3    H250937   6.804   8.505   5.335
17018TIP3   OH250938   7.598   8.686   5.371
17018TIP3    H150939   7.539   8.629   5.318
17018TIP3    H250940   7.686   8.653   5.342
17019TIP3   OH250941   7.864   9.207   4.954
17019TIP3    H150942   7.767   9.203   4.964
17019TIP3    H250943   7.888   9.261   5.031
17020TIP3   OH250944   8.274   8.278   3.861
17020TIP3    H150945   8.211   8.232   3.800
17020TIP3    H250946   8.269   8.367   3.820
17021TIP3   OH250947   8.486   9.133   4.945
17021TIP3    H150948   8.388   9.129   4.933
17021TIP3    H250949   8.514   9.107   4.855
17022TIP3   OH250950   7.988   9.087   3.773
17022TIP3    H150951   7.949   9.041   3.850
17022TIP3    H250952   7.957   9.033   3.700
17023TIP3   OH250953   7.968   8.727   4.611
17023TIP3    H150954   7.875   8.702   4.623
17023TIP3    H250955   8.002   8.648   4.565
17024TIP3   OH250956   7.094   8.952   4.359
17024TIP3    H150957   7.099   9.037   4.312
17024TIP3    H250958   6.999   8.944   4.372
17025TIP3   OH250959   6.658   8.260   4.065
17025TIP3    H150960   6.704   8.344   4.084
17025TIP3    H250961   6.581   8.267   4.125
17026TIP3   OH250962   7.236   8.721   4.309
17026TIP3    H150963   7.199   8.811   4.323
17026TIP3    H250964   7.197   8.673   4.383
17027TIP3   OH250965   7.364   9.277   4.845
17027TIP3    H150966   7.349   9.367   4.808
17027TIP3    H250967   7.457   9.279   4.871
17028TIP3   OH250968   7.014   9.193   4.213
17028TIP3    H150969   6.928   9.201   4.259
17028TIP3    H250970   7.047   9.285   4.218
17029TIP3   OH250971   7.754   8.934   4.789
17029TIP3    H150972   7.745   8.933   4.887
17029TIP3    H250973   7.833   8.879   4.776
17030TIP3   OH250974   7.729   8.808   3.674
17030TIP3    H150975   7.769   8.791   3.762
17030TIP3    H250976   7.634   8.803   3.693
17031TIP3   OH250977   8.002   9.469   4.840
17031TIP3    H150978   7.923   9.414   4.831
17031TIP3    H250979   7.988   9.534   4.768
17032TIP3   OH250980   8.031   9.317   3.470
17032TIP3    H150981   8.057   9.381   3.401
17032TIP3    H250982   7.958   9.368   3.513
17033TIP3   OH250983   7.087   8.079   5.359
17033TIP3    H150984   6.990   8.083   5.372
17033TIP3    H250985   7.113   8.017   5.429
17034TIP3   OH250986   7.886   8.762   3.896
17034TIP3    H150987   7.877   8.693   3.966
17034TIP3    H250988   7.982   8.760   3.881
17035TIP3   OH250989   6.796   9.161   4.995
17035TIP3    H150990   6.857   9.096   5.033
17035TIP3    H250991   6.824   9.243   5.037
17036TIP3   OH250992   7.084   8.812   3.671
17036TIP3    H150993   7.117   8.726   3.639
17036TIP3    H250994   7.070   8.794   3.766
17037TIP3   OH250995   7.038   8.812   3.947
17037TIP3    H150996   7.110   8.787   4.006
17037TIP3    H250997   7.042   8.910   3.950
17038TIP3   OH250998   6.775   8.506   4.147
17038TIP3    H150999   6.709   8.552   4.204
17038TIP3    H251000   6.790   8.575   4.080
17039TIP3   OH251001   7.922   8.143   5.039
17039TIP3    H151002   8.002   8.180   5.079
17039TIP3    H251003   7.907   8.062   5.092
17040TIP3   OH251004   7.802   7.894   4.202
17040TIP3    H151005   7.787   7.918   4.109
17040TIP3    H251006   7.841   7.977   4.238
17041TIP3   OH251007   7.305   9.009   3.895
17041TIP3    H151008   7.217   9.038   3.928
17041TIP3    H251009   7.317   9.072   3.822
17042TIP3   OH251010   7.494   8.072   4.306
17042TIP3    H151011   7.558   8.144   4.287
17042TIP3    H251012   7.498   8.067   4.403
17043TIP3   OH251013   7.761   8.392   5.114
17043TIP3    H151014   7.780   8.447   5.193
17043TIP3    H251015   7.817   8.314   5.129
17044TIP3   OH251016   7.638   7.802   4.410
17044TIP3    H151017   7.628   7.880   4.468
17044TIP3    H251018   7.698   7.838   4.341
17045TIP3   OH251019   7.046   9.085   3.959
17045TIP3    H151020   7.017   9.155   3.896
17045TIP3    H251021   7.030   9.128   4.045
17046TIP3   OH251022   7.147   7.797   4.199
17046TIP3    H151023   7.145   7.889   4.233
17046TIP3    H251024   7.244   7.780   4.206
17047TIP3   OH251025   8.403   8.292   5.092
17047TIP3    H151026   8.306   8.292   5.102
17047TIP3    H251027   8.411   8.250   5.005
17048TIP3   OH251028   8.053   8.486   4.482
17048TIP3    H151029   7.976   8.428   4.494
17048TIP3    H251030   8.124   8.438   4.531
17049TIP3   OH251031   6.764   8.717   3.954
17049TIP3    H151032   6.830   8.788   3.962
17049TIP3    H251033   6.810   8.663   3.886
17050TIP3   OH251034   6.710   7.990   4.087
17050TIP3    H151035   6.709   8.088   4.082
17050TIP3    H251036   6.628   7.967   4.042
17051TIP3   OH251037   7.996   9.434   4.434
17051TIP3    H151038   7.954   9.481   4.359
17051TIP3    H251039   8.090   9.455   4.412
17052TIP3   OH251040   7.098   7.711   4.960
17052TIP3    H151041   7.066   7.679   4.873
17052TIP3    H251042   7.086   7.632   5.017
17053TIP3   OH251043   6.636   8.926   4.343
17053TIP3    H151044   6.562   8.961   4.395
17053TIP3    H251045   6.618   8.967   4.256
17054TIP3   OH251046   6.791   9.470   5.416
17054TIP3    H151047   6.879   9.467   5.460
17054TIP3    H251048   6.771   9.375   5.407
17055TIP3   OH251049   7.280   9.436   5.455
17055TIP3    H151050   7.373   9.409   5.459
17055TIP3    H251051   7.248   9.379   5.381
17056TIP3   OH251052   7.264   9.009   3.588
17056TIP3    H151053   7.207   8.935   3.620
17056TIP3    H251054   7.340   8.959   3.553
17057TIP3   OH251055   7.912   9.345   5.187
17057TIP3    H151056   7.901   9.271   5.251
17057TIP3    H251057   7.989   9.392   5.222
17058TIP3   OH251058   6.923   8.877   5.613
17058TIP3    H151059   6.940   8.781   5.615
17058TIP3    H251060   6.835   8.879   5.568
17059TIP3   OH251061   6.898   8.529   3.805
17059TIP3    H151062   6.956   8.496   3.876
17059TIP3    H251063   6.964   8.534   3.732
17060TIP3   OH251064   7.532   8.962   5.385
17060TIP3    H151065   7.488   8.978   5.299
17060TIP3    H251066   7.562   8.869   5.377
17061TIP3   OH251067   7.374   8.721   3.623
17061TIP3    H151068   7.404   8.736   3.714
17061TIP3    H251069   7.393   8.626   3.612
17062TIP3   OH251070   8.025   8.968   4.993
17062TIP3    H151071   8.096   9.016   4.946
17062TIP3    H251072   7.951   9.030   4.981
17063TIP3   OH251073   7.041   8.610   5.594
17063TIP3    H151074   7.116   8.554   5.572
17063TIP3    H251075   7.066   8.643   5.683
17064TIP3   OH251076   7.110   8.431   4.029
17064TIP3    H151077   7.083   8.387   4.111
17064TIP3    H251078   7.144   8.356   3.976
17065TIP3   OH251079   7.378   8.496   5.256
17065TIP3    H151080   7.300   8.556   5.260
17065TIP3    H251081   7.425   8.529   5.176
17066TIP3   OH251082   7.209   8.223   3.869
17066TIP3    H151083   7.181   8.226   3.775
17066TIP3    H251084   7.306   8.232   3.860
17067TIP3   OH251085   7.894   8.896   5.390
17067TIP3    H151086   7.972   8.870   5.339
17067TIP3    H251087   7.892   8.829   5.460
17068TIP3   OH251088   8.037   8.562   3.528
17068TIP3    H151089   8.010   8.513   3.447
17068TIP3    H251090   8.002   8.652   3.505
17069TIP3   OH251091   7.501   8.283   5.383
17069TIP3    H151092   7.500   8.204   5.326
17069TIP3    H251093   7.458   8.350   5.324
17070TIP3   OH251094   7.503   8.069   5.188
17070TIP3    H151095   7.530   8.111   5.104
17070TIP3    H251096   7.410   8.047   5.170
17071TIP3   OH251097   7.532   8.608   5.062
17071TIP3    H151098   7.613   8.615   5.010
17071TIP3    H251099   7.475   8.675   5.019
17072TIP3   OH251100   8.116   8.575   5.445
17072TIP3    H151101   8.162   8.490   5.456
17072TIP3    H251102   8.186   8.629   5.405
17073TIP3   OH251103   8.155   8.827   5.182
17073TIP3    H151104   8.096   8.879   5.122
17073TIP3    H251105   8.242   8.845   5.140
17074TIP3   OH251106   7.379   8.397   5.612
17074TIP3    H151107   7.309   8.329   5.625
17074TIP3    H251108   7.413   8.372   5.524
17075TIP3   OH251109   7.636   7.835   5.255
17075TIP3    H151110   7.587   7.917   5.232
17075TIP3    H251111   7.565   7.767   5.243
17076TIP3   OH251112   7.762   8.339   5.472
17076TIP3    H151113   7.750   8.328   5.568
17076TIP3    H251114   7.672   8.315   5.441
17077TIP3   OH251115   8.001   8.288   5.326
17077TIP3    H151116   7.925   8.289   5.387
17077TIP3    H251117   8.073   8.256   5.384
17078TIP3   OH251118   8.230   8.227   5.478
17078TIP3    H151119   8.241   8.131   5.498
17078TIP3    H251120   8.224   8.267   5.567
17079TIP3   OH251121   7.217   8.177   5.664
17079TIP3    H151122   7.225   8.087   5.628
17079TIP3    H251123   7.253   8.164   5.754
17080TIP3   OH251124   7.731   7.844   5.513
17080TIP3    H151125   7.798   7.773   5.506
17080TIP3    H251126   7.690   7.838   5.424
17081TIP3   OH251127   7.795   8.058   5.672
17081TIP3    H151128   7.773   7.988   5.607
17081TIP3    H251129   7.718   8.118   5.665
17082TIP3   OH251130   7.018   9.289   3.772
17082TIP3    H151131   7.113   9.283   3.751
17082TIP3    H251132   6.986   9.335   3.693
17083TIP3   OH251133   6.496   8.668   3.990
17083TIP3    H151134   6.591   8.691   3.976
17083TIP3    H251135   6.491   8.580   3.947
17084TIP3   OH251136   6.407   9.282   4.403
17084TIP3    H151137   6.342   9.218   4.368
17084TIP3    H251138   6.454   9.226   4.468
17085TIP3   OH251139   6.546   9.135   4.587
17085TIP3    H151140   6.538   9.061   4.649
17085TIP3    H251141   6.600   9.196   4.640
17086TIP3   OH251142   8.238   9.533   4.382
17086TIP3    H151143   8.273   9.553   4.470
17086TIP3    H251144   8.301   9.585   4.330
17087TIP3   OH251145   8.312   9.549   4.666
17087TIP3    H151146   8.265   9.463   4.666
17087TIP3    H251147   8.388   9.525   4.722
17088TIP3   OH251148   8.352   9.236   5.244
17088TIP3    H151149   8.276   9.240   5.306
17088TIP3    H251150   8.382   9.327   5.240
17089TIP3   OH251151   8.169   8.743   3.866
17089TIP3    H151152   8.243   8.803   3.850
17089TIP3    H251153   8.202   8.696   3.946
17090TIP3   OH251154   8.293   8.610   4.068
17090TIP3    H151155   8.227   8.567   4.127
17090TIP3    H251156   8.356   8.649   4.131
17091TIP3   OH251157   8.347   9.002   4.499
17091TIP3    H151158   8.400   8.940   4.446
17091TIP3    H251159   8.332   9.075   4.436
17092TIP3   OH251160   8.178   9.303   4.693
17092TIP3    H151161   8.107   9.346   4.744
17092TIP3    H251162   8.127   9.254   4.625
17093TIP3   OH251163   8.233   8.519   3.714
17093TIP3    H151164   8.160   8.521   3.647
17093TIP3    H251165   8.204   8.594   3.770
17094TIP3   OH251166   8.105   8.191   3.667
17094TIP3    H151167   8.058   8.231   3.593
17094TIP3    H251168   8.078   8.097   3.658
17095TIP3   OH251169   8.109   8.466   4.214
17095TIP3    H151170   8.115   8.369   4.209
17095TIP3    H251171   8.095   8.481   4.310
17096TIP3   OH251172   6.734   8.539   4.961
17096TIP3    H151173   6.732   8.511   4.867
17096TIP3    H251174   6.831   8.542   4.977
17097TIP3   OH251175   8.395   8.890   5.068
17097TIP3    H151176   8.469   8.825   5.060
17097TIP3    H251177   8.424   8.962   5.009
17098TIP3   OH251178   8.583   8.699   5.090
17098TIP3    H151179   8.507   8.648   5.127
17098TIP3    H251180   8.655   8.634   5.103
17099TIP3   OH251181   8.046   7.926   3.656
17099TIP3    H151182   8.120   7.894   3.712
17099TIP3    H251183   7.972   7.868   3.680
17100TIP3   OH251184   8.104   8.183   4.110
17100TIP3    H151185   8.144   8.095   4.126
17100TIP3    H251186   8.162   8.215   4.039
17101TIP3   OH251187   8.266   8.357   4.604
17101TIP3    H151188   8.352   8.384   4.564
17101TIP3    H251189   8.278   8.394   4.693
17102TIP3   OH251190   8.334   8.501   4.837
17102TIP3    H151191   8.255   8.535   4.885
17102TIP3    H251192   8.365   8.582   4.791
17103TIP3   OH251193   6.950   8.228   5.635
17103TIP3    H151194   7.048   8.222   5.636
17103TIP3    H251195   6.927   8.143   5.677
17104TIP3   OH251196   8.784   8.088   5.389
17104TIP3    H151197   8.844   8.024   5.346
17104TIP3    H251198   8.758   8.145   5.314
17105TIP3   OH251199   8.213   7.933   4.146
17105TIP3    H151200   8.260   7.916   4.231
17105TIP3    H251201   8.152   7.856   4.144
17106TIP3   OH251202   6.913   7.919   4.968
17106TIP3    H151203   6.976   7.845   4.977
17106TIP3    H251204   6.974   7.995   4.961
17107TIP3   OH251205   6.716   8.194   5.040
17107TIP3    H151206   6.765   8.185   4.956
17107TIP3    H251207   6.744   8.282   5.069
17108TIP3   OH251208   8.657   8.233   5.199
17108TIP3    H151209   8.570   8.272   5.219
17108TIP3    H251210   8.630   8.161   5.139
17109TIP3   OH251211   8.295   7.868   3.780
17109TIP3    H151212   8.334   7.796   3.727
17109TIP3    H251213   8.362   7.939   3.770
17110TIP3   OH251214   6.698   7.699   4.542
17110TIP3    H151215   6.604   7.695   4.565
17110TIP3    H251216   6.698   7.755   4.462
17111TIP3   OH251217   7.862   9.397   4.047
17111TIP3    H151218   7.912   9.384   3.965
17111TIP3    H251219   7.912   9.466   4.093
17112TIP3   OH251220   6.919   7.777   5.355
17112TIP3    H151221   6.868   7.771   5.438
17112TIP3    H251222   6.852   7.815   5.295
17113TIP3   OH251223   6.960   9.203   5.434
17113TIP3    H151224   6.868   9.177   5.413
17113TIP3    H251225   6.964   9.185   5.529
17114TIP3   OH251226   7.132   9.237   4.984
17114TIP3    H151227   7.078   9.304   4.940
17114TIP3    H251228   7.216   9.248   4.934
17115TIP3   OH251229   7.581   9.481   5.119
17115TIP3    H151230   7.624   9.482   5.207
17115TIP3    H251231   7.647   9.530   5.065
17116TIP3   OH251232   7.760   9.630   4.978
17116TIP3    H151233   7.829   9.582   4.930
17116TIP3    H251234   7.813   9.690   5.035
17117TIP3   OH251235   8.555   7.995   5.076
17117TIP3    H151236   8.464   7.990   5.042
17117TIP3    H251237   8.585   7.902   5.063
17118TIP3   OH251238   6.800   9.457   5.028
17118TIP3    H151239   6.738   9.508   4.974
17118TIP3    H251240   6.825   9.523   5.093
17119TIP3   OH251241   7.501   9.518   4.627
17119TIP3    H151242   7.403   9.507   4.632
17119TIP3    H251243   7.507   9.598   4.683
17120TIP3   OH251244   7.746   9.442   4.712
17120TIP3    H151245   7.653   9.455   4.684
17120TIP3    H251246   7.788   9.516   4.665
17121TIP3   OH251247   7.955   9.635   4.624
17121TIP3    H151248   7.941   9.719   4.576
17121TIP3    H251249   7.971   9.572   4.551
17122TIP3   OH251250   6.721   9.285   4.750
17122TIP3    H151251   6.753   9.265   4.840
17122TIP3    H251252   6.794   9.244   4.698
17123TIP3   OH251253   6.908   9.153   4.603
17123TIP3    H151254   6.929   9.071   4.653
17123TIP3    H251255   6.999   9.190   4.593
17124TIP3   OH251256   7.164   9.235   4.595
17124TIP3    H151257   7.222   9.163   4.624
17124TIP3    H251258   7.195   9.312   4.646
17125TIP3   OH251259   7.762   7.911   4.696
17125TIP3    H151260   7.717   7.841   4.747
17125TIP3    H251261   7.831   7.861   4.649
17126TIP3   OH251262   8.285   7.791   4.601
17126TIP3    H151263   8.321   7.843   4.526
17126TIP3    H251264   8.189   7.808   4.593
17127TIP3   OH251265   8.380   7.891   4.364
17127TIP3    H151266   8.452   7.840   4.323
17127TIP3    H251267   8.412   7.983   4.349
17128TIP3   OH251268   7.010   7.619   4.712
17128TIP3    H151269   6.917   7.586   4.711
17128TIP3    H251270   7.059   7.534   4.708
17129TIP3   OH251271   6.798   7.487   4.359
17129TIP3    H151272   6.826   7.545   4.286
17129TIP3    H251273   6.766   7.552   4.425
17130TIP3   OH251274   7.452   7.651   4.591
17130TIP3    H151275   7.511   7.701   4.532
17130TIP3    H251276   7.473   7.689   4.677
17131TIP3   OH251277   8.003   7.797   4.575
17131TIP3    H151278   7.996   7.762   4.486
17131TIP3    H251279   7.988   7.716   4.630
17132TIP3   OH251280   8.030   7.720   4.137
17132TIP3    H151281   7.943   7.762   4.147
17132TIP3    H251282   8.014   7.635   4.184
17133TIP3   OH251283   6.512   9.058   4.141
17133TIP3    H151284   6.428   9.025   4.104
17133TIP3    H251285   6.502   9.153   4.124
17134TIP3   OH251286   6.912   7.647   4.124
17134TIP3    H151287   6.961   7.585   4.066
17134TIP3    H251288   6.984   7.702   4.160
17135TIP3   OH251289   7.425   7.822   4.221
17135TIP3    H151290   7.485   7.775   4.281
17135TIP3    H251291   7.446   7.915   4.246
17136TIP3   OH251292   7.285   9.250   3.717
17136TIP3    H151293   7.372   9.273   3.680
17136TIP3    H251294   7.265   9.172   3.659
17137TIP3   OH251295   8.002   9.360   3.810
17137TIP3    H151296   7.995   9.263   3.797
17137TIP3    H251297   7.952   9.395   3.734
17138TIP3   OH251298   7.217   7.899   5.602
17138TIP3    H151299   7.184   7.829   5.661
17138TIP3    H251300   7.311   7.901   5.628
17139TIP3   OH251301   7.465   7.897   5.721
17139TIP3    H151302   7.550   7.872   5.682
17139TIP3    H251303   7.453   7.826   5.788
17140TIP3   OH251304   6.590   9.084   3.778
17140TIP3    H151305   6.592   9.110   3.872
17140TIP3    H251306   6.678   9.043   3.766
17141TIP3   OH251307   8.290   7.957   5.509
17141TIP3    H151308   8.310   7.926   5.600
17141TIP3    H251309   8.378   7.953   5.466
17142TIP3   OH251310   8.223   9.506   5.012
17142TIP3    H151311   8.149   9.474   4.956
17142TIP3    H251312   8.210   9.602   5.003
17143TIP3   OH251313   8.799   8.771   4.509
17143TIP3    H151314   8.825   8.707   4.578
17143TIP3    H251315   8.858   8.845   4.529
17144TIP3   OH251316   8.765   9.154   4.196
17144TIP3    H151317   8.769   9.062   4.228
17144TIP3    H251318   8.825   9.201   4.256
17145TIP3   OH251319   8.473   8.394   4.024
17145TIP3    H151320   8.421   8.475   4.038
17145TIP3    H251321   8.404   8.336   3.989
17146TIP3   OH251322   8.534   8.679   4.194
17146TIP3    H151323   8.581   8.601   4.232
17146TIP3    H251324   8.591   8.702   4.120
17147TIP3   OH251325   9.038   8.270   4.196
17147TIP3    H151326   9.021   8.342   4.132
17147TIP3    H251327   8.993   8.196   4.151
17148TIP3   OH251328   8.678   8.473   4.301
17148TIP3    H151329   8.760   8.449   4.349
17148TIP3    H251330   8.689   8.416   4.222
17149TIP3   OH251331   9.114   8.682   4.093
17149TIP3    H151332   9.210   8.659   4.085
17149TIP3    H251333   9.073   8.597   4.064
17150TIP3   OH251334   9.038   8.251   4.628
17150TIP3    H151335   8.977   8.287   4.561
17150TIP3    H251336   8.987   8.270   4.710
17151TIP3   OH251337   8.910   8.368   4.414
17151TIP3    H151338   8.974   8.439   4.436
17151TIP3    H251339   8.958   8.325   4.339
17152TIP3   OH251340   8.386   8.893   3.774
17152TIP3    H151341   8.336   8.901   3.691
17152TIP3    H251342   8.391   8.986   3.806
17153TIP3   OH251343   9.392   7.961   4.349
17153TIP3    H151344   9.381   7.866   4.370
17153TIP3    H251345   9.314   7.999   4.395
17154TIP3   OH251346   8.879   8.792   4.000
17154TIP3    H151347   8.850   8.754   3.914
17154TIP3    H251348   8.971   8.760   4.005
17155TIP3   OH251349   9.056   8.797   4.337
17155TIP3    H151350   9.054   8.762   4.246
17155TIP3    H251351   9.038   8.891   4.324
17156TIP3   OH251352   8.931   8.899   4.756
17156TIP3    H151353   8.937   8.983   4.806
17156TIP3    H251354   8.837   8.878   4.773
17157TIP3   OH251355   8.775   8.654   3.778
17157TIP3    H151356   8.705   8.694   3.724
17157TIP3    H251357   8.734   8.571   3.806
17158TIP3   OH251358   8.547   9.035   4.699
17158TIP3    H151359   8.480   9.013   4.631
17158TIP3    H251360   8.583   8.948   4.724
17159TIP3   OH251361   8.410   9.238   4.326
17159TIP3    H151362   8.506   9.227   4.315
17159TIP3    H251363   8.405   9.307   4.394
17160TIP3   OH251364   8.752   9.212   4.683
17160TIP3    H151365   8.788   9.207   4.774
17160TIP3    H251366   8.683   9.143   4.687
17161TIP3   OH251367   9.156   8.046   4.471
17161TIP3    H151368   9.066   8.017   4.447
17161TIP3    H251369   9.135   8.130   4.516
17162TIP3   OH251370   9.694   8.151   4.657
17162TIP3    H151371   9.762   8.143   4.726
17162TIP3    H251372   9.610   8.146   4.707
17163TIP3   OH251373   9.295   8.084   3.439
17163TIP3    H151374   9.263   8.092   3.531
17163TIP3    H251375   9.248   8.002   3.413
17164TIP3   OH251376   9.084   8.568   4.487
17164TIP3    H151377   9.033   8.581   4.570
17164TIP3    H251378   9.064   8.650   4.439
17165TIP3   OH251379   8.974   8.454   4.005
17165TIP3    H151380   8.881   8.424   4.021
17165TIP3    H251381   8.990   8.413   3.917
17166TIP3   OH251382   8.908   8.591   4.700
17166TIP3    H151383   8.934   8.652   4.771
17166TIP3    H251384   8.897   8.507   4.750
17167TIP3   OH251385   8.957   8.073   3.410
17167TIP3    H151386   8.950   8.065   3.508
17167TIP3    H251387   8.872   8.116   3.389
17168TIP3   OH251388   8.501   8.117   4.278
17168TIP3    H151389   8.578   8.145   4.332
17168TIP3    H251390   8.541   8.080   4.198
17169TIP3   OH251391   8.477   8.096   3.798
17169TIP3    H151392   8.522   8.136   3.720
17169TIP3    H251393   8.415   8.168   3.820
17170TIP3   OH251394   9.284   8.282   4.064
17170TIP3    H151395   9.209   8.274   4.126
17170TIP3    H251396   9.359   8.258   4.124
17171TIP3   OH251397   8.736   8.328   4.072
17171TIP3    H151398   8.641   8.334   4.047
17171TIP3    H251399   8.759   8.235   4.051
17172TIP3   OH251400   9.005   8.321   3.763
17172TIP3    H151401   9.098   8.347   3.746
17172TIP3    H251402   8.960   8.347   3.680
17173TIP3   OH251403   8.840   8.352   3.543
17173TIP3    H151404   8.758   8.305   3.518
17173TIP3    H251405   8.867   8.384   3.457
17174TIP3   OH251406   8.916   9.129   4.908
17174TIP3    H151407   8.979   9.200   4.926
17174TIP3    H251408   8.852   9.143   4.981
17175TIP3   OH251409   8.907   8.087   4.040
17175TIP3    H151410   8.874   8.007   4.087
17175TIP3    H251411   8.959   8.049   3.968
17176TIP3   OH251412   9.356   8.474   4.469
17176TIP3    H151413   9.272   8.523   4.461
17176TIP3    H251414   9.423   8.544   4.477
17177TIP3   OH251415   8.796   8.890   4.238
17177TIP3    H151416   8.819   8.854   4.149
17177TIP3    H251417   8.811   8.814   4.297
17178TIP3   OH251418   8.671   8.826   4.834
17178TIP3    H151419   8.694   8.812   4.928
17178TIP3    H251420   8.600   8.761   4.821
17179TIP3   OH251421   8.454   8.517   3.552
17179TIP3    H151422   8.499   8.602   3.570
17179TIP3    H251423   8.377   8.523   3.613
17180TIP3   OH251424   8.881   8.336   4.844
17180TIP3    H151425   8.785   8.340   4.859
17180TIP3    H251426   8.910   8.276   4.915
17181TIP3   OH251427   8.592   9.408   4.548
17181TIP3    H151428   8.618   9.325   4.590
17181TIP3    H251429   8.651   9.468   4.597
17182TIP3   OH251430   8.578   8.766   3.620
17182TIP3    H151431   8.524   8.815   3.685
17182TIP3    H251432   8.647   8.831   3.597
17183TIP3   OH251433   9.289   8.323   3.796
17183TIP3    H151434   9.370   8.376   3.787
17183TIP3    H251435   9.283   8.318   3.894
17184TIP3   OH251436   9.428   8.067   3.903
17184TIP3    H151437   9.411   8.128   3.977
17184TIP3    H251438   9.492   8.122   3.853
17185TIP3   OH251439   8.943   8.054   3.686
17185TIP3    H151440   8.943   8.144   3.723
17185TIP3    H251441   9.039   8.033   3.695
17186TIP3   OH251442   8.512   8.249   3.570
17186TIP3    H151443   8.502   8.346   3.568
17186TIP3    H251444   8.427   8.220   3.533
17187TIP3   OH251445   8.892   7.968   4.447
17187TIP3    H151446   8.861   7.934   4.360
17187TIP3    H251447   8.883   7.889   4.504
17188TIP3   OH251448   8.385   9.159   3.829
17188TIP3    H151449   8.347   9.219   3.896
17188TIP3    H251450   8.450   9.218   3.786
17189TIP3   OH251451   8.719   9.117   5.096
17189TIP3    H151452   8.728   9.022   5.082
17189TIP3    H251453   8.631   9.136   5.057
17190TIP3   OH251454   8.838   8.853   5.077
17190TIP3    H151455   8.923   8.809   5.063
17190TIP3    H251456   8.846   8.887   5.167
17191TIP3   OH251457   8.890   8.653   3.493
17191TIP3    H151458   8.859   8.624   3.579
17191TIP3    H251459   8.961   8.589   3.472
17192TIP3   OH251460   9.166   8.746   4.737
17192TIP3    H151461   9.095   8.810   4.757
17192TIP3    H251462   9.183   8.762   4.644
17193TIP3   OH251463   9.287   8.534   4.874
17193TIP3    H151464   9.295   8.456   4.816
17193TIP3    H251465   9.255   8.603   4.812
17194TIP3   OH251466   9.295   8.321   4.685
17194TIP3    H151467   9.325   8.365   4.603
17194TIP3    H251468   9.202   8.299   4.662
17195TIP3   OH251469   9.163   8.656   5.089
17195TIP3    H151470   9.099   8.584   5.105
17195TIP3    H251471   9.206   8.627   5.007
17196TIP3   OH251472   9.430   8.089   4.739
17196TIP3    H151473   9.382   8.173   4.721
17196TIP3    H251474   9.359   8.023   4.729
17197TIP3   OH251475   9.548   8.610   4.948
17197TIP3    H151476   9.542   8.603   5.044
17197TIP3    H251477   9.459   8.581   4.922
17198TIP3   OH251478   9.012   8.432   5.147
17198TIP3    H151479   9.021   8.342   5.110
17198TIP3    H251480   9.046   8.417   5.238
17199TIP3   OH251481   9.523   8.093   4.995
17199TIP3    H151482   9.595   8.028   4.991
17199TIP3    H251483   9.488   8.088   4.904
17200TIP3   OH251484   9.556   8.297   5.170
17200TIP3    H151485   9.554   8.236   5.094
17200TIP3    H251486   9.524   8.381   5.133
17201TIP3   OH251487   8.327   8.931   3.495
17201TIP3    H151488   8.419   8.920   3.468
17201TIP3    H251489   8.288   8.851   3.453
17202TIP3   OH251490   8.203   9.529   3.884
17202TIP3    H151491   8.131   9.468   3.855
17202TIP3    H251492   8.247   9.476   3.953
17203TIP3   OH251493   8.339   9.375   4.068
17203TIP3    H151494   8.333   9.314   4.143
17203TIP3    H251495   8.376   9.454   4.111
17204TIP3   OH251496   8.531   8.796   4.447
17204TIP3    H151497   8.527   8.766   4.353
17204TIP3    H251498   8.628   8.796   4.462
17205TIP3   OH251499   8.746   8.485   5.124
17205TIP3    H151500   8.844   8.478   5.123
17205TIP3    H251501   8.722   8.400   5.165
17206TIP3   OH251502   8.709   8.176   4.452
17206TIP3    H151503   8.771   8.101   4.463
17206TIP3    H251504   8.771   8.250   4.448
17207TIP3   OH251505   8.513   8.450   4.527
17207TIP3    H151506   8.561   8.442   4.442
17207TIP3    H251507   8.541   8.537   4.556
17208TIP3   OH251508   8.495   7.957   4.029
17208TIP3    H151509   8.400   7.951   4.053
17208TIP3    H251510   8.492   8.013   3.949
17209TIP3   OH251511   8.715   8.034   4.842
17209TIP3    H151512   8.664   8.028   4.925
17209TIP3    H251513   8.648   8.072   4.782
17210TIP3   OH251514   8.744   9.410   4.930
17210TIP3    H151515   8.654   9.433   4.903
17210TIP3    H251516   8.751   9.448   5.018
17211TIP3   OH251517   9.494   8.159   4.177
17211TIP3    H151518   9.479   8.089   4.244
17211TIP3    H251519   9.587   8.148   4.153
17212TIP3   OH251520   8.806   7.875   4.198
17212TIP3    H151521   8.714   7.841   4.198
17212TIP3    H251522   8.855   7.790   4.195
17213TIP3   OH251523   8.593   7.744   3.846
17213TIP3    H151524   8.621   7.802   3.773
17213TIP3    H251525   8.562   7.808   3.913
17214TIP3   OH251526   9.247   7.908   4.079
17214TIP3    H151527   9.308   7.959   4.025
17214TIP3    H251528   9.268   7.940   4.168
17215TIP3   OH251529   9.869   7.948   4.015
17215TIP3    H151530   9.809   8.016   3.981
17215TIP3    H251531   9.816   7.910   4.089
17216TIP3   OH251532   8.266   9.276   3.587
17216TIP3    H151533   8.178   9.313   3.563
17216TIP3    H251534   8.318   9.359   3.584
17217TIP3   OH251535   8.708   7.907   3.608
17217TIP3    H151536   8.757   7.841   3.554
17217TIP3    H251537   8.781   7.958   3.648
17218TIP3   OH251538   9.219   8.076   3.708
17218TIP3    H151539   9.277   8.031   3.771
17218TIP3    H251540   9.237   8.169   3.734
17219TIP3   OH251541   9.014   8.155   5.088
17219TIP3    H151542   8.982   8.084   5.147
17219TIP3    H251543   9.109   8.157   5.113
17220TIP3   OH251544   9.261   8.155   5.212
17220TIP3    H151545   9.349   8.141   5.171
17220TIP3    H251546   9.256   8.079   5.273
17221TIP3   OH251547   0.979   8.973   6.393
17221TIP3    H151548   0.946   9.058   6.422
17221TIP3    H251549   0.985   8.986   6.298
17222TIP3   OH251550   1.249   8.881   7.082
17222TIP3    H151551   1.299   8.812   7.034
17222TIP3    H251552   1.209   8.932   7.010
17223TIP3   OH251553   1.110   9.022   6.889
17223TIP3    H151554   1.020   9.043   6.914
17223TIP3    H251555   1.097   8.948   6.827
17224TIP3   OH251556   0.743   8.665   5.472
17224TIP3    H151557   0.780   8.588   5.424
17224TIP3    H251558   0.813   8.732   5.460
17225TIP3   OH251559   1.008   8.780   6.762
17225TIP3    H151560   0.915   8.779   6.738
17225TIP3    H251561   1.034   8.688   6.748
17226TIP3   OH251562   0.823   8.669   6.029
17226TIP3    H151563   0.909   8.630   6.002
17226TIP3    H251564   0.847   8.763   6.038
17227TIP3   OH251565   0.907   9.179   5.708
17227TIP3    H151566   0.891   9.267   5.746
17227TIP3    H251567   0.857   9.123   5.769
17228TIP3   OH251568   2.758   9.215   5.884
17228TIP3    H151569   2.788   9.296   5.930
17228TIP3    H251570   2.777   9.239   5.791
17229TIP3   OH251571   2.158   9.397   5.912
17229TIP3    H151572   2.200   9.312   5.934
17229TIP3    H251573   2.121   9.377   5.824
17230TIP3   OH251574   1.495   9.057   5.885
17230TIP3    H151575   1.477   9.130   5.823
17230TIP3    H251576   1.447   8.984   5.841
17231TIP3   OH251577   2.190   9.143   5.509
17231TIP3    H151578   2.264   9.129   5.573
17231TIP3    H251579   2.240   9.182   5.434
17232TIP3   OH251580   1.119   9.242   5.994
17232TIP3    H151581   1.203   9.237   6.042
17232TIP3    H251582   1.143   9.202   5.909
17233TIP3   OH251583   1.583   9.460   5.766
17233TIP3    H151584   1.668   9.423   5.798
17233TIP3    H251585   1.533   9.380   5.741
17234TIP3   OH251586   2.840   9.415   6.059
17234TIP3    H151587   2.761   9.466   6.031
17234TIP3    H251588   2.863   9.460   6.143
17235TIP3   OH251589   1.493   9.039   6.319
17235TIP3    H151590   1.432   9.074   6.251
17235TIP3    H251591   1.442   9.058   6.400
17236TIP3   OH251592   2.403   9.150   5.678
17236TIP3    H151593   2.393   9.104   5.762
17236TIP3    H251594   2.453   9.230   5.704
17237TIP3   OH251595   1.364   9.153   6.104
17237TIP3    H151596   1.425   9.228   6.120
17237TIP3    H251597   1.411   9.110   6.029
17238TIP3   OH251598   2.552   9.114   6.049
17238TIP3    H151599   2.465   9.147   6.021
17238TIP3    H251600   2.612   9.148   5.979
17239TIP3   OH251601   1.851   8.761   6.032
17239TIP3    H151602   1.838   8.666   6.050
17239TIP3    H251603   1.774   8.799   6.079
17240TIP3   OH251604   1.743   9.276   5.035
17240TIP3    H151605   1.795   9.346   5.075
17240TIP3    H251606   1.803   9.242   4.966
17241TIP3   OH251607   2.390   9.642   6.163
17241TIP3    H151608   2.403   9.729   6.121
17241TIP3    H251609   2.299   9.620   6.131
17242TIP3   OH251610   2.483   8.704   5.134
17242TIP3    H151611   2.402   8.722   5.186
17242TIP3    H251612   2.494   8.788   5.085
17243TIP3   OH251613   2.611   9.604   6.348
17243TIP3    H151614   2.532   9.602   6.292
17243TIP3    H251615   2.636   9.509   6.349
17244TIP3   OH251616   1.612   8.836   6.161
17244TIP3    H151617   1.523   8.804   6.137
17244TIP3    H251618   1.588   8.920   6.205
17245TIP3   OH251619   2.144   8.952   6.355
17245TIP3    H151620   2.211   8.925   6.420
17245TIP3    H251621   2.059   8.931   6.400
17246TIP3   OH251622   2.385   9.368   6.276
17246TIP3    H151623   2.339   9.364   6.362
17246TIP3    H251624   2.358   9.454   6.241
17247TIP3   OH251625   1.759   8.884   5.131
17247TIP3    H151626   1.726   8.884   5.223
17247TIP3    H251627   1.720   8.800   5.100
17248TIP3   OH251628   1.537   9.360   6.170
17248TIP3    H151629   1.473   9.369   6.243
17248TIP3    H251630   1.527   9.444   6.121
17249TIP3   OH251631   1.427   9.235   5.694
17249TIP3    H151632   1.334   9.210   5.708
17249TIP3    H251633   1.442   9.199   5.604
17250TIP3   OH251634   1.927   9.325   5.422
17250TIP3    H151635   1.846   9.375   5.399
17250TIP3    H251636   1.968   9.308   5.335
17251TIP3   OH251637   2.094   9.585   6.499
17251TIP3    H151638   2.087   9.509   6.560
17251TIP3    H251639   2.181   9.620   6.524
17252TIP3   OH251640   2.065   9.340   5.662
17252TIP3    H151641   2.006   9.358   5.585
17252TIP3    H251642   2.108   9.261   5.625
17253TIP3   OH251643   1.361   9.373   6.388
17253TIP3    H151644   1.298   9.425   6.438
17253TIP3    H251645   1.340   9.283   6.420
17254TIP3   OH251646   1.413   8.857   5.101
17254TIP3    H151647   1.409   8.855   5.199
17254TIP3    H251648   1.332   8.904   5.080
17255TIP3   OH251649   0.958   8.910   5.946
17255TIP3    H151650   1.020   8.940   6.015
17255TIP3    H251651   1.015   8.855   5.892
17256TIP3   OH251652   0.928   8.897   5.496
17256TIP3    H151653   0.968   8.920   5.410
17256TIP3    H251654   0.897   8.985   5.522
17257TIP3   OH251655   2.136   9.584   6.103
17257TIP3    H151656   2.136   9.516   6.032
17257TIP3    H251657   2.062   9.550   6.158
17258TIP3   OH251658   1.752   9.052   5.754
17258TIP3    H151659   1.669   9.056   5.806
17258TIP3    H251660   1.818   9.070   5.823
17259TIP3   OH251661   1.185   9.117   5.754
17259TIP3    H151662   1.092   9.111   5.727
17259TIP3    H251663   1.219   9.026   5.741
17260TIP3   OH251664   1.461   9.111   5.450
17260TIP3    H151665   1.554   9.133   5.429
17260TIP3    H251666   1.412   9.138   5.371
17261TIP3   OH251667   2.243   9.135   5.956
17261TIP3    H151668   2.209   9.146   6.048
17261TIP3    H251669   2.177   9.072   5.920
17262TIP3   OH251670   1.288   9.126   5.229
17262TIP3    H151671   1.224   9.098   5.162
17262TIP3    H251672   1.339   9.195   5.182
17263TIP3   OH251673   1.830   9.363   5.846
17263TIP3    H151674   1.915   9.347   5.802
17263TIP3    H251675   1.851   9.354   5.940
17264TIP3   OH251676   1.356   8.878   5.731
17264TIP3    H151677   1.326   8.796   5.776
17264TIP3    H251678   1.410   8.843   5.658
17265TIP3   OH251679   1.810   9.275   6.151
17265TIP3    H151680   1.723   9.319   6.150
17265TIP3    H251681   1.868   9.341   6.194
17266TIP3   OH251682   2.006   8.998   5.097
17266TIP3    H151683   1.911   8.977   5.109
17266TIP3    H251684   2.011   9.093   5.120
17267TIP3   OH251685   2.077   9.255   5.185
17267TIP3    H151686   2.168   9.241   5.218
17267TIP3    H251687   2.086   9.341   5.142
17268TIP3   OH251688   1.831   9.602   6.640
17268TIP3    H151689   1.780   9.652   6.570
17268TIP3    H251690   1.902   9.563   6.587
17269TIP3   OH251691   2.518   9.314   5.044
17269TIP3    H151692   2.454   9.276   4.980
17269TIP3    H251693   2.523   9.404   5.010
17270TIP3   OH251694   1.344   9.125   6.538
17270TIP3    H151695   1.250   9.119   6.560
17270TIP3    H251696   1.375   9.054   6.599
17271TIP3   OH251697   2.168   9.190   6.216
17271TIP3    H151698   2.250   9.224   6.254
17271TIP3    H251699   2.153   9.108   6.268
17272TIP3   OH251700   2.052   8.938   5.377
17272TIP3    H151701   2.037   8.965   5.285
17272TIP3    H251702   2.092   9.019   5.417
17273TIP3   OH251703   1.747   9.116   5.483
17273TIP3    H151704   1.814   9.186   5.469
17273TIP3    H251705   1.746   9.109   5.581
17274TIP3   OH251706   1.998   9.431   6.287
17274TIP3    H151707   2.028   9.485   6.363
17274TIP3    H251708   2.055   9.353   6.292
17275TIP3   OH251709   1.886   8.846   5.587
17275TIP3    H151710   1.874   8.923   5.646
17275TIP3    H251711   1.946   8.884   5.519
17276TIP3   OH251712   1.397   8.842   5.377
17276TIP3    H151713   1.394   8.934   5.407
17276TIP3    H251714   1.493   8.825   5.386
17277TIP3   OH251715   2.654   9.337   6.276
17277TIP3    H151716   2.556   9.329   6.280
17277TIP3    H251717   2.671   9.308   6.186
17278TIP3   OH251718   2.293   9.515   5.640
17278TIP3    H151719   2.223   9.458   5.675
17278TIP3    H251720   2.368   9.492   5.697
17279TIP3   OH251721   0.950   9.036   5.266
17279TIP3    H151722   0.968   9.129   5.245
17279TIP3    H251723   0.880   9.010   5.204
17280TIP3   OH251724   1.352   8.750   6.138
17280TIP3    H151725   1.315   8.723   6.052
17280TIP3    H251726   1.334   8.671   6.194
17281TIP3   OH251727   1.319   9.645   6.763
17281TIP3    H151728   1.339   9.550   6.768
17281TIP3    H251729   1.296   9.665   6.854
17282TIP3   OH251730   1.605   9.499   6.426
17282TIP3    H151731   1.530   9.454   6.465
17282TIP3    H251732   1.571   9.518   6.339
17283TIP3   OH251733   1.468   9.276   5.087
17283TIP3    H151734   1.439   9.220   5.012
17283TIP3    H251735   1.566   9.271   5.078
17284TIP3   OH251736   1.759   9.310   6.567
17284TIP3    H151737   1.758   9.228   6.514
17284TIP3    H251738   1.719   9.374   6.505
17285TIP3   OH251739   1.752   9.109   6.367
17285TIP3    H151740   1.779   9.156   6.285
17285TIP3    H251741   1.658   9.089   6.348
17286TIP3   OH251742   2.371   9.626   6.615
17286TIP3    H151743   2.394   9.534   6.637
17286TIP3    H251744   2.458   9.660   6.590
17287TIP3   OH251745   1.603   9.451   6.780
17287TIP3    H151746   1.553   9.367   6.791
17287TIP3    H251747   1.663   9.431   6.706
17288TIP3   OH251748   1.885   8.877   6.431
17288TIP3    H151749   1.837   8.960   6.409
17288TIP3    H251750   1.815   8.810   6.420
17289TIP3   OH251751   2.016   9.376   6.651
17289TIP3    H151752   2.006   9.371   6.748
17289TIP3    H251753   1.925   9.348   6.625
17290TIP3   OH251754   2.254   9.328   6.508
17290TIP3    H151755   2.176   9.323   6.567
17290TIP3    H251756   2.326   9.296   6.566
17291TIP3   OH251757   2.483   9.273   6.657
17291TIP3    H151758   2.493   9.177   6.677
17291TIP3    H251759   2.476   9.312   6.747
17292TIP3   OH251760   1.471   9.219   6.842
17292TIP3    H151761   1.470   9.129   6.803
17292TIP3    H251762   1.504   9.199   6.933
17293TIP3   OH251763   1.979   8.888   6.688
17293TIP3    H151764   2.047   8.817   6.683
17293TIP3    H251765   1.939   8.882   6.600
17294TIP3   OH251766   2.046   9.103   6.847
17294TIP3    H151767   2.021   9.032   6.784
17294TIP3    H251768   1.969   9.163   6.841
17295TIP3   OH251769   2.346   9.242   4.842
17295TIP3    H151770   2.323   9.262   4.751
17295TIP3    H251771   2.325   9.146   4.844
17296TIP3   OH251772   2.385   9.491   5.388
17296TIP3    H151773   2.386   9.395   5.401
17296TIP3    H251774   2.362   9.521   5.479
17297TIP3   OH251775   2.814   9.768   6.272
17297TIP3    H151776   2.748   9.702   6.303
17297TIP3    H251777   2.897   9.717   6.279
17298TIP3   OH251778   2.293   8.976   4.835
17298TIP3    H151779   2.370   8.942   4.885
17298TIP3    H251780   2.222   8.915   4.858
17299TIP3   OH251781   2.342   9.217   5.283
17299TIP3    H151782   2.387   9.130   5.298
17299TIP3    H251783   2.404   9.257   5.220
17300TIP3   OH251784   2.513   9.398   5.771
17300TIP3    H151785   2.598   9.428   5.730
17300TIP3    H251786   2.528   9.435   5.860
17301TIP3   OH251787   2.589   9.529   6.002
17301TIP3    H151788   2.515   9.560   6.056
17301TIP3    H251789   2.638   9.613   5.985
17302TIP3   OH251790   1.205   9.279   6.802
17302TIP3    H151791   1.301   9.267   6.814
17302TIP3    H251792   1.171   9.196   6.840
17303TIP3   OH251793   3.034   9.133   6.571
17303TIP3    H151794   3.093   9.069   6.525
17303TIP3    H251795   3.006   9.191   6.496
17304TIP3   OH251796   2.463   8.974   5.322
17304TIP3    H151797   2.510   8.960   5.407
17304TIP3    H251798   2.402   8.898   5.322
17305TIP3   OH251799   1.159   8.955   6.126
17305TIP3    H151800   1.223   8.887   6.154
17305TIP3    H251801   1.213   9.036   6.133
17306TIP3   OH251802   0.990   9.241   6.239
17306TIP3    H151803   1.023   9.231   6.148
17306TIP3    H251804   0.964   9.333   6.240
17307TIP3   OH251805   2.906   9.276   6.380
17307TIP3    H151806   2.818   9.316   6.393
17307TIP3    H251807   2.882   9.206   6.316
17308TIP3   OH251808   2.542   8.915   4.952
17308TIP3    H151809   2.582   8.840   4.903
17308TIP3    H251810   2.612   8.983   4.948
17309TIP3   OH251811   0.953   8.730   5.705
17309TIP3    H151812   0.873   8.756   5.753
17309TIP3    H251813   0.953   8.794   5.630
17310TIP3   OH251814   1.176   8.900   6.578
17310TIP3    H151815   1.118   8.850   6.637
17310TIP3    H251816   1.120   8.903   6.498
17311TIP3   OH251817   2.804   9.040   6.252
17311TIP3    H151818   2.713   9.037   6.218
17311TIP3    H251819   2.833   8.947   6.238
17312TIP3   OH251820   2.015   8.956   5.874
17312TIP3    H151821   1.966   8.888   5.924
17312TIP3    H251822   2.082   8.903   5.827
17313TIP3   OH251823   2.534   8.832   5.776
17313TIP3    H151824   2.570   8.887   5.702
17313TIP3    H251825   2.439   8.852   5.771
17314TIP3   OH251826   2.629   8.935   5.540
17314TIP3    H151827   2.702   8.885   5.499
17314TIP3    H251828   2.661   9.027   5.526
17315TIP3   OH251829   1.257   8.663   5.888
17315TIP3    H151830   1.167   8.626   5.887
17315TIP3    H251831   1.310   8.580   5.885
17316TIP3   OH251832   1.045   8.527   5.536
17316TIP3    H151833   1.075   8.584   5.462
17316TIP3    H251834   1.016   8.594   5.601
17317TIP3   OH251835   1.700   8.696   5.768
17317TIP3    H151836   1.759   8.747   5.710
17317TIP3    H251837   1.720   8.734   5.855
17318TIP3   OH251838   2.253   8.841   5.752
17318TIP3    H151839   2.245   8.805   5.663
17318TIP3    H251840   2.237   8.761   5.807
17319TIP3   OH251841   2.278   8.764   5.314
17319TIP3    H151842   2.191   8.806   5.326
17319TIP3    H251843   2.263   8.679   5.361
17320TIP3   OH251844   1.161   8.693   5.302
17320TIP3    H151845   1.210   8.630   5.245
17320TIP3    H251846   1.234   8.747   5.337
17321TIP3   OH251847   1.675   8.867   5.397
17321TIP3    H151848   1.734   8.822   5.459
17321TIP3    H251849   1.694   8.960   5.422
17322TIP3   OH251850   1.468   8.944   6.776
17322TIP3    H151851   1.431   8.877   6.836
17322TIP3    H251852   1.562   8.945   6.806
17323TIP3   OH251853   1.714   8.940   6.898
17323TIP3    H151854   1.800   8.916   6.861
17323TIP3    H251855   1.701   8.870   6.965
17324TIP3   OH251856   2.539   9.001   6.685
17324TIP3    H151857   2.559   8.972   6.777
17324TIP3    H251858   2.627   8.998   6.643
17325TIP3   OH251859   2.722   9.449   5.201
17325TIP3    H151860   2.681   9.523   5.246
17325TIP3    H251861   2.647   9.389   5.185
17326TIP3   OH251862   3.958   9.652   5.396
17326TIP3    H151863   3.996   9.565   5.420
17326TIP3    H251864   3.919   9.631   5.309
17327TIP3   OH251865   3.295   9.312   5.370
17327TIP3    H151866   3.273   9.387   5.310
17327TIP3    H251867   3.244   9.241   5.326
17328TIP3   OH251868   3.986   9.390   4.997
17328TIP3    H151869   4.061   9.382   5.060
17328TIP3    H251870   4.027   9.440   4.925
17329TIP3   OH251871   2.915   9.496   5.488
17329TIP3    H151872   3.004   9.493   5.528
17329TIP3    H251873   2.934   9.463   5.399
17330TIP3   OH251874   3.389   9.717   5.236
17330TIP3    H151875   3.467   9.678   5.281
17330TIP3    H251876   3.331   9.640   5.223
17331TIP3   OH251877   4.646   9.670   5.543
17331TIP3    H151878   4.567   9.706   5.498
17331TIP3    H251879   4.628   9.695   5.634
17332TIP3   OH251880   3.290   9.295   5.806
17332TIP3    H151881   3.230   9.331   5.737
17332TIP3    H251882   3.237   9.313   5.886
17333TIP3   OH251883   4.200   9.405   5.165
17333TIP3    H151884   4.175   9.366   5.250
17333TIP3    H251885   4.245   9.487   5.192
17334TIP3   OH251886   3.162   9.407   5.590
17334TIP3    H151887   3.218   9.486   5.608
17334TIP3    H251888   3.212   9.368   5.515
17335TIP3   OH251889   4.343   9.378   5.533
17335TIP3    H151890   4.249   9.399   5.528
17335TIP3    H251891   4.376   9.415   5.450
17336TIP3   OH251892   3.649   9.018   5.522
17336TIP3    H151893   3.634   8.924   5.539
17336TIP3    H251894   3.570   9.058   5.566
17337TIP3   OH251895   3.540   9.533   4.526
17337TIP3    H151896   3.588   9.608   4.561
17337TIP3    H251897   3.600   9.500   4.457
17338TIP3   OH251898   4.188   9.899   5.647
17338TIP3    H151899   4.196   9.987   5.606
17338TIP3    H251900   4.097   9.874   5.617
17339TIP3   OH251901   4.264   8.965   4.613
17339TIP3    H151902   4.228   9.006   4.692
17339TIP3    H251903   4.293   9.043   4.561
17340TIP3   OH251904   4.408   9.866   5.833
17340TIP3    H151905   4.327   9.862   5.779
17340TIP3    H251906   4.433   9.771   5.835
17341TIP3   OH251907   3.408   9.092   5.646
17341TIP3    H151908   3.318   9.063   5.623
17341TIP3    H251909   3.386   9.176   5.691
17342TIP3   OH251910   3.939   9.207   5.841
17342TIP3    H151911   4.006   9.183   5.908
17342TIP3    H251912   3.854   9.188   5.887
17343TIP3   OH251913   4.186   9.628   5.766
17343TIP3    H151914   4.137   9.619   5.851
17343TIP3    H251915   4.150   9.711   5.730
17344TIP3   OH251916   3.590   9.100   4.615
17344TIP3    H151917   3.550   9.136   4.696
17344TIP3    H251918   3.520   9.039   4.586
17345TIP3   OH251919   3.335   9.614   5.651
17345TIP3    H151920   3.277   9.621   5.731
17345TIP3    H251921   3.326   9.702   5.612
17346TIP3   OH251922   3.225   9.492   5.180
17346TIP3    H151923   3.131   9.468   5.196
17346TIP3    H251924   3.237   9.456   5.090
17347TIP3   OH251925   3.725   9.581   4.910
17347TIP3    H151926   3.644   9.633   4.890
17347TIP3    H251927   3.761   9.561   4.822
17348TIP3   OH251928   3.901   9.832   5.976
17348TIP3    H151929   3.886   9.763   6.044
17348TIP3    H251930   3.972   9.884   6.017
17349TIP3   OH251931   3.861   9.595   5.149
17349TIP3    H151932   3.802   9.616   5.074
17349TIP3    H251933   3.900   9.513   5.112
17350TIP3   OH251934   3.150   9.624   5.859
17350TIP3    H151935   3.103   9.686   5.914
17350TIP3    H251936   3.126   9.539   5.899
17351TIP3   OH251937   3.216   9.115   4.588
17351TIP3    H151938   3.204   9.114   4.686
17351TIP3    H251939   3.136   9.160   4.561
17352TIP3   OH251940   2.749   9.161   5.452
17352TIP3    H151941   2.822   9.193   5.509
17352TIP3    H251942   2.795   9.125   5.376
17353TIP3   OH251943   2.727   9.137   4.975
17353TIP3    H151944   2.771   9.178   4.897
17353TIP3    H251945   2.667   9.209   5.000
17354TIP3   OH251946   3.935   9.840   5.587
17354TIP3    H151947   3.934   9.770   5.519
17354TIP3    H251948   3.860   9.812   5.642
17355TIP3   OH251949   3.548   9.301   5.244
17355TIP3    H151950   3.462   9.307   5.290
17355TIP3    H251951   3.609   9.332   5.313
17356TIP3   OH251952   2.984   9.377   5.244
17356TIP3    H151953   2.888   9.383   5.221
17356TIP3    H251954   3.005   9.283   5.227
17357TIP3   OH251955   3.261   9.367   4.935
17357TIP3    H151956   3.348   9.399   4.908
17357TIP3    H251957   3.204   9.392   4.859
17358TIP3   OH251958   4.041   9.388   5.439
17358TIP3    H151959   4.010   9.401   5.532
17358TIP3    H251960   3.971   9.328   5.407
17359TIP3   OH251961   3.087   9.379   4.720
17359TIP3    H151962   3.020   9.352   4.654
17359TIP3    H251963   3.136   9.448   4.671
17360TIP3   OH251964   3.626   9.614   5.335
17360TIP3    H151965   3.713   9.601   5.295
17360TIP3    H251966   3.645   9.610   5.430
17361TIP3   OH251967   3.156   9.131   5.218
17361TIP3    H151968   3.122   9.051   5.262
17361TIP3    H251969   3.194   9.096   5.137
17362TIP3   OH251970   3.607   9.533   5.636
17362TIP3    H151971   3.518   9.575   5.637
17362TIP3    H251972   3.663   9.599   5.681
17363TIP3   OH251973   3.873   9.494   4.682
17363TIP3    H151974   3.967   9.489   4.707
17363TIP3    H251975   3.871   9.571   4.623
17364TIP3   OH251976   3.631   9.846   6.129
17364TIP3    H151977   3.575   9.888   6.061
17364TIP3    H251978   3.719   9.857   6.090
17365TIP3   OH251979   4.316   9.577   4.529
17365TIP3    H151980   4.253   9.537   4.465
17365TIP3    H251981   4.313   9.669   4.500
17366TIP3   OH251982   3.128   9.372   6.018
17366TIP3    H151983   3.033   9.382   6.040
17366TIP3    H251984   3.160   9.321   6.094
17367TIP3   OH251985   3.973   9.439   5.698
17367TIP3    H151986   4.043   9.480   5.750
17367TIP3    H251987   3.950   9.361   5.752
17368TIP3   OH251988   3.855   9.208   4.835
17368TIP3    H151989   3.808   9.264   4.772
17368TIP3    H251990   3.895   9.274   4.894
17369TIP3   OH251991   3.553   9.368   4.969
17369TIP3    H151992   3.613   9.444   4.956
17369TIP3    H251993   3.545   9.365   5.067
17370TIP3   OH251994   3.794   9.688   5.770
17370TIP3    H151995   3.820   9.745   5.845
17370TIP3    H251996   3.849   9.610   5.785
17371TIP3   OH251997   3.686   9.108   5.077
17371TIP3    H151998   3.668   9.183   5.138
17371TIP3    H251999   3.741   9.151   5.009
17372TIP3   OH252000   3.195   9.097   4.865
17372TIP3    H152001   3.187   9.191   4.892
17372TIP3    H252002   3.292   9.085   4.874
17373TIP3   OH252003   4.453   9.599   5.754
17373TIP3    H152004   4.356   9.594   5.768
17373TIP3    H252005   4.459   9.555   5.668
17374TIP3   OH252006   4.095   9.764   5.123
17374TIP3    H152007   4.019   9.720   5.164
17374TIP3    H252008   4.165   9.750   5.189
17375TIP3   OH252009   2.750   9.294   4.752
17375TIP3    H152010   2.763   9.389   4.740
17375TIP3    H252011   2.666   9.276   4.708
17376TIP3   OH252012   3.146   9.011   5.622
17376TIP3    H152013   3.110   8.979   5.537
17376TIP3    H252014   3.132   8.933   5.680
17377TIP3   OH252015   3.125   9.896   6.229
17377TIP3    H152016   3.160   9.817   6.274
17377TIP3    H252017   3.113   9.955   6.307
17378TIP3   OH252018   3.404   9.754   5.922
17378TIP3    H152019   3.352   9.741   6.003
17378TIP3    H252020   3.335   9.776   5.857
17379TIP3   OH252021   3.265   9.530   4.577
17379TIP3    H152022   3.234   9.478   4.500
17379TIP3    H252023   3.363   9.529   4.564
17380TIP3   OH252024   3.563   9.559   6.053
17380TIP3    H152025   3.558   9.479   5.997
17380TIP3    H252026   3.519   9.624   5.996
17381TIP3   OH252027   3.550   9.363   5.850
17381TIP3    H152028   3.574   9.413   5.769
17381TIP3    H252029   3.454   9.345   5.834
17382TIP3   OH252030   4.172   9.886   6.106
17382TIP3    H152031   4.189   9.794   6.131
17382TIP3    H252032   4.260   9.915   6.079
17383TIP3   OH252033   3.366   9.707   6.207
17383TIP3    H152034   3.330   9.635   6.263
17383TIP3    H252035   3.454   9.676   6.183
17384TIP3   OH252036   3.681   9.132   5.917
17384TIP3    H152037   3.634   9.216   5.895
17384TIP3    H252038   3.609   9.066   5.907
17385TIP3   OH252039   3.820   9.628   6.137
17385TIP3    H152040   3.809   9.629   6.234
17385TIP3    H252041   3.727   9.611   6.110
17386TIP3   OH252042   4.050   9.570   5.990
17386TIP3    H152043   3.971   9.579   6.048
17386TIP3    H252044   4.120   9.546   6.054
17387TIP3   OH252045   4.285   9.531   6.145
17387TIP3    H152046   4.290   9.435   6.165
17387TIP3    H252047   4.273   9.572   6.233
17388TIP3   OH252048   3.262   9.476   6.329
17388TIP3    H152049   3.269   9.387   6.291
17388TIP3    H252050   3.293   9.458   6.421
17389TIP3   OH252051   3.775   9.143   6.176
17389TIP3    H152052   3.843   9.074   6.169
17389TIP3    H252053   3.734   9.138   6.087
17390TIP3   OH252054   3.840   9.360   6.335
17390TIP3    H152055   3.814   9.291   6.270
17390TIP3    H252056   3.762   9.419   6.333
17391TIP3   OH252057   4.156   9.496   4.325
17391TIP3    H152058   4.111   9.528   4.246
17391TIP3    H252059   4.122   9.404   4.330
17392TIP3   OH252060   4.188   9.746   4.873
17392TIP3    H152061   4.176   9.651   4.886
17392TIP3    H252062   4.164   9.778   4.963
17393TIP3   OH252063   4.622  10.018   5.759
17393TIP3    H152064   4.545   9.964   5.788
17393TIP3    H252065   4.693   9.952   5.762
17394TIP3   OH252066   4.090   9.231   4.337
17394TIP3    H152067   4.179   9.207   4.372
17394TIP3    H252068   4.052   9.145   4.319
17395TIP3   OH252069   4.142   9.474   4.773
17395TIP3    H152070   4.189   9.388   4.784
17395TIP3    H252071   4.200   9.519   4.709
17396TIP3   OH252072   4.318   9.641   5.264
17396TIP3    H152073   4.400   9.675   5.222
17396TIP3    H252074   4.328   9.688   5.350
17397TIP3   OH252075   4.387   9.784   5.487
17397TIP3    H152076   4.314   9.815   5.543
17397TIP3    H252077   4.438   9.867   5.473
17398TIP3   OH252078   2.984   9.528   6.285
17398TIP3    H152079   3.080   9.541   6.297
17398TIP3    H252080   2.970   9.446   6.336
17399TIP3   OH252081   4.832   9.393   6.055
17399TIP3    H152082   4.888   9.326   6.011
17399TIP3    H252083   4.803   9.449   5.980
17400TIP3   OH252084   4.262   9.222   4.809
17400TIP3    H152085   4.318   9.222   4.890
17400TIP3    H252086   4.186   9.172   4.843
17401TIP3   OH252087   2.956   9.215   5.628
17401TIP3    H152088   3.025   9.147   5.641
17401TIP3    H252089   3.010   9.295   5.621
17402TIP3   OH252090   2.760   9.501   5.711
17402TIP3    H152091   2.808   9.491   5.626
17402TIP3    H252092   2.778   9.594   5.730
17403TIP3   OH252093   4.706   9.535   5.861
17403TIP3    H152094   4.619   9.573   5.886
17403TIP3    H252095   4.675   9.461   5.804
17404TIP3   OH252096   4.341   9.169   4.440
17404TIP3    H152097   4.379   9.095   4.386
17404TIP3    H252098   4.409   9.238   4.430
17405TIP3   OH252099   2.744   8.994   5.203
17405TIP3    H152100   2.651   8.995   5.232
17405TIP3    H252101   2.741   9.053   5.125
17406TIP3   OH252102   2.962   9.071   6.015
17406TIP3    H152103   2.914   9.073   6.100
17406TIP3    H252104   2.897   9.116   5.957
17407TIP3   OH252105   4.601   9.298   5.749
17407TIP3    H152106   4.513   9.297   5.707
17407TIP3    H252107   4.635   9.211   5.721
17408TIP3   OH252108   3.817   9.214   5.366
17408TIP3    H152109   3.762   9.150   5.414
17408TIP3    H252110   3.878   9.157   5.317
17409TIP3   OH252111   4.331   9.089   5.261
17409TIP3    H152112   4.363   9.143   5.187
17409TIP3    H252113   4.235   9.109   5.260
17410TIP3   OH252114   4.425   9.194   5.024
17410TIP3    H152115   4.496   9.137   4.989
17410TIP3    H252116   4.469   9.282   5.019
17411TIP3   OH252117   3.054   8.918   5.373
17411TIP3    H152118   2.962   8.885   5.375
17411TIP3    H252119   3.103   8.833   5.371
17412TIP3   OH252120   2.842   8.789   5.022
17412TIP3    H152121   2.870   8.848   4.950
17412TIP3    H252122   2.811   8.853   5.089
17413TIP3   OH252123   3.510   8.946   5.250
17413TIP3    H152124   3.562   9.012   5.201
17413TIP3    H252125   3.507   8.986   5.337
17414TIP3   OH252126   4.054   9.098   5.240
17414TIP3    H152127   4.040   9.062   5.152
17414TIP3    H252128   4.036   9.019   5.296
17415TIP3   OH252129   2.956   8.949   4.786
17415TIP3    H152130   3.005   8.887   4.729
17415TIP3    H252131   3.028   9.004   4.823
17416TIP3   OH252132   3.473   9.120   4.887
17416TIP3    H152133   3.533   9.083   4.953
17416TIP3    H252134   3.487   9.215   4.906
17417TIP3   OH252135   3.262   9.196   6.262
17417TIP3    H152136   3.230   9.130   6.325
17417TIP3    H252137   3.356   9.201   6.290
17418TIP3   OH252138   3.512   9.193   6.376
17418TIP3    H152139   3.600   9.168   6.343
17418TIP3    H252140   3.498   9.127   6.448
17419TIP3   OH252141   4.334   9.257   6.173
17419TIP3    H152142   4.353   9.228   6.265
17419TIP3    H252143   4.422   9.254   6.131
17420TIP3   OH252144   4.517   9.697   4.692
17420TIP3    H152145   4.482   9.780   4.728
17420TIP3    H252146   4.436   9.650   4.667
17421TIP3   OH252147   6.345   9.729   4.853
17421TIP3    H152148   6.380   9.809   4.896
17421TIP3    H252149   6.378   9.742   4.762
17422TIP3   OH252150   5.746   9.911   4.888
17422TIP3    H152151   5.791   9.826   4.908
17422TIP3    H252152   5.714   9.892   4.798
17423TIP3   OH252153   5.081   9.568   4.862
17423TIP3    H152154   5.070   9.643   4.800
17423TIP3    H252155   5.037   9.497   4.811
17424TIP3   OH252156   5.782   9.658   4.482
17424TIP3    H152157   5.856   9.645   4.546
17424TIP3    H252158   5.831   9.695   4.407
17425TIP3   OH252159   4.707   9.728   4.976
17425TIP3    H152160   4.795   9.743   5.017
17425TIP3    H252161   4.731   9.722   4.882
17426TIP3   OH252162   5.171   9.969   4.755
17426TIP3    H152163   5.259   9.934   4.777
17426TIP3    H252164   5.125   9.892   4.717
17427TIP3   OH252165   6.431   9.927   5.030
17427TIP3    H152166   6.352   9.976   5.001
17427TIP3    H252167   6.441   9.960   5.121
17428TIP3   OH252168   5.057   9.537   5.294
17428TIP3    H152169   5.047   9.615   5.234
17428TIP3    H252170   5.035   9.577   5.382
17429TIP3   OH252171   5.992   9.665   4.652
17429TIP3    H152172   5.998   9.611   4.731
17429TIP3    H252173   6.048   9.742   4.675
17430TIP3   OH252174   4.956   9.657   5.084
17430TIP3    H152175   5.000   9.745   5.095
17430TIP3    H252176   5.000   9.627   5.000
17431TIP3   OH252177   6.145   9.630   5.024
17431TIP3    H152178   6.058   9.660   4.992
17431TIP3    H252179   6.205   9.661   4.953
17432TIP3   OH252180   5.442   9.271   5.002
17432TIP3    H152181   5.436   9.175   5.021
17432TIP3    H252182   5.364   9.304   5.050
17433TIP3   OH252183   5.348   9.783   3.996
17433TIP3    H152184   5.388   9.854   4.052
17433TIP3    H252185   5.425   9.755   3.945
17434TIP3   OH252186   5.984  10.153   5.135
17434TIP3    H152187   5.995  10.240   5.093
17434TIP3    H252188   5.894  10.129   5.103
17435TIP3   OH252189   6.076   9.218   4.107
17435TIP3    H152190   5.995   9.237   4.158
17435TIP3    H252191   6.087   9.301   4.057
17436TIP3   OH252192   6.203  10.121   5.319
17436TIP3    H152193   6.124  10.115   5.262
17436TIP3    H252194   6.230  10.027   5.322
17437TIP3   OH252195   5.200   9.339   5.131
17437TIP3    H152196   5.111   9.314   5.101
17437TIP3    H252197   5.186   9.430   5.161
17438TIP3   OH252198   5.738   9.466   5.329
17438TIP3    H152199   5.808   9.437   5.391
17438TIP3    H252200   5.655   9.442   5.376
17439TIP3   OH252201   5.976   9.880   5.249
17439TIP3    H152202   5.930   9.876   5.336
17439TIP3    H252203   5.950   9.966   5.214
17440TIP3   OH252204   5.340   9.409   4.109
17440TIP3    H152205   5.314   9.392   4.202
17440TIP3    H252206   5.307   9.326   4.068
17441TIP3   OH252207   5.129   9.867   5.135
17441TIP3    H152208   5.085   9.890   5.220
17441TIP3    H252209   5.132   9.953   5.091
17442TIP3   OH252210   5.022   9.746   4.668
17442TIP3    H152211   4.928   9.722   4.681
17442TIP3    H252212   5.037   9.713   4.577
17443TIP3   OH252213   5.518   9.836   4.394
17443TIP3    H152214   5.439   9.887   4.367
17443TIP3    H252215   5.566   9.824   4.309
17444TIP3   OH252216   5.689  10.098   5.468
17444TIP3    H152217   5.679  10.024   5.531
17444TIP3    H252218   5.774  10.136   5.497
17445TIP3   OH252219   5.656   9.855   4.634
17445TIP3    H152220   5.598   9.871   4.556
17445TIP3    H252221   5.701   9.775   4.598
17446TIP3   OH252222   4.923   9.859   5.333
17446TIP3    H152223   4.922   9.947   5.374
17446TIP3    H252224   4.885   9.804   5.402
17447TIP3   OH252225   4.999   9.373   4.075
17447TIP3    H152226   4.999   9.366   4.173
17447TIP3    H252227   4.909   9.342   4.052
17448TIP3   OH252228   4.573   9.408   4.948
17448TIP3    H152229   4.615   9.495   4.947
17448TIP3    H252230   4.582   9.376   4.857
17449TIP3   OH252231   4.514   9.396   4.452
17449TIP3    H152232   4.595   9.438   4.419
17449TIP3    H252233   4.458   9.471   4.480
17450TIP3   OH252234   5.729  10.097   5.081
17450TIP3    H152235   5.729  10.030   5.008
17450TIP3    H252236   5.653  10.065   5.132
17451TIP3   OH252237   5.346   9.562   4.720
17451TIP3    H152238   5.265   9.570   4.774
17451TIP3    H252239   5.415   9.582   4.786
17452TIP3   OH252240   4.781   9.630   4.727
17452TIP3    H152241   4.685   9.635   4.705
17452TIP3    H252242   4.806   9.538   4.706
17453TIP3   OH252243   5.059   9.624   4.424
17453TIP3    H152244   5.156   9.630   4.411
17453TIP3    H252245   5.029   9.663   4.340
17454TIP3   OH252246   5.836   9.651   4.935
17454TIP3    H152247   5.797   9.659   5.024
17454TIP3    H252248   5.776   9.587   4.893
17455TIP3   OH252249   4.835   9.638   4.176
17455TIP3    H152250   4.879   9.562   4.139
17455TIP3    H252251   4.903   9.706   4.163
17456TIP3   OH252252   5.423   9.872   4.816
17456TIP3    H152253   5.506   9.862   4.767
17456TIP3    H252254   5.452   9.872   4.908
17457TIP3   OH252255   4.950   9.389   4.701
17457TIP3    H152256   4.925   9.306   4.746
17457TIP3    H252257   5.010   9.358   4.631
17458TIP3   OH252258   5.400   9.782   5.137
17458TIP3    H152259   5.318   9.833   5.122
17458TIP3    H252260   5.462   9.850   5.171
17459TIP3   OH252261   5.597   9.508   4.083
17459TIP3    H152262   5.498   9.492   4.085
17459TIP3    H252263   5.605   9.602   4.093
17460TIP3   OH252264   5.669   9.767   4.165
17460TIP3    H152265   5.763   9.756   4.194
17460TIP3    H252266   5.679   9.832   4.094
17461TIP3   OH252267   5.413  10.124   5.581
17461TIP3    H152268   5.389  10.038   5.542
17461TIP3    H252269   5.508  10.124   5.564
17462TIP3   OH252270   6.108   9.828   4.021
17462TIP3    H152271   6.047   9.788   3.955
17462TIP3    H252272   6.118   9.916   3.982
17463TIP3   OH252273   4.913   9.613   5.511
17463TIP3    H152274   4.820   9.635   5.534
17463TIP3    H252275   4.946   9.578   5.595
17464TIP3   OH252276   5.755   9.707   5.195
17464TIP3    H152277   5.843   9.738   5.223
17464TIP3    H252278   5.746   9.623   5.245
17465TIP3   OH252279   5.651   9.447   4.354
17465TIP3    H152280   5.635   9.471   4.260
17465TIP3    H252281   5.691   9.528   4.390
17466TIP3   OH252282   5.351   9.614   4.439
17466TIP3    H152283   5.418   9.682   4.417
17466TIP3    H252284   5.357   9.611   4.536
17467TIP3   OH252285   5.589   9.940   5.261
17467TIP3    H152286   5.625   9.995   5.335
17467TIP3    H252287   5.650   9.864   5.261
17468TIP3   OH252288   5.483   9.354   4.560
17468TIP3    H152289   5.476   9.428   4.623
17468TIP3    H252290   5.543   9.392   4.492
17469TIP3   OH252291   4.987   9.357   4.353
17469TIP3    H152292   4.995   9.449   4.387
17469TIP3    H252293   5.081   9.330   4.360
17470TIP3   OH252294   6.246   9.855   5.246
17470TIP3    H152295   6.148   9.844   5.252
17470TIP3    H252296   6.262   9.812   5.161
17471TIP3   OH252297   5.883  10.031   4.618
17471TIP3    H152298   5.816   9.967   4.645
17471TIP3    H252299   5.960  10.004   4.671
17472TIP3   OH252300   4.908   9.294   5.140
17472TIP3    H152301   4.885   9.266   5.048
17472TIP3    H252302   4.915   9.205   5.183
17473TIP3   OH252303   4.930  10.152   5.714
17473TIP3    H152304   4.961  10.071   5.757
17473TIP3    H252305   4.908  10.209   5.791
17474TIP3   OH252306   5.177   9.986   5.410
17474TIP3    H152307   5.136  10.025   5.488
17474TIP3    H252308   5.209  10.066   5.362
17475TIP3   OH252309   6.869   0.436   5.874
17475TIP3    H152310   6.800   0.414   5.812
17475TIP3    H252311   6.921   0.501   5.822
17476TIP3   OH252312   5.353   9.826   5.536
17476TIP3    H152313   5.362   9.738   5.495
17476TIP3    H252314   5.289   9.867   5.473
17477TIP3   OH252315   5.336   9.615   5.342
17477TIP3    H152316   5.371   9.669   5.267
17477TIP3    H252317   5.245   9.598   5.312
17478TIP3   OH252318   5.966  10.140   5.590
17478TIP3    H152319   5.985  10.047   5.610
17478TIP3    H252320   6.053  10.171   5.564
17479TIP3   OH252321   5.189   9.961   5.733
17479TIP3    H152322   5.135   9.886   5.765
17479TIP3    H252323   5.252   9.916   5.674
17480TIP3   OH252324   5.479   9.391   5.406
17480TIP3    H152325   5.429   9.472   5.383
17480TIP3    H252326   5.411   9.321   5.394
17481TIP3   OH252327   5.607   9.898   5.629
17481TIP3    H152328   5.603   9.887   5.726
17481TIP3    H252329   5.519   9.861   5.604
17482TIP3   OH252330   5.847   9.843   5.483
17482TIP3    H152331   5.771   9.838   5.543
17482TIP3    H252332   5.920   9.810   5.539
17483TIP3   OH252333   6.072   9.787   5.633
17483TIP3    H152334   6.086   9.691   5.651
17483TIP3    H252335   6.069   9.825   5.724
17484TIP3   OH252336   5.060   9.731   5.814
17484TIP3    H152337   5.068   9.639   5.785
17484TIP3    H252338   5.094   9.724   5.906
17485TIP3   OH252339   5.571   9.402   5.664
17485TIP3    H152340   5.640   9.333   5.660
17485TIP3    H252341   5.533   9.394   5.574
17486TIP3   OH252342   5.636   9.617   5.822
17486TIP3    H152343   5.614   9.545   5.759
17486TIP3    H252344   5.556   9.674   5.816
17487TIP3   OH252345   5.941   9.756   3.816
17487TIP3    H152346   5.916   9.776   3.725
17487TIP3    H252347   5.920   9.659   3.819
17488TIP3   OH252348   5.975  10.005   4.363
17488TIP3    H152349   5.978   9.909   4.372
17488TIP3    H252350   5.953  10.032   4.455
17489TIP3   OH252351   6.412  10.278   5.247
17489TIP3    H152352   6.339  10.219   5.275
17489TIP3    H252353   6.487  10.216   5.252
17490TIP3   OH252354   5.886   9.492   3.811
17490TIP3    H152355   5.963   9.454   3.857
17490TIP3    H252356   5.815   9.428   3.831
17491TIP3   OH252357   5.937   9.732   4.258
17491TIP3    H152358   5.980   9.645   4.273
17491TIP3    H252359   5.997   9.769   4.191
17492TIP3   OH252360   6.104   9.916   4.744
17492TIP3    H152361   6.189   9.943   4.702
17492TIP3    H252362   6.123   9.949   4.834
17493TIP3   OH252363   6.184  10.043   4.975
17493TIP3    H152364   6.110  10.074   5.029
17493TIP3    H252365   6.233  10.126   4.956
17494TIP3   OH252366   4.791   9.794   5.788
17494TIP3    H152367   4.888   9.785   5.791
17494TIP3    H252368   4.764   9.707   5.824
17495TIP3   OH252369   6.622   9.647   5.542
17495TIP3    H152370   6.683   9.582   5.501
17495TIP3    H252371   6.601   9.705   5.466
17496TIP3   OH252372   6.054   9.489   4.298
17496TIP3    H152373   6.104   9.473   4.380
17496TIP3    H252374   5.996   9.410   4.296
17497TIP3   OH252375   4.558   9.759   5.201
17497TIP3    H152376   4.605   9.751   5.115
17497TIP3    H252377   4.573   9.852   5.222
17498TIP3   OH252378   6.500   9.795   5.347
17498TIP3    H152379   6.408   9.826   5.359
17498TIP3    H252380   6.484   9.719   5.288
17499TIP3   OH252381   6.134   9.427   3.926
17499TIP3    H152382   6.175   9.353   3.877
17499TIP3    H252383   6.204   9.495   3.922
17500TIP3   OH252384   4.537   9.273   4.694
17500TIP3    H152385   4.444   9.253   4.714
17500TIP3    H252386   4.531   9.316   4.607
17501TIP3   OH252387   6.394   9.552   5.228
17501TIP3    H152388   6.304   9.543   5.192
17501TIP3    H252389   6.429   9.460   5.215
17502TIP3   OH252390   5.604   9.468   4.843
17502TIP3    H152391   5.560   9.397   4.892
17502TIP3    H252392   5.677   9.420   4.798
17503TIP3   OH252393   6.124   9.351   4.753
17503TIP3    H152394   6.163   9.399   4.677
17503TIP3    H252395   6.029   9.368   4.742
17504TIP3   OH252396   6.220   9.449   4.516
17504TIP3    H152397   6.292   9.396   4.476
17504TIP3    H252398   6.255   9.540   4.500
17505TIP3   OH252399   4.853   9.181   4.880
17505TIP3    H152400   4.762   9.147   4.871
17505TIP3    H252401   4.903   9.097   4.871
17506TIP3   OH252402   4.634   9.047   4.511
17506TIP3    H152403   4.669   9.100   4.436
17506TIP3    H252404   4.614   9.116   4.577
17507TIP3   OH252405   5.289   9.214   4.744
17507TIP3    H152406   5.348   9.258   4.681
17507TIP3    H252407   5.325   9.245   4.828
17508TIP3   OH252408   5.838   9.354   4.726
17508TIP3    H152409   5.842   9.318   4.637
17508TIP3    H252410   5.826   9.273   4.780
17509TIP3   OH252411   5.872   9.276   4.288
17509TIP3    H152412   5.786   9.322   4.303
17509TIP3    H252413   5.856   9.191   4.333
17510TIP3   OH252414   4.754   9.211   4.288
17510TIP3    H152415   4.788   9.150   4.220
17510TIP3    H252416   4.836   9.257   4.316
17511TIP3   OH252417   5.262   9.365   4.373
17511TIP3    H152418   5.321   9.315   4.432
17511TIP3    H252419   5.293   9.457   4.392
17512TIP3   OH252420   5.059   9.456   5.749
17512TIP3    H152421   5.024   9.390   5.811
17512TIP3    H252422   5.153   9.457   5.777
17513TIP3   OH252423   5.306   9.453   5.868
17513TIP3    H152424   5.393   9.428   5.832
17513TIP3    H252425   5.294   9.384   5.937
17514TIP3   OH252426   6.131   9.516   5.660
17514TIP3    H152427   6.152   9.484   5.750
17514TIP3    H252428   6.219   9.512   5.616
17515TIP3   OH252429   6.312   9.962   4.174
17515TIP3    H152430   6.268  10.036   4.218
17515TIP3    H252431   6.239   9.901   4.156
17516TIP3   OH252432   7.551  10.178   4.376
17516TIP3    H152433   7.585  10.089   4.396
17516TIP3    H252434   7.522  10.166   4.284
17517TIP3   OH252435   6.886   9.826   4.341
17517TIP3    H152436   6.864   9.900   4.280
17517TIP3    H252437   6.835   9.753   4.299
17518TIP3   OH252438   7.578   9.911   3.976
17518TIP3    H152439   7.650   9.892   4.040
17518TIP3    H252440   7.630   9.953   3.907
17519TIP3   OH252441   6.511  10.015   4.462
17519TIP3    H152442   6.599   9.999   4.501
17519TIP3    H252443   6.524   9.978   4.373
17520TIP3   OH252444   6.969  10.230   4.230
17520TIP3    H152445   7.056  10.195   4.260
17520TIP3    H252446   6.922  10.150   4.202
17521TIP3   OH252447   6.881   9.826   4.798
17521TIP3    H152448   6.828   9.816   4.717
17521TIP3    H252449   6.814   9.841   4.866
17522TIP3   OH252450   7.799   9.914   4.140
17522TIP3    H152451   7.772   9.867   4.220
17522TIP3    H252452   7.877   9.964   4.169
17523TIP3   OH252453   6.755   9.921   4.561
17523TIP3    H152454   6.824   9.985   4.587
17523TIP3    H252455   6.803   9.875   4.488
17524TIP3   OH252456   7.940   9.892   4.503
17524TIP3    H152457   7.845   9.913   4.494
17524TIP3    H252458   7.974   9.916   4.417
17525TIP3   OH252459   7.129  10.041   3.495
17525TIP3    H152460   7.184  10.108   3.537
17525TIP3    H252461   7.187  10.008   3.425
17526TIP3   OH252462   7.859   9.477   3.595
17526TIP3    H152463   7.780   9.487   3.652
17526TIP3    H252464   7.864   9.565   3.555
17527TIP3   OH252465   7.526   9.726   4.814
17527TIP3    H152466   7.585   9.692   4.884
17527TIP3    H252467   7.437   9.705   4.848
17528TIP3   OH252468   7.786  10.154   4.737
17528TIP3    H152469   7.737  10.143   4.822
17528TIP3    H252470   7.733  10.221   4.692
17529TIP3   OH252471   7.149   9.653   3.592
17529TIP3    H152472   7.114   9.652   3.683
17529TIP3    H252473   7.110   9.570   3.559
17530TIP3   OH252474   6.929  10.134   4.640
17530TIP3    H152475   6.856  10.136   4.704
17530TIP3    H252476   6.909  10.208   4.580
17531TIP3   OH252477   6.814  10.007   4.153
17531TIP3    H152478   6.722   9.979   4.169
17531TIP3    H252479   6.828   9.969   4.063
17532TIP3   OH252480   7.319  10.096   3.884
17532TIP3    H152481   7.235  10.143   3.862
17532TIP3    H252482   7.357  10.076   3.796
17533TIP3   OH252483   7.478  10.364   4.967
17533TIP3    H152484   7.466  10.282   5.021
17533TIP3    H252485   7.573  10.375   4.972
17534TIP3   OH252486   7.453  10.115   4.125
17534TIP3    H152487   7.394  10.130   4.047
17534TIP3    H252488   7.499  10.036   4.092
17535TIP3   OH252489   6.750  10.145   4.859
17535TIP3    H152490   6.688  10.189   4.916
17535TIP3    H252491   6.734  10.052   4.884
17536TIP3   OH252492   6.802   9.627   3.561
17536TIP3    H152493   6.797   9.625   3.659
17536TIP3    H252494   6.721   9.676   3.540
17537TIP3   OH252495   6.342   9.674   4.428
17537TIP3    H152496   6.415   9.708   4.484
17537TIP3    H252497   6.389   9.637   4.352
17538TIP3   OH252498   6.318   9.649   3.949
17538TIP3    H152499   6.363   9.689   3.871
17538TIP3    H252500   6.260   9.723   3.973
17539TIP3   OH252501   7.501  10.362   4.575
17539TIP3    H152502   7.524  10.302   4.501
17539TIP3    H252503   7.439  10.305   4.624
17540TIP3   OH252504   7.140   9.822   4.216
17540TIP3    H152505   7.056   9.824   4.266
17540TIP3    H252506   7.203   9.846   4.284
17541TIP3   OH252507   6.576   9.888   4.220
17541TIP3    H152508   6.481   9.890   4.194
17541TIP3    H252509   6.603   9.796   4.201
17542TIP3   OH252510   6.850   9.881   3.911
17542TIP3    H152511   6.942   9.903   3.887
17542TIP3    H252512   6.799   9.905   3.831
17543TIP3   OH252513   7.635   9.904   4.419
17543TIP3    H152514   7.597   9.918   4.508
17543TIP3    H252515   7.566   9.846   4.380
17544TIP3   OH252516   6.677   9.896   3.691
17544TIP3    H152517   6.611   9.868   3.625
17544TIP3    H252518   6.727   9.964   3.642
17545TIP3   OH252519   7.217  10.135   4.306
17545TIP3    H152520   7.306  10.121   4.271
17545TIP3    H252521   7.228  10.118   4.402
17546TIP3   OH252522   6.744   9.647   4.190
17546TIP3    H152523   6.713   9.566   4.237
17546TIP3    H252524   6.799   9.610   4.120
17547TIP3   OH252525   7.208  10.061   4.580
17547TIP3    H152526   7.116  10.077   4.607
17547TIP3    H252527   7.259  10.109   4.647
17548TIP3   OH252528   7.394   9.766   3.571
17548TIP3    H152529   7.300   9.736   3.573
17548TIP3    H252530   7.385   9.862   3.581
17549TIP3   OH252531   7.467  10.032   3.645
17549TIP3    H152532   7.555   9.992   3.655
17549TIP3    H252533   7.478  10.084   3.565
17550TIP3   OH252534   7.218  10.382   5.102
17550TIP3    H152535   7.165  10.427   5.030
17550TIP3    H252536   7.278  10.330   5.050
17551TIP3   OH252537   6.710   9.900   5.001
17551TIP3    H152538   6.613   9.890   5.012
17551TIP3    H252539   6.744   9.832   5.062
17552TIP3   OH252540   7.558   9.963   4.680
17552TIP3    H152541   7.640   9.988   4.725
17552TIP3    H252542   7.535   9.879   4.725
17553TIP3   OH252543   7.440   9.705   3.842
17553TIP3    H152544   7.424   9.730   3.749
17553TIP3    H252545   7.480   9.785   3.880
17554TIP3   OH252546   7.137   9.887   3.946
17554TIP3    H152547   7.205   9.956   3.935
17554TIP3    H252548   7.133   9.877   4.043
17555TIP3   OH252549   7.382  10.194   4.756
17555TIP3    H152550   7.419  10.250   4.827
17555TIP3    H252551   7.443  10.118   4.754
17556TIP3   OH252552   7.274   9.616   4.051
17556TIP3    H152553   7.261   9.695   4.108
17556TIP3    H252554   7.334   9.653   3.981
17557TIP3   OH252555   6.785   9.611   3.836
17557TIP3    H152556   6.782   9.703   3.869
17557TIP3    H252557   6.881   9.594   3.846
17558TIP3   OH252558   8.060  10.113   4.711
17558TIP3    H152559   7.968  10.131   4.736
17558TIP3    H252560   8.046  10.058   4.634
17559TIP3   OH252561   6.340   9.809   3.729
17559TIP3    H152562   6.356   9.902   3.711
17559TIP3    H252563   6.261   9.788   3.679
17560TIP3   OH252564   6.702   9.529   4.604
17560TIP3    H152565   6.702   9.493   4.513
17560TIP3    H252566   6.727   9.452   4.657
17561TIP3   OH252567   6.717  10.409   5.198
17561TIP3    H152568   6.761  10.329   5.233
17561TIP3    H252569   6.706  10.465   5.278
17562TIP3   OH252570   6.992  10.272   4.880
17562TIP3    H152571   6.913  10.221   4.903
17562TIP3    H252572   6.994  10.259   4.784
17563TIP3   OH252573   6.856  10.046   3.548
17563TIP3    H152574   6.825   9.990   3.473
17563TIP3    H252575   6.954  10.041   3.537
17564TIP3   OH252576   7.142  10.090   5.032
17564TIP3    H152577   7.145  10.009   4.975
17564TIP3    H252578   7.102  10.152   4.968
17565TIP3   OH252579   7.142   9.905   4.835
17565TIP3    H152580   7.180   9.891   4.748
17565TIP3    H252581   7.059   9.853   4.826
17566TIP3   OH252582   6.993  10.221   5.244
17566TIP3    H152583   6.939  10.140   5.255
17566TIP3    H252584   7.045  10.200   5.164
17567TIP3   OH252585   7.399  10.148   5.108
17567TIP3    H152586   7.386  10.137   5.204
17567TIP3    H252587   7.311  10.116   5.078
17568TIP3   OH252588   7.641  10.106   4.964
17568TIP3    H152589   7.564  10.092   5.022
17568TIP3    H252590   7.715  10.080   5.023
17569TIP3   OH252591   7.849  10.043   5.132
17569TIP3    H152592   7.874   9.949   5.135
17569TIP3    H252593   7.825  10.062   5.224
17570TIP3   OH252594   6.851   9.992   5.300
17570TIP3    H152595   6.857   9.902   5.261
17570TIP3    H252596   6.887   9.975   5.390
17571TIP3   OH252597   7.367   9.662   5.134
17571TIP3    H152598   7.433   9.590   5.131
17571TIP3    H252599   7.309   9.638   5.061
17572TIP3   OH252600   7.430   9.869   5.309
17572TIP3    H152601   7.411   9.802   5.240
17572TIP3    H252602   7.354   9.930   5.300
17573TIP3   OH252603   7.669   9.773   3.311
17573TIP3    H152604   7.755   9.738   3.341
17573TIP3    H252605   7.609   9.697   3.314
17574TIP3   OH252606   6.582  10.056   5.281
17574TIP3    H152607   6.679  10.044   5.272
17574TIP3    H252608   6.559   9.969   5.317
17575TIP3   OH252609   7.819   9.757   3.802
17575TIP3    H152610   7.882   9.737   3.873
17575TIP3    H252611   7.768   9.674   3.796
17576TIP3   OH252612   6.539   9.742   4.614
17576TIP3    H152613   6.596   9.662   4.618
17576TIP3    H252614   6.606   9.811   4.599
17577TIP3   OH252615   6.350  10.018   4.682
17577TIP3    H152616   6.400  10.000   4.599
17577TIP3    H252617   6.376  10.109   4.699
17578TIP3   OH252618   6.335   9.509   4.178
17578TIP3    H152619   6.241   9.509   4.203
17578TIP3    H252620   6.335   9.567   4.098
17579TIP3   OH252621   6.556   9.606   4.997
17579TIP3    H152622   6.503   9.590   5.076
17579TIP3    H252623   6.488   9.633   4.932
17580TIP3   OH252624   8.196   9.806   4.717
17580TIP3    H152625   8.110   9.812   4.674
17580TIP3    H252626   8.226   9.717   4.690
17581TIP3   OH252627   7.413   9.734   4.329
17581TIP3    H152628   7.373   9.675   4.394
17581TIP3    H252629   7.475   9.676   4.282
17582TIP3   OH252630   7.922   9.607   4.233
17582TIP3    H152631   7.957   9.659   4.158
17582TIP3    H252632   7.825   9.621   4.225
17583TIP3   OH252633   8.025   9.712   3.993
17583TIP3    H152634   8.093   9.655   3.953
17583TIP3    H252635   8.068   9.798   3.989
17584TIP3   OH252636   6.649   9.432   4.341
17584TIP3    H152637   6.557   9.399   4.346
17584TIP3    H252638   6.699   9.348   4.341
17585TIP3   OH252639   6.429   9.302   3.994
17585TIP3    H152640   6.463   9.359   3.924
17585TIP3    H252641   6.404   9.367   4.063
17586TIP3   OH252642   7.085   9.463   4.226
17586TIP3    H152643   7.148   9.520   4.179
17586TIP3    H252644   7.089   9.498   4.316
17587TIP3   OH252645   7.646   9.612   4.207
17587TIP3    H152646   7.628   9.575   4.120
17587TIP3    H252647   7.628   9.533   4.265
17588TIP3   OH252648   7.662   9.527   3.777
17588TIP3    H152649   7.575   9.569   3.785
17588TIP3    H252650   7.646   9.441   3.822
17589TIP3   OH252651   6.549   9.464   3.759
17589TIP3    H152652   6.599   9.400   3.704
17589TIP3    H252653   6.622   9.518   3.796
17590TIP3   OH252654   7.063   9.638   3.857
17590TIP3    H152655   7.120   9.590   3.920
17590TIP3    H252656   7.084   9.730   3.884
17591TIP3   OH252657   6.851   9.714   5.243
17591TIP3    H152658   6.822   9.640   5.298
17591TIP3    H252659   6.947   9.715   5.264
17592TIP3   OH252660   7.102   9.713   5.361
17592TIP3    H152661   7.185   9.687   5.318
17592TIP3    H252662   7.089   9.641   5.425
17593TIP3   OH252663   7.928   9.776   5.146
17593TIP3    H152664   7.949   9.744   5.236
17593TIP3    H252665   8.014   9.766   5.100
17594TIP3   OH252666   2.738   1.190   8.792
17594TIP3    H152667   2.746   1.285   8.772
17594TIP3    H252668   2.827   1.156   8.770
17595TIP3   OH252669   2.762   1.468   8.769
17595TIP3    H152670   2.806   1.540   8.719
17595TIP3    H252671   2.683   1.515   8.798
17596TIP3   OH252672   2.420   1.244   8.770
17596TIP3    H152673   2.473   1.186   8.827
17596TIP3    H252674   2.463   1.229   8.685
17597TIP3   OH252675   4.075   1.022   9.070
17597TIP3    H152676   4.078   1.109   9.024
17597TIP3    H252677   4.064   0.966   8.990
17598TIP3   OH252678   4.431   1.326   9.114
17598TIP3    H152679   4.437   1.275   9.197
17598TIP3    H252680   4.459   1.413   9.144
17599TIP3   OH252681   4.089   1.789   9.134
17599TIP3    H152682   4.151   1.731   9.084
17599TIP3    H252683   4.135   1.802   9.217
17600TIP3   OH252684   4.072   1.253   8.933
17600TIP3    H152685   4.065   1.234   8.838
17600TIP3    H252686   4.065   1.350   8.931
17601TIP3   OH252687   4.241   1.634   8.973
17601TIP3    H152688   4.277   1.551   8.935
17601TIP3    H252689   4.291   1.700   8.919
17602TIP3   OH252690   4.347   1.409   8.858
17602TIP3    H152691   4.355   1.337   8.793
17602TIP3    H252692   4.390   1.372   8.937
17603TIP3   OH252693   4.032   0.888   8.845
17603TIP3    H152694   3.944   0.916   8.815
17603TIP3    H252695   4.080   0.879   8.760
17604TIP3   OH252696   3.996   0.681   8.601
17604TIP3    H152697   4.077   0.720   8.636
17604TIP3    H252698   4.035   0.607   8.551
17605TIP3   OH252699   4.384   0.972   8.855
17605TIP3    H152700   4.351   0.988   8.945
17605TIP3    H252701   4.474   0.941   8.877
17606TIP3   OH252702   4.235   0.823   8.672
17606TIP3    H152703   4.294   0.881   8.726
17606TIP3    H252704   4.260   0.850   8.580
17607TIP3   OH252705   3.976   1.541   8.923
17607TIP3    H152706   4.042   1.577   8.985
17607TIP3    H252707   3.894   1.555   8.973
17608TIP3   OH252708   4.542   1.445   8.280
17608TIP3    H152709   4.552   1.540   8.258
17608TIP3    H252710   4.633   1.412   8.263
17609TIP3   OH252711   4.041   1.662   8.423
17609TIP3    H152712   4.081   1.599   8.358
17609TIP3    H252713   4.105   1.649   8.493
17610TIP3   OH252714   4.051   1.713   8.698
17610TIP3    H152715   4.016   1.657   8.771
17610TIP3    H252716   4.146   1.707   8.718
17611TIP3   OH252717   4.305   0.887   8.420
17611TIP3    H152718   4.268   0.859   8.334
17611TIP3    H252719   4.387   0.931   8.390
17612TIP3   OH252720   4.194   0.699   8.974
17612TIP3    H152721   4.142   0.759   8.915
17612TIP3    H252722   4.245   0.649   8.907
17613TIP3   OH252723   3.527   0.528   8.813
17613TIP3    H152724   3.479   0.475   8.747
17613TIP3    H252725   3.606   0.554   8.762
17614TIP3   OH252726   3.795   1.047   8.824
17614TIP3    H152727   3.729   0.983   8.791
17614TIP3    H252728   3.785   1.033   8.920
17615TIP3   OH252729   4.336   0.575   8.775
17615TIP3    H152730   4.432   0.590   8.793
17615TIP3    H252731   4.316   0.648   8.713
17616TIP3   OH252732   3.954   1.208   8.661
17616TIP3    H152733   3.912   1.296   8.665
17616TIP3    H252734   3.893   1.152   8.713
17617TIP3   OH252735   4.777   0.694   8.633
17617TIP3    H152736   4.722   0.644   8.570
17617TIP3    H252737   4.777   0.781   8.587
17618TIP3   OH252738   4.468   1.515   8.537
17618TIP3    H152739   4.462   1.435   8.591
17618TIP3    H252740   4.491   1.478   8.449
17619TIP3   OH252741   3.507   1.613   8.964
17619TIP3    H152742   3.436   1.620   9.029
17619TIP3    H252743   3.552   1.699   8.978
17620TIP3   OH252744   4.232   1.247   8.443
17620TIP3    H152745   4.283   1.222   8.523
17620TIP3    H252746   4.144   1.212   8.464
17621TIP3   OH252747   4.573   1.719   8.261
17621TIP3    H152748   4.613   1.788   8.206
17621TIP3    H252749   4.494   1.768   8.291
17622TIP3   OH252750   4.394   1.191   8.674
17622TIP3    H152751   4.384   1.112   8.731
17622TIP3    H252752   4.489   1.181   8.648
17623TIP3   OH252753   3.603   1.224   8.437
17623TIP3    H152754   3.611   1.132   8.407
17623TIP3    H252755   3.579   1.210   8.531
17624TIP3   OH252756   3.548   1.228   8.707
17624TIP3    H152757   3.607   1.197   8.777
17624TIP3    H252758   3.551   1.326   8.718
17625TIP3   OH252759   3.822   1.464   8.643
17625TIP3    H152760   3.732   1.474   8.681
17625TIP3    H252761   3.801   1.454   8.548
17626TIP3   OH252762   3.560   1.498   8.723
17626TIP3    H152763   3.536   1.569   8.660
17626TIP3    H252764   3.534   1.541   8.809
17627TIP3   OH252765   3.265   1.146   8.713
17627TIP3    H152766   3.336   1.211   8.722
17627TIP3    H252767   3.313   1.077   8.662
17628TIP3   OH252768   4.531   1.854   9.179
17628TIP3    H152769   4.480   1.911   9.118
17628TIP3    H252770   4.620   1.894   9.170
17629TIP3   OH252771   3.773   1.427   8.375
17629TIP3    H152772   3.710   1.353   8.392
17629TIP3    H252773   3.841   1.381   8.323
17630TIP3   OH252774   4.194   1.480   8.268
17630TIP3    H152775   4.242   1.415   8.322
17630TIP3    H252776   4.246   1.479   8.185
17631TIP3   OH252777   3.408   0.946   8.575
17631TIP3    H152778   3.462   0.912   8.649
17631TIP3    H252779   3.477   0.952   8.505
17632TIP3   OH252780   3.922   1.145   8.384
17632TIP3    H152781   3.917   1.156   8.481
17632TIP3    H252782   3.921   1.047   8.377
17633TIP3   OH252783   3.606   0.855   8.767
17633TIP3    H152784   3.617   0.825   8.860
17633TIP3    H252785   3.636   0.774   8.720
17634TIP3   OH252786   3.716   0.640   8.636
17634TIP3    H152787   3.690   0.642   8.542
17634TIP3    H252788   3.813   0.643   8.629
17635TIP3   OH252789   4.537   0.972   8.300
17635TIP3    H152790   4.524   0.928   8.214
17635TIP3    H252791   4.511   1.063   8.274
17636TIP3   OH252792   3.550   1.697   8.530
17636TIP3    H152793   3.594   1.706   8.446
17636TIP3    H252794   3.466   1.739   8.507
17637TIP3   OH252795   2.995   1.093   8.726
17637TIP3    H152796   3.089   1.116   8.740
17637TIP3    H252797   3.000   0.998   8.705
17638TIP3   OH252798   4.785   1.958   9.166
17638TIP3    H152799   4.820   2.032   9.216
17638TIP3    H252800   4.822   1.977   9.079
17639TIP3   OH252801   4.669   1.164   8.633
17639TIP3    H152802   4.739   1.225   8.600
17639TIP3    H252803   4.715   1.123   8.709
17640TIP3   OH252804   4.798   1.030   8.833
17640TIP3    H152805   4.739   0.984   8.895
17640TIP3    H252806   4.870   1.064   8.891
17641TIP3   OH252807   4.838   1.412   9.191
17641TIP3    H152808   4.918   1.356   9.183
17641TIP3    H252809   4.868   1.496   9.150
17642TIP3   OH252810   4.735   0.932   8.484
17642TIP3    H152811   4.667   0.941   8.414
17642TIP3    H252812   4.713   1.011   8.538
17643TIP3   OH252813   4.614   0.602   8.434
17643TIP3    H152814   4.579   0.674   8.380
17643TIP3    H252815   4.574   0.524   8.391
17644TIP3   OH252816   4.615   0.881   8.982
17644TIP3    H152817   4.617   0.785   8.969
17644TIP3    H252818   4.594   0.890   9.076
17645TIP3   OH252819   4.598   0.613   8.836
17645TIP3    H152820   4.643   0.567   8.911
17645TIP3    H252821   4.673   0.634   8.776
17646TIP3   OH252822   4.346   1.814   8.799
17646TIP3    H152823   4.415   1.804   8.730
17646TIP3    H252824   4.388   1.880   8.859
17647TIP3   OH252825   2.983   1.442   8.924
17647TIP3    H152826   2.908   1.413   8.868
17647TIP3    H252827   3.005   1.527   8.883
17648TIP3   OH252828   4.510   1.781   8.581
17648TIP3    H152829   4.501   1.685   8.565
17648TIP3    H252830   4.472   1.817   8.499
17649TIP3   OH252831   3.097   1.504   8.544
17649TIP3    H152832   3.092   1.538   8.635
17649TIP3    H252833   3.184   1.459   8.543
17650TIP3   OH252834   6.004   1.300   8.537
17650TIP3    H152835   5.976   1.391   8.516
17650TIP3    H252836   5.927   1.251   8.503
17651TIP3   OH252837   6.001   1.299   8.916
17651TIP3    H152838   6.033   1.269   9.003
17651TIP3    H252839   5.959   1.218   8.882
17652TIP3   OH252840   5.310   1.223   9.286
17652TIP3    H152841   5.318   1.165   9.364
17652TIP3    H252842   5.400   1.224   9.250
17653TIP3   OH252843   6.246   1.599   8.599
17653TIP3    H152844   6.231   1.531   8.666
17653TIP3    H252845   6.274   1.675   8.652
17654TIP3   OH252846   5.275   1.608   9.021
17654TIP3    H152847   5.263   1.510   9.015
17654TIP3    H252848   5.370   1.613   9.000
17655TIP3   OH252849   4.971   0.795   8.803
17655TIP3    H152850   4.930   0.883   8.810
17655TIP3    H252851   4.908   0.751   8.743
17656TIP3   OH252852   5.040   1.087   8.955
17656TIP3    H152853   5.088   1.015   9.001
17656TIP3    H252854   5.103   1.112   8.886
17657TIP3   OH252855   5.894   2.063   8.615
17657TIP3    H152856   5.941   1.992   8.564
17657TIP3    H252857   5.891   2.024   8.703
17658TIP3   OH252858   5.800   1.523   8.969
17658TIP3    H152859   5.835   1.448   8.918
17658TIP3    H252860   5.885   1.567   8.990
17659TIP3   OH252861   6.217   1.039   8.997
17659TIP3    H152862   6.243   0.953   9.032
17659TIP3    H252863   6.185   1.016   8.908
17660TIP3   OH252864   5.188   0.893   9.074
17660TIP3    H152865   5.258   0.863   9.133
17660TIP3    H252866   5.201   0.832   8.998
17661TIP3   OH252867   5.626   1.087   8.871
17661TIP3    H152868   5.718   1.055   8.881
17661TIP3    H252869   5.581   1.005   8.838
17662TIP3   OH252870   6.867   1.036   9.141
17662TIP3    H152871   6.793   1.099   9.125
17662TIP3    H252872   6.891   1.056   9.233
17663TIP3   OH252873   5.897   1.521   8.406
17663TIP3    H152874   5.852   1.497   8.324
17663TIP3    H252875   5.852   1.605   8.429
17664TIP3   OH252876   5.657   1.449   9.201
17664TIP3    H152877   5.591   1.514   9.232
17664TIP3    H252878   5.701   1.495   9.126
17665TIP3   OH252879   5.437   0.803   9.179
17665TIP3    H152880   5.509   0.856   9.139
17665TIP3    H252881   5.428   0.731   9.114
17666TIP3   OH252882   5.471   1.640   9.305
17666TIP3    H152883   5.457   1.718   9.247
17666TIP3    H252884   5.393   1.647   9.361
17667TIP3   OH252885   4.872   1.328   8.527
17667TIP3    H152886   4.839   1.349   8.438
17667TIP3    H252887   4.906   1.414   8.559
17668TIP3   OH252888   6.317   1.843   8.769
17668TIP3    H152889   6.226   1.835   8.806
17668TIP3    H252890   6.310   1.928   8.721
17669TIP3   OH252891   6.019   1.891   8.442
17669TIP3    H152892   6.069   1.809   8.419
17669TIP3    H252893   6.078   1.958   8.400
17670TIP3   OH252894   6.160   1.676   8.347
17670TIP3    H152895   6.120   1.597   8.308
17670TIP3    H252896   6.197   1.640   8.431
17671TIP3   OH252897   6.543   1.758   9.110
17671TIP3    H152898   6.532   1.680   9.050
17671TIP3    H252899   6.525   1.832   9.048
17672TIP3   OH252900   5.835   1.152   8.367
17672TIP3    H152901   5.752   1.200   8.347
17672TIP3    H252902   5.877   1.148   8.279
17673TIP3   OH252903   5.788   0.938   8.087
17673TIP3    H152904   5.862   0.982   8.132
17673TIP3    H252905   5.837   0.870   8.037
17674TIP3   OH252906   6.741   1.396   8.958
17674TIP3    H152907   6.656   1.445   8.962
17674TIP3    H252908   6.766   1.416   8.865
17675TIP3   OH252909   6.182   1.233   8.340
17675TIP3    H152910   6.126   1.259   8.417
17675TIP3    H252911   6.264   1.206   8.385
17676TIP3   OH252912   6.416   1.273   9.253
17676TIP3    H152913   6.418   1.359   9.301
17676TIP3    H252914   6.332   1.282   9.204
17677TIP3   OH252915   5.417   1.231   8.754
17677TIP3    H152916   5.369   1.174   8.689
17677TIP3    H252917   5.490   1.173   8.781
17678TIP3   OH252918   5.539   1.638   8.908
17678TIP3    H152919   5.519   1.600   8.821
17678TIP3    H252920   5.631   1.606   8.922
17679TIP3   OH252921   5.542   1.217   9.103
17679TIP3    H152922   5.573   1.195   9.012
17679TIP3    H252923   5.591   1.299   9.123
17680TIP3   OH252924   6.074   1.841   8.886
17680TIP3    H152925   6.063   1.920   8.942
17680TIP3    H252926   6.062   1.767   8.949
17681TIP3   OH252927   5.692   1.772   9.444
17681TIP3    H152928   5.623   1.833   9.479
17681TIP3    H252929   5.635   1.707   9.399
17682TIP3   OH252930   6.029   1.079   8.169
17682TIP3    H152931   6.085   1.140   8.221
17682TIP3    H252932   6.053   1.106   8.077
17683TIP3   OH252933   5.764   1.773   8.444
17683TIP3    H152934   5.844   1.827   8.458
17683TIP3    H252935   5.704   1.834   8.400
17684TIP3   OH252936   5.470   1.919   9.512
17684TIP3    H152937   5.445   1.925   9.417
17684TIP3    H252938   5.393   1.878   9.552
17685TIP3   OH252939   5.275   1.081   8.568
17685TIP3    H152940   5.209   1.118   8.505
17685TIP3    H252941   5.252   0.987   8.567
17686TIP3   OH252942   6.336   1.700   7.760
17686TIP3    H152943   6.344   1.797   7.746
17686TIP3    H252944   6.430   1.673   7.750
17687TIP3   OH252945   4.920   1.662   9.094
17687TIP3    H152946   5.015   1.656   9.079
17687TIP3    H252947   4.913   1.742   9.149
17688TIP3   OH252948   6.785   2.102   9.155
17688TIP3    H152949   6.782   2.005   9.168
17688TIP3    H252950   6.700   2.128   9.196
17689TIP3   OH252951   5.891   1.883   9.290
17689TIP3    H152952   5.888   1.979   9.311
17689TIP3    H252953   5.816   1.850   9.345
17690TIP3   OH252954   5.645   2.017   8.243
17690TIP3    H152955   5.600   1.997   8.159
17690TIP3    H252956   5.614   2.107   8.263
17691TIP3   OH252957   5.083   1.868   8.625
17691TIP3    H152958   5.131   1.856   8.710
17691TIP3    H252959   5.027   1.788   8.626
17692TIP3   OH252960   5.848   1.918   7.883
17692TIP3    H152961   5.907   1.848   7.846
17692TIP3    H252962   5.883   1.928   7.974
17693TIP3   OH252963   5.897   1.967   8.153
17693TIP3    H152964   5.810   1.975   8.196
17693TIP3    H252965   5.950   1.926   8.223
17694TIP3   OH252966   6.681   1.243   9.412
17694TIP3    H152967   6.591   1.270   9.392
17694TIP3    H252968   6.670   1.157   9.453
17695TIP3   OH252969   6.327   1.072   9.419
17695TIP3    H152970   6.393   1.071   9.491
17695TIP3    H252971   6.356   1.149   9.365
17696TIP3   OH252972   6.103   1.129   7.909
17696TIP3    H152973   6.066   1.111   7.821
17696TIP3    H252974   6.172   1.194   7.887
17697TIP3   OH252975   5.642   0.989   9.208
17697TIP3    H152976   5.580   0.998   9.282
17697TIP3    H252977   5.616   1.067   9.154
17698TIP3   OH252978   5.469   0.888   8.768
17698TIP3    H152979   5.392   0.836   8.797
17698TIP3    H252980   5.492   0.843   8.684
17699TIP3   OH252981   5.978   0.958   8.498
17699TIP3    H152982   5.922   1.029   8.459
17699TIP3    H252983   6.022   0.923   8.418
17700TIP3   OH252984   6.135   0.982   8.737
17700TIP3    H152985   6.075   1.015   8.667
17700TIP3    H252986   6.161   0.898   8.698
17701TIP3   OH252987   6.143   1.235   9.163
17701TIP3    H152988   6.176   1.165   9.102
17701TIP3    H252989   6.107   1.180   9.235
17702TIP3   OH252990   5.238   0.742   8.847
17702TIP3    H152991   5.144   0.757   8.823
17702TIP3    H252992   5.249   0.650   8.820
17703TIP3   OH252993   5.529   0.768   8.527
17703TIP3    H152994   5.609   0.733   8.486
17703TIP3    H252995   5.465   0.760   8.453
17704TIP3   OH252996   5.343   0.781   8.313
17704TIP3    H152997   5.280   0.728   8.260
17704TIP3    H252998   5.404   0.809   8.242
17705TIP3   OH252999   6.473   2.452   9.253
17705TIP3    H153000   6.468   2.476   9.159
17705TIP3    H253001   6.551   2.503   9.282
17706TIP3   OH253002   5.897   1.023   8.930
17706TIP3    H153003   5.954   0.965   8.877
17706TIP3    H253004   5.897   0.975   9.016
17707TIP3   OH253005   5.902   0.903   9.180
17707TIP3    H153006   5.808   0.927   9.194
17707TIP3    H253007   5.947   0.953   9.251
17708TIP3   OH253008   5.606   1.304   8.317
17708TIP3    H153009   5.535   1.237   8.306
17708TIP3    H253010   5.587   1.337   8.408
17709TIP3   OH253011   6.507   1.538   8.947
17709TIP3    H153012   6.531   1.587   8.866
17709TIP3    H253013   6.421   1.498   8.922
17710TIP3   OH253014   6.006   1.620   9.310
17710TIP3    H153015   6.012   1.588   9.401
17710TIP3    H253016   5.967   1.709   9.319
17711TIP3   OH253017   6.125   0.834   8.271
17711TIP3    H153018   6.222   0.848   8.283
17711TIP3    H253019   6.100   0.914   8.221
17712TIP3   OH253020   5.299   1.335   8.982
17712TIP3    H153021   5.338   1.303   8.898
17712TIP3    H253022   5.333   1.270   9.046
17713TIP3   OH253023   5.751   1.454   8.139
17713TIP3    H153024   5.704   1.540   8.146
17713TIP3    H253025   5.696   1.398   8.197
17714TIP3   OH253026   6.164   1.876   9.196
17714TIP3    H153027   6.069   1.874   9.214
17714TIP3    H253028   6.197   1.928   9.273
17715TIP3   OH253029   6.581   0.948   8.114
17715TIP3    H153030   6.520   0.901   8.053
17715TIP3    H253031   6.575   1.038   8.073
17716TIP3   OH253032   6.792   1.809   9.198
17716TIP3    H153033   6.694   1.805   9.188
17716TIP3    H253034   6.819   1.781   9.107
17717TIP3   OH253035   6.267   1.773   8.023
17717TIP3    H153036   6.253   1.701   8.086
17717TIP3    H253037   6.289   1.727   7.940
17718TIP3   OH253038   6.271   1.401   8.867
17718TIP3    H153039   6.177   1.375   8.878
17718TIP3    H253040   6.306   1.322   8.821
17719TIP3   OH253041   5.397   1.631   8.624
17719TIP3    H153042   5.401   1.710   8.566
17719TIP3    H253043   5.303   1.610   8.620
17720TIP3   OH253044   4.964   0.930   8.321
17720TIP3    H153045   5.011   1.014   8.335
17720TIP3    H253046   4.886   0.942   8.378
17721TIP3   OH253047   5.540   1.398   8.564
17721TIP3    H153048   5.503   1.486   8.584
17721TIP3    H253049   5.501   1.344   8.636
17722TIP3   OH253050   5.667   1.973   9.088
17722TIP3    H153051   5.704   2.047   9.034
17722TIP3    H253052   5.747   1.940   9.130
17723TIP3   OH253053   5.319   1.868   8.472
17723TIP3    H153054   5.232   1.877   8.515
17723TIP3    H253055   5.350   1.961   8.473
17724TIP3   OH253056   6.057   1.608   9.042
17724TIP3    H153057   6.050   1.605   9.140
17724TIP3    H253058   6.136   1.553   9.027
17725TIP3   OH253059   6.029   1.494   7.926
17725TIP3    H153060   6.080   1.474   8.008
17725TIP3    H253061   5.939   1.473   7.956
17726TIP3   OH253062   6.304   2.143   9.096
17726TIP3    H153063   6.226   2.086   9.085
17726TIP3    H253064   6.290   2.207   9.022
17727TIP3   OH253065   6.367   1.976   7.741
17727TIP3    H153066   6.412   2.051   7.699
17727TIP3    H253067   6.287   2.023   7.774
17728TIP3   OH253068   6.189   1.432   8.144
17728TIP3    H153069   6.180   1.367   8.216
17728TIP3    H253070   6.286   1.432   8.132
17729TIP3   OH253071   5.103   1.850   9.230
17729TIP3    H153072   5.153   1.768   9.237
17729TIP3    H253073   5.147   1.904   9.298
17730TIP3   OH253074   5.398   1.480   7.929
17730TIP3    H153075   5.407   1.388   7.898
17730TIP3    H253076   5.374   1.466   8.022
17731TIP3   OH253077   5.339   1.490   8.203
17731TIP3    H153078   5.412   1.458   8.258
17731TIP3    H253079   5.348   1.587   8.209
17732TIP3   OH253080   5.077   1.179   8.401
17732TIP3    H153081   5.012   1.226   8.456
17732TIP3    H253082   5.094   1.246   8.332
17733TIP3   OH253083   5.609   1.685   8.150
17733TIP3    H153084   5.521   1.713   8.184
17733TIP3    H253085   5.624   1.753   8.083
17734TIP3   OH253086   5.826   0.737   8.564
17734TIP3    H153087   5.861   0.826   8.543
17734TIP3    H253088   5.769   0.754   8.640
17735TIP3   OH253089   6.055   1.064   9.360
17735TIP3    H153090   6.065   1.111   9.444
17735TIP3    H253091   6.143   1.023   9.352
17736TIP3   OH253092   5.352   1.762   8.216
17736TIP3    H153093   5.321   1.830   8.152
17736TIP3    H253094   5.335   1.806   8.301
17737TIP3   OH253095   6.357   1.164   8.738
17737TIP3    H153096   6.284   1.102   8.752
17737TIP3    H253097   6.431   1.120   8.785
17738TIP3   OH253098   5.066   1.396   8.211
17738TIP3    H153099   5.137   1.463   8.215
17738TIP3    H253100   5.110   1.334   8.147
17739TIP3   OH253101   5.000   0.649   8.327
17739TIP3    H153102   5.029   0.742   8.326
17739TIP3    H253103   4.908   0.658   8.351
17740TIP3   OH253104   6.324   2.115   8.689
17740TIP3    H153105   6.282   2.162   8.614
17740TIP3    H253106   6.418   2.133   8.668
17741TIP3   OH253107   4.944   1.608   8.600
17741TIP3    H153108   4.866   1.638   8.648
17741TIP3    H253109   4.924   1.643   8.510
17742TIP3   OH253110   5.560   1.685   7.842
17742TIP3    H153111   5.503   1.614   7.880
17742TIP3    H253112   5.634   1.631   7.810
17743TIP3   OH253113   6.227   2.012   9.421
17743TIP3    H153114   6.222   1.968   9.508
17743TIP3    H253115   6.299   2.077   9.439
17744TIP3   OH253116   5.996   1.726   7.750
17744TIP3    H153117   6.045   1.667   7.810
17744TIP3    H253118   6.053   1.730   7.672
17745TIP3   OH253119   5.213   1.218   8.074
17745TIP3    H153120   5.267   1.163   8.132
17745TIP3    H253121   5.264   1.213   7.991
17746TIP3   OH253122   5.716   1.403   7.868
17746TIP3    H153123   5.714   1.415   7.965
17746TIP3    H253124   5.712   1.305   7.863
17747TIP3   OH253125   6.328   1.645   9.246
17747TIP3    H153126   6.400   1.691   9.199
17747TIP3    H253127   6.254   1.706   9.230
17748TIP3   OH253128   5.422   1.100   8.289
17748TIP3    H153129   5.390   1.056   8.369
17748TIP3    H253130   5.451   1.024   8.235
17749TIP3   OH253131   5.512   0.895   8.123
17749TIP3    H153132   5.483   0.905   8.030
17749TIP3    H253133   5.608   0.907   8.115
17750TIP3   OH253134   6.341   1.229   7.782
17750TIP3    H153135   6.312   1.186   7.699
17750TIP3    H253136   6.309   1.321   7.763
17751TIP3   OH253137   5.843   1.279   9.326
17751TIP3    H153138   5.916   1.288   9.263
17751TIP3    H253139   5.778   1.343   9.289
17752TIP3   OH253140   6.470   1.492   9.418
17752TIP3    H153141   6.407   1.550   9.369
17752TIP3    H253142   6.555   1.521   9.380
17753TIP3   OH253143   5.320   1.963   8.029
17753TIP3    H153144   5.415   1.959   8.008
17753TIP3    H253145   5.288   2.009   7.949
17754TIP3   OH253146   4.801   1.340   8.253
17754TIP3    H153147   4.894   1.364   8.231
17754TIP3    H253148   4.792   1.253   8.206
17755TIP3   OH253149   4.714   1.954   8.655
17755TIP3    H153150   4.647   1.893   8.620
17755TIP3    H253151   4.758   1.898   8.723
17756TIP3   OH253152   4.845   1.809   8.845
17756TIP3    H153153   4.841   1.733   8.906
17756TIP3    H253154   4.904   1.868   8.894
17757TIP3   OH253155   6.577   2.205   8.645
17757TIP3    H153156   6.607   2.245   8.728
17757TIP3    H253157   6.635   2.246   8.579
17758TIP3   OH253158   6.606   2.230   8.929
17758TIP3    H153159   6.564   2.142   8.919
17758TIP3    H253160   6.683   2.205   8.983
17759TIP3   OH253161   6.658   1.907   9.496
17759TIP3    H153162   6.566   1.920   9.520
17759TIP3    H253163   6.694   1.998   9.496
17760TIP3   OH253164   6.472   1.414   8.117
17760TIP3    H153165   6.537   1.482   8.090
17760TIP3    H253166   6.514   1.378   8.197
17761TIP3   OH253167   6.599   1.280   8.321
17761TIP3    H153168   6.532   1.241   8.381
17761TIP3    H253169   6.661   1.323   8.383
17762TIP3   OH253170   6.652   1.675   8.758
17762TIP3    H153171   6.702   1.612   8.703
17762TIP3    H253172   6.645   1.753   8.698
17763TIP3   OH253173   6.483   1.976   8.952
17763TIP3    H153174   6.411   2.020   9.001
17763TIP3    H253175   6.434   1.929   8.881
17764TIP3   OH253176   6.533   1.186   7.970
17764TIP3    H153177   6.464   1.199   7.901
17764TIP3    H253178   6.512   1.264   8.027
17765TIP3   OH253179   6.417   0.857   7.913
17765TIP3    H153180   6.373   0.935   7.877
17765TIP3    H253181   6.362   0.786   7.876
17766TIP3   OH253182   6.413   1.140   8.472
17766TIP3    H153183   6.419   1.044   8.477
17766TIP3    H253184   6.397   1.163   8.567
17767TIP3   OH253185   5.057   1.257   9.177
17767TIP3    H153186   5.052   1.202   9.096
17767TIP3    H253187   5.147   1.236   9.209
17768TIP3   OH253188   6.714   1.562   9.320
17768TIP3    H153189   6.787   1.499   9.306
17768TIP3    H253190   6.737   1.637   9.262
17769TIP3   OH253191   6.912   1.363   9.344
17769TIP3    H153192   6.823   1.330   9.370
17769TIP3    H253193   6.965   1.292   9.383
17770TIP3   OH253194   6.395   0.853   8.314
17770TIP3    H153195   6.440   0.819   8.395
17770TIP3    H253196   6.468   0.896   8.266
17771TIP3   OH253197   6.575   1.058   8.861
17771TIP3    H153198   6.665   1.070   8.824
17771TIP3    H253199   6.590   1.083   8.953
17772TIP3   OH253200   6.635   1.180   9.102
17772TIP3    H153201   6.556   1.218   9.146
17772TIP3    H253202   6.669   1.257   9.051
17773TIP3   OH253203   6.160   2.075   8.304
17773TIP3    H153204   6.207   2.056   8.220
17773TIP3    H253205   6.219   2.140   8.344
17774TIP3   OH253206   5.440   1.909   9.233
17774TIP3    H153207   5.392   1.985   9.194
17774TIP3    H253208   5.526   1.923   9.188
17775TIP3   OH253209   5.882   2.151   9.350
17775TIP3    H153210   5.929   2.143   9.436
17775TIP3    H253211   5.948   2.202   9.298
17776TIP3   OH253212   6.063   2.303   9.220
17776TIP3    H153213   6.136   2.253   9.181
17776TIP3    H253214   6.113   2.365   9.278
17777TIP3   OH253215   5.125   2.170   9.257
17777TIP3    H153216   5.038   2.203   9.226
17777TIP3    H253217   5.117   2.185   9.351
17778TIP3   OH253218   5.356   2.143   9.114
17778TIP3    H153219   5.270   2.159   9.160
17778TIP3    H253220   5.335   2.178   9.025
17779TIP3   OH253221   5.777   2.174   8.916
17779TIP3    H153222   5.711   2.194   8.847
17779TIP3    H253223   5.792   2.262   8.955
17780TIP3   OH253224   6.047   2.115   8.966
17780TIP3    H153225   5.953   2.130   8.945
17780TIP3    H253226   6.090   2.190   8.921
17781TIP3   OH253227   6.257   2.307   8.880
17781TIP3    H153228   6.241   2.391   8.833
17781TIP3    H253229   6.281   2.247   8.806
17782TIP3   OH253230   5.023   1.962   8.994
17782TIP3    H153231   5.049   1.941   9.086
17782TIP3    H253232   5.099   1.921   8.946
17783TIP3   OH253233   5.221   1.832   8.860
17783TIP3    H153234   5.240   1.748   8.906
17783TIP3    H253235   5.311   1.870   8.853
17784TIP3   OH253236   5.486   1.928   8.861
17784TIP3    H153237   5.520   1.839   8.844
17784TIP3    H253238   5.531   1.948   8.946
17785TIP3   OH253239   4.814   1.733   8.398
17785TIP3    H153240   4.732   1.699   8.359
17785TIP3    H253241   4.804   1.827   8.377
17786TIP3   OH253242   5.588   1.922   7.976
17786TIP3    H153243   5.677   1.944   7.940
17786TIP3    H253244   5.566   1.847   7.917
17787TIP3   OH253245   6.298   2.040   8.071
17787TIP3    H153246   6.296   1.942   8.055
17787TIP3    H253247   6.262   2.073   7.987
17788TIP3   OH253248   4.894   1.762   8.034
17788TIP3    H153249   4.896   1.785   8.128
17788TIP3    H253250   4.980   1.717   8.022
17789TIP3   OH253251   6.540   2.186   9.248
17789TIP3    H153252   6.459   2.152   9.203
17789TIP3    H253253   6.518   2.281   9.251
17790TIP3   OH253254   7.798   1.558   8.027
17790TIP3    H153255   7.771   1.649   8.001
17790TIP3    H253256   7.724   1.508   7.990
17791TIP3   OH253257   7.804   1.548   8.409
17791TIP3    H153258   7.800   1.485   8.482
17791TIP3    H253259   7.760   1.496   8.340
17792TIP3   OH253260   7.098   1.459   8.767
17792TIP3    H153261   7.134   1.386   8.820
17792TIP3    H253262   7.178   1.509   8.749
17793TIP3   OH253263   8.043   1.856   8.085
17793TIP3    H153264   8.026   1.789   8.153
17793TIP3    H253265   8.069   1.933   8.139
17794TIP3   OH253266   7.073   1.859   8.504
17794TIP3    H153267   7.062   1.762   8.501
17794TIP3    H253268   7.169   1.866   8.486
17795TIP3   OH253269   6.771   1.054   8.288
17795TIP3    H153270   6.725   1.139   8.302
17795TIP3    H253271   6.706   1.009   8.229
17796TIP3   OH253272   6.838   1.350   8.451
17796TIP3    H153273   6.889   1.275   8.488
17796TIP3    H253274   6.896   1.381   8.380
17797TIP3   OH253275   7.691   2.321   8.099
17797TIP3    H153276   7.740   2.249   8.054
17797TIP3    H253277   7.676   2.283   8.187
17798TIP3   OH253278   7.596   1.783   8.453
17798TIP3    H153279   7.625   1.706   8.403
17798TIP3    H253280   7.682   1.825   8.471
17799TIP3   OH253281   6.984   1.142   8.558
17799TIP3    H153282   7.063   1.114   8.609
17799TIP3    H253283   6.999   1.089   8.478
17800TIP3   OH253284   7.424   1.343   8.355
17800TIP3    H153285   7.514   1.308   8.370
17800TIP3    H253286   7.377   1.262   8.323
17801TIP3   OH253287   7.698   1.780   7.890
17801TIP3    H153288   7.647   1.753   7.812
17801TIP3    H253289   7.652   1.863   7.914
17802TIP3   OH253290   7.455   1.700   8.685
17802TIP3    H153291   7.388   1.763   8.721
17802TIP3    H253292   7.489   1.751   8.609
17803TIP3   OH253293   7.220   1.044   8.654
17803TIP3    H153294   7.283   1.112   8.685
17803TIP3    H253295   7.265   1.009   8.577
17804TIP3   OH253296   7.280   1.895   8.780
17804TIP3    H153297   7.250   1.977   8.735
17804TIP3    H253298   7.200   1.878   8.835
17805TIP3   OH253299   6.674   1.587   8.015
17805TIP3    H153300   6.634   1.615   7.931
17805TIP3    H253301   6.705   1.673   8.052
17806TIP3   OH253302   8.119   2.099   8.251
17806TIP3    H153303   8.030   2.090   8.291
17806TIP3    H253304   8.110   2.187   8.208
17807TIP3   OH253305   7.823   2.147   7.935
17807TIP3    H153306   7.870   2.065   7.908
17807TIP3    H253307   7.879   2.213   7.889
17808TIP3   OH253308   7.961   1.931   7.831
17808TIP3    H153309   7.908   1.856   7.800
17808TIP3    H253310   7.995   1.896   7.916
17809TIP3   OH253311   7.633   1.408   7.855
17809TIP3    H153312   7.550   1.457   7.837
17809TIP3    H253313   7.674   1.405   7.767
17810TIP3   OH253314   7.584   1.195   7.573
17810TIP3    H153315   7.656   1.240   7.620
17810TIP3    H253316   7.635   1.127   7.525
17811TIP3   OH253317   7.976   1.492   7.826
17811TIP3    H153318   7.921   1.517   7.904
17811TIP3    H253319   8.058   1.463   7.870
17812TIP3   OH253320   7.211   1.488   8.241
17812TIP3    H153321   7.168   1.431   8.174
17812TIP3    H253322   7.286   1.431   8.269
17813TIP3   OH253323   7.335   1.896   8.392
17813TIP3    H153324   7.311   1.860   8.305
17813TIP3    H253325   7.426   1.862   8.405
17814TIP3   OH253326   7.346   1.457   8.600
17814TIP3    H153327   7.377   1.434   8.510
17814TIP3    H253328   7.391   1.542   8.618
17815TIP3   OH253329   7.880   2.101   8.373
17815TIP3    H153330   7.848   2.179   8.421
17815TIP3    H253331   7.857   2.025   8.431
17816TIP3   OH253332   7.483   2.018   8.915
17816TIP3    H153333   7.425   2.083   8.962
17816TIP3    H253334   7.415   1.972   8.860
17817TIP3   OH253335   7.822   1.338   7.655
17817TIP3    H153336   7.880   1.397   7.708
17817TIP3    H253337   7.848   1.364   7.563
17818TIP3   OH253338   7.232   1.573   9.020
17818TIP3    H153339   7.237   1.658   9.067
17818TIP3    H253340   7.136   1.556   9.025
17819TIP3   OH253341   7.565   2.025   7.926
17819TIP3    H153342   7.635   2.088   7.948
17819TIP3    H253343   7.495   2.082   7.891
17820TIP3   OH253344   7.280   2.180   9.007
17820TIP3    H153345   7.243   2.182   8.917
17820TIP3    H253346   7.200   2.161   9.062
17821TIP3   OH253347   7.078   1.337   8.043
17821TIP3    H153348   7.008   1.378   7.988
17821TIP3    H253349   7.042   1.250   8.060
17822TIP3   OH253350   8.132   1.957   7.245
17822TIP3    H153351   8.138   2.054   7.235
17822TIP3    H253352   8.226   1.930   7.235
17823TIP3   OH253353   6.857   1.714   8.954
17823TIP3    H153354   6.791   1.695   8.884
17823TIP3    H253355   6.893   1.625   8.972
17824TIP3   OH253356   6.713   1.901   8.598
17824TIP3    H153357   6.806   1.905   8.575
17824TIP3    H253358   6.698   1.989   8.638
17825TIP3   OH253359   7.692   2.138   8.788
17825TIP3    H153360   7.679   2.235   8.802
17825TIP3    H253361   7.610   2.103   8.831
17826TIP3   OH253362   7.447   2.278   7.727
17826TIP3    H153363   7.392   2.256   7.650
17826TIP3    H253364   7.409   2.364   7.755
17827TIP3   OH253365   6.860   2.134   8.125
17827TIP3    H153366   6.924   2.114   8.197
17827TIP3    H253367   6.824   2.046   8.107
17828TIP3   OH253368   7.648   2.178   7.368
17828TIP3    H153369   7.706   2.106   7.334
17828TIP3    H253370   7.678   2.185   7.461
17829TIP3   OH253371   7.696   2.222   7.638
17829TIP3    H153372   7.606   2.235   7.676
17829TIP3    H253373   7.740   2.178   7.712
17830TIP3   OH253374   7.060   1.898   8.940
17830TIP3    H153375   7.108   1.878   9.024
17830TIP3    H253376   6.985   1.834   8.946
17831TIP3   OH253377   7.898   1.390   7.397
17831TIP3    H153378   7.863   1.367   7.309
17831TIP3    H253379   7.969   1.452   7.375
17832TIP3   OH253380   7.400   1.228   8.744
17832TIP3    H153381   7.350   1.252   8.824
17832TIP3    H253382   7.387   1.310   8.690
17833TIP3   OH253383   7.266   1.144   8.254
17833TIP3    H153384   7.187   1.094   8.284
17833TIP3    H253385   7.288   1.095   8.171
17834TIP3   OH253386   7.772   1.212   7.985
17834TIP3    H153387   7.718   1.284   7.945
17834TIP3    H253388   7.819   1.177   7.907
17835TIP3   OH253389   7.942   1.246   8.206
17835TIP3    H153390   7.876   1.268   8.137
17835TIP3    H253391   7.945   1.150   8.197
17836TIP3   OH253392   7.204   1.270   8.942
17836TIP3    H153393   7.207   1.342   9.007
17836TIP3    H253394   7.146   1.203   8.982
17837TIP3   OH253395   7.035   0.999   8.328
17837TIP3    H153396   6.940   1.017   8.306
17837TIP3    H253397   7.040   0.904   8.310
17838TIP3   OH253398   7.322   1.013   8.018
17838TIP3    H153399   7.409   0.996   7.979
17838TIP3    H253400   7.262   1.012   7.940
17839TIP3   OH253401   7.143   1.028   7.796
17839TIP3    H153402   7.077   0.987   7.738
17839TIP3    H253403   7.203   1.066   7.729
17840TIP3   OH253404   8.268   2.741   8.740
17840TIP3    H153405   8.249   2.745   8.644
17840TIP3    H253406   8.335   2.813   8.742
17841TIP3   OH253407   7.216   1.817   9.154
17841TIP3    H153408   7.296   1.859   9.186
17841TIP3    H253409   7.157   1.820   9.232
17842TIP3   OH253410   7.699   1.277   8.433
17842TIP3    H153411   7.754   1.216   8.383
17842TIP3    H253412   7.689   1.230   8.518
17843TIP3   OH253413   7.671   1.168   8.708
17843TIP3    H153414   7.576   1.191   8.717
17843TIP3    H253415   7.709   1.214   8.785
17844TIP3   OH253416   7.407   1.557   7.807
17844TIP3    H153417   7.331   1.496   7.793
17844TIP3    H253418   7.385   1.594   7.896
17845TIP3   OH253419   8.296   1.777   8.427
17845TIP3    H153420   8.331   1.828   8.353
17845TIP3    H253421   8.209   1.747   8.394
17846TIP3   OH253422   7.826   1.892   8.790
17846TIP3    H153423   7.811   1.837   8.868
17846TIP3    H253424   7.766   1.968   8.803
17847TIP3   OH253425   7.918   1.095   7.762
17847TIP3    H153426   8.015   1.108   7.769
17847TIP3    H253427   7.892   1.172   7.707
17848TIP3   OH253428   7.095   1.581   8.479
17848TIP3    H153429   7.131   1.555   8.391
17848TIP3    H253430   7.133   1.514   8.537
17849TIP3   OH253431   7.544   1.713   7.625
17849TIP3    H153432   7.496   1.799   7.632
17849TIP3    H253433   7.489   1.657   7.685
17850TIP3   OH253434   6.969   1.493   9.089
17850TIP3    H153435   6.975   1.472   9.184
17850TIP3    H253436   6.894   1.438   9.061
17851TIP3   OH253437   7.984   2.152   8.721
17851TIP3    H153438   7.904   2.113   8.684
17851TIP3    H253439   7.947   2.194   8.799
17852TIP3   OH253440   8.378   1.207   7.599
17852TIP3    H153441   8.319   1.158   7.538
17852TIP3    H253442   8.371   1.296   7.560
17853TIP3   OH253443   8.077   2.028   7.514
17853TIP3    H153444   8.045   1.963   7.577
17853TIP3    H253445   8.082   1.978   7.430
17854TIP3   OH253446   8.052   1.660   8.343
17854TIP3    H153447   7.963   1.625   8.362
17854TIP3    H253448   8.094   1.581   8.304
17855TIP3   OH253449   7.192   1.882   8.112
17855TIP3    H153450   7.193   1.970   8.068
17855TIP3    H253451   7.099   1.860   8.099
17856TIP3   OH253452   6.759   1.187   7.807
17856TIP3    H153453   6.806   1.272   7.824
17856TIP3    H253454   6.682   1.197   7.867
17857TIP3   OH253455   7.338   1.655   8.052
17857TIP3    H153456   7.298   1.743   8.067
17857TIP3    H253457   7.296   1.603   8.123
17858TIP3   OH253458   7.462   2.231   8.573
17858TIP3    H153459   7.494   2.305   8.519
17858TIP3    H253460   7.543   2.205   8.620
17859TIP3   OH253461   7.138   2.123   7.993
17859TIP3    H153462   7.054   2.097   7.950
17859TIP3    H253463   7.145   2.217   7.968
17860TIP3   OH253464   7.858   1.870   8.524
17860TIP3    H153465   7.850   1.863   8.622
17860TIP3    H253466   7.923   1.801   8.502
17861TIP3   OH253467   7.827   1.752   7.409
17861TIP3    H153468   7.876   1.730   7.491
17861TIP3    H253469   7.736   1.731   7.438
17862TIP3   OH253470   8.092   2.407   8.582
17862TIP3    H153471   8.015   2.350   8.564
17862TIP3    H253472   8.089   2.466   8.503
17863TIP3   OH253473   8.166   2.233   7.234
17863TIP3    H153474   8.203   2.306   7.182
17863TIP3    H253475   8.086   2.277   7.269
17864TIP3   OH253476   7.982   1.687   7.627
17864TIP3    H153477   7.974   1.624   7.701
17864TIP3    H253478   8.080   1.690   7.616
17865TIP3   OH253479   6.903   2.096   8.733
17865TIP3    H153480   6.951   2.017   8.761
17865TIP3    H253481   6.933   2.161   8.798
17866TIP3   OH253482   7.199   1.738   7.409
17866TIP3    H153483   7.207   1.643   7.388
17866TIP3    H253484   7.184   1.736   7.506
17867TIP3   OH253485   7.151   1.753   7.677
17867TIP3    H153486   7.191   1.723   7.759
17867TIP3    H253487   7.088   1.821   7.711
17868TIP3   OH253488   6.871   1.436   7.888
17868TIP3    H153489   6.808   1.483   7.946
17868TIP3    H253490   6.883   1.506   7.820
17869TIP3   OH253491   7.408   1.949   7.635
17869TIP3    H153492   7.324   1.970   7.679
17869TIP3    H253493   7.414   2.020   7.570
17870TIP3   OH253494   7.616   0.995   8.048
17870TIP3    H153495   7.657   1.082   8.030
17870TIP3    H253496   7.571   1.011   8.132
17871TIP3   OH253497   8.156   1.413   8.233
17871TIP3    H153498   8.072   1.362   8.227
17871TIP3    H253499   8.210   1.353   8.289
17872TIP3   OH253500   6.857   1.646   7.705
17872TIP3    H153501   6.876   1.739   7.732
17872TIP3    H253502   6.923   1.632   7.635
17873TIP3   OH253503   6.786   0.898   7.812
17873TIP3    H153504   6.824   0.988   7.812
17873TIP3    H253505   6.702   0.915   7.855
17874TIP3   OH253506   8.120   2.371   8.176
17874TIP3    H153507   8.077   2.417   8.100
17874TIP3    H253508   8.214   2.388   8.154
17875TIP3   OH253509   6.753   1.859   8.086
17875TIP3    H153510   6.666   1.902   8.080
17875TIP3    H253511   6.787   1.880   7.996
17876TIP3   OH253512   6.892   2.400   9.155
17876TIP3    H153513   6.977   2.399   9.203
17876TIP3    H253514   6.870   2.305   9.153
17877TIP3   OH253515   7.372   2.374   9.188
17877TIP3    H153516   7.460   2.345   9.215
17877TIP3    H253517   7.351   2.309   9.118
17878TIP3   OH253518   7.357   1.942   7.325
17878TIP3    H153519   7.296   1.876   7.365
17878TIP3    H253520   7.429   1.884   7.298
17879TIP3   OH253521   7.794   1.982   7.237
17879TIP3    H153522   7.837   1.917   7.295
17879TIP3    H253523   7.852   1.984   7.158
17880TIP3   OH253524   7.024   1.815   9.348
17880TIP3    H153525   7.038   1.722   9.372
17880TIP3    H253526   6.935   1.813   9.307
17881TIP3   OH253527   7.002   1.453   7.540
17881TIP3    H153528   7.052   1.429   7.619
17881TIP3    H253529   7.075   1.466   7.475
17882TIP3   OH253530   7.516   1.830   9.114
17882TIP3    H153531   7.491   1.876   9.031
17882TIP3    H253532   7.560   1.750   9.078
17883TIP3   OH253533   7.516   1.660   7.354
17883TIP3    H153534   7.509   1.675   7.451
17883TIP3    H253535   7.508   1.562   7.351
17884TIP3   OH253536   7.156   1.539   9.344
17884TIP3    H153537   7.147   1.443   9.342
17884TIP3    H253538   7.130   1.560   9.436
17885TIP3   OH253539   7.212   1.360   7.771
17885TIP3    H153540   7.182   1.325   7.856
17885TIP3    H253541   7.243   1.280   7.724
17886TIP3   OH253542   7.459   1.414   8.991
17886TIP3    H153543   7.393   1.486   8.994
17886TIP3    H253544   7.520   1.446   8.922
17887TIP3   OH253545   7.307   1.147   7.610
17887TIP3    H153546   7.280   1.163   7.517
17887TIP3    H253547   7.404   1.161   7.603
17888TIP3   OH253548   8.140   1.489   7.265
17888TIP3    H153549   8.109   1.442   7.184
17888TIP3    H253550   8.101   1.578   7.249
17889TIP3   OH253551   7.634   1.505   8.763
17889TIP3    H153552   7.720   1.543   8.741
17889TIP3    H253553   7.572   1.576   8.738
17890TIP3   OH253554   7.120   2.228   7.509
17890TIP3    H153555   7.215   2.218   7.491
17890TIP3    H253556   7.089   2.269   7.427
17891TIP3   OH253557   6.593   1.597   7.733
17891TIP3    H153558   6.687   1.622   7.723
17891TIP3    H253559   6.592   1.510   7.689
17892TIP3   OH253560   6.503   2.215   8.146
17892TIP3    H153561   6.444   2.148   8.106
17892TIP3    H253562   6.553   2.159   8.209
17893TIP3   OH253563   6.633   2.074   8.338
17893TIP3    H153564   6.635   1.988   8.383
17893TIP3    H253565   6.696   2.126   8.390
17894TIP3   OH253566   8.377   2.454   8.132
17894TIP3    H153567   8.394   2.497   8.218
17894TIP3    H253568   8.420   2.515   8.070
17895TIP3   OH253569   8.403   2.488   8.416
17895TIP3    H153570   8.365   2.398   8.412
17895TIP3    H253571   8.491   2.471   8.455
17896TIP3   OH253572   8.259   1.683   7.591
17896TIP3    H153573   8.334   1.742   7.574
17896TIP3    H253574   8.291   1.637   7.673
17897TIP3   OH253575   8.358   1.540   7.792
17897TIP3    H153576   8.307   1.491   7.861
17897TIP3    H253577   8.436   1.572   7.841
17898TIP3   OH253578   8.441   1.921   8.231
17898TIP3    H153579   8.480   1.884   8.152
17898TIP3    H253580   8.411   2.007   8.199
17899TIP3   OH253581   8.283   2.241   8.438
17899TIP3    H153582   8.203   2.270   8.484
17899TIP3    H253583   8.246   2.177   8.374
17900TIP3   OH253584   8.331   1.447   7.458
17900TIP3    H153585   8.261   1.455   7.389
17900TIP3    H253586   8.306   1.522   7.515
17901TIP3   OH253587   8.213   1.116   7.402
17901TIP3    H153588   8.164   1.182   7.352
17901TIP3    H253589   8.170   1.034   7.375
17902TIP3   OH253590   8.202   1.394   7.962
17902TIP3    H153591   8.205   1.298   7.956
17902TIP3    H253592   8.192   1.410   8.059
17903TIP3   OH253593   6.833   1.465   8.704
17903TIP3    H153594   6.831   1.439   8.610
17903TIP3    H253595   6.930   1.473   8.718
17904TIP3   OH253596   8.187   1.123   7.790
17904TIP3    H153597   8.226   1.086   7.872
17904TIP3    H253598   8.266   1.154   7.741
17905TIP3   OH253599   6.828   1.127   8.785
17905TIP3    H153600   6.873   1.117   8.699
17905TIP3    H253601   6.847   1.219   8.805
17906TIP3   OH253602   7.962   2.326   7.790
17906TIP3    H153603   8.011   2.314   7.706
17906TIP3    H253604   8.008   2.401   7.830
17907TIP3   OH253605   7.064   2.128   9.182
17907TIP3    H153606   6.971   2.104   9.160
17907TIP3    H253607   7.065   2.114   9.278
17908TIP3   OH253608   7.238   2.167   8.724
17908TIP3    H153609   7.184   2.239   8.685
17908TIP3    H253610   7.321   2.183   8.675
17909TIP3   OH253611   7.667   2.407   8.829
17909TIP3    H153612   7.701   2.399   8.922
17909TIP3    H253613   7.737   2.463   8.789
17910TIP3   OH253614   7.862   2.557   8.718
17910TIP3    H153615   7.931   2.522   8.659
17910TIP3    H253616   7.915   2.615   8.777
17911TIP3   OH253617   6.916   2.424   8.746
17911TIP3    H153618   6.827   2.456   8.718
17911TIP3    H253619   6.919   2.459   8.836
17912TIP3   OH253620   7.151   2.403   8.603
17912TIP3    H153621   7.065   2.415   8.648
17912TIP3    H253622   7.130   2.434   8.512
17913TIP3   OH253623   7.577   2.430   8.400
17913TIP3    H153624   7.506   2.447   8.334
17913TIP3    H253625   7.587   2.519   8.440
17914TIP3   OH253626   7.842   2.371   8.454
17914TIP3    H153627   7.747   2.387   8.436
17914TIP3    H253628   7.882   2.445   8.404
17915TIP3   OH253629   8.054   2.563   8.366
17915TIP3    H153630   8.037   2.648   8.319
17915TIP3    H253631   8.076   2.504   8.290
17916TIP3   OH253632   6.823   2.218   8.492
17916TIP3    H153633   6.852   2.191   8.581
17916TIP3    H253634   6.894   2.176   8.438
17917TIP3   OH253635   7.017   2.090   8.352
17917TIP3    H153636   7.037   2.004   8.396
17917TIP3    H253637   7.106   2.126   8.335
17918TIP3   OH253638   7.287   2.190   8.345
17918TIP3    H153639   7.313   2.098   8.326
17918TIP3    H253640   7.325   2.201   8.434
17919TIP3   OH253641   6.576   1.982   7.921
17919TIP3    H153642   6.501   1.966   7.860
17919TIP3    H253643   6.620   2.056   7.877
17920TIP3   OH253644   7.388   2.177   7.462
17920TIP3    H153645   7.475   2.200   7.424
17920TIP3    H253646   7.363   2.104   7.401
17921TIP3   OH253647   8.106   2.296   7.555
17921TIP3    H153648   8.096   2.199   7.542
17921TIP3    H253649   8.057   2.330   7.477
17922TIP3   OH253650   6.694   2.014   7.531
17922TIP3    H153651   6.701   2.039   7.624
17922TIP3    H253652   6.784   1.976   7.516
17923TIP3   OH253653   8.229   2.467   8.808
17923TIP3    H153654   8.181   2.454   8.723
17923TIP3    H253655   8.267   2.556   8.793
17924TIP3   OH253656   8.532   1.304   7.815
17924TIP3    H153657   8.503   1.394   7.794
17924TIP3    H253658   8.506   1.257   7.735
17925TIP3   OH253659   8.602   1.600   7.878
17925TIP3    H153660   8.656   1.537   7.928
17925TIP3    H253661   8.670   1.648   7.831
17926TIP3   OH253662   9.397   2.040   7.437
17926TIP3    H153663   9.379   2.014   7.346
17926TIP3    H253664   9.385   2.138   7.430
17927TIP3   OH253665   8.475   1.844   7.500
17927TIP3    H153666   8.427   1.869   7.419
17927TIP3    H253667   8.500   1.931   7.537
17928TIP3   OH253668   9.382   1.452   7.047
17928TIP3    H153669   9.447   1.487   7.109
17928TIP3    H253670   9.406   1.358   7.042
17929TIP3   OH253671   9.358   2.312   7.419
17929TIP3    H153672   9.400   2.391   7.455
17929TIP3    H253673   9.294   2.350   7.357
17930TIP3   OH253674   8.879   1.597   7.534
17930TIP3    H153675   8.806   1.629   7.478
17930TIP3    H253676   8.855   1.505   7.550
17931TIP3   OH253677   8.502   2.168   8.076
17931TIP3    H153678   8.598   2.182   8.078
17931TIP3    H253679   8.472   2.244   8.128
17932TIP3   OH253680   9.241   2.528   7.221
17932TIP3    H153681   9.196   2.507   7.137
17932TIP3    H253682   9.208   2.618   7.239
17933TIP3   OH253683   8.677   2.381   7.596
17933TIP3    H153684   8.719   2.372   7.684
17933TIP3    H253685   8.612   2.308   7.600
17934TIP3   OH253686   9.442   2.433   6.857
17934TIP3    H153687   9.501   2.363   6.820
17934TIP3    H253688   9.476   2.441   6.948
17935TIP3   OH253689   9.492   2.481   7.126
17935TIP3    H153690   9.403   2.487   7.167
17935TIP3    H253691   9.547   2.448   7.198
17936TIP3   OH253692   9.682   1.663   6.878
17936TIP3    H153693   9.657   1.623   6.793
17936TIP3    H253694   9.758   1.716   6.853
17937TIP3   OH253695   8.904   1.313   7.271
17937TIP3    H153696   8.861   1.247   7.213
17937TIP3    H253697   8.986   1.328   7.221
17938TIP3   OH253698   9.174   1.844   7.290
17938TIP3    H153699   9.126   1.759   7.275
17938TIP3    H253700   9.173   1.851   7.387
17939TIP3   OH253701   9.338   1.967   7.107
17939TIP3    H153702   9.295   2.054   7.118
17939TIP3    H253703   9.283   1.911   7.166
17940TIP3   OH253704   9.898   2.274   6.932
17940TIP3    H153705   9.888   2.261   7.029
17940TIP3    H253706   9.823   2.223   6.900
17941TIP3   OH253707   8.989   2.141   7.571
17941TIP3    H153708   8.987   2.227   7.525
17941TIP3    H253709   8.894   2.126   7.584
17942TIP3   OH253710   8.550   1.449   7.291
17942TIP3    H153711   8.603   1.527   7.316
17942TIP3    H253712   8.477   1.454   7.356
17943TIP3   OH253713   9.137   1.905   7.573
17943TIP3    H153714   9.108   1.997   7.555
17943TIP3    H253715   9.059   1.873   7.621
17944TIP3   OH253716   8.914   2.382   7.448
17944TIP3    H153717   8.825   2.391   7.488
17944TIP3    H253718   8.944   2.476   7.448
17945TIP3   OH253719   9.615   2.025   6.918
17945TIP3    H153720   9.654   1.978   6.992
17945TIP3    H253721   9.523   1.995   6.925
17946TIP3   OH253722   8.707   2.339   8.209
17946TIP3    H153723   8.755   2.260   8.234
17946TIP3    H253724   8.762   2.406   8.255
17947TIP3   OH253725   8.990   1.995   6.902
17947TIP3    H153726   9.002   1.903   6.870
17947TIP3    H253727   8.967   1.979   6.995
17948TIP3   OH253728   8.933   1.997   7.175
17948TIP3    H153729   9.012   1.965   7.222
17948TIP3    H253730   8.941   2.095   7.183
17949TIP3   OH253731   8.670   1.692   7.375
17949TIP3    H153732   8.604   1.737   7.432
17949TIP3    H253733   8.686   1.762   7.308
17950TIP3   OH253734   9.204   2.202   7.134
17950TIP3    H153735   9.113   2.228   7.158
17950TIP3    H253736   9.217   2.258   7.055
17951TIP3   OH253737   8.944   2.272   7.189
17951TIP3    H153738   8.914   2.340   7.124
17951TIP3    H253739   8.925   2.318   7.274
17952TIP3   OH253740   8.660   1.905   7.180
17952TIP3    H153741   8.727   1.976   7.189
17952TIP3    H253742   8.707   1.848   7.115
17953TIP3   OH253743   8.583   1.155   7.294
17953TIP3    H153744   8.629   1.241   7.302
17953TIP3    H253745   8.503   1.173   7.346
17954TIP3   OH253746   8.535   2.118   7.573
17954TIP3    H153747   8.461   2.147   7.628
17954TIP3    H253748   8.510   2.156   7.486
17955TIP3   OH253749   9.155   2.199   6.821
17955TIP3    H153750   9.098   2.124   6.852
17955TIP3    H253751   9.227   2.149   6.777
17956TIP3   OH253752   9.591   2.239   6.736
17956TIP3    H153753   9.626   2.157   6.776
17956TIP3    H253754   9.629   2.239   6.646
17957TIP3   OH253755   8.795   1.717   7.033
17957TIP3    H153756   8.847   1.675   7.104
17957TIP3    H253757   8.863   1.723   6.963
17958TIP3   OH253758   9.307   1.912   6.840
17958TIP3    H153759   9.307   1.924   6.937
17958TIP3    H253760   9.304   1.814   6.835
17959TIP3   OH253761   9.020   1.614   7.264
17959TIP3    H153762   8.976   1.568   7.338
17959TIP3    H253763   9.045   1.539   7.207
17960TIP3   OH253764   9.103   1.411   7.095
17960TIP3    H153765   9.072   1.414   7.003
17960TIP3    H253766   9.199   1.424   7.082
17961TIP3   OH253767   8.912   2.472   7.001
17961TIP3    H153768   9.008   2.473   6.981
17961TIP3    H253769   8.879   2.521   6.924
17962TIP3   OH253770   8.393   1.856   7.213
17962TIP3    H153771   8.488   1.880   7.205
17962TIP3    H253772   8.393   1.767   7.175
17963TIP3   OH253773   8.309   2.467   7.629
17963TIP3    H153774   8.239   2.408   7.594
17963TIP3    H253775   8.351   2.409   7.695
17964TIP3   OH253776   8.446   2.319   7.816
17964TIP3    H153777   8.423   2.249   7.878
17964TIP3    H253778   8.491   2.382   7.874
17965TIP3   OH253779   9.732   2.585   7.308
17965TIP3    H153780   9.765   2.556   7.220
17965TIP3    H253781   9.790   2.662   7.324
17966TIP3   OH253782   8.701   2.739   8.202
17966TIP3    H153783   8.604   2.750   8.191
17966TIP3    H253784   8.705   2.701   8.291
17967TIP3   OH253785   8.924   2.658   8.065
17967TIP3    H153786   8.844   2.704   8.100
17967TIP3    H253787   8.921   2.690   7.973
17968TIP3   OH253788   8.622   2.476   7.975
17968TIP3    H153789   8.642   2.445   8.066
17968TIP3    H253790   8.696   2.433   7.926
17969TIP3   OH253791   8.818   2.348   7.831
17969TIP3    H153792   8.851   2.260   7.853
17969TIP3    H253793   8.902   2.397   7.819
17970TIP3   OH253794   9.079   2.448   7.831
17970TIP3    H153795   9.124   2.363   7.823
17970TIP3    H253796   9.092   2.470   7.924
17971TIP3   OH253797   8.409   2.244   7.370
17971TIP3    H153798   8.324   2.212   7.336
17971TIP3    H253799   8.398   2.339   7.352
17972TIP3   OH253800   9.183   2.437   6.953
17972TIP3    H153801   9.269   2.460   6.913
17972TIP3    H253802   9.159   2.362   6.894
17973TIP3   OH253803   9.832   2.524   7.068
17973TIP3    H153804   9.873   2.448   7.023
17973TIP3    H253805   9.807   2.579   6.990
17974TIP3   OH253806   8.483   2.268   7.007
17974TIP3    H153807   8.482   2.302   7.098
17974TIP3    H253808   8.573   2.229   6.999
17975TIP3   OH253809   2.271   2.956   8.972
17975TIP3    H153810   2.199   2.903   8.938
17975TIP3    H253811   2.260   2.948   9.067
17976TIP3   OH253812   1.843   2.242   8.747
17976TIP3    H153813   1.909   2.291   8.800
17976TIP3    H253814   1.901   2.180   8.700
17977TIP3   OH253815   2.071   2.390   8.836
17977TIP3    H153816   2.123   2.448   8.893
17977TIP3    H253817   2.097   2.420   8.746
17978TIP3   OH253818   2.382   3.001   8.428
17978TIP3    H153819   2.390   3.097   8.411
17978TIP3    H253820   2.474   2.971   8.413
17979TIP3   OH253821   1.674   3.310   8.909
17979TIP3    H153822   1.645   3.295   8.817
17979TIP3    H253823   1.656   3.405   8.921
17980TIP3   OH253824   1.893   3.217   8.548
17980TIP3    H153825   1.952   3.149   8.507
17980TIP3    H253826   1.934   3.228   8.636
17981TIP3   OH253827   1.939   3.274   8.821
17981TIP3    H153828   1.852   3.270   8.866
17981TIP3    H253829   1.993   3.217   8.878
17982TIP3   OH253830   2.140   2.445   8.573
17982TIP3    H153831   2.111   2.415   8.485
17982TIP3    H253832   2.223   2.490   8.550
17983TIP3   OH253833   3.968   3.795  -0.608
17983TIP3    H153834   3.893   3.809  -0.550
17983TIP3    H253835   4.023   3.874  -0.583
17984TIP3   OH253836   2.189   2.143   8.889
17984TIP3    H153837   2.262   2.144   8.952
17984TIP3    H253838   2.158   2.236   8.887
17985TIP3   OH253839   1.796   2.752   8.780
17985TIP3    H153840   1.754   2.837   8.802
17985TIP3    H253841   1.773   2.697   8.856
17986TIP3   OH253842   2.636   2.261   8.768
17986TIP3    H153843   2.566   2.209   8.722
17986TIP3    H253844   2.617   2.347   8.725
17987TIP3   OH253845   2.309   3.075   8.689
17987TIP3    H153846   2.310   3.005   8.757
17987TIP3    H253847   2.331   3.026   8.607
17988TIP3   OH253848   2.068   2.801   8.587
17988TIP3    H153849   2.129   2.773   8.659
17988TIP3    H253850   1.984   2.771   8.625
17989TIP3   OH253851   2.414   3.276   8.412
17989TIP3    H153852   2.453   3.344   8.354
17989TIP3    H253853   2.334   3.325   8.442
17990TIP3   OH253854   2.231   2.725   8.791
17990TIP3    H153855   2.209   2.701   8.883
17990TIP3    H253856   2.329   2.725   8.791
17991TIP3   OH253857   1.443   2.783   8.592
17991TIP3    H153858   1.462   2.701   8.544
17991TIP3    H253859   1.424   2.748   8.680
17992TIP3   OH253860   1.636   2.979   8.800
17992TIP3    H153861   1.542   3.008   8.793
17992TIP3    H253862   1.674   3.028   8.725
17993TIP3   OH253863   1.367   3.067   8.866
17993TIP3    H153864   1.351   3.130   8.792
17993TIP3    H253865   1.342   3.122   8.941
17994TIP3   OH253866   1.608   2.988   8.505
17994TIP3    H153867   1.554   2.913   8.538
17994TIP3    H253868   1.680   2.940   8.460
17995TIP3   OH253869   2.040   3.029   8.414
17995TIP3    H153870   2.087   2.966   8.471
17995TIP3    H253871   2.096   3.030   8.333
17996TIP3   OH253872   1.244   2.493   8.712
17996TIP3    H153873   1.292   2.448   8.782
17996TIP3    H253874   1.314   2.501   8.644
17997TIP3   OH253875   1.745   2.694   8.521
17997TIP3    H153876   1.760   2.711   8.616
17997TIP3    H253877   1.753   2.596   8.519
17998TIP3   OH253878   1.561   2.184   8.784
17998TIP3    H153879   1.532   2.198   8.692
17998TIP3    H253880   1.654   2.210   8.781
17999TIP3   OH253881   2.379   2.532   8.449
17999TIP3    H153882   2.358   2.484   8.366
17999TIP3    H253883   2.348   2.622   8.424
18000TIP3   OH253884   1.365   3.264   8.682
18000TIP3    H153885   1.460   3.268   8.664
18000TIP3    H253886   1.332   3.315   8.605
18001TIP3   OH253887   2.510   2.725   8.778
18001TIP3    H153888   2.581   2.786   8.748
18001TIP3    H253889   2.556   2.680   8.852
18002TIP3   OH253890   2.642   2.590   8.968
18002TIP3    H153891   2.590   2.560   9.045
18002TIP3    H253892   2.724   2.625   9.008
18003TIP3   OH253893   2.579   2.496   8.632
18003TIP3    H153894   2.506   2.498   8.566
18003TIP3    H253895   2.553   2.572   8.687
18004TIP3   OH253896   2.452   2.167   8.590
18004TIP3    H153897   2.409   2.205   8.513
18004TIP3    H253898   2.427   2.073   8.581
18005TIP3   OH253899   2.394   1.902   8.571
18005TIP3    H153900   2.476   1.877   8.620
18005TIP3    H253901   2.328   1.840   8.605
18006TIP3   OH253902   2.644   1.859   8.678
18006TIP3    H153903   2.690   1.775   8.659
18006TIP3    H253904   2.717   1.923   8.684
18007TIP3   OH253905   2.208   3.389   8.966
18007TIP3    H153906   2.251   3.365   8.881
18007TIP3    H253907   2.273   3.450   9.002
18008TIP3   OH253908   1.634   3.230   8.636
18008TIP3    H153909   1.724   3.248   8.601
18008TIP3    H253910   1.611   3.156   8.576
18009TIP3   OH253911   2.347   3.340   8.733
18009TIP3    H153912   2.340   3.242   8.718
18009TIP3    H253913   2.310   3.374   8.649
18010TIP3   OH253914   0.940   3.049   8.704
18010TIP3    H153915   0.950   3.099   8.786
18010TIP3    H253916   1.031   3.016   8.686
18011TIP3   OH253917   3.840   2.872   9.043
18011TIP3    H153918   3.854   2.828   9.129
18011TIP3    H253919   3.803   2.799   8.989
18012TIP3   OH253920   4.089   3.158   8.750
18012TIP3    H153921   4.072   3.091   8.817
18012TIP3    H253922   4.119   3.234   8.803
18013TIP3   OH253923   3.128   3.153   9.180
18013TIP3    H153924   3.115   3.060   9.152
18013TIP3    H253925   3.221   3.170   9.154
18014TIP3   OH253926   2.824   2.361   8.938
18014TIP3    H153927   2.786   2.449   8.954
18014TIP3    H253928   2.760   2.325   8.873
18015TIP3   OH253929   2.902   2.649   9.029
18015TIP3    H153930   2.935   2.595   9.101
18015TIP3    H253931   2.983   2.674   8.982
18016TIP3   OH253932   3.737   3.622   8.764
18016TIP3    H153933   3.782   3.551   8.714
18016TIP3    H253934   3.730   3.583   8.851
18017TIP3   OH253935   3.640   3.079   9.097
18017TIP3    H153936   3.680   3.002   9.054
18017TIP3    H253937   3.721   3.122   9.129
18018TIP3   OH253938   4.671   2.408   9.114
18018TIP3    H153939   4.692   2.493   9.158
18018TIP3    H253940   4.679   2.433   9.021
18019TIP3   OH253941   4.076   2.582   9.161
18019TIP3    H153942   4.105   2.488   9.163
18019TIP3    H253943   4.045   2.584   9.068
18020TIP3   OH253944   3.412   2.243   9.094
18020TIP3    H153945   3.378   2.322   9.047
18020TIP3    H253946   3.348   2.175   9.062
18021TIP3   OH253947   4.088   2.311   8.734
18021TIP3    H153948   4.158   2.309   8.804
18021TIP3    H253949   4.130   2.366   8.667
18022TIP3   OH253950   3.450   2.645   8.980
18022TIP3    H153951   3.543   2.637   8.946
18022TIP3    H253952   3.415   2.556   8.957
18023TIP3   OH253953   4.743   2.625   9.265
18023TIP3    H153954   4.655   2.668   9.254
18023TIP3    H253955   4.737   2.595   9.357
18024TIP3   OH253956   3.758   3.099   8.535
18024TIP3    H153957   3.694   3.035   8.504
18024TIP3    H253958   3.699   3.170   8.568
18025TIP3   OH253959   4.298   2.329   8.915
18025TIP3    H153960   4.297   2.298   9.007
18025TIP3    H253961   4.348   2.411   8.927
18026TIP3   OH253962   2.717   2.887   8.677
18026TIP3    H153963   2.680   2.912   8.590
18026TIP3    H253964   2.749   2.972   8.712
18027TIP3   OH253965   4.160   3.402   8.918
18027TIP3    H153966   4.069   3.394   8.954
18027TIP3    H253967   4.153   3.487   8.870
18028TIP3   OH253968   4.432   2.268   9.170
18028TIP3    H153969   4.386   2.312   9.242
18028TIP3    H253970   4.513   2.321   9.159
18029TIP3   OH253971   3.860   3.449   8.589
18029TIP3    H153972   3.910   3.366   8.570
18029TIP3    H253973   3.922   3.514   8.549
18030TIP3   OH253974   4.005   3.233   8.496
18030TIP3    H153975   3.936   3.167   8.478
18030TIP3    H253976   4.043   3.198   8.579
18031TIP3   OH253977   4.381   3.315   9.263
18031TIP3    H153978   4.371   3.237   9.204
18031TIP3    H253979   4.365   3.388   9.200
18032TIP3   OH253980   3.646   2.669   8.474
18032TIP3    H153981   3.592   2.750   8.481
18032TIP3    H253982   3.725   2.698   8.427
18033TIP3   OH253983   3.628   2.492   8.228
18033TIP3    H153984   3.677   2.536   8.300
18033TIP3    H253985   3.697   2.436   8.189
18034TIP3   OH253986   4.581   2.954   9.105
18034TIP3    H153987   4.496   3.002   9.115
18034TIP3    H253988   4.605   2.978   9.013
18035TIP3   OH253989   4.013   2.798   8.497
18035TIP3    H153990   3.958   2.818   8.574
18035TIP3    H253991   4.096   2.768   8.540
18036TIP3   OH253992   4.305   2.906   9.326
18036TIP3    H153993   4.313   2.909   9.423
18036TIP3    H253994   4.221   2.860   9.312
18037TIP3   OH253995   3.242   2.794   8.902
18037TIP3    H153996   3.206   2.735   8.831
18037TIP3    H253997   3.321   2.743   8.931
18038TIP3   OH253998   3.380   3.197   9.054
18038TIP3    H153999   3.368   3.155   8.967
18038TIP3    H254000   3.469   3.162   9.079
18039TIP3   OH254001   3.446   2.776   9.214
18039TIP3    H154002   3.472   2.728   9.132
18039TIP3    H254003   3.526   2.825   9.238
18040TIP3   OH254004   3.916   3.402   9.031
18040TIP3    H154005   3.895   3.479   9.085
18040TIP3    H254006   3.897   3.326   9.089
18041TIP3   OH254007   3.878   2.644   8.316
18041TIP3    H154008   3.930   2.707   8.368
18041TIP3    H254009   3.898   2.672   8.223
18042TIP3   OH254010   3.601   3.334   8.596
18042TIP3    H154011   3.684   3.383   8.608
18042TIP3    H254012   3.544   3.398   8.552
18043TIP3   OH254013   4.380   1.892   8.363
18043TIP3    H154014   4.298   1.915   8.410
18043TIP3    H254015   4.395   1.974   8.311
18044TIP3   OH254016   3.115   2.632   8.713
18044TIP3    H154017   3.052   2.676   8.653
18044TIP3    H254018   3.078   2.543   8.718
18045TIP3   OH254019   4.175   3.259   7.909
18045TIP3    H154020   4.182   3.356   7.901
18045TIP3    H254021   4.268   3.231   7.899
18046TIP3   OH254022   4.627   3.661   9.298
18046TIP3    H154023   4.625   3.565   9.316
18046TIP3    H254024   4.543   3.689   9.341
18047TIP3   OH254025   3.733   3.483   9.424
18047TIP3    H154026   3.696   3.571   9.444
18047TIP3    H254027   3.661   3.425   9.451
18048TIP3   OH254028   3.483   3.574   8.394
18048TIP3    H154029   3.441   3.554   8.309
18048TIP3    H254030   3.454   3.665   8.413
18049TIP3   OH254031   2.925   3.426   8.777
18049TIP3    H154032   2.974   3.415   8.862
18049TIP3    H254033   2.866   3.348   8.781
18050TIP3   OH254034   3.687   3.474   8.033
18050TIP3    H154035   3.747   3.405   7.997
18050TIP3    H254036   3.724   3.486   8.123
18051TIP3   OH254037   3.737   3.521   8.304
18051TIP3    H154038   3.650   3.529   8.349
18051TIP3    H254039   3.790   3.478   8.372
18052TIP3   OH254040   3.937   2.697   8.055
18052TIP3    H154041   3.908   2.670   7.966
18052TIP3    H254042   4.017   2.750   8.034
18053TIP3   OH254043   3.655   2.065   8.364
18053TIP3    H154044   3.618   2.067   8.455
18053TIP3    H254045   3.607   1.988   8.328
18054TIP3   OH254046   3.311   2.421   8.914
18054TIP3    H154047   3.222   2.388   8.937
18054TIP3    H254048   3.326   2.378   8.827
18055TIP3   OH254049   4.022   2.539   8.891
18055TIP3    H154050   3.928   2.571   8.884
18055TIP3    H254051   4.013   2.454   8.846
18056TIP3   OH254052   3.309   2.043   8.328
18056TIP3    H154053   3.300   2.042   8.426
18056TIP3    H254054   3.230   2.095   8.303
18057TIP3   OH254055   2.829   2.068   8.712
18057TIP3    H154056   2.872   2.109   8.633
18057TIP3    H254057   2.766   2.140   8.734
18058TIP3   OH254058   3.922   2.770   9.287
18058TIP3    H154059   3.987   2.706   9.250
18058TIP3    H254060   3.969   2.807   9.363
18059TIP3   OH254061   3.657   2.227   8.971
18059TIP3    H154062   3.572   2.237   9.020
18059TIP3    H254063   3.721   2.262   9.034
18060TIP3   OH254064   3.085   2.295   8.994
18060TIP3    H154065   2.992   2.308   8.964
18060TIP3    H254066   3.104   2.202   8.971
18061TIP3   OH254067   3.359   2.292   8.676
18061TIP3    H154068   3.451   2.320   8.658
18061TIP3    H254069   3.310   2.321   8.595
18062TIP3   OH254070   4.130   2.319   9.174
18062TIP3    H154071   4.102   2.302   9.266
18062TIP3    H254072   4.069   2.260   9.126
18063TIP3   OH254073   3.193   2.330   8.460
18063TIP3    H154074   3.121   2.287   8.410
18063TIP3    H254075   3.245   2.368   8.387
18064TIP3   OH254076   4.304   4.023   9.397
18064TIP3    H154077   4.318   4.030   9.301
18064TIP3    H254078   4.388   4.060   9.431
18065TIP3   OH254079   3.255   2.057   8.954
18065TIP3    H154080   3.240   1.966   8.984
18065TIP3    H254081   3.311   2.044   8.877
18066TIP3   OH254082   3.444   2.870   8.464
18066TIP3    H154083   3.378   2.799   8.454
18066TIP3    H254084   3.428   2.898   8.558
18067TIP3   OH254085   4.349   3.104   9.094
18067TIP3    H154086   4.371   3.149   9.010
18067TIP3    H254087   4.265   3.058   9.075
18068TIP3   OH254088   3.906   2.166   8.324
18068TIP3    H154089   3.809   2.160   8.333
18068TIP3    H254090   3.926   2.260   8.344
18069TIP3   OH254091   3.986   2.407   8.410
18069TIP3    H154092   4.073   2.432   8.444
18069TIP3    H254093   3.947   2.494   8.385
18070TIP3   OH254094   3.110   2.883   9.126
18070TIP3    H154095   3.158   2.859   9.043
18070TIP3    H254096   3.151   2.824   9.190
18071TIP3   OH254097   3.586   3.008   8.275
18071TIP3    H154098   3.546   3.097   8.291
18071TIP3    H254099   3.537   2.954   8.340
18072TIP3   OH254100   4.002   3.411   9.396
18072TIP3    H154101   3.912   3.445   9.379
18072TIP3    H254102   4.049   3.488   9.429
18073TIP3   OH254103   4.418   2.510   8.267
18073TIP3    H154104   4.356   2.465   8.206
18073TIP3    H254105   4.413   2.599   8.227
18074TIP3   OH254106   4.628   3.371   9.350
18074TIP3    H154107   4.531   3.365   9.336
18074TIP3    H254108   4.659   3.342   9.261
18075TIP3   OH254109   4.114   3.332   8.179
18075TIP3    H154110   4.093   3.264   8.244
18075TIP3    H254111   4.128   3.283   8.097
18076TIP3   OH254112   4.108   2.961   9.021
18076TIP3    H154113   4.014   2.934   9.026
18076TIP3    H254114   4.147   2.883   8.977
18077TIP3   OH254115   3.237   3.188   8.770
18077TIP3    H154116   3.243   3.268   8.715
18077TIP3    H254117   3.142   3.174   8.773
18078TIP3   OH254118   2.801   2.492   8.469
18078TIP3    H154119   2.849   2.575   8.489
18078TIP3    H254120   2.724   2.500   8.530
18079TIP3   OH254121   3.376   2.956   8.711
18079TIP3    H154122   3.339   3.045   8.732
18079TIP3    H254123   3.345   2.904   8.787
18080TIP3   OH254124   3.509   3.538   9.232
18080TIP3    H154125   3.545   3.613   9.180
18080TIP3    H254126   3.590   3.496   9.263
18081TIP3   OH254127   3.158   3.427   8.619
18081TIP3    H154128   3.072   3.434   8.666
18081TIP3    H254129   3.189   3.520   8.623
18082TIP3   OH254130   3.896   3.174   9.185
18082TIP3    H154131   3.902   3.176   9.282
18082TIP3    H254132   3.972   3.118   9.161
18083TIP3   OH254133   3.867   3.056   8.077
18083TIP3    H154134   3.924   3.031   8.154
18083TIP3    H254135   3.780   3.032   8.113
18084TIP3   OH254136   4.130   3.695   9.246
18084TIP3    H154137   4.047   3.653   9.214
18084TIP3    H254138   4.137   3.768   9.181
18085TIP3   OH254139   4.213   3.535   7.904
18085TIP3    H154140   4.249   3.611   7.855
18085TIP3    H254141   4.155   3.579   7.968
18086TIP3   OH254142   4.031   2.983   8.284
18086TIP3    H154143   4.017   2.929   8.364
18086TIP3    H254144   4.128   2.988   8.281
18087TIP3   OH254145   3.236   3.040   8.078
18087TIP3    H154146   3.253   2.948   8.049
18087TIP3    H254147   3.219   3.026   8.173
18088TIP3   OH254148   3.183   3.043   8.352
18088TIP3    H154149   3.257   3.013   8.405
18088TIP3    H254150   3.189   3.140   8.359
18089TIP3   OH254151   2.917   2.736   8.552
18089TIP3    H154152   2.853   2.782   8.610
18089TIP3    H254153   2.935   2.806   8.486
18090TIP3   OH254154   3.961   2.109   8.597
18090TIP3    H154155   3.935   2.145   8.510
18090TIP3    H254156   3.994   2.190   8.642
18091TIP3   OH254157   3.448   3.242   8.300
18091TIP3    H154158   3.361   3.271   8.334
18091TIP3    H254159   3.467   3.314   8.238
18092TIP3   OH254160   3.646   2.309   8.704
18092TIP3    H154161   3.687   2.397   8.694
18092TIP3    H254162   3.649   2.301   8.802
18093TIP3   OH254163   3.789   2.037   8.817
18093TIP3    H154164   3.767   2.112   8.876
18093TIP3    H254165   3.847   2.081   8.752
18094TIP3   OH254166   3.189   3.317   8.365
18094TIP3    H154167   3.160   3.387   8.302
18094TIP3    H254168   3.175   3.361   8.451
18095TIP3   OH254169   3.297   2.027   8.605
18095TIP3    H154170   3.292   2.120   8.636
18095TIP3    H254171   3.394   2.013   8.616
18096TIP3   OH254172   4.208   2.731   8.891
18096TIP3    H154173   4.136   2.664   8.891
18096TIP3    H254174   4.279   2.680   8.937
18097TIP3   OH254175   2.909   2.950   8.359
18097TIP3    H154176   2.978   3.019   8.368
18097TIP3    H254177   2.954   2.893   8.292
18098TIP3   OH254178   2.857   2.223   8.487
18098TIP3    H154179   2.854   2.321   8.484
18098TIP3    H254180   2.769   2.200   8.454
18099TIP3   OH254181   4.165   3.675   8.840
18099TIP3    H154182   4.122   3.724   8.767
18099TIP3    H254183   4.259   3.692   8.818
18100TIP3   OH254184   2.783   3.162   8.750
18100TIP3    H154185   2.705   3.194   8.797
18100TIP3    H254186   2.766   3.200   8.661
18101TIP3   OH254187   3.399   3.243   7.991
18101TIP3    H154188   3.343   3.173   8.030
18101TIP3    H254189   3.476   3.191   7.962
18102TIP3   OH254190   3.837   3.284   7.900
18102TIP3    H154191   3.881   3.222   7.962
18102TIP3    H254192   3.899   3.286   7.825
18103TIP3   OH254193   3.046   2.760   8.213
18103TIP3    H154194   3.102   2.727   8.285
18103TIP3    H254195   3.113   2.765   8.141
18104TIP3   OH254196   3.548   2.955   8.011
18104TIP3    H154197   3.554   2.971   8.108
18104TIP3    H254198   3.549   2.857   8.011
18105TIP3   OH254199   4.141   3.170   9.386
18105TIP3    H154200   4.233   3.189   9.361
18105TIP3    H254201   4.106   3.261   9.391
18106TIP3   OH254202   3.250   2.664   8.430
18106TIP3    H154203   3.234   2.624   8.516
18106TIP3    H254204   3.290   2.589   8.380
18107TIP3   OH254205   3.353   2.454   8.275
18107TIP3    H154206   3.327   2.458   8.181
18107TIP3    H254207   3.450   2.464   8.268
18108TIP3   OH254208   4.179   2.789   7.933
18108TIP3    H154209   4.153   2.742   7.852
18108TIP3    H254210   4.146   2.879   7.911
18109TIP3   OH254211   3.160   3.521   8.179
18109TIP3    H154212   3.256   3.516   8.159
18109TIP3    H254213   3.130   3.567   8.098
18110TIP3   OH254214   2.642   2.900   8.396
18110TIP3    H154215   2.736   2.923   8.381
18110TIP3    H254216   2.636   2.812   8.354
18111TIP3   OH254217   2.553   3.513   8.805
18111TIP3    H154218   2.488   3.448   8.771
18111TIP3    H254219   2.601   3.459   8.872
18112TIP3   OH254220   2.689   3.375   8.994
18112TIP3    H154221   2.677   3.300   9.052
18112TIP3    H254222   2.730   3.439   9.056
18113TIP3   OH254223   4.417   3.765   8.792
18113TIP3    H154224   4.447   3.794   8.880
18113TIP3    H254225   4.482   3.808   8.734
18114TIP3   OH254226   4.450   3.786   9.073
18114TIP3    H154227   4.407   3.698   9.070
18114TIP3    H254228   4.519   3.766   9.139
18115TIP3   OH254229   4.313   2.974   8.269
18115TIP3    H154230   4.380   3.040   8.244
18115TIP3    H254231   4.354   2.934   8.349
18116TIP3   OH254232   4.439   2.841   8.473
18116TIP3    H154233   4.371   2.800   8.531
18116TIP3    H254234   4.500   2.881   8.537
18117TIP3   OH254235   4.493   3.235   8.902
18117TIP3    H154236   4.546   3.171   8.852
18117TIP3    H254237   4.488   3.311   8.841
18118TIP3   OH254238   4.325   3.536   9.102
18118TIP3    H154239   4.252   3.575   9.154
18118TIP3    H254240   4.276   3.486   9.032
18119TIP3   OH254241   4.376   2.749   8.120
18119TIP3    H154242   4.304   2.753   8.053
18119TIP3    H254243   4.350   2.826   8.176
18120TIP3   OH254244   4.253   2.421   8.072
18120TIP3    H154245   4.203   2.465   8.001
18120TIP3    H254246   4.223   2.328   8.061
18121TIP3   OH254247   4.249   2.700   8.620
18121TIP3    H154248   4.256   2.603   8.615
18121TIP3    H254249   4.241   2.716   8.716
18122TIP3   OH254250   4.541   3.118   9.456
18122TIP3    H154251   4.596   3.057   9.404
18122TIP3    H254252   4.555   3.202   9.412
18123TIP3   OH254253   4.728   2.909   9.445
18123TIP3    H154254   4.657   2.865   9.492
18123TIP3    H254255   4.804   2.853   9.465
18124TIP3   OH254256   4.192   2.156   8.059
18124TIP3    H154257   4.266   2.127   8.116
18124TIP3    H254258   4.118   2.099   8.086
18125TIP3   OH254259   4.251   2.420   8.521
18125TIP3    H154260   4.290   2.331   8.534
18125TIP3    H254261   4.306   2.451   8.446
18126TIP3   OH254262   4.413   2.589   9.007
18126TIP3    H154263   4.499   2.616   8.968
18126TIP3    H254264   4.426   2.622   9.098
18127TIP3   OH254265   4.491   2.730   9.240
18127TIP3    H154266   4.414   2.772   9.283
18127TIP3    H254267   4.523   2.809   9.190
18128TIP3   OH254268   4.360   2.166   8.549
18128TIP3    H154269   4.408   2.153   8.633
18128TIP3    H254270   4.302   2.088   8.548
18129TIP3   OH254271   4.439   2.099   8.186
18129TIP3    H154272   4.480   2.028   8.131
18129TIP3    H254273   4.505   2.171   8.178
18130TIP3   OH254274   2.878   1.959   8.957
18130TIP3    H154275   2.794   1.912   8.972
18130TIP3    H254276   2.863   1.999   8.869
18131TIP3   OH254277   4.009   3.630   8.450
18131TIP3    H154278   4.042   3.599   8.365
18131TIP3    H254279   4.070   3.703   8.469
18132TIP3   OH254280   3.255   3.458   9.335
18132TIP3    H154281   3.236   3.553   9.323
18132TIP3    H254282   3.351   3.456   9.319
18133TIP3   OH254283   3.900   3.855   9.374
18133TIP3    H154284   3.977   3.808   9.340
18133TIP3    H254285   3.943   3.928   9.424
18134TIP3   OH254286   3.197   3.722   9.268
18134TIP3    H154287   3.111   3.727   9.311
18134TIP3    H254288   3.175   3.741   9.175
18135TIP3   OH254289   3.625   3.734   9.060
18135TIP3    H154290   3.552   3.751   8.997
18135TIP3    H254291   3.632   3.821   9.105
18136TIP3   OH254292   3.889   3.670   9.115
18136TIP3    H154293   3.794   3.687   9.095
18136TIP3    H254294   3.931   3.746   9.072
18137TIP3   OH254295   4.101   3.867   9.032
18137TIP3    H154296   4.083   3.950   8.982
18137TIP3    H254297   4.124   3.805   8.959
18138TIP3   OH254298   2.878   3.529   9.145
18138TIP3    H154299   2.870   3.491   9.234
18138TIP3    H254300   2.948   3.474   9.105
18139TIP3   OH254301   3.066   3.383   9.010
18139TIP3    H154302   3.084   3.303   9.063
18139TIP3    H254303   3.155   3.424   9.006
18140TIP3   OH254304   3.329   3.487   9.011
18140TIP3    H154305   3.359   3.396   8.996
18140TIP3    H254306   3.365   3.503   9.100
18141TIP3   OH254307   3.910   2.147   9.101
18141TIP3    H154308   3.883   2.075   9.158
18141TIP3    H254309   3.981   2.104   9.048
18142TIP3   OH254310   4.416   2.009   8.981
18142TIP3    H154311   4.463   2.069   8.918
18142TIP3    H254312   4.350   2.071   9.017
18143TIP3   OH254313   4.527   2.126   8.762
18143TIP3    H154314   4.601   2.076   8.722
18143TIP3    H254315   4.560   2.218   8.750
18144TIP3   OH254316   2.923   1.709   8.736
18144TIP3    H154317   2.965   1.778   8.682
18144TIP3    H254318   2.910   1.755   8.821
18145TIP3   OH254319   3.602   1.877   8.991
18145TIP3    H154320   3.659   1.945   8.952
18145TIP3    H254321   3.588   1.909   9.081
18146TIP3   OH254322   4.122   2.026   8.986
18146TIP3    H154323   4.155   2.006   8.898
18146TIP3    H254324   4.121   1.938   9.030
18147TIP3   OH254325   4.171   1.948   8.537
18147TIP3    H154326   4.098   2.013   8.554
18147TIP3    H254327   4.164   1.890   8.614
18148TIP3   OH254328   2.655   3.291   8.548
18148TIP3    H154329   2.572   3.257   8.510
18148TIP3    H254330   2.646   3.385   8.526
18149TIP3   OH254331   3.057   1.883   8.526
18149TIP3    H154332   3.106   1.819   8.470
18149TIP3    H254333   3.130   1.935   8.565
18150TIP3   OH254334   3.574   2.052   8.634
18150TIP3    H154335   3.630   2.012   8.703
18150TIP3    H254336   3.594   2.147   8.650
18151TIP3   OH254337   3.429   3.481   8.127
18151TIP3    H154338   3.518   3.500   8.092
18151TIP3    H254339   3.406   3.405   8.069
18152TIP3   OH254340   2.735   3.316   8.185
18152TIP3    H154341   2.738   3.343   8.278
18152TIP3    H254342   2.824   3.275   8.172
18153TIP3   OH254343   4.383   3.748   9.380
18153TIP3    H154344   4.296   3.709   9.360
18153TIP3    H254345   4.357   3.830   9.424
18154TIP3   OH254346   5.641   3.114   8.175
18154TIP3    H154347   5.613   3.205   8.154
18154TIP3    H254348   5.565   3.064   8.140
18155TIP3   OH254349   5.640   3.114   8.554
18155TIP3    H154350   5.670   3.082   8.640
18155TIP3    H254351   5.598   3.036   8.516
18156TIP3   OH254352   4.941   3.010   8.917
18156TIP3    H154353   4.972   2.943   8.981
18156TIP3    H254354   5.017   3.069   8.913
18157TIP3   OH254355   5.883   3.415   8.235
18157TIP3    H154356   5.869   3.345   8.300
18157TIP3    H254357   5.911   3.490   8.291
18158TIP3   OH254358   4.911   3.419   8.646
18158TIP3    H154359   4.901   3.322   8.648
18158TIP3    H254360   5.007   3.427   8.640
18159TIP3   OH254361   4.618   2.624   8.431
18159TIP3    H154362   4.568   2.707   8.445
18159TIP3    H254363   4.548   2.568   8.394
18160TIP3   OH254364   4.678   2.911   8.601
18160TIP3    H154365   4.727   2.834   8.638
18160TIP3    H254366   4.734   2.936   8.527
18161TIP3   OH254367   5.532   3.879   8.252
18161TIP3    H154368   5.579   3.807   8.204
18161TIP3    H254369   5.524   3.841   8.340
18162TIP3   OH254370   5.438   3.339   8.603
18162TIP3    H154371   5.475   3.263   8.554
18162TIP3    H254372   5.522   3.383   8.626
18163TIP3   OH254373   6.451   2.659   8.600
18163TIP3    H154374   6.480   2.743   8.642
18163TIP3    H254375   6.474   2.676   8.507
18164TIP3   OH254376   5.850   2.841   8.637
18164TIP3    H154377   5.894   2.756   8.655
18164TIP3    H254378   5.820   2.827   8.545
18165TIP3   OH254379   5.188   2.500   8.601
18165TIP3    H154380   5.167   2.573   8.539
18165TIP3    H254381   5.140   2.427   8.557
18166TIP3   OH254382   5.881   2.592   8.224
18166TIP3    H154383   5.954   2.576   8.288
18166TIP3    H254384   5.932   2.626   8.148
18167TIP3   OH254385   4.823   2.704   8.708
18167TIP3    H154386   4.906   2.682   8.755
18167TIP3    H254387   4.834   2.647   8.628
18168TIP3   OH254388   5.263   2.901   8.498
18168TIP3    H154389   5.357   2.874   8.513
18168TIP3    H254390   5.223   2.817   8.467
18169TIP3   OH254391   6.525   2.867   8.771
18169TIP3    H154392   6.442   2.914   8.751
18169TIP3    H254393   6.539   2.893   8.863
18170TIP3   OH254394   5.185   2.483   9.035
18170TIP3    H154395   5.126   2.520   8.966
18170TIP3    H254396   5.131   2.504   9.115
18171TIP3   OH254397   5.534   3.335   8.044
18171TIP3    H154398   5.491   3.311   7.961
18171TIP3    H254399   5.489   3.419   8.065
18172TIP3   OH254400   5.292   3.259   8.832
18172TIP3    H154401   5.228   3.323   8.869
18172TIP3    H254402   5.333   3.310   8.760
18173TIP3   OH254403   6.092   2.594   8.394
18173TIP3    H154404   6.089   2.541   8.474
18173TIP3    H254405   6.149   2.669   8.421
18174TIP3   OH254406   5.057   2.599   8.820
18174TIP3    H154407   5.118   2.672   8.841
18174TIP3    H254408   5.104   2.558   8.744
18175TIP3   OH254409   5.120   3.451   8.927
18175TIP3    H154410   5.093   3.537   8.888
18175TIP3    H254411   5.041   3.436   8.985
18176TIP3   OH254412   4.517   3.143   8.164
18176TIP3    H154413   4.471   3.170   8.083
18176TIP3    H254414   4.544   3.230   8.201
18177TIP3   OH254415   5.955   3.658   8.405
18177TIP3    H154416   5.865   3.649   8.444
18177TIP3    H254417   5.946   3.743   8.359
18178TIP3   OH254418   6.245   2.561   8.768
18178TIP3    H154419   6.157   2.588   8.737
18178TIP3    H254420   6.303   2.590   8.695
18179TIP3   OH254421   5.544   2.204   8.749
18179TIP3    H154422   5.530   2.109   8.763
18179TIP3    H254423   5.465   2.241   8.795
18180TIP3   OH254424   5.657   3.706   8.080
18180TIP3    H154425   5.706   3.624   8.058
18180TIP3    H254426   5.716   3.772   8.036
18181TIP3   OH254427   5.798   3.491   7.983
18181TIP3    H154428   5.762   3.411   7.942
18181TIP3    H254429   5.833   3.456   8.067
18182TIP3   OH254430   6.180   3.573   8.747
18182TIP3    H154431   6.169   3.495   8.688
18182TIP3    H254432   6.163   3.647   8.686
18183TIP3   OH254433   5.472   2.966   8.004
18183TIP3    H154434   5.391   3.016   7.981
18183TIP3    H254435   5.518   2.962   7.918
18184TIP3   OH254436   5.430   2.749   7.722
18184TIP3    H154437   5.499   2.799   7.770
18184TIP3    H254438   5.486   2.685   7.674
18185TIP3   OH254439   6.375   3.208   8.592
18185TIP3    H154440   6.292   3.261   8.597
18185TIP3    H254441   6.405   3.231   8.501
18186TIP3   OH254442   5.818   3.048   7.976
18186TIP3    H154443   5.764   3.073   8.055
18186TIP3    H254444   5.901   3.021   8.020
18187TIP3   OH254445   6.054   3.088   8.887
18187TIP3    H154446   6.050   3.173   8.934
18187TIP3    H254447   5.968   3.090   8.841
18188TIP3   OH254448   5.051   3.046   8.392
18188TIP3    H154449   5.009   2.988   8.325
18188TIP3    H254450   5.128   2.992   8.420
18189TIP3   OH254451   5.181   3.459   8.540
18189TIP3    H154452   5.159   3.414   8.458
18189TIP3    H254453   5.271   3.425   8.558
18190TIP3   OH254454   5.193   3.015   8.748
18190TIP3    H154455   5.222   2.997   8.656
18190TIP3    H254456   5.232   3.103   8.766
18191TIP3   OH254457   5.713   3.655   8.524
18191TIP3    H154458   5.698   3.734   8.579
18191TIP3    H254459   5.699   3.581   8.587
18192TIP3   OH254460   5.324   3.573   9.073
18192TIP3    H154461   5.264   3.636   9.118
18192TIP3    H254462   5.258   3.520   9.023
18193TIP3   OH254463   5.660   2.906   7.802
18193TIP3    H154464   5.719   2.964   7.854
18193TIP3    H254465   5.685   2.931   7.710
18194TIP3   OH254466   5.081   3.131   9.171
18194TIP3    H154467   5.084   3.217   9.218
18194TIP3    H254468   4.985   3.113   9.176
18195TIP3   OH254469   5.403   3.585   8.077
18195TIP3    H154470   5.480   3.641   8.097
18195TIP3    H254471   5.340   3.648   8.039
18196TIP3   OH254472   5.120   3.742   9.159
18196TIP3    H154473   5.083   3.738   9.069
18196TIP3    H254474   5.042   3.721   9.215
18197TIP3   OH254475   6.175   2.147   7.848
18197TIP3    H154476   6.095   2.167   7.901
18197TIP3    H254477   6.187   2.231   7.799
18198TIP3   OH254478   4.917   2.888   8.197
18198TIP3    H154479   4.852   2.935   8.141
18198TIP3    H254480   4.874   2.804   8.211
18199TIP3   OH254481   5.974   3.515   7.399
18199TIP3    H154482   5.983   3.612   7.385
18199TIP3    H254483   6.066   3.485   7.385
18200TIP3   OH254484   4.695   3.276   9.105
18200TIP3    H154485   4.630   3.254   9.036
18200TIP3    H254486   4.735   3.189   9.125
18201TIP3   OH254487   4.552   3.462   8.746
18201TIP3    H154488   4.646   3.461   8.724
18201TIP3    H254489   4.542   3.546   8.792
18202TIP3   OH254490   6.417   3.916   8.792
18202TIP3    H154491   6.416   3.819   8.805
18202TIP3    H254492   6.333   3.940   8.838
18203TIP3   OH254493   5.523   3.702   8.929
18203TIP3    H154494   5.523   3.795   8.960
18203TIP3    H254495   5.451   3.663   8.983
18204TIP3   OH254496   5.283   3.833   7.879
18204TIP3    H154497   5.236   3.811   7.796
18204TIP3    H254498   5.249   3.922   7.901
18205TIP3   OH254499   4.724   3.683   8.262
18205TIP3    H154500   4.768   3.671   8.349
18205TIP3    H254501   4.651   3.619   8.272
18206TIP3   OH254502   5.486   3.733   7.520
18206TIP3    H154503   5.544   3.663   7.484
18206TIP3    H254504   5.520   3.741   7.612
18207TIP3   OH254505   5.535   3.781   7.790
18207TIP3    H154506   5.447   3.790   7.832
18207TIP3    H254507   5.585   3.737   7.861
18208TIP3   OH254508   6.306   3.048   9.068
18208TIP3    H154509   6.227   3.061   9.014
18208TIP3    H254510   6.322   2.952   9.056
18209TIP3   OH254511   4.906   3.454   9.094
18209TIP3    H154512   4.953   3.439   9.179
18209TIP3    H254513   4.830   3.393   9.102
18210TIP3   OH254514   5.304   2.279   8.878
18210TIP3    H154515   5.215   2.248   8.851
18210TIP3    H254516   5.279   2.362   8.921
18211TIP3   OH254517   5.835   2.396   9.070
18211TIP3    H154518   5.904   2.367   9.133
18211TIP3    H254519   5.752   2.374   9.117
18212TIP3   OH254520   6.078   2.823   8.989
18212TIP3    H154521   6.028   2.820   9.074
18212TIP3    H254522   6.052   2.910   8.953
18213TIP3   OH254523   5.735   2.957   7.547
18213TIP3    H154524   5.703   2.928   7.459
18213TIP3    H254525   5.819   3.001   7.521
18214TIP3   OH254526   5.448   2.329   7.847
18214TIP3    H154527   5.416   2.327   7.939
18214TIP3    H254528   5.410   2.245   7.815
18215TIP3   OH254529   5.236   2.793   8.897
18215TIP3    H154530   5.183   2.814   8.976
18215TIP3    H254531   5.220   2.874   8.842
18216TIP3   OH254532   5.119   2.680   8.410
18216TIP3    H154533   5.026   2.654   8.427
18216TIP3    H254534   5.132   2.640   8.321
18217TIP3   OH254535   5.609   2.767   8.137
18217TIP3    H154536   5.555   2.838   8.095
18217TIP3    H254537   5.664   2.737   8.062
18218TIP3   OH254538   5.785   3.049   9.226
18218TIP3    H154539   5.762   2.973   9.284
18218TIP3    H254540   5.880   3.057   9.244
18219TIP3   OH254541   5.767   2.796   8.377
18219TIP3    H154542   5.707   2.826   8.305
18219TIP3    H254543   5.800   2.714   8.335
18220TIP3   OH254544   5.055   2.826   9.103
18220TIP3    H154545   5.074   2.889   9.174
18220TIP3    H254546   5.038   2.743   9.152
18221TIP3   OH254547   5.103   2.301   7.815
18221TIP3    H154548   5.096   2.297   7.912
18221TIP3    H254549   5.024   2.352   7.791
18222TIP3   OH254550   4.649   2.351   8.681
18222TIP3    H154551   4.723   2.381   8.737
18222TIP3    H254552   4.692   2.317   8.602
18223TIP3   OH254553   4.621   2.327   8.204
18223TIP3    H154554   4.666   2.367   8.126
18223TIP3    H254555   4.560   2.400   8.227
18224TIP3   OH254556   5.779   3.042   8.801
18224TIP3    H154557   5.810   2.970   8.742
18224TIP3    H254558   5.748   2.990   8.878
18225TIP3   OH254559   5.445   2.503   8.472
18225TIP3    H154560   5.362   2.501   8.523
18225TIP3    H254561   5.512   2.503   8.542
18226TIP3   OH254562   4.880   2.558   8.480
18226TIP3    H154563   4.785   2.566   8.453
18226TIP3    H254564   4.903   2.467   8.455
18227TIP3   OH254565   5.151   2.555   8.167
18227TIP3    H154566   5.244   2.570   8.146
18227TIP3    H254567   5.104   2.579   8.084
18228TIP3   OH254568   5.938   2.578   8.675
18228TIP3    H154569   5.900   2.590   8.765
18228TIP3    H254570   5.874   2.517   8.636
18229TIP3   OH254571   4.990   2.587   7.947
18229TIP3    H154572   4.917   2.544   7.899
18229TIP3    H254573   5.042   2.623   7.872
18230TIP3   OH254574   6.107   4.267   8.891
18230TIP3    H154575   6.105   4.290   8.797
18230TIP3    H254576   6.186   4.316   8.922
18231TIP3   OH254577   5.063   3.378   9.316
18231TIP3    H154578   5.144   3.409   9.363
18231TIP3    H254579   5.000   3.380   9.391
18232TIP3   OH254580   5.530   2.830   8.568
18232TIP3    H154581   5.601   2.791   8.516
18232TIP3    H254582   5.542   2.788   8.655
18233TIP3   OH254583   5.054   2.318   8.446
18233TIP3    H154584   5.020   2.238   8.491
18233TIP3    H254585   5.103   2.282   8.371
18234TIP3   OH254586   5.505   2.724   8.862
18234TIP3    H154587   5.416   2.762   8.873
18234TIP3    H254588   5.562   2.787   8.910
18235TIP3   OH254589   5.243   3.119   7.953
18235TIP3    H154590   5.170   3.053   7.942
18235TIP3    H254591   5.225   3.152   8.045
18236TIP3   OH254592   6.143   3.355   8.584
18236TIP3    H154593   6.168   3.403   8.502
18236TIP3    H254594   6.057   3.313   8.559
18237TIP3   OH254595   5.701   2.430   7.816
18237TIP3    H154596   5.604   2.415   7.823
18237TIP3    H254597   5.711   2.525   7.838
18238TIP3   OH254598   5.645   3.438   8.951
18238TIP3    H154599   5.657   3.414   9.043
18238TIP3    H254600   5.602   3.525   8.956
18239TIP3   OH254601   5.770   2.678   7.919
18239TIP3    H154602   5.867   2.683   7.933
18239TIP3    H254603   5.752   2.756   7.863
18240TIP3   OH254604   4.937   3.142   8.631
18240TIP3    H154605   4.973   3.112   8.545
18240TIP3    H254606   4.970   3.074   8.692
18241TIP3   OH254607   5.387   3.268   7.774
18241TIP3    H154608   5.340   3.354   7.782
18241TIP3    H254609   5.333   3.212   7.833
18242TIP3   OH254610   4.817   3.061   9.228
18242TIP3    H154611   4.829   3.044   9.323
18242TIP3    H254612   4.748   2.996   9.206
18243TIP3   OH254613   5.539   3.172   9.267
18243TIP3    H154614   5.477   3.117   9.215
18243TIP3    H254615   5.625   3.140   9.234
18244TIP3   OH254616   5.803   3.697   8.845
18244TIP3    H154617   5.707   3.694   8.857
18244TIP3    H254618   5.830   3.749   8.924
18245TIP3   OH254619   6.213   2.767   7.754
18245TIP3    H154620   6.149   2.721   7.694
18245TIP3    H254621   6.209   2.855   7.712
18246TIP3   OH254622   6.430   3.625   8.836
18246TIP3    H154623   6.332   3.620   8.827
18246TIP3    H254624   6.457   3.595   8.746
18247TIP3   OH254625   5.912   3.587   7.663
18247TIP3    H154626   5.888   3.516   7.724
18247TIP3    H254627   5.924   3.540   7.579
18248TIP3   OH254628   5.908   3.216   8.504
18248TIP3    H154629   5.815   3.190   8.515
18248TIP3    H254630   5.943   3.137   8.458
18249TIP3   OH254631   5.033   3.443   8.254
18249TIP3    H154632   5.034   3.525   8.201
18249TIP3    H254633   4.938   3.428   8.264
18250TIP3   OH254634   4.598   2.749   7.956
18250TIP3    H154635   4.644   2.833   7.977
18250TIP3    H254636   4.521   2.755   8.017
18251TIP3   OH254637   5.176   3.211   8.200
18251TIP3    H154638   5.139   3.300   8.217
18251TIP3    H254639   5.137   3.161   8.274
18252TIP3   OH254640   5.304   3.788   8.724
18252TIP3    H154641   5.345   3.860   8.672
18252TIP3    H254642   5.381   3.754   8.773
18253TIP3   OH254643   4.955   3.682   8.107
18253TIP3    H154644   4.869   3.687   8.152
18253TIP3    H254645   4.983   3.776   8.110
18254TIP3   OH254646   5.695   3.423   8.681
18254TIP3    H154647   5.686   3.421   8.779
18254TIP3    H254648   5.773   3.368   8.667
18255TIP3   OH254649   5.666   3.316   7.565
18255TIP3    H154650   5.720   3.291   7.643
18255TIP3    H254651   5.578   3.287   7.594
18256TIP3   OH254652   5.942   3.957   8.734
18256TIP3    H154653   5.864   3.899   8.726
18256TIP3    H254654   5.926   4.021   8.661
18257TIP3   OH254655   6.007   3.791   7.384
18257TIP3    H154656   6.046   3.864   7.333
18257TIP3    H254657   5.927   3.836   7.417
18258TIP3   OH254658   5.024   2.570   9.245
18258TIP3    H154659   4.929   2.587   9.259
18258TIP3    H254660   5.043   2.511   9.320
18259TIP3   OH254661   5.826   3.251   7.783
18259TIP3    H154662   5.816   3.183   7.852
18259TIP3    H254663   5.923   3.248   7.769
18260TIP3   OH254664   4.744   3.654   8.884
18260TIP3    H154665   4.793   3.574   8.911
18260TIP3    H254666   4.771   3.715   8.953
18261TIP3   OH254667   5.033   3.296   7.563
18261TIP3    H154668   5.048   3.204   7.534
18261TIP3    H254669   5.015   3.283   7.658
18262TIP3   OH254670   4.981   3.300   7.835
18262TIP3    H154671   5.049   3.272   7.898
18262TIP3    H254672   4.984   3.398   7.843
18263TIP3   OH254673   4.715   2.994   8.040
18263TIP3    H154674   4.649   3.039   8.097
18263TIP3    H254675   4.729   3.064   7.973
18264TIP3   OH254676   5.860   2.634   8.934
18264TIP3    H154677   5.944   2.668   8.969
18264TIP3    H254678   5.847   2.551   8.986
18265TIP3   OH254679   5.741   2.383   8.096
18265TIP3    H154680   5.728   2.406   8.002
18265TIP3    H254681   5.782   2.465   8.131
18266TIP3   OH254682   5.245   3.499   7.786
18266TIP3    H154683   5.158   3.526   7.821
18266TIP3    H254684   5.260   3.569   7.721
18267TIP3   OH254685   5.434   2.560   8.198
18267TIP3    H154686   5.499   2.632   8.180
18267TIP3    H254687   5.438   2.555   8.296
18268TIP3   OH254688   5.701   2.880   9.007
18268TIP3    H154689   5.721   2.933   9.086
18268TIP3    H254690   5.758   2.802   9.018
18269TIP3   OH254691   5.578   2.290   8.303
18269TIP3    H154692   5.569   2.368   8.360
18269TIP3    H254693   5.638   2.326   8.233
18270TIP3   OH254694   4.988   3.573   7.852
18270TIP3    H154695   4.956   3.643   7.790
18270TIP3    H254696   4.970   3.616   7.939
18271TIP3   OH254697   5.088   2.285   8.092
18271TIP3    H154698   5.086   2.377   8.126
18271TIP3    H254699   5.185   2.267   8.099
18272TIP3   OH254700   6.344   2.780   8.987
18272TIP3    H154701   6.246   2.779   8.994
18272TIP3    H254702   6.354   2.741   8.899
18273TIP3   OH254703   5.993   2.975   8.376
18273TIP3    H154704   5.918   2.914   8.386
18273TIP3    H254705   6.065   2.927   8.423
18274TIP3   OH254706   4.705   3.204   7.846
18274TIP3    H154707   4.767   3.278   7.856
18274TIP3    H254708   4.752   3.151   7.779
18275TIP3   OH254709   4.651   2.479   7.978
18275TIP3    H154710   4.650   2.577   7.974
18275TIP3    H254711   4.565   2.456   7.941
18276TIP3   OH254712   5.961   3.931   8.326
18276TIP3    H154713   5.919   3.977   8.251
18276TIP3    H254714   6.056   3.949   8.305
18277TIP3   OH254715   5.041   2.200   8.851
18277TIP3    H154716   5.007   2.169   8.764
18277TIP3    H254717   5.026   2.121   8.907
18278TIP3   OH254718   4.574   3.410   8.233
18278TIP3    H154719   4.513   3.454   8.296
18278TIP3    H254720   4.550   3.456   8.150
18279TIP3   OH254721   4.733   3.958   9.304
18279TIP3    H154722   4.819   3.956   9.350
18279TIP3    H254723   4.710   3.863   9.302
18280TIP3   OH254724   5.218   3.929   9.342
18280TIP3    H154725   5.311   3.905   9.354
18280TIP3    H254726   5.191   3.867   9.272
18281TIP3   OH254727   5.197   3.500   7.478
18281TIP3    H154728   5.140   3.429   7.516
18281TIP3    H254729   5.272   3.447   7.445
18282TIP3   OH254730   5.854   3.831   9.081
18282TIP3    H154731   5.847   3.760   9.150
18282TIP3    H254732   5.932   3.881   9.112
18283TIP3   OH254733   5.634   3.541   7.388
18283TIP3    H154734   5.676   3.475   7.447
18283TIP3    H254735   5.691   3.540   7.310
18284TIP3   OH254736   4.859   3.359   9.504
18284TIP3    H154737   4.885   3.264   9.496
18284TIP3    H254738   4.772   3.360   9.460
18285TIP3   OH254739   4.841   3.017   7.696
18285TIP3    H154740   4.895   2.983   7.770
18285TIP3    H254741   4.909   3.021   7.625
18286TIP3   OH254742   5.481   3.450   9.273
18286TIP3    H154743   5.430   3.465   9.191
18286TIP3    H254744   5.505   3.355   9.267
18287TIP3   OH254745   5.349   3.214   7.504
18287TIP3    H154746   5.352   3.227   7.601
18287TIP3    H254747   5.349   3.116   7.500
18288TIP3   OH254748   5.966   3.457   8.885
18288TIP3    H154749   6.038   3.504   8.839
18288TIP3    H254750   5.892   3.519   8.872
18289TIP3   OH254751   4.971   3.109   9.493
18289TIP3    H154752   5.023   3.028   9.479
18289TIP3    H254753   5.002   3.132   9.582
18290TIP3   OH254754   5.051   2.919   7.921
18290TIP3    H154755   5.023   2.878   8.004
18290TIP3    H254756   5.085   2.843   7.870
18291TIP3   OH254757   5.322   2.986   9.152
18291TIP3    H154758   5.242   3.043   9.155
18291TIP3    H254759   5.366   3.018   9.070
18292TIP3   OH254760   5.150   2.712   7.761
18292TIP3    H154761   5.123   2.714   7.667
18292TIP3    H254762   5.247   2.719   7.753
18293TIP3   OH254763   5.838   3.387   9.286
18293TIP3    H154764   5.913   3.363   9.229
18293TIP3    H254765   5.834   3.313   9.348
18294TIP3   OH254766   5.972   3.046   7.425
18294TIP3    H154767   5.956   2.996   7.342
18294TIP3    H254768   5.939   3.135   7.396
18295TIP3   OH254769   5.445   2.770   9.272
18295TIP3    H154770   5.442   2.691   9.215
18295TIP3    H254771   5.402   2.837   9.215
18296TIP3   OH254772   5.443   2.557   9.082
18296TIP3    H154773   5.471   2.600   8.998
18296TIP3    H254774   5.349   2.535   9.063
18297TIP3   OH254775   5.474   3.097   8.956
18297TIP3    H154776   5.554   3.102   8.902
18297TIP3    H254777   5.416   3.162   8.912
18298TIP3   OH254778   6.055   3.062   9.336
18298TIP3    H154779   6.103   2.978   9.346
18298TIP3    H254780   6.124   3.118   9.297
18299TIP3   OH254781   6.095   3.314   9.074
18299TIP3    H154782   6.037   3.367   9.014
18299TIP3    H254783   6.182   3.333   9.033
18300TIP3   OH254784   5.317   2.882   9.491
18300TIP3    H154785   5.245   2.816   9.500
18300TIP3    H254786   5.351   2.860   9.402
18301TIP3   OH254787   5.574   2.324   9.148
18301TIP3    H154788   5.527   2.406   9.123
18301TIP3    H254789   5.505   2.256   9.133
18302TIP3   OH254790   5.705   2.827   9.361
18302TIP3    H154791   5.705   2.815   9.458
18302TIP3    H254792   5.613   2.802   9.338
18303TIP3   OH254793   5.943   2.779   9.218
18303TIP3    H154794   5.866   2.778   9.279
18303TIP3    H254795   6.016   2.746   9.275
18304TIP3   OH254796   6.172   2.719   9.364
18304TIP3    H154797   6.183   2.622   9.380
18304TIP3    H254798   6.167   2.755   9.455
18305TIP3   OH254799   5.170   2.655   9.536
18305TIP3    H154800   5.172   2.559   9.518
18305TIP3    H254801   5.192   2.660   9.630
18306TIP3   OH254802   5.679   2.327   9.398
18306TIP3    H154803   5.747   2.260   9.376
18306TIP3    H254804   5.629   2.327   9.314
18307TIP3   OH254805   5.711   2.533   9.574
18307TIP3    H154806   5.700   2.475   9.496
18307TIP3    H254807   5.644   2.602   9.559
18308TIP3   OH254808   4.958   3.778   7.666
18308TIP3    H154809   5.053   3.773   7.645
18308TIP3    H254810   4.925   3.824   7.586
18309TIP3   OH254811   4.436   3.158   7.880
18309TIP3    H154812   4.531   3.180   7.869
18309TIP3    H254813   4.432   3.069   7.839
18310TIP3   OH254814   4.510   3.614   8.468
18310TIP3    H154815   4.469   3.551   8.529
18310TIP3    H254816   4.535   3.686   8.528
18311TIP3   OH254817   6.213   4.024   8.280
18311TIP3    H154818   6.242   4.056   8.368
18311TIP3    H254819   6.278   4.065   8.221
18312TIP3   OH254820   6.245   4.043   8.563
18312TIP3    H154821   6.201   3.955   8.559
18312TIP3    H254822   6.320   4.020   8.619
18313TIP3   OH254823   6.292   3.719   9.136
18313TIP3    H154824   6.217   3.727   9.199
18313TIP3    H254825   6.332   3.808   9.140
18314TIP3   OH254826   6.106   3.233   7.757
18314TIP3    H154827   6.176   3.295   7.729
18314TIP3    H254828   6.148   3.192   7.836
18315TIP3   OH254829   6.233   3.100   7.960
18315TIP3    H154830   6.168   3.056   8.019
18315TIP3    H254831   6.298   3.137   8.023
18316TIP3   OH254832   6.288   3.490   8.393
18316TIP3    H154833   6.341   3.426   8.342
18316TIP3    H254834   6.278   3.564   8.330
18317TIP3   OH254835   6.120   3.791   8.588
18317TIP3    H154836   6.049   3.832   8.640
18317TIP3    H254837   6.070   3.742   8.519
18318TIP3   OH254838   6.172   3.007   7.609
18318TIP3    H154839   6.100   3.008   7.541
18318TIP3    H254840   6.144   3.084   7.663
18319TIP3   OH254841   6.040   2.682   7.564
18319TIP3    H154842   6.015   2.720   7.479
18319TIP3    H254843   6.014   2.588   7.552
18320TIP3   OH254844   6.048   2.954   8.106
18320TIP3    H154845   6.056   2.858   8.101
18320TIP3    H254846   6.035   2.969   8.202
18321TIP3   OH254847   4.675   3.028   8.853
18321TIP3    H154848   4.673   2.999   8.759
18321TIP3    H254849   4.772   3.030   8.868
18322TIP3   OH254850   6.337   3.380   8.964
18322TIP3    H154851   6.409   3.314   8.955
18322TIP3    H254852   6.363   3.449   8.901
18323TIP3   OH254853   6.522   3.187   8.984
18323TIP3    H154854   6.447   3.135   9.021
18323TIP3    H254855   6.595   3.122   8.997
18324TIP3   OH254856   5.987   2.415   7.550
18324TIP3    H154857   6.064   2.384   7.602
18324TIP3    H254858   5.916   2.354   7.574
18325TIP3   OH254859   6.044   2.671   8.003
18325TIP3    H154860   6.085   2.583   8.018
18325TIP3    H254861   6.102   2.704   7.931
18326TIP3   OH254862   6.207   2.847   8.497
18326TIP3    H154863   6.293   2.873   8.456
18326TIP3    H254864   6.221   2.883   8.586
18327TIP3   OH254865   6.275   2.990   8.731
18327TIP3    H154866   6.196   3.024   8.777
18327TIP3    H254867   6.307   3.070   8.684
18328TIP3   OH254868   4.892   2.663   9.519
18328TIP3    H154869   4.984   2.696   9.514
18328TIP3    H254870   4.858   2.709   9.598
18329TIP3   OH254871   6.724   2.580   9.284
18329TIP3    H154872   6.783   2.515   9.241
18329TIP3    H254873   6.698   2.637   9.209
18330TIP3   OH254874   6.152   2.421   8.041
18330TIP3    H154875   6.202   2.404   8.124
18330TIP3    H254876   6.093   2.343   8.038
18331TIP3   OH254877   4.855   2.407   8.855
18331TIP3    H154878   4.919   2.334   8.867
18331TIP3    H254879   4.915   2.483   8.853
18332TIP3   OH254880   4.658   2.681   8.932
18332TIP3    H154881   4.706   2.677   8.846
18332TIP3    H254882   4.685   2.768   8.964
18333TIP3   OH254883   6.598   2.722   9.091
18333TIP3    H154884   6.509   2.760   9.108
18333TIP3    H254885   6.572   2.649   9.031
18334TIP3   OH254886   6.235   2.357   7.671
18334TIP3    H154887   6.277   2.283   7.623
18334TIP3    H254888   6.303   2.427   7.664
18335TIP3   OH254889   4.639   2.184   8.432
18335TIP3    H154890   4.545   2.185   8.459
18335TIP3    H254891   4.638   2.243   8.354
18336TIP3   OH254892   5.798   3.889   7.939
18336TIP3    H154893   5.849   3.871   7.857
18336TIP3    H254894   5.855   3.953   7.983
18337TIP3   OH254895   4.865   2.247   9.229
18337TIP3    H154896   4.814   2.230   9.311
18337TIP3    H254897   4.802   2.305   9.181
18338TIP3   OH254898   4.903   3.693   9.325
18338TIP3    H154899   4.810   3.667   9.308
18338TIP3    H254900   4.909   3.674   9.420
18339TIP3   OH254901   5.078   3.722   8.873
18339TIP3    H154902   5.027   3.796   8.835
18339TIP3    H254903   5.163   3.738   8.827
18340TIP3   OH254904   5.524   3.968   9.009
18340TIP3    H154905   5.565   3.970   9.098
18340TIP3    H254906   5.590   4.019   8.958
18341TIP3   OH254907   5.702   4.120   8.867
18341TIP3    H154908   5.773   4.068   8.826
18341TIP3    H254909   5.753   4.177   8.928
18342TIP3   OH254910   6.495   2.483   8.969
18342TIP3    H154911   6.405   2.479   8.934
18342TIP3    H254912   6.526   2.391   8.956
18343TIP3   OH254913   4.757   3.986   8.893
18343TIP3    H154914   4.667   4.019   8.871
18343TIP3    H254915   4.762   4.011   8.986
18344TIP3   OH254916   4.992   3.962   8.753
18344TIP3    H154917   4.906   3.973   8.799
18344TIP3    H254918   4.970   3.991   8.662
18345TIP3   OH254919   5.418   3.990   8.550
18345TIP3    H154920   5.347   4.009   8.486
18345TIP3    H254921   5.429   4.077   8.593
18346TIP3   OH254922   5.685   3.930   8.602
18346TIP3    H154923   5.591   3.944   8.582
18346TIP3    H254924   5.726   4.006   8.559
18347TIP3   OH254925   5.895   4.122   8.518
18347TIP3    H154926   5.879   4.206   8.470
18347TIP3    H254927   5.919   4.061   8.445
18348TIP3   OH254928   4.667   3.781   8.645
18348TIP3    H154929   4.696   3.752   8.734
18348TIP3    H254930   4.734   3.734   8.590
18349TIP3   OH254931   4.858   3.649   8.499
18349TIP3    H154932   4.873   3.563   8.546
18349TIP3    H254933   4.949   3.683   8.493
18350TIP3   OH254934   5.127   3.744   8.498
18350TIP3    H154935   5.156   3.651   8.485
18350TIP3    H254936   5.169   3.762   8.584
18351TIP3   OH254937   5.703   2.399   8.589
18351TIP3    H154938   5.658   2.328   8.639
18351TIP3    H254939   5.773   2.351   8.541
18352TIP3   OH254940   6.225   2.283   8.498
18352TIP3    H154941   6.262   2.331   8.420
18352TIP3    H254942   6.129   2.296   8.486
18353TIP3   OH254943   6.318   2.380   8.260
18353TIP3    H154944   6.389   2.326   8.219
18353TIP3    H254945   6.353   2.471   8.242
18354TIP3   OH254946   4.950   2.107   8.605
18354TIP3    H154947   4.858   2.073   8.603
18354TIP3    H254948   4.999   2.022   8.601
18355TIP3   OH254949   4.737   1.975   8.253
18355TIP3    H154950   4.767   2.032   8.180
18355TIP3    H254951   4.707   2.042   8.319
18356TIP3   OH254952   5.393   2.139   8.484
18356TIP3    H154953   5.452   2.188   8.424
18356TIP3    H254954   5.414   2.178   8.569
18357TIP3   OH254955   5.942   2.285   8.468
18357TIP3    H154956   5.940   2.250   8.379
18357TIP3    H254957   5.928   2.204   8.522
18358TIP3   OH254958   5.971   2.208   8.030
18358TIP3    H154959   5.883   2.249   8.040
18358TIP3    H254960   5.956   2.122   8.076
18359TIP3   OH254961   4.458   3.546   8.032
18359TIP3    H154962   4.374   3.511   7.996
18359TIP3    H254963   4.431   3.637   8.051
18360TIP3   OH254964   4.853   2.136   8.016
18360TIP3    H154965   4.901   2.073   7.959
18360TIP3    H254966   4.926   2.190   8.052
18361TIP3   OH254967   5.366   2.310   8.114
18361TIP3    H154968   5.426   2.263   8.173
18361TIP3    H254969   5.387   2.403   8.139
18362TIP3   OH254970   5.225   3.737   7.612
18362TIP3    H154971   5.314   3.758   7.577
18362TIP3    H254972   5.203   3.661   7.554
18363TIP3   OH254973   5.944   3.853   7.706
18363TIP3    H154974   5.936   3.756   7.693
18363TIP3    H254975   5.900   3.886   7.626
18364TIP3   OH254976   5.174   2.383   9.511
18364TIP3    H154977   5.158   2.307   9.569
18364TIP3    H254978   5.269   2.374   9.496
18365TIP3   OH254979   4.526   3.574   7.669
18365TIP3    H154980   4.514   3.607   7.760
18365TIP3    H254981   4.616   3.535   7.671
18366TIP3   OH254982   6.224   2.452   9.380
18366TIP3    H154983   6.233   2.421   9.474
18366TIP3    H254984   6.316   2.444   9.347
18367TIP3   OH254985   6.171   3.998   8.895
18367TIP3    H154986   6.092   3.966   8.847
18367TIP3    H254987   6.151   4.094   8.897
18368TIP3   OH254988   7.438   3.367   7.660
18368TIP3    H154989   7.413   3.461   7.645
18368TIP3    H254990   7.358   3.323   7.628
18369TIP3   OH254991   7.421   3.371   8.044
18369TIP3    H154992   7.464   3.349   8.129
18369TIP3    H254993   7.387   3.285   8.015
18370TIP3   OH254994   6.735   3.268   8.408
18370TIP3    H154995   6.768   3.200   8.470
18370TIP3    H254996   6.815   3.321   8.395
18371TIP3   OH254997   7.672   3.673   7.730
18371TIP3    H154998   7.673   3.599   7.792
18371TIP3    H254999   7.694   3.744   7.795
18372TIP3   OH255000   6.706   3.675   8.133
18372TIP3    H155001   6.697   3.577   8.135
18372TIP3    H255002   6.803   3.684   8.127
18373TIP3   OH255003   6.413   2.881   7.919
18373TIP3    H155004   6.362   2.963   7.930
18373TIP3    H255005   6.345   2.824   7.880
18374TIP3   OH255006   6.473   3.166   8.088
18374TIP3    H155007   6.522   3.089   8.125
18374TIP3    H255008   6.531   3.192   8.015
18375TIP3   OH255009   7.326   4.135   7.737
18375TIP3    H155010   7.374   4.063   7.690
18375TIP3    H255011   7.325   4.102   7.828
18376TIP3   OH255012   7.231   3.592   8.087
18376TIP3    H155013   7.274   3.514   8.046
18376TIP3    H255014   7.310   3.643   8.110
18377TIP3   OH255015   8.246   2.918   8.085
18377TIP3    H155016   8.271   3.002   8.130
18377TIP3    H255017   8.259   2.943   7.992
18378TIP3   OH255018   7.650   3.095   8.123
18378TIP3    H155019   7.690   3.008   8.140
18378TIP3    H255020   7.615   3.082   8.033
18379TIP3   OH255021   6.985   2.756   8.087
18379TIP3    H155022   6.962   2.828   8.025
18379TIP3    H255023   6.938   2.682   8.044
18380TIP3   OH255024   7.679   2.847   7.712
18380TIP3    H155025   7.753   2.832   7.775
18380TIP3    H255026   7.728   2.885   7.637
18381TIP3   OH255027   6.618   2.959   8.195
18381TIP3    H155028   6.701   2.938   8.241
18381TIP3    H255029   6.628   2.903   8.115
18382TIP3   OH255030   7.059   3.157   7.986
18382TIP3    H155031   7.152   3.131   7.999
18382TIP3    H255032   7.019   3.073   7.955
18383TIP3   OH255033   8.319   3.123   8.260
18383TIP3    H155034   8.237   3.174   8.241
18383TIP3    H255035   8.346   3.162   8.346
18384TIP3   OH255036   6.982   2.741   8.523
18384TIP3    H155037   6.922   2.776   8.454
18384TIP3    H255038   6.929   2.760   8.603
18385TIP3   OH255039   7.333   3.593   7.527
18385TIP3    H155040   7.285   3.569   7.447
18385TIP3    H255041   7.288   3.676   7.553
18386TIP3   OH255042   7.085   3.514   8.320
18386TIP3    H155043   7.023   3.580   8.358
18386TIP3    H255044   7.131   3.566   8.252
18387TIP3   OH255045   7.893   2.847   7.882
18387TIP3    H155046   7.874   2.804   7.966
18387TIP3    H255047   7.942   2.927   7.910
18388TIP3   OH255048   6.852   2.854   8.306
18388TIP3    H155049   6.914   2.928   8.327
18388TIP3    H255050   6.901   2.813   8.231
18389TIP3   OH255051   6.914   3.709   8.415
18389TIP3    H155052   6.890   3.795   8.375
18389TIP3    H255053   6.835   3.695   8.472
18390TIP3   OH255054   6.312   3.399   7.651
18390TIP3    H155055   6.269   3.424   7.567
18390TIP3    H255056   6.341   3.485   7.686
18391TIP3   OH255057   8.041   2.812   8.252
18391TIP3    H155058   7.952   2.843   8.227
18391TIP3    H255059   8.096   2.848   8.179
18392TIP3   OH255060   7.342   2.459   8.239
18392TIP3    H155061   7.324   2.364   8.252
18392TIP3    H255062   7.262   2.498   8.281
18393TIP3   OH255063   7.449   3.962   7.560
18393TIP3    H155064   7.503   3.881   7.546
18393TIP3    H255065   7.510   4.028   7.521
18394TIP3   OH255066   7.599   3.746   7.473
18394TIP3    H155067   7.549   3.668   7.445
18394TIP3    H255068   7.633   3.716   7.561
18395TIP3   OH255069   7.984   3.826   8.230
18395TIP3    H155070   7.963   3.748   8.173
18395TIP3    H255071   7.946   3.896   8.174
18396TIP3   OH255072   7.266   3.220   7.490
18396TIP3    H155073   7.185   3.271   7.468
18396TIP3    H255074   7.312   3.220   7.404
18397TIP3   OH255075   7.226   3.007   7.208
18397TIP3    H155076   7.295   3.056   7.258
18397TIP3    H255077   7.281   2.942   7.161
18398TIP3   OH255078   8.182   3.457   8.076
18398TIP3    H155079   8.096   3.507   8.083
18398TIP3    H255080   8.208   3.486   7.986
18399TIP3   OH255081   7.615   3.304   7.463
18399TIP3    H155082   7.559   3.330   7.540
18399TIP3    H255083   7.698   3.279   7.508
18400TIP3   OH255084   7.849   3.344   8.373
18400TIP3    H155085   7.847   3.429   8.420
18400TIP3    H255086   7.766   3.352   8.322
18401TIP3   OH255087   6.847   3.303   7.879
18401TIP3    H155088   6.805   3.245   7.812
18401TIP3    H255089   6.924   3.250   7.908
18402TIP3   OH255090   6.976   3.714   8.027
18402TIP3    H155091   6.956   3.668   7.944
18402TIP3    H255092   7.065   3.680   8.048
18403TIP3   OH255093   6.983   3.273   8.234
18403TIP3    H155094   7.017   3.254   8.144
18403TIP3    H255095   7.026   3.359   8.255
18404TIP3   OH255096   7.119   3.833   8.561
18404TIP3    H155097   7.058   3.895   8.605
18404TIP3    H255098   7.056   3.777   8.512
18405TIP3   OH255099   7.458   3.160   7.290
18405TIP3    H155100   7.516   3.221   7.342
18405TIP3    H255101   7.483   3.186   7.198
18406TIP3   OH255102   6.876   3.385   8.661
18406TIP3    H155103   6.880   3.473   8.703
18406TIP3    H255104   6.780   3.368   8.665
18407TIP3   OH255105   7.197   3.842   7.565
18407TIP3    H155106   7.278   3.894   7.580
18407TIP3    H255107   7.136   3.908   7.528
18408TIP3   OH255108   6.913   4.003   8.644
18408TIP3    H155109   6.881   3.997   8.552
18408TIP3    H255110   6.834   3.979   8.696
18409TIP3   OH255111   7.971   2.403   7.338
18409TIP3    H155112   7.890   2.422   7.388
18409TIP3    H255113   7.983   2.487   7.289
18410TIP3   OH255114   6.713   3.145   7.686
18410TIP3    H155115   6.648   3.190   7.628
18410TIP3    H255116   6.673   3.058   7.696
18411TIP3   OH255117   7.769   3.771   6.883
18411TIP3    H155118   7.777   3.868   6.872
18411TIP3    H255119   7.862   3.742   6.872
18412TIP3   OH255120   6.494   3.529   8.591
18412TIP3    H155121   6.430   3.506   8.521
18412TIP3    H255122   6.531   3.442   8.616
18413TIP3   OH255123   6.349   3.721   8.225
18413TIP3    H155124   6.445   3.713   8.214
18413TIP3    H255125   6.342   3.801   8.280
18414TIP3   OH255126   8.215   4.175   8.278
18414TIP3    H155127   8.212   4.078   8.288
18414TIP3    H255128   8.131   4.199   8.324
18415TIP3   OH255129   7.307   3.967   8.404
18415TIP3    H155130   7.311   4.055   8.446
18415TIP3    H255131   7.250   3.918   8.467
18416TIP3   OH255132   7.078   4.089   7.366
18416TIP3    H155133   7.032   4.070   7.282
18416TIP3    H255134   7.046   4.179   7.388
18417TIP3   OH255135   6.517   3.938   7.750
18417TIP3    H155136   6.565   3.928   7.835
18417TIP3    H255137   6.461   3.859   7.752
18418TIP3   OH255138   7.281   3.989   7.007
18418TIP3    H155139   7.340   3.919   6.971
18418TIP3    H255140   7.315   3.998   7.099
18419TIP3   OH255141   7.331   4.037   7.278
18419TIP3    H155142   7.243   4.046   7.321
18419TIP3    H255143   7.383   3.998   7.350
18420TIP3   OH255144   8.109   3.304   8.549
18420TIP3    H155145   8.025   3.324   8.506
18420TIP3    H255146   8.115   3.207   8.538
18421TIP3   OH255147   6.699   3.713   8.582
18421TIP3    H155148   6.750   3.694   8.664
18421TIP3    H255149   6.626   3.648   8.589
18422TIP3   OH255150   7.100   2.536   8.363
18422TIP3    H155151   7.011   2.503   8.337
18422TIP3    H255152   7.073   2.618   8.407
18423TIP3   OH255153   7.629   2.651   8.558
18423TIP3    H155154   7.693   2.625   8.627
18423TIP3    H255155   7.542   2.632   8.600
18424TIP3   OH255156   7.877   3.083   8.478
18424TIP3    H155157   7.824   3.080   8.561
18424TIP3    H255158   7.850   3.168   8.440
18425TIP3   OH255159   7.532   3.208   7.033
18425TIP3    H155160   7.499   3.183   6.944
18425TIP3    H255161   7.611   3.261   7.009
18426TIP3   OH255162   7.249   2.584   7.334
18426TIP3    H155163   7.214   2.583   7.426
18426TIP3    H255164   7.206   2.503   7.300
18427TIP3   OH255165   7.031   3.050   8.382
18427TIP3    H155166   6.980   3.071   8.463
18427TIP3    H255167   7.015   3.131   8.328
18428TIP3   OH255168   6.914   2.936   7.897
18428TIP3    H155169   6.821   2.910   7.914
18428TIP3    H255170   6.928   2.896   7.808
18429TIP3   OH255171   7.405   3.023   7.624
18429TIP3    H155172   7.351   3.095   7.584
18429TIP3    H255173   7.458   2.995   7.547
18430TIP3   OH255174   7.581   3.301   8.709
18430TIP3    H155175   7.558   3.230   8.773
18430TIP3    H255176   7.674   3.318   8.731
18431TIP3   OH255177   7.560   3.050   7.866
18431TIP3    H155178   7.503   3.085   7.795
18431TIP3    H255179   7.591   2.969   7.821
18432TIP3   OH255180   6.850   3.081   8.591
18432TIP3    H155181   6.877   3.145   8.659
18432TIP3    H255182   6.838   2.999   8.643
18433TIP3   OH255183   6.903   2.558   7.301
18433TIP3    H155184   6.892   2.553   7.398
18433TIP3    H255185   6.822   2.607   7.276
18434TIP3   OH255186   6.442   2.605   8.173
18434TIP3    H155187   6.521   2.632   8.224
18434TIP3    H255188   6.478   2.567   8.091
18435TIP3   OH255189   6.417   2.583   7.691
18435TIP3    H155190   6.462   2.622   7.613
18435TIP3    H255191   6.356   2.656   7.713
18436TIP3   OH255192   7.566   3.295   8.284
18436TIP3    H155193   7.603   3.224   8.227
18436TIP3    H255194   7.540   3.243   8.363
18437TIP3   OH255195   7.243   2.758   7.959
18437TIP3    H155196   7.157   2.754   8.006
18437TIP3    H255197   7.305   2.765   8.032
18438TIP3   OH255198   6.676   2.814   7.967
18438TIP3    H155199   6.582   2.821   7.940
18438TIP3    H255200   6.699   2.722   7.943
18439TIP3   OH255201   6.948   2.814   7.654
18439TIP3    H155202   7.041   2.827   7.629
18439TIP3    H255203   6.899   2.835   7.571
18440TIP3   OH255204   7.735   2.830   8.157
18440TIP3    H155205   7.701   2.845   8.248
18440TIP3    H255206   7.666   2.770   8.123
18441TIP3   OH255207   6.786   2.847   7.435
18441TIP3    H155208   6.714   2.800   7.389
18441TIP3    H255209   6.837   2.880   7.358
18442TIP3   OH255210   7.902   4.524   8.378
18442TIP3    H155211   7.899   4.545   8.283
18442TIP3    H255212   7.979   4.575   8.408
18443TIP3   OH255213   6.859   3.633   8.801
18443TIP3    H155214   6.940   3.664   8.846
18443TIP3    H255215   6.796   3.634   8.875
18444TIP3   OH255216   7.325   3.085   8.053
18444TIP3    H155217   7.398   3.046   8.003
18444TIP3    H255218   7.338   3.047   8.142
18445TIP3   OH255219   6.852   2.574   7.933
18445TIP3    H155220   6.814   2.496   7.980
18445TIP3    H255221   6.901   2.532   7.861
18446TIP3   OH255222   7.302   2.981   8.350
18446TIP3    H155223   7.212   3.019   8.359
18446TIP3    H255224   7.358   3.045   8.398
18447TIP3   OH255225   7.038   3.375   7.439
18447TIP3    H155226   6.966   3.309   7.429
18447TIP3    H255227   7.021   3.409   7.531
18448TIP3   OH255228   7.952   3.595   8.074
18448TIP3    H155229   7.963   3.661   8.003
18448TIP3    H255230   7.855   3.580   8.063
18449TIP3   OH255231   7.497   2.689   7.297
18449TIP3    H155232   7.401   2.670   7.309
18449TIP3    H255233   7.505   2.783   7.325
18450TIP3   OH255234   7.400   3.679   8.466
18450TIP3    H155235   7.466   3.676   8.535
18450TIP3    H255236   7.409   3.768   8.429
18451TIP3   OH255237   7.566   2.933   7.405
18451TIP3    H155238   7.662   2.941   7.421
18451TIP3    H255239   7.546   3.013   7.353
18452TIP3   OH255240   6.730   3.397   8.117
18452TIP3    H155241   6.768   3.369   8.031
18452TIP3    H255242   6.771   3.333   8.177
18453TIP3   OH255243   7.183   3.524   7.260
18453TIP3    H155244   7.136   3.611   7.268
18453TIP3    H255245   7.129   3.468   7.320
18454TIP3   OH255246   6.609   3.318   8.730
18454TIP3    H155247   6.631   3.303   8.824
18454TIP3    H255248   6.541   3.251   8.714
18455TIP3   OH255249   7.336   3.426   8.754
18455TIP3    H155250   7.277   3.375   8.696
18455TIP3    H255251   7.424   3.399   8.720
18456TIP3   OH255252   7.596   3.938   8.357
18456TIP3    H155253   7.505   3.959   8.331
18456TIP3    H255254   7.614   4.006   8.425
18457TIP3   OH255255   8.011   3.023   7.240
18457TIP3    H155256   7.948   2.978   7.179
18457TIP3    H255257   8.006   3.112   7.200
18458TIP3   OH255258   8.231   3.884   8.321
18458TIP3    H155259   8.133   3.878   8.311
18458TIP3    H255260   8.257   3.853   8.232
18459TIP3   OH255261   7.708   3.844   7.150
18459TIP3    H155262   7.683   3.776   7.214
18459TIP3    H255263   7.719   3.794   7.067
18460TIP3   OH255264   7.709   3.455   7.989
18460TIP3    H155265   7.614   3.447   8.000
18460TIP3    H255266   7.732   3.377   7.935
18461TIP3   OH255267   6.830   3.699   7.740
18461TIP3    H155268   6.833   3.781   7.688
18461TIP3    H255269   6.735   3.685   7.749
18462TIP3   OH255270   6.396   3.003   7.449
18462TIP3    H155271   6.441   3.088   7.468
18462TIP3    H255272   6.317   3.010   7.507
18463TIP3   OH255273   6.972   3.467   7.686
18463TIP3    H155274   6.936   3.556   7.704
18463TIP3    H255275   6.935   3.416   7.761
18464TIP3   OH255276   7.101   4.043   8.210
18464TIP3    H155277   7.144   4.114   8.160
18464TIP3    H255278   7.177   4.009   8.262
18465TIP3   OH255279   6.751   3.940   7.593
18465TIP3    H155280   6.665   3.947   7.639
18465TIP3    H255281   6.782   4.033   7.597
18466TIP3   OH255282   7.462   3.570   7.050
18466TIP3    H155283   7.515   3.546   7.129
18466TIP3    H255284   7.373   3.545   7.081
18467TIP3   OH255285   7.735   4.215   8.227
18467TIP3    H155286   7.661   4.153   8.210
18467TIP3    H255287   7.721   4.278   8.153
18468TIP3   OH255288   7.803   4.047   6.871
18468TIP3    H155289   7.842   4.121   6.821
18468TIP3    H255290   7.723   4.092   6.905
18469TIP3   OH255291   6.823   2.824   8.739
18469TIP3    H155292   6.726   2.828   8.750
18469TIP3    H255293   6.848   2.761   8.808
18470TIP3   OH255294   7.622   3.501   7.264
18470TIP3    H155295   7.612   3.439   7.338
18470TIP3    H255296   7.720   3.503   7.256
18471TIP3   OH255297   6.538   3.909   8.371
18471TIP3    H155298   6.590   3.832   8.398
18471TIP3    H255299   6.571   3.976   8.432
18472TIP3   OH255300   6.829   3.552   7.050
18472TIP3    H155301   6.843   3.460   7.021
18472TIP3    H255302   6.811   3.539   7.146
18473TIP3   OH255303   6.775   3.557   7.323
18473TIP3    H155304   6.845   3.528   7.384
18473TIP3    H255305   6.780   3.655   7.331
18474TIP3   OH255306   6.512   3.252   7.527
18474TIP3    H155307   6.446   3.295   7.584
18474TIP3    H255308   6.526   3.321   7.460
18475TIP3   OH255309   7.663   2.885   8.415
18475TIP3    H155310   7.738   2.926   8.461
18475TIP3    H255311   7.644   2.807   8.470
18476TIP3   OH255312   7.543   2.638   7.580
18476TIP3    H155313   7.524   2.664   7.488
18476TIP3    H255314   7.579   2.722   7.618
18477TIP3   OH255315   7.040   3.754   7.271
18477TIP3    H155316   6.954   3.782   7.308
18477TIP3    H255317   7.058   3.827   7.210
18478TIP3   OH255318   7.234   2.815   7.686
18478TIP3    H155319   7.296   2.889   7.668
18478TIP3    H255320   7.234   2.812   7.784
18479TIP3   OH255321   7.497   3.135   8.496
18479TIP3    H155322   7.516   3.195   8.572
18479TIP3    H255323   7.555   3.060   8.513
18480TIP3   OH255324   7.381   2.551   7.796
18480TIP3    H155325   7.359   2.632   7.845
18480TIP3    H255326   7.437   2.586   7.723
18481TIP3   OH255327   6.783   3.830   7.339
18481TIP3    H155328   6.753   3.900   7.276
18481TIP3    H255329   6.767   3.874   7.426
18482TIP3   OH255330   6.883   2.543   7.577
18482TIP3    H155331   6.883   2.633   7.615
18482TIP3    H255332   6.978   2.521   7.586
18483TIP3   OH255333   8.141   3.028   8.479
18483TIP3    H155334   8.043   3.031   8.482
18483TIP3    H255335   8.155   3.011   8.385
18484TIP3   OH255336   7.791   3.219   7.855
18484TIP3    H155337   7.713   3.163   7.874
18484TIP3    H255338   7.861   3.178   7.910
18485TIP3   OH255339   6.502   3.462   7.332
18485TIP3    H155340   6.569   3.532   7.341
18485TIP3    H255341   6.547   3.406   7.265
18486TIP3   OH255342   6.448   2.735   7.464
18486TIP3    H155343   6.445   2.832   7.462
18486TIP3    H255344   6.363   2.711   7.425
18487TIP3   OH255345   7.753   4.215   7.822
18487TIP3    H155346   7.717   4.248   7.737
18487TIP3    H255347   7.847   4.201   7.798
18488TIP3   OH255348   6.835   2.456   8.339
18488TIP3    H155349   6.803   2.424   8.252
18488TIP3    H255350   6.823   2.376   8.394
18489TIP3   OH255351   6.376   3.679   7.722
18489TIP3    H155352   6.301   3.706   7.776
18489TIP3    H255353   6.351   3.716   7.635
18490TIP3   OH255354   6.529   4.214   8.792
18490TIP3    H155355   6.615   4.213   8.838
18490TIP3    H255356   6.509   4.119   8.789
18491TIP3   OH255357   7.013   4.181   8.836
18491TIP3    H155358   7.107   4.160   8.842
18491TIP3    H255359   6.987   4.124   8.761
18492TIP3   OH255360   6.993   3.756   6.964
18492TIP3    H155361   6.936   3.686   7.004
18492TIP3    H255362   7.068   3.703   6.933
18493TIP3   OH255363   7.642   4.099   8.581
18493TIP3    H155364   7.639   4.020   8.640
18493TIP3    H255365   7.727   4.139   8.603
18494TIP3   OH255366   7.429   3.798   6.875
18494TIP3    H155367   7.473   3.733   6.934
18494TIP3    H255368   7.488   3.797   6.797
18495TIP3   OH255369   6.659   3.621   8.993
18495TIP3    H155370   6.678   3.525   8.994
18495TIP3    H255371   6.572   3.624   8.948
18496TIP3   OH255372   6.637   3.275   7.183
18496TIP3    H155373   6.690   3.237   7.256
18496TIP3    H255374   6.705   3.278   7.113
18497TIP3   OH255375   7.266   3.704   8.766
18497TIP3    H155376   7.235   3.723   8.675
18497TIP3    H255377   7.301   3.613   8.756
18498TIP3   OH255378   7.145   3.471   6.990
18498TIP3    H155379   7.148   3.484   7.087
18498TIP3    H255380   7.145   3.373   6.986
18499TIP3   OH255381   7.762   3.711   8.375
18499TIP3    H155382   7.827   3.753   8.316
18499TIP3    H255383   7.685   3.770   8.356
18500TIP3   OH255384   6.777   3.355   8.974
18500TIP3    H155385   6.853   3.300   8.950
18500TIP3    H255386   6.803   3.388   9.063
18501TIP3   OH255387   6.848   3.176   7.408
18501TIP3    H155388   6.819   3.133   7.490
18501TIP3    H255389   6.881   3.099   7.357
18502TIP3   OH255390   7.115   3.239   8.634
18502TIP3    H155391   7.038   3.300   8.638
18502TIP3    H255392   7.162   3.271   8.555
18503TIP3   OH255393   6.945   2.969   7.248
18503TIP3    H155394   6.918   2.970   7.154
18503TIP3    H255395   7.043   2.977   7.238
18504TIP3   OH255396   7.629   3.641   8.770
18504TIP3    H155397   7.710   3.623   8.719
18504TIP3    H255398   7.633   3.573   8.840
18505TIP3   OH255399   7.771   3.302   6.908
18505TIP3    H155400   7.746   3.255   6.826
18505TIP3    H255401   7.738   3.392   6.885
18506TIP3   OH255402   7.240   3.028   8.762
18506TIP3    H155403   7.238   2.949   8.705
18506TIP3    H255404   7.196   3.095   8.704
18507TIP3   OH255405   7.241   2.813   8.569
18507TIP3    H155406   7.267   2.857   8.485
18507TIP3    H255407   7.147   2.791   8.550
18508TIP3   OH255408   7.269   3.348   8.439
18508TIP3    H155409   7.354   3.363   8.395
18508TIP3    H255410   7.215   3.420   8.401
18509TIP3   OH255411   7.851   3.322   8.822
18509TIP3    H155412   7.908   3.245   8.837
18509TIP3    H255413   7.915   3.388   8.793
18510TIP3   OH255414   7.892   3.567   8.559
18510TIP3    H155415   7.834   3.622   8.501
18510TIP3    H255416   7.979   3.589   8.518
18511TIP3   OH255417   7.118   3.140   8.993
18511TIP3    H155418   7.047   3.073   9.004
18511TIP3    H255419   7.150   3.118   8.903
18512TIP3   OH255420   7.371   2.580   8.634
18512TIP3    H155421   7.323   2.662   8.610
18512TIP3    H255422   7.301   2.513   8.622
18513TIP3   OH255423   7.501   3.082   8.851
18513TIP3    H155424   7.485   3.074   8.947
18513TIP3    H255425   7.411   3.059   8.818
18514TIP3   OH255426   7.736   3.026   8.704
18514TIP3    H155427   7.658   3.035   8.762
18514TIP3    H255428   7.806   3.002   8.767
18515TIP3   OH255429   7.985   2.972   8.860
18515TIP3    H155430   7.972   2.879   8.884
18515TIP3    H255431   7.967   3.021   8.944
18516TIP3   OH255432   6.954   2.922   9.043
18516TIP3    H155433   6.960   2.832   9.007
18516TIP3    H255434   6.989   2.908   9.134
18517TIP3   OH255435   7.466   2.591   8.890
18517TIP3    H155436   7.528   2.517   8.878
18517TIP3    H255437   7.421   2.589   8.803
18518TIP3   OH255438   7.533   2.803   9.052
18518TIP3    H155439   7.509   2.734   8.987
18518TIP3    H255440   7.456   2.864   9.046
18519TIP3   OH255441   6.753   4.034   7.152
18519TIP3    H155442   6.848   4.029   7.132
18519TIP3    H255443   6.722   4.081   7.072
18520TIP3   OH255444   6.233   3.414   7.368
18520TIP3    H155445   6.328   3.434   7.355
18520TIP3    H255446   6.227   3.325   7.327
18521TIP3   OH255447   6.146   4.027   7.782
18521TIP3    H155448   6.079   3.964   7.747
18521TIP3    H255449   6.191   3.970   7.848
18522TIP3   OH255450   6.282   3.880   7.969
18522TIP3    H155451   6.272   3.804   8.028
18522TIP3    H255452   6.334   3.940   8.026
18523TIP3   OH255453   8.018   4.272   7.764
18523TIP3    H155454   8.034   4.304   7.854
18523TIP3    H255455   8.076   4.328   7.711
18524TIP3   OH255456   8.045   4.303   8.046
18524TIP3    H155457   7.992   4.219   8.041
18524TIP3    H255458   8.113   4.273   8.108
18525TIP3   OH255459   8.089   3.974   8.626
18525TIP3    H155460   8.012   3.984   8.686
18525TIP3    H255461   8.127   4.064   8.626
18526TIP3   OH255462   7.904   3.487   7.242
18526TIP3    H155463   7.973   3.552   7.217
18526TIP3    H255464   7.945   3.448   7.322
18527TIP3   OH255465   8.031   3.354   7.445
18527TIP3    H155466   7.964   3.313   7.504
18527TIP3    H255467   8.093   3.396   7.509
18528TIP3   OH255468   8.103   3.752   7.889
18528TIP3    H155469   8.137   3.686   7.827
18528TIP3    H255470   8.056   3.815   7.831
18529TIP3   OH255471   7.919   4.065   8.074
18529TIP3    H155472   7.845   4.096   8.130
18529TIP3    H255473   7.870   3.995   8.022
18530TIP3   OH255474   7.969   3.262   7.094
18530TIP3    H155475   7.897   3.267   7.027
18530TIP3    H255476   7.943   3.338   7.150
18531TIP3   OH255477   7.843   2.934   7.047
18531TIP3    H155478   7.796   2.978   6.975
18531TIP3    H255479   7.815   2.840   7.034
18532TIP3   OH255480   7.846   3.210   7.590
18532TIP3    H155481   7.852   3.114   7.588
18532TIP3    H255482   7.831   3.227   7.686
18533TIP3   OH255483   6.471   3.285   8.340
18533TIP3    H155484   6.470   3.255   8.247
18533TIP3    H255485   6.568   3.287   8.357
18534TIP3   OH255486   8.132   3.635   8.450
18534TIP3    H155487   8.209   3.575   8.438
18534TIP3    H255488   8.148   3.703   8.383
18535TIP3   OH255489   8.323   3.445   8.465
18535TIP3    H155490   8.246   3.396   8.503
18535TIP3    H255491   8.393   3.379   8.482
18536TIP3   OH255492   7.785   2.667   7.031
18536TIP3    H155493   7.856   2.639   7.092
18536TIP3    H255494   7.708   2.613   7.059
18537TIP3   OH255495   7.840   2.927   7.490
18537TIP3    H155496   7.882   2.838   7.504
18537TIP3    H255497   7.898   2.962   7.420
18538TIP3   OH255498   8.005   3.098   7.986
18538TIP3    H155499   8.090   3.127   7.946
18538TIP3    H255500   8.013   3.141   8.073
18539TIP3   OH255501   8.070   3.246   8.218
18539TIP3    H155502   7.991   3.281   8.264
18539TIP3    H255503   8.102   3.326   8.171
18540TIP3   OH255504   6.687   2.974   9.017
18540TIP3    H155505   6.785   2.966   9.016
18540TIP3    H255506   6.663   2.888   9.057
18541TIP3   OH255507   7.952   2.676   7.525
18541TIP3    H155508   7.996   2.661   7.611
18541TIP3    H255509   7.889   2.601   7.523
18542TIP3   OH255510   6.650   2.664   8.350
18542TIP3    H155511   6.712   2.588   8.356
18542TIP3    H255512   6.712   2.738   8.341
18543TIP3   OH255513   6.454   2.939   8.421
18543TIP3    H155514   6.501   2.928   8.336
18543TIP3    H255515   6.484   3.027   8.447
18544TIP3   OH255516   8.388   2.969   8.602
18544TIP3    H155517   8.302   3.015   8.600
18544TIP3    H255518   8.374   2.903   8.532
18545TIP3   OH255519   8.032   2.614   7.161
18545TIP3    H155520   8.071   2.542   7.107
18545TIP3    H255521   8.097   2.686   7.151
18546TIP3   OH255522   6.436   2.451   7.926
18546TIP3    H155523   6.341   2.441   7.945
18546TIP3    H255524   6.435   2.502   7.842
18547TIP3   OH255525   7.591   4.146   7.423
18547TIP3    H155526   7.648   4.130   7.345
18547TIP3    H255527   7.645   4.207   7.476
18548TIP3   OH255528   6.657   2.523   8.736
18548TIP3    H155529   6.604   2.517   8.818
18548TIP3    H255530   6.591   2.560   8.674
18549TIP3   OH255531   6.695   3.949   8.812
18549TIP3    H155532   6.604   3.920   8.794
18549TIP3    H255533   6.704   3.930   8.906
18550TIP3   OH255534   6.873   3.980   8.359
18550TIP3    H155535   6.827   4.057   8.319
18550TIP3    H255536   6.960   3.992   8.316
18551TIP3   OH255537   7.319   4.229   8.500
18551TIP3    H155538   7.364   4.228   8.587
18551TIP3    H255539   7.384   4.276   8.445
18552TIP3   OH255540   7.494   4.379   8.355
18552TIP3    H155541   7.558   4.325   8.305
18552TIP3    H255542   7.553   4.431   8.413
18553TIP3   OH255543   8.285   2.739   8.457
18553TIP3    H155544   8.196   2.740   8.417
18553TIP3    H255545   8.314   2.647   8.442
18554TIP3   OH255546   6.550   4.239   8.380
18554TIP3    H155547   6.461   4.274   8.358
18554TIP3    H255548   6.559   4.270   8.471
18555TIP3   OH255549   6.787   4.217   8.239
18555TIP3    H155550   6.700   4.229   8.285
18555TIP3    H255551   6.767   4.249   8.149
18556TIP3   OH255552   7.210   4.246   8.035
18556TIP3    H155553   7.141   4.271   7.971
18556TIP3    H255554   7.228   4.331   8.080
18557TIP3   OH255555   7.481   4.206   8.101
18557TIP3    H155556   7.389   4.202   8.069
18557TIP3    H255557   7.522   4.268   8.039
18558TIP3   OH255558   7.697   4.391   8.014
18558TIP3    H155559   7.678   4.469   7.959
18558TIP3    H255560   7.718   4.323   7.945
18559TIP3   OH255561   6.462   4.032   8.128
18559TIP3    H155562   6.489   4.006   8.219
18559TIP3    H255563   6.534   3.989   8.077
18560TIP3   OH255564   6.655   3.903   7.984
18560TIP3    H155565   6.671   3.819   8.031
18560TIP3    H255566   6.746   3.940   7.980
18561TIP3   OH255567   6.921   3.999   7.987
18561TIP3    H155568   6.952   3.907   7.974
18561TIP3    H255569   6.966   4.020   8.071
18562TIP3   OH255570   7.504   2.657   8.084
18562TIP3    H155571   7.453   2.589   8.132
18562TIP3    H255572   7.561   2.604   8.026
18563TIP3   OH255573   8.025   2.535   7.981
18563TIP3    H155574   8.058   2.588   7.906
18563TIP3    H255575   7.929   2.551   7.975
18564TIP3   OH255576   8.118   2.633   7.744
18564TIP3    H155577   8.191   2.585   7.700
18564TIP3    H255578   8.148   2.726   7.729
18565TIP3   OH255579   6.741   2.372   8.091
18565TIP3    H155580   6.649   2.336   8.089
18565TIP3    H255581   6.791   2.287   8.092
18566TIP3   OH255582   6.518   2.229   7.729
18566TIP3    H155583   6.560   2.288   7.664
18566TIP3    H255584   6.502   2.289   7.804
18567TIP3   OH255585   7.186   2.406   7.959
18567TIP3    H155586   7.255   2.457   7.914
18567TIP3    H255587   7.201   2.429   8.052
18568TIP3   OH255588   7.748   2.540   7.953
18568TIP3    H155589   7.726   2.510   7.864
18568TIP3    H255590   7.727   2.461   8.007
18569TIP3   OH255591   7.767   2.464   7.517
18569TIP3    H155592   7.681   2.509   7.529
18569TIP3    H255593   7.750   2.379   7.563
18570TIP3   OH255594   6.250   3.802   7.518
18570TIP3    H155595   6.165   3.768   7.484
18570TIP3    H255596   6.238   3.897   7.502
18571TIP3   OH255597   6.649   2.395   7.500
18571TIP3    H155598   6.698   2.328   7.448
18571TIP3    H255599   6.722   2.447   7.538
18572TIP3   OH255600   7.162   2.567   7.597
18572TIP3    H155601   7.210   2.513   7.661
18572TIP3    H255602   7.187   2.657   7.627
18573TIP3   OH255603   7.021   3.994   7.099
18573TIP3    H155604   7.110   4.015   7.064
18573TIP3    H255605   6.999   3.917   7.041
18574TIP3   OH255606   7.742   4.111   7.192
18574TIP3    H155607   7.733   4.013   7.180
18574TIP3    H255608   7.696   4.143   7.113
18575TIP3   OH255609   6.953   2.644   8.984
18575TIP3    H155610   6.921   2.573   9.041
18575TIP3    H255611   7.048   2.646   9.009
18576TIP3   OH255612   7.203   2.642   9.104
18576TIP3    H155613   7.285   2.612   9.062
18576TIP3    H255614   7.188   2.571   9.170
18577TIP3   OH255615   6.327   3.832   7.158
18577TIP3    H155616   6.325   3.854   7.252
18577TIP3    H255617   6.415   3.789   7.148
18578TIP3   OH255618   8.029   2.698   8.882
18578TIP3    H155619   8.048   2.672   8.975
18578TIP3    H255620   8.115   2.718   8.843
18579TIP3   OH255621   7.968   4.256   8.379
18579TIP3    H155622   7.889   4.221   8.333
18579TIP3    H255623   7.945   4.350   8.383
18580TIP3   OH255624   9.233   3.626   7.148
18580TIP3    H155625   9.205   3.718   7.127
18580TIP3    H255626   9.156   3.578   7.114
18581TIP3   OH255627   9.232   3.628   7.522
18581TIP3    H155628   9.257   3.603   7.613
18581TIP3    H255629   9.186   3.549   7.491
18582TIP3   OH255630   8.537   3.521   7.886
18582TIP3    H155631   8.565   3.457   7.954
18582TIP3    H255632   8.607   3.587   7.893
18583TIP3   OH255633   9.479   3.926   7.209
18583TIP3    H155634   9.458   3.860   7.276
18583TIP3    H255635   9.502   4.004   7.262
18584TIP3   OH255636   8.504   3.933   7.619
18584TIP3    H155637   8.493   3.836   7.622
18584TIP3    H255638   8.601   3.939   7.613
18585TIP3   OH255639   8.210   3.136   7.405
18585TIP3    H155640   8.162   3.220   7.420
18585TIP3    H255641   8.139   3.082   7.366
18586TIP3   OH255642   8.271   3.423   7.571
18586TIP3    H155643   8.319   3.347   7.611
18586TIP3    H255644   8.330   3.450   7.500
18587TIP3   OH255645   9.124   4.392   7.225
18587TIP3    H155646   9.171   4.320   7.177
18587TIP3    H255647   9.115   4.354   7.313
18588TIP3   OH255648   9.031   3.852   7.576
18588TIP3    H155649   9.067   3.777   7.526
18588TIP3    H255650   9.115   3.896   7.599
18589TIP3   OH255651   9.447   3.362   7.606
18589TIP3    H155652   9.482   3.272   7.624
18589TIP3    H255653   9.413   3.349   7.516
18590TIP3   OH255654   8.781   3.014   7.574
18590TIP3    H155655   8.759   3.087   7.513
18590TIP3    H255656   8.732   2.940   7.530
18591TIP3   OH255657   9.469   3.103   7.195
18591TIP3    H155658   9.543   3.091   7.258
18591TIP3    H255659   9.517   3.142   7.119
18592TIP3   OH255660   8.414   3.216   7.682
18592TIP3    H155661   8.497   3.196   7.729
18592TIP3    H255662   8.425   3.160   7.602
18593TIP3   OH255663   8.857   3.414   7.469
18593TIP3    H155664   8.949   3.387   7.486
18593TIP3    H255665   8.816   3.330   7.440
18594TIP3   OH255666   8.779   2.999   8.008
18594TIP3    H155667   8.721   3.036   7.938
18594TIP3    H255668   8.724   3.016   8.087
18595TIP3   OH255669   9.125   3.847   7.019
18595TIP3    H155670   9.084   3.826   6.934
18595TIP3    H255671   9.082   3.932   7.040
18596TIP3   OH255672   8.885   3.772   7.806
18596TIP3    H155673   8.820   3.836   7.843
18596TIP3    H255674   8.924   3.824   7.733
18597TIP3   OH255675   9.684   3.099   7.355
18597TIP3    H155676   9.693   3.059   7.443
18597TIP3    H255677   9.743   3.175   7.366
18598TIP3   OH255678   8.649   3.111   7.793
18598TIP3    H155679   8.709   3.187   7.815
18598TIP3    H255680   8.698   3.072   7.717
18599TIP3   OH255681   8.712   3.965   7.902
18599TIP3    H155682   8.686   4.050   7.862
18599TIP3    H255683   8.634   3.949   7.959
18600TIP3   OH255684   8.110   3.656   7.138
18600TIP3    H155685   8.065   3.682   7.055
18600TIP3    H255686   8.138   3.742   7.175
18601TIP3   OH255687   9.546   4.169   7.375
18601TIP3    H155688   9.457   4.162   7.416
18601TIP3    H255689   9.539   4.255   7.330
18602TIP3   OH255690   9.129   2.720   7.705
18602TIP3    H155691   9.121   2.628   7.737
18602TIP3    H255692   9.057   2.763   7.755
18603TIP3   OH255693   9.250   4.219   7.054
18603TIP3    H155694   9.299   4.137   7.030
18603TIP3    H255695   9.309   4.285   7.011
18604TIP3   OH255696   9.390   4.004   6.957
18604TIP3    H155697   9.356   3.924   6.913
18604TIP3    H255698   9.426   3.967   7.041
18605TIP3   OH255699   9.756   4.086   7.721
18605TIP3    H155700   9.751   4.009   7.660
18605TIP3    H255701   9.745   4.161   7.660
18606TIP3   OH255702   9.064   3.478   6.978
18606TIP3    H155703   8.983   3.529   6.956
18606TIP3    H255704   9.110   3.476   6.892
18607TIP3   OH255705   9.023   3.261   6.697
18607TIP3    H155706   9.092   3.313   6.743
18607TIP3    H255707   9.080   3.198   6.648
18608TIP3   OH255708   9.940   3.694   7.540
18608TIP3    H155709   9.872   3.762   7.560
18608TIP3    H255710   9.993   3.740   7.471
18609TIP3   OH255711   9.410   3.561   6.950
18609TIP3    H155712   9.355   3.587   7.028
18609TIP3    H255713   9.493   3.535   6.994
18610TIP3   OH255714   9.603   3.584   7.847
18610TIP3    H155715   9.633   3.672   7.872
18610TIP3    H255716   9.512   3.600   7.816
18611TIP3   OH255717   8.643   3.558   7.366
18611TIP3    H155718   8.601   3.501   7.298
18611TIP3    H255719   8.721   3.506   7.393
18612TIP3   OH255720   8.774   3.972   7.514
18612TIP3    H155721   8.751   3.927   7.431
18612TIP3    H255722   8.864   3.937   7.531
18613TIP3   OH255723   8.790   3.527   7.720
18613TIP3    H155724   8.816   3.513   7.627
18613TIP3    H255725   8.825   3.616   7.741
18614TIP3   OH255726   9.307   4.168   7.498
18614TIP3    H155727   9.290   4.248   7.551
18614TIP3    H255728   9.291   4.095   7.561
18615TIP3   OH255729   8.916   4.087   8.047
18615TIP3    H155730   8.855   4.150   8.090
18615TIP3    H255731   8.851   4.033   7.996
18616TIP3   OH255732   9.252   3.417   6.776
18616TIP3    H155733   9.311   3.477   6.827
18616TIP3    H255734   9.278   3.442   6.683
18617TIP3   OH255735   8.670   3.642   8.141
18617TIP3    H155736   8.676   3.727   8.188
18617TIP3    H255737   8.575   3.622   8.155
18618TIP3   OH255738   8.995   4.099   7.052
18618TIP3    H155739   9.072   4.155   7.070
18618TIP3    H255740   8.932   4.161   7.012
18619TIP3   OH255741   8.712   4.258   8.133
18619TIP3    H155742   8.678   4.254   8.041
18619TIP3    H255743   8.632   4.234   8.185
18620TIP3   OH255744   9.777   2.682   6.855
18620TIP3    H155745   9.685   2.697   6.883
18620TIP3    H255746   9.784   2.739   6.777
18621TIP3   OH255747   8.510   3.400   7.170
18621TIP3    H155748   8.446   3.448   7.114
18621TIP3    H255749   8.464   3.317   7.185
18622TIP3   OH255750   9.564   4.029   6.373
18622TIP3    H155751   9.572   4.126   6.357
18622TIP3    H255752   9.658   4.002   6.359
18623TIP3   OH255753   8.297   3.786   8.078
18623TIP3    H155754   8.224   3.772   8.013
18623TIP3    H255755   8.326   3.695   8.098
18624TIP3   OH255756   8.145   3.987   7.695
18624TIP3    H155757   8.240   3.979   7.707
18624TIP3    H255758   8.122   4.055   7.760
18625TIP3   OH255759   9.991   4.458   7.739
18625TIP3    H155760  10.050   4.389   7.776
18625TIP3    H255761   9.915   4.451   7.799
18626TIP3   OH255762   9.117   4.214   7.904
18626TIP3    H155763   9.115   4.308   7.934
18626TIP3    H255764   9.043   4.176   7.956
18627TIP3   OH255765   8.875   4.345   6.853
18627TIP3    H155766   8.830   4.325   6.769
18627TIP3    H255767   8.843   4.435   6.875
18628TIP3   OH255768   8.314   4.195   7.236
18628TIP3    H155769   8.361   4.185   7.321
18628TIP3    H255770   8.253   4.119   7.240
18629TIP3   OH255771   9.078   4.246   6.494
18629TIP3    H155772   9.136   4.176   6.457
18629TIP3    H255773   9.112   4.254   6.585
18630TIP3   OH255774   9.127   4.294   6.764
18630TIP3    H155775   9.039   4.304   6.806
18630TIP3    H255776   9.178   4.251   6.835
18631TIP3   OH255777   8.497   3.970   8.067
18631TIP3    H155778   8.545   3.950   8.151
18631TIP3    H255779   8.423   3.906   8.072
18632TIP3   OH255780   8.894   2.801   7.836
18632TIP3    H155781   8.803   2.770   7.814
18632TIP3    H255782   8.872   2.884   7.882
18633TIP3   OH255783   9.327   3.468   6.520
18633TIP3    H155784   9.295   3.441   6.432
18633TIP3    H255785   9.409   3.515   6.496
18634TIP3   OH255786   9.041   2.840   6.821
18634TIP3    H155787   9.007   2.840   6.912
18634TIP3    H255788   9.002   2.758   6.788
18635TIP3   OH255789   8.827   3.306   7.870
18635TIP3    H155790   8.775   3.328   7.950
18635TIP3    H255791   8.812   3.387   7.816
18636TIP3   OH255792   8.712   3.192   7.383
18636TIP3    H155793   8.618   3.169   7.400
18636TIP3    H255794   8.724   3.153   7.294
18637TIP3   OH255795   9.201   3.279   7.110
18637TIP3    H155796   9.147   3.351   7.069
18637TIP3    H255797   9.256   3.251   7.034
18638TIP3   OH255798   9.358   3.311   7.350
18638TIP3    H155799   9.299   3.342   7.279
18638TIP3    H255800   9.388   3.228   7.307
18639TIP3   OH255801   8.650   3.339   8.079
18639TIP3    H155802   8.662   3.407   8.147
18639TIP3    H255803   8.634   3.259   8.132
18640TIP3   OH255804   8.696   2.813   6.789
18640TIP3    H155805   8.686   2.812   6.886
18640TIP3    H255806   8.618   2.866   6.763
18641TIP3   OH255807   8.238   2.858   7.659
18641TIP3    H155808   8.314   2.891   7.712
18641TIP3    H255809   8.279   2.829   7.577
18642TIP3   OH255810   8.215   2.841   7.178
18642TIP3    H155811   8.257   2.881   7.100
18642TIP3    H255812   8.152   2.913   7.201
18643TIP3   OH255813   9.336   3.552   7.767
18643TIP3    H155814   9.382   3.483   7.713
18643TIP3    H255815   9.323   3.503   7.851
18644TIP3   OH255816   9.038   3.010   7.446
18644TIP3    H155817   8.952   3.010   7.494
18644TIP3    H255818   9.101   3.023   7.519
18645TIP3   OH255819   8.472   3.072   7.453
18645TIP3    H155820   8.377   3.081   7.427
18645TIP3    H255821   8.493   2.980   7.428
18646TIP3   OH255822   8.744   3.067   7.140
18646TIP3    H155823   8.837   3.086   7.116
18646TIP3    H255824   8.695   3.091   7.058
18647TIP3   OH255825   9.501   3.094   7.626
18647TIP3    H155826   9.471   3.105   7.718
18647TIP3    H255827   9.434   3.031   7.593
18648TIP3   OH255828   8.584   3.099   6.921
18648TIP3    H155829   8.511   3.056   6.872
18648TIP3    H255830   8.635   3.136   6.846
18649TIP3   OH255831   9.697   4.780   7.863
18649TIP3    H155832   9.698   4.804   7.768
18649TIP3    H255833   9.773   4.829   7.897
18650TIP3   OH255834   8.656   3.889   8.285
18650TIP3    H155835   8.732   3.926   8.333
18650TIP3    H255836   8.590   3.885   8.357
18651TIP3   OH255837   9.121   3.341   7.541
18651TIP3    H155838   9.197   3.304   7.492
18651TIP3    H255839   9.133   3.304   7.630
18652TIP3   OH255840   8.648   2.831   7.420
18652TIP3    H155841   8.612   2.751   7.464
18652TIP3    H255842   8.690   2.795   7.341
18653TIP3   OH255843   9.096   3.237   7.837
18653TIP3    H155844   9.007   3.277   7.847
18653TIP3    H255845   9.154   3.299   7.885
18654TIP3   OH255846   8.836   3.631   6.928
18654TIP3    H155847   8.762   3.567   6.916
18654TIP3    H255848   8.817   3.665   7.019
18655TIP3   OH255849   9.730   3.871   7.555
18655TIP3    H155850   9.755   3.917   7.473
18655TIP3    H255851   9.645   3.828   7.531
18656TIP3   OH255852   9.294   2.942   6.795
18656TIP3    H155853   9.197   2.929   6.795
18656TIP3    H255854   9.305   3.038   6.809
18657TIP3   OH255855   9.243   3.952   7.924
18657TIP3    H155856   9.250   3.919   8.014
18657TIP3    H255857   9.195   4.036   7.934
18658TIP3   OH255858   9.365   3.192   6.892
18658TIP3    H155859   9.461   3.200   6.902
18658TIP3    H255860   9.343   3.269   6.836
18659TIP3   OH255861   8.529   3.655   7.605
18659TIP3    H155862   8.566   3.624   7.520
18659TIP3    H255863   8.561   3.588   7.668
18660TIP3   OH255864   8.980   3.781   6.748
18660TIP3    H155865   8.933   3.868   6.755
18660TIP3    H255866   8.926   3.726   6.808
18661TIP3   OH255867   8.411   3.567   8.212
18661TIP3    H155868   8.423   3.558   8.309
18661TIP3    H255869   8.335   3.508   8.196
18662TIP3   OH255870   9.130   3.697   8.225
18662TIP3    H155871   9.069   3.630   8.189
18662TIP3    H255872   9.216   3.654   8.213
18663TIP3   OH255873   9.396   4.209   7.820
18663TIP3    H155874   9.299   4.205   7.831
18663TIP3    H255875   9.420   4.263   7.898
18664TIP3   OH255876   9.798   3.273   6.741
18664TIP3    H155877   9.740   3.227   6.675
18664TIP3    H255878   9.820   3.350   6.684
18665TIP3   OH255879  10.007   4.134   7.801
18665TIP3    H155880   9.911   4.126   7.785
18665TIP3    H255881  10.041   4.107   7.714
18666TIP3   OH255882   9.504   4.100   6.637
18666TIP3    H155883   9.481   4.027   6.696
18666TIP3    H255884   9.518   4.055   6.551
18667TIP3   OH255885   9.499   3.727   7.480
18667TIP3    H155886   9.405   3.702   7.488
18667TIP3    H255887   9.534   3.649   7.433
18668TIP3   OH255888   8.627   3.956   7.227
18668TIP3    H155889   8.628   4.038   7.174
18668TIP3    H255890   8.532   3.942   7.239
18669TIP3   OH255891   8.192   3.261   6.932
18669TIP3    H155892   8.237   3.346   6.951
18669TIP3    H255893   8.113   3.268   6.991
18670TIP3   OH255894   8.768   3.723   7.174
18670TIP3    H155895   8.732   3.813   7.190
18670TIP3    H255896   8.729   3.674   7.248
18671TIP3   OH255897   8.896   4.302   7.697
18671TIP3    H155898   8.936   4.374   7.645
18671TIP3    H255899   8.974   4.268   7.744
18672TIP3   OH255900   8.548   4.195   7.081
18672TIP3    H155901   8.461   4.202   7.126
18672TIP3    H255902   8.578   4.288   7.084
18673TIP3   OH255903   9.286   3.936   7.654
18673TIP3    H155904   9.278   3.935   7.753
18673TIP3    H255905   9.364   3.880   7.640
18674TIP3   OH255906   9.259   3.826   6.538
18674TIP3    H155907   9.311   3.803   6.618
18674TIP3    H255908   9.170   3.801   6.568
18675TIP3   OH255909   9.533   4.471   7.706
18675TIP3    H155910   9.455   4.414   7.696
18675TIP3    H255911   9.519   4.535   7.633
18676TIP3   OH255912   9.598   4.304   6.359
18676TIP3    H155913   9.632   4.375   6.302
18676TIP3    H255914   9.518   4.350   6.393
18677TIP3   OH255915   8.611   3.077   8.221
18677TIP3    H155916   8.518   3.103   8.232
18677TIP3    H255917   8.613   2.998   8.276
18678TIP3   OH255918   9.416   3.765   6.758
18678TIP3    H155919   9.408   3.695   6.826
18678TIP3    H255920   9.513   3.762   6.742
18679TIP3   OH255921   8.341   4.165   7.854
18679TIP3    H155922   8.386   4.087   7.889
18679TIP3    H255923   8.358   4.230   7.923
18680TIP3   OH255924   8.626   3.809   6.537
18680TIP3    H155925   8.640   3.717   6.508
18680TIP3    H255926   8.608   3.796   6.632
18681TIP3   OH255927   8.572   3.813   6.810
18681TIP3    H155928   8.642   3.787   6.872
18681TIP3    H255929   8.575   3.911   6.816
18682TIP3   OH255930   8.308   3.508   7.013
18682TIP3    H155931   8.242   3.552   7.070
18682TIP3    H255932   8.322   3.577   6.946
18683TIP3   OH255933   9.414   3.144   7.881
18683TIP3    H155934   9.491   3.186   7.920
18683TIP3    H255935   9.408   3.061   7.931
18684TIP3   OH255936   9.332   2.895   7.069
18684TIP3    H155937   9.316   2.917   6.975
18684TIP3    H255938   9.370   2.979   7.103
18685TIP3   OH255939   8.837   4.011   6.760
18685TIP3    H155940   8.750   4.040   6.794
18685TIP3    H255941   8.853   4.081   6.695
18686TIP3   OH255942   9.030   3.071   7.172
18686TIP3    H155943   9.092   3.144   7.152
18686TIP3    H255944   9.031   3.069   7.270
18687TIP3   OH255945   9.293   3.400   7.990
18687TIP3    H155946   9.312   3.451   8.071
18687TIP3    H255947   9.360   3.329   7.994
18688TIP3   OH255948   9.173   2.804   7.280
18688TIP3    H155949   9.153   2.883   7.332
18688TIP3    H255950   9.230   2.842   7.209
18689TIP3   OH255951   8.579   4.086   6.826
18689TIP3    H155952   8.550   4.156   6.763
18689TIP3    H255953   8.563   4.130   6.912
18690TIP3   OH255954   8.681   2.798   7.067
18690TIP3    H155955   8.677   2.891   7.099
18690TIP3    H255956   8.777   2.782   7.073
18691TIP3   OH255957   9.587   3.486   7.349
18691TIP3    H155958   9.508   3.431   7.361
18691TIP3    H255959   9.656   3.434   7.394
18692TIP3   OH255960   8.297   3.717   6.820
18692TIP3    H155961   8.361   3.791   6.829
18692TIP3    H255962   8.344   3.664   6.752
18693TIP3   OH255963   8.243   2.991   6.951
18693TIP3    H155964   8.243   3.089   6.948
18693TIP3    H255965   8.157   2.970   6.914
18694TIP3   OH255966   9.554   4.442   7.300
18694TIP3    H155967   9.511   4.489   7.225
18694TIP3    H255968   9.648   4.462   7.278
18695TIP3   OH255969   8.634   2.712   7.824
18695TIP3    H155970   8.597   2.681   7.739
18695TIP3    H255971   8.618   2.635   7.882
18696TIP3   OH255972   8.171   3.930   7.207
18696TIP3    H155973   8.101   3.961   7.267
18696TIP3    H255974   8.143   3.971   7.123
18697TIP3   OH255975   8.324   4.470   8.276
18697TIP3    H155976   8.409   4.465   8.323
18697TIP3    H255977   8.297   4.376   8.276
18698TIP3   OH255978   8.812   4.435   8.325
18698TIP3    H155979   8.907   4.413   8.324
18698TIP3    H255980   8.780   4.380   8.250
18699TIP3   OH255981   8.790   4.013   6.452
18699TIP3    H155982   8.734   3.941   6.490
18699TIP3    H255983   8.864   3.961   6.417
18700TIP3   OH255984   9.445   4.345   8.059
18700TIP3    H155985   9.436   4.274   8.126
18700TIP3    H255986   9.525   4.392   8.089
18701TIP3   OH255987   9.225   4.054   6.362
18701TIP3    H155988   9.272   3.991   6.419
18701TIP3    H255989   9.279   4.055   6.281
18702TIP3   OH255990   8.458   3.884   8.479
18702TIP3    H155991   8.475   3.788   8.487
18702TIP3    H255992   8.370   3.884   8.436
18703TIP3   OH255993   8.433   3.530   6.670
18703TIP3    H155994   8.488   3.497   6.743
18703TIP3    H255995   8.500   3.534   6.599
18704TIP3   OH255996   9.067   3.966   8.251
18704TIP3    H155997   9.021   3.980   8.166
18704TIP3    H255998   9.096   3.871   8.243
18705TIP3   OH255999   8.942   3.727   6.478
18705TIP3    H156000   8.944   3.741   6.575
18705TIP3    H256001   8.941   3.629   6.474
18706TIP3   OH256002   9.556   3.966   7.866
18706TIP3    H156003   9.623   4.012   7.813
18706TIP3    H256004   9.479   4.024   7.852
18707TIP3   OH256005   8.578   3.617   8.458
18707TIP3    H156006   8.625   3.533   8.461
18707TIP3    H256007   8.596   3.648   8.549
18708TIP3   OH256008   8.644   3.432   6.895
18708TIP3    H156009   8.614   3.391   6.977
18708TIP3    H256010   8.678   3.356   6.844
18709TIP3   OH256011   8.919   3.499   8.128
18709TIP3    H156012   8.838   3.554   8.130
18709TIP3    H256013   8.962   3.531   8.045
18710TIP3   OH256014   8.742   3.224   6.735
18710TIP3    H156015   8.714   3.227   6.641
18710TIP3    H256016   8.839   3.233   6.726
18711TIP3   OH256017   9.419   3.874   8.229
18711TIP3    H156018   9.505   3.897   8.192
18711TIP3    H256019   9.433   3.897   8.323
18712TIP3   OH256020   9.565   3.558   6.396
18712TIP3    H156021   9.542   3.510   6.314
18712TIP3    H256022   9.533   3.648   6.371
18713TIP3   OH256023   9.011   3.263   8.247
18713TIP3    H156024   9.032   3.202   8.175
18713TIP3    H256025   8.987   3.344   8.198
18714TIP3   OH256026   9.040   3.065   8.052
18714TIP3    H156027   9.068   3.110   7.970
18714TIP3    H256028   8.945   3.048   8.033
18715TIP3   OH256029   9.067   3.605   7.924
18715TIP3    H156030   9.146   3.611   7.869
18715TIP3    H256031   9.009   3.674   7.883
18716TIP3   OH256032   9.704   3.844   8.055
18716TIP3    H156033   9.636   3.885   7.997
18716TIP3    H256034   9.765   3.811   7.985
18717TIP3   OH256035   8.923   3.403   8.478
18717TIP3    H156036   8.833   3.368   8.490
18717TIP3    H256037   8.944   3.375   8.387
18718TIP3   OH256038   9.137   2.819   8.147
18718TIP3    H156039   9.113   2.905   8.106
18718TIP3    H256040   9.071   2.759   8.108
18719TIP3   OH256041   8.741   3.181   8.497
18719TIP3    H156042   8.778   3.114   8.440
18719TIP3    H256043   8.768   3.152   8.586
18720TIP3   OH256044   8.549   4.289   6.639
18720TIP3    H156045   8.645   4.286   6.619
18720TIP3    H256046   8.518   4.337   6.560
18721TIP3   OH256047   8.029   3.670   6.854
18721TIP3    H156048   8.124   3.692   6.842
18721TIP3    H256049   8.024   3.582   6.813
18722TIP3   OH256050   7.944   4.283   7.268
18722TIP3    H156051   7.876   4.221   7.234
18722TIP3    H256052   7.988   4.226   7.336
18723TIP3   OH256053   8.081   4.135   7.455
18723TIP3    H156054   8.069   4.061   7.517
18723TIP3    H256055   8.127   4.198   7.514
18724TIP3   OH256056   9.808   4.532   7.254
18724TIP3    H156057   9.835   4.568   7.340
18724TIP3    H256058   9.867   4.577   7.193
18725TIP3   OH256059   9.833   4.555   7.535
18725TIP3    H156060   9.790   4.468   7.524
18725TIP3    H256061   9.903   4.530   7.597
18726TIP3   OH256062   9.692   3.748   6.728
18726TIP3    H156063   9.761   3.813   6.704
18726TIP3    H256064   9.735   3.705   6.805
18727TIP3   OH256065   9.814   3.611   6.930
18727TIP3    H156066   9.747   3.567   6.986
18727TIP3    H256067   9.874   3.650   6.997
18728TIP3   OH256068   9.881   4.001   7.364
18728TIP3    H156069   9.927   3.945   7.300
18728TIP3    H256070   9.869   4.083   7.313
18729TIP3   OH256071   9.710   4.303   7.559
18729TIP3    H156072   9.641   4.347   7.611
18729TIP3    H256073   9.658   4.256   7.490
18730TIP3   OH256074   9.769   3.526   6.576
18730TIP3    H156075   9.694   3.523   6.513
18730TIP3    H256076   9.739   3.599   6.633
18731TIP3   OH256077   9.624   3.195   6.547
18731TIP3    H156078   9.608   3.235   6.461
18731TIP3    H256079   9.601   3.101   6.530
18732TIP3   OH256080   9.640   3.467   7.080
18732TIP3    H156081   9.645   3.370   7.072
18732TIP3    H256082   9.625   3.480   7.177
18733TIP3   OH256083   8.271   3.531   7.826
18733TIP3    H156084   8.267   3.509   7.731
18733TIP3    H256085   8.368   3.538   7.840
18734TIP3   OH256086   9.574   2.929   6.528
18734TIP3    H156087   9.651   2.891   6.574
18734TIP3    H256088   9.502   2.866   6.545
18735TIP3   OH256089   9.640   3.190   6.976
18735TIP3    H156090   9.678   3.101   6.989
18735TIP3    H256091   9.694   3.221   6.900
18736TIP3   OH256092   9.809   3.348   7.453
18736TIP3    H156093   9.896   3.375   7.417
18736TIP3    H256094   9.810   3.396   7.539
18737TIP3   OH256095   9.830   3.488   7.684
18737TIP3    H156096   9.750   3.527   7.725
18737TIP3    H256097   9.870   3.563   7.635
18738TIP3   OH256098   8.469   3.215   8.485
18738TIP3    H156099   8.566   3.228   8.494
18738TIP3    H256100   8.455   3.141   8.548
18739TIP3   OH256101   9.736   2.937   7.023
18739TIP3    H156102   9.770   2.920   7.113
18739TIP3    H256103   9.679   2.859   7.010
18740TIP3   OH256104   8.447   2.919   7.830
18740TIP3    H156105   8.513   2.847   7.841
18740TIP3    H256106   8.506   2.997   7.826
18741TIP3   OH256107   8.253   3.192   7.910
18741TIP3    H156108   8.299   3.192   7.824
18741TIP3    H256109   8.266   3.283   7.939
18742TIP3   OH256110   9.826   2.854   6.637
18742TIP3    H156111   9.872   2.771   6.614
18742TIP3    H256112   9.878   2.917   6.582
18743TIP3   OH256113   8.232   2.697   7.406
18743TIP3    H156114   8.138   2.695   7.433
18743TIP3    H256115   8.229   2.755   7.328
18744TIP3   OH256116   9.392   4.400   6.913
18744TIP3    H156117   9.441   4.384   6.830
18744TIP3    H256118   9.446   4.469   6.955
18745TIP3   OH256119   8.434   2.774   8.223
18745TIP3    H156120   8.384   2.775   8.306
18745TIP3    H256121   8.370   2.817   8.162
18746TIP3   OH256122   8.493   4.203   8.300
18746TIP3    H156123   8.401   4.178   8.276
18746TIP3    H256124   8.494   4.183   8.394
18747TIP3   OH256125   8.672   4.236   7.849
18747TIP3    H156126   8.618   4.307   7.810
18747TIP3    H256127   8.756   4.254   7.800
18748TIP3   OH256128   9.117   4.481   7.984
18748TIP3    H156129   9.158   4.485   8.073
18748TIP3    H256130   9.181   4.531   7.931
18749TIP3   OH256131   9.293   4.632   7.841
18749TIP3    H156132   9.364   4.583   7.797
18749TIP3    H256133   9.346   4.691   7.900
18750TIP3   OH256134   8.349   4.499   7.867
18750TIP3    H156135   8.260   4.531   7.842
18750TIP3    H256136   8.350   4.523   7.960
18751TIP3   OH256137   8.585   4.474   7.726
18751TIP3    H156138   8.499   4.486   7.773
18751TIP3    H256139   8.562   4.506   7.637
18752TIP3   OH256140   9.010   4.502   7.524
18752TIP3    H156141   8.940   4.521   7.459
18752TIP3    H256142   9.021   4.590   7.565
18753TIP3   OH256143   9.277   4.443   7.576
18753TIP3    H156144   9.183   4.458   7.556
18753TIP3    H256145   9.319   4.518   7.531
18754TIP3   OH256146   9.486   4.635   7.491
18754TIP3    H156147   9.471   4.719   7.444
18754TIP3    H256148   9.511   4.575   7.417
18755TIP3   OH256149   8.263   4.294   7.613
18755TIP3    H156150   8.285   4.262   7.703
18755TIP3    H256151   8.331   4.245   7.562
18756TIP3   OH256152   8.452   4.159   7.468
18756TIP3    H156153   8.466   4.075   7.519
18756TIP3    H256154   8.542   4.195   7.466
18757TIP3   OH256155   8.719   4.256   7.471
18757TIP3    H156156   8.748   4.164   7.460
18757TIP3    H256157   8.759   4.276   7.557
18758TIP3   OH256158   9.297   2.911   7.568
18758TIP3    H156159   9.243   2.844   7.614
18758TIP3    H256160   9.359   2.856   7.516
18759TIP3   OH256161   9.801   2.799   7.492
18759TIP3    H156162   9.848   2.849   7.422
18759TIP3    H256163   9.708   2.814   7.467
18760TIP3   OH256164   9.899   2.892   7.253
18760TIP3    H156165   9.960   2.849   7.189
18760TIP3    H256166   9.920   2.987   7.236
18761TIP3   OH256167   8.542   2.620   7.578
18761TIP3    H156168   8.449   2.588   7.577
18761TIP3    H256169   8.590   2.535   7.572
18762TIP3   OH256170   8.332   2.488   7.225
18762TIP3    H156171   8.358   2.547   7.152
18762TIP3    H256172   8.298   2.552   7.291
18763TIP3   OH256173   8.989   2.649   7.458
18763TIP3    H156174   9.042   2.705   7.399
18763TIP3    H256175   9.008   2.689   7.544
18764TIP3   OH256176   9.524   2.778   7.444
18764TIP3    H156177   9.523   2.787   7.348
18764TIP3    H256178   9.554   2.687   7.456
18765TIP3   OH256179   9.553   2.727   7.010
18765TIP3    H156180   9.465   2.770   7.019
18765TIP3    H256181   9.535   2.639   7.049
18766TIP3   OH256182   8.047   4.058   7.004
18766TIP3    H156183   7.962   4.025   6.971
18766TIP3    H256184   8.034   4.153   6.991
18767TIP3   OH256185   8.445   2.647   6.990
18767TIP3    H156186   8.495   2.587   6.932
18767TIP3    H256187   8.516   2.703   7.027
18768TIP3   OH256188   8.958   2.822   7.088
18768TIP3    H156189   9.019   2.776   7.148
18768TIP3    H256190   8.979   2.915   7.112
18769TIP3   OH256191   8.818   4.250   6.587
18769TIP3    H156192   8.906   4.272   6.551
18769TIP3    H256193   8.796   4.175   6.528
18770TIP3   OH256194   9.536   4.366   6.680
18770TIP3    H156195   9.527   4.269   6.666
18770TIP3    H256196   9.492   4.400   6.600
18771TIP3   OH256197   8.122   4.087   6.645
18771TIP3    H156198   8.121   4.111   6.739
18771TIP3    H256199   8.211   4.045   6.635
18772TIP3   OH256200   9.748   4.508   7.880
18772TIP3    H156201   9.674   4.483   7.820
18772TIP3    H256202   9.744   4.605   7.874
18773TIP3   OH256203   9.981   3.387   6.915
18773TIP3    H156204   9.922   3.465   6.911
18773TIP3    H256205   9.932   3.326   6.855
18774TIP3   OH256206  10.046   3.675   7.065
18774TIP3    H156207  10.123   3.622   7.092
18774TIP3    H256208  10.069   3.684   6.971
18775TIP3   OH256209   9.896   3.918   6.648
18775TIP3    H156210   9.878   3.923   6.553
18775TIP3    H256211   9.927   4.008   6.667
18776TIP3   OH256212  10.085   4.012   7.559
18776TIP3    H156213  10.013   4.001   7.494
18776TIP3    H256214  10.129   3.925   7.557
18777TIP3   OH256215   9.945   4.233   7.206
18777TIP3    H156216  10.041   4.241   7.192
18777TIP3    H256217   9.926   4.317   7.250
18778TIP3   OH256218  10.080   4.455   6.742
18778TIP3    H156219  10.135   4.449   6.822
18778TIP3    H256220  10.031   4.371   6.745
18779TIP3   OH256221  10.232   4.241   7.571
18779TIP3    H156222  10.262   4.223   7.661
18779TIP3    H256223  10.164   4.172   7.561
18780TIP3   OH256224  10.006   3.127   7.166
18780TIP3    H156225  10.090   3.171   7.183
18780TIP3    H256226   9.987   3.154   7.075
18781TIP3   OH256227   9.967   3.586   6.394
18781TIP3    H156228  10.039   3.584   6.460
18781TIP3    H256229   9.890   3.565   6.451
18782TIP3   OH256230  10.126   4.426   7.348
18782TIP3    H156231  10.167   4.350   7.391
18782TIP3    H256232  10.153   4.498   7.406
18783TIP3   OH256233   9.963   4.187   6.698
18783TIP3    H156234   9.883   4.215   6.745
18783TIP3    H256235   9.947   4.229   6.610
18784TIP3   OH256236  10.098   4.710   7.754
18784TIP3    H156237  10.183   4.689   7.793
18784TIP3    H256238  10.060   4.620   7.744
18785TIP3   OH256239   9.824   3.932   6.338
18785TIP3    H156240   9.921   3.924   6.344
18785TIP3    H256241   9.804   3.849   6.288
18786TIP3   OH256242   9.736   4.540   6.757
18786TIP3    H156243   9.670   4.477   6.721
18786TIP3    H256244   9.783   4.483   6.821
18787TIP3   OH256245   9.869   4.391   6.946
18787TIP3    H156246   9.859   4.317   7.008
18787TIP3    H256247   9.924   4.452   6.998
18788TIP3   OH256248  10.080   3.794   7.311
18788TIP3    H156249  10.063   3.768   7.218
18788TIP3    H256250  10.170   3.830   7.305
18789TIP3   OH256251  10.055   3.458   7.369
18789TIP3    H156252  10.052   3.484   7.276
18789TIP3    H256253  10.050   3.544   7.414
18790TIP3   OH256254   9.978   3.004   6.878
18790TIP3    H156255   9.882   2.987   6.874
18790TIP3    H256256   9.998   3.025   6.786
18791TIP3   OH256257  10.136   4.748   7.356
18791TIP3    H156258  10.051   4.790   7.330
18791TIP3    H256259  10.137   4.765   7.450
18792TIP3   OH256260  10.386   4.736   7.228
18792TIP3    H156261  10.295   4.740   7.260
18792TIP3    H256262  10.376   4.765   7.135
18793TIP3   OH256263  10.055   4.542   7.098
18793TIP3    H156264  10.083   4.521   7.190
18793TIP3    H256265  10.133   4.509   7.049
18794TIP3   OH256266  10.261   4.432   6.947
18794TIP3    H156267  10.286   4.338   6.950
18794TIP3    H256268  10.349   4.475   6.955
18795TIP3   OH256269   9.841   4.314   6.493
18795TIP3    H156270   9.756   4.284   6.457
18795TIP3    H256271   9.833   4.409   6.477
18796TIP3   OH256272   9.943   4.360   6.143
18796TIP3    H156273   9.908   4.381   6.231
18796TIP3    H256274   9.996   4.281   6.161
18797TIP3   OH256275   1.681   4.413   8.839
18797TIP3    H156276   1.655   4.505   8.817
18797TIP3    H256277   1.608   4.365   8.797
18798TIP3   OH256278   1.679   4.425   9.167
18798TIP3    H156279   1.663   4.394   9.258
18798TIP3    H256280   1.654   4.349   9.112
18799TIP3   OH256281   1.927   4.717   8.897
18799TIP3    H156282   1.915   4.647   8.962
18799TIP3    H256283   1.958   4.791   8.951
18800TIP3   OH256284   1.571   5.181   8.908
18800TIP3    H156285   1.621   5.107   8.869
18800TIP3    H256286   1.561   5.154   9.000
18801TIP3   OH256287   1.502   4.632   9.191
18801TIP3    H156288   1.572   4.569   9.162
18801TIP3    H256289   1.531   4.653   9.281
18802TIP3   OH256290   2.486   3.942   9.250
18802TIP3    H156291   2.503   4.019   9.305
18802TIP3    H256292   2.524   3.970   9.165
18803TIP3   OH256293   1.928   3.887   8.889
18803TIP3    H156294   2.003   3.876   8.953
18803TIP3    H256295   1.975   3.927   8.814
18804TIP3   OH256296   1.575   4.634   8.709
18804TIP3    H156297   1.537   4.615   8.622
18804TIP3    H256298   1.534   4.720   8.730
18805TIP3   OH256299   2.142   3.894   9.059
18805TIP3    H156300   2.151   3.865   9.151
18805TIP3    H256301   2.197   3.974   9.063
18806TIP3   OH256302   0.619   4.474   8.780
18806TIP3    H156303   0.535   4.490   8.733
18806TIP3    H256304   0.601   4.513   8.867
18807TIP3   OH256305   2.000   4.957   9.066
18807TIP3    H156306   1.911   4.950   9.108
18807TIP3    H256307   1.992   5.042   9.020
18808TIP3   OH256308   1.704   5.006   8.747
18808TIP3    H156309   1.752   4.924   8.721
18808TIP3    H256310   1.762   5.072   8.702
18809TIP3   OH256311   1.840   4.792   8.645
18809TIP3    H156312   1.812   4.711   8.600
18809TIP3    H256313   1.876   4.756   8.729
18810TIP3   OH256314   2.222   4.882   9.399
18810TIP3    H156315   2.207   4.808   9.337
18810TIP3    H256316   2.204   4.959   9.341
18811TIP3   OH256317   1.516   4.268   8.666
18811TIP3    H156318   1.435   4.319   8.644
18811TIP3    H256319   1.562   4.265   8.581
18812TIP3   OH256320   1.476   4.049   8.388
18812TIP3    H156321   1.546   4.101   8.433
18812TIP3    H256322   1.532   3.986   8.338
18813TIP3   OH256323   2.434   4.515   9.251
18813TIP3    H156324   2.343   4.547   9.261
18813TIP3    H256325   2.453   4.537   9.158
18814TIP3   OH256326   1.862   4.348   8.641
18814TIP3    H156327   1.809   4.374   8.720
18814TIP3    H256328   1.946   4.322   8.684
18815TIP3   OH256329   1.088   4.333   9.046
18815TIP3    H156330   1.042   4.281   8.976
18815TIP3    H256331   1.161   4.274   9.068
18816TIP3   OH256332   1.273   4.781   9.157
18816TIP3    H156333   1.234   4.731   9.084
18816TIP3    H256334   1.362   4.741   9.161
18817TIP3   OH256335   1.766   4.951   9.202
18817TIP3    H156336   1.738   5.041   9.230
18817TIP3    H256337   1.743   4.894   9.276
18818TIP3   OH256338   1.704   4.206   8.466
18818TIP3    H156339   1.764   4.265   8.518
18818TIP3    H256340   1.730   4.231   8.373
18819TIP3   OH256341   1.447   4.888   8.742
18819TIP3    H156342   1.524   4.944   8.760
18819TIP3    H256343   1.384   4.950   8.702
18820TIP3   OH256344   2.221   3.450   8.513
18820TIP3    H156345   2.140   3.472   8.564
18820TIP3    H256346   2.234   3.532   8.461
18821TIP3   OH256347   0.966   4.183   8.851
18821TIP3    H156348   0.900   4.225   8.791
18821TIP3    H256349   0.910   4.121   8.900
18822TIP3   OH256350   2.019   4.815   8.063
18822TIP3    H156351   2.028   4.911   8.046
18822TIP3    H256352   2.112   4.784   8.051
18823TIP3   OH256353   2.453   5.246   9.436
18823TIP3    H156354   2.462   5.148   9.434
18823TIP3    H256355   2.367   5.254   9.480
18824TIP3   OH256356   1.327   5.133   8.543
18824TIP3    H156357   1.282   5.113   8.458
18824TIP3    H256358   1.295   5.222   8.564
18825TIP3   OH256359   0.799   4.967   8.867
18825TIP3    H156360   0.816   4.961   8.964
18825TIP3    H256361   0.708   4.935   8.856
18826TIP3   OH256362   1.530   5.034   8.184
18826TIP3    H156363   1.588   4.964   8.147
18826TIP3    H256364   1.565   5.043   8.275
18827TIP3   OH256365   1.579   5.083   8.454
18827TIP3    H156366   1.491   5.091   8.497
18827TIP3    H256367   1.631   5.040   8.524
18828TIP3   OH256368   1.779   4.255   8.210
18828TIP3    H156369   1.747   4.229   8.121
18828TIP3    H256370   1.861   4.302   8.185
18829TIP3   OH256371   1.494   3.629   8.511
18829TIP3    H156372   1.460   3.626   8.602
18829TIP3    H256373   1.454   3.548   8.475
18830TIP3   OH256374   1.129   3.985   9.058
18830TIP3    H156375   1.071   3.908   9.071
18830TIP3    H256376   1.164   3.961   8.970
18831TIP3   OH256377   1.651   4.066   8.795
18831TIP3    H156378   1.600   4.140   8.754
18831TIP3    H256379   1.710   4.041   8.721
18832TIP3   OH256380   1.820   4.107   9.029
18832TIP3    H156381   1.754   4.128   8.960
18832TIP3    H256382   1.849   4.020   8.997
18833TIP3   OH256383   1.150   3.603   8.479
18833TIP3    H156384   1.139   3.598   8.576
18833TIP3    H256385   1.069   3.651   8.453
18834TIP3   OH256386   0.694   3.653   8.890
18834TIP3    H156387   0.724   3.675   8.800
18834TIP3    H256388   0.611   3.701   8.892
18835TIP3   OH256389   1.202   3.859   8.824
18835TIP3    H156390   1.291   3.873   8.789
18835TIP3    H256391   1.145   3.878   8.745
18836TIP3   OH256392   1.035   3.887   8.610
18836TIP3    H156393   0.964   3.842   8.561
18836TIP3    H256394   1.087   3.925   8.535
18837TIP3   OH256395   2.132   5.642   9.523
18837TIP3    H156396   2.139   5.622   9.428
18837TIP3    H256397   2.226   5.659   9.546
18838TIP3   OH256398   1.286   4.422   8.620
18838TIP3    H156399   1.215   4.355   8.608
18838TIP3    H256400   1.270   4.452   8.712
18839TIP3   OH256401   2.181   4.648   9.251
18839TIP3    H156402   2.218   4.695   9.172
18839TIP3    H256403   2.101   4.606   9.213
18840TIP3   OH256404   1.747   3.731   8.482
18840TIP3    H156405   1.650   3.716   8.485
18840TIP3    H256406   1.757   3.827   8.499
18841TIP3   OH256407   1.816   3.980   8.583
18841TIP3    H156408   1.912   3.985   8.596
18841TIP3    H256409   1.798   4.057   8.527
18842TIP3   OH256410   1.433   4.569   8.439
18842TIP3    H156411   1.386   4.656   8.445
18842TIP3    H256412   1.378   4.514   8.499
18843TIP3   OH256413   2.257   4.069   8.419
18843TIP3    H156414   2.195   4.023   8.358
18843TIP3    H256415   2.255   4.157   8.376
18844TIP3   OH256416   2.473   4.976   9.460
18844TIP3    H156417   2.383   4.938   9.456
18844TIP3    H256418   2.515   4.920   9.391
18845TIP3   OH256419   1.956   4.888   8.325
18845TIP3    H156420   1.935   4.815   8.384
18845TIP3    H256421   1.972   4.844   8.240
18846TIP3   OH256422   1.948   4.516   9.170
18846TIP3    H156423   1.854   4.491   9.163
18846TIP3    H256424   1.989   4.438   9.126
18847TIP3   OH256425   1.081   4.743   8.910
18847TIP3    H156426   1.096   4.825   8.859
18847TIP3    H256427   0.985   4.737   8.908
18848TIP3   OH256428   0.643   4.055   8.625
18848TIP3    H156429   0.712   4.124   8.629
18848TIP3    H256430   0.577   4.097   8.684
18849TIP3   OH256431   1.223   4.508   8.872
18849TIP3    H156432   1.184   4.597   8.882
18849TIP3    H256433   1.174   4.458   8.940
18850TIP3   OH256434   1.041   4.986   8.759
18850TIP3    H156435   0.949   4.989   8.793
18850TIP3    H256436   1.063   5.082   8.764
18851TIP3   OH256437   1.711   4.614   8.229
18851TIP3    H156438   1.764   4.591   8.309
18851TIP3    H256439   1.622   4.588   8.258
18852TIP3   OH256440   1.991   5.249   9.381
18852TIP3    H156441   1.898   5.224   9.388
18852TIP3    H256442   1.984   5.329   9.325
18853TIP3   OH256443   2.050   5.090   8.049
18853TIP3    H156444   2.089   5.160   7.993
18853TIP3    H256445   1.971   5.138   8.082
18854TIP3   OH256446   1.871   4.553   8.449
18854TIP3    H156447   1.862   4.483   8.517
18854TIP3    H256448   1.967   4.550   8.433
18855TIP3   OH256449   1.079   4.597   8.228
18855TIP3    H156450   1.091   4.506   8.196
18855TIP3    H256451   1.060   4.582   8.323
18856TIP3   OH256452   1.025   4.601   8.503
18856TIP3    H156453   1.100   4.576   8.559
18856TIP3    H256454   1.030   4.699   8.506
18857TIP3   OH256455   0.781   4.286   8.679
18857TIP3    H156456   0.718   4.339   8.733
18857TIP3    H256457   0.799   4.353   8.611
18858TIP3   OH256458   1.789   3.684   8.755
18858TIP3    H156459   1.775   3.707   8.661
18858TIP3    H256460   1.830   3.767   8.790
18859TIP3   OH256461   1.289   4.799   8.451
18859TIP3    H156462   1.202   4.828   8.483
18859TIP3    H256463   1.307   4.866   8.384
18860TIP3   OH256464   1.492   3.857   8.863
18860TIP3    H156465   1.553   3.924   8.825
18860TIP3    H256466   1.477   3.897   8.949
18861TIP3   OH256467   1.637   3.583   8.956
18861TIP3    H156468   1.641   3.655   9.020
18861TIP3    H256469   1.689   3.622   8.882
18862TIP3   OH256470   1.030   4.873   8.510
18862TIP3    H156471   1.001   4.944   8.449
18862TIP3    H256472   1.029   4.920   8.597
18863TIP3   OH256473   1.135   3.585   8.756
18863TIP3    H156474   1.130   3.675   8.792
18863TIP3    H256475   1.231   3.568   8.765
18864TIP3   OH256476   2.034   4.283   9.042
18864TIP3    H156477   1.959   4.221   9.053
18864TIP3    H256478   2.107   4.234   9.086
18865TIP3   OH256479   0.760   4.513   8.500
18865TIP3    H156480   0.834   4.576   8.511
18865TIP3    H256481   0.800   4.455   8.432
18866TIP3   OH256482   0.687   3.781   8.647
18866TIP3    H156483   0.687   3.879   8.642
18866TIP3    H256484   0.626   3.756   8.577
18867TIP3   OH256485   2.006   5.230   8.990
18867TIP3    H156486   1.964   5.277   8.914
18867TIP3    H256487   2.100   5.249   8.969
18868TIP3   OH256488   0.639   4.704   8.941
18868TIP3    H156489   0.577   4.758   8.888
18868TIP3    H256490   0.705   4.685   8.873
18869TIP3   OH256491   1.243   4.801   8.143
18869TIP3    H156492   1.186   4.729   8.179
18869TIP3    H256493   1.317   4.749   8.106
18870TIP3   OH256494   1.677   4.843   8.055
18870TIP3    H156495   1.726   4.779   8.110
18870TIP3    H256496   1.730   4.843   7.972
18871TIP3   OH256497   0.889   4.318   8.361
18871TIP3    H156498   0.944   4.283   8.432
18871TIP3    H256499   0.955   4.322   8.288
18872TIP3   OH256500   1.395   4.515   8.169
18872TIP3    H156501   1.397   4.528   8.265
18872TIP3    H256502   1.393   4.417   8.164
18873TIP3   OH256503   1.098   4.220   8.586
18873TIP3    H156504   1.065   4.180   8.668
18873TIP3    H256505   1.131   4.143   8.536
18874TIP3   OH256506   1.194   4.012   8.425
18874TIP3    H156507   1.167   4.015   8.331
18874TIP3    H256508   1.292   4.021   8.416
18875TIP3   OH256509   2.015   4.344   8.087
18875TIP3    H156510   1.995   4.298   8.003
18875TIP3    H256511   1.987   4.436   8.062
18876TIP3   OH256512   1.001   5.078   8.328
18876TIP3    H156513   1.097   5.074   8.309
18876TIP3    H256514   0.971   5.124   8.248
18877TIP3   OH256515   0.493   4.475   8.491
18877TIP3    H156516   0.589   4.486   8.512
18877TIP3    H256517   0.488   4.378   8.477
18878TIP3   OH256518   2.257   5.323   8.942
18878TIP3    H156519   2.285   5.356   9.030
18878TIP3    H256520   2.318   5.369   8.883
18879TIP3   OH256521   2.289   5.345   9.220
18879TIP3    H156522   2.248   5.256   9.217
18879TIP3    H256523   2.367   5.327   9.274
18880TIP3   OH256524   2.149   4.533   8.420
18880TIP3    H156525   2.217   4.596   8.390
18880TIP3    H256526   2.194   4.494   8.498
18881TIP3   OH256527   2.278   4.401   8.623
18881TIP3    H156528   2.214   4.358   8.683
18881TIP3    H256529   2.344   4.439   8.686
18882TIP3   OH256530   2.327   4.785   9.061
18882TIP3    H156531   2.385   4.725   9.009
18882TIP3    H256532   2.321   4.863   9.001
18883TIP3   OH256533   2.169   5.097   9.244
18883TIP3    H156534   2.100   5.144   9.296
18883TIP3    H256535   2.115   5.052   9.176
18884TIP3   OH256536   2.216   4.307   8.271
18884TIP3    H156537   2.145   4.311   8.203
18884TIP3    H256538   2.190   4.385   8.325
18885TIP3   OH256539   2.085   3.982   8.229
18885TIP3    H156540   2.048   4.021   8.149
18885TIP3    H256541   2.061   3.888   8.217
18886TIP3   OH256542   2.092   4.256   8.772
18886TIP3    H156543   2.102   4.160   8.766
18886TIP3    H256544   2.078   4.271   8.868
18887TIP3   OH256545   2.030   3.717   8.216
18887TIP3    H156546   2.109   3.685   8.264
18887TIP3    H256547   1.961   3.653   8.238
18888TIP3   OH256548   2.088   3.973   8.666
18888TIP3    H156549   2.130   3.885   8.681
18888TIP3    H256550   2.146   4.007   8.595
18889TIP3   OH256551   2.251   4.155   9.148
18889TIP3    H156552   2.340   4.180   9.115
18889TIP3    H256553   2.262   4.171   9.242
18890TIP3   OH256554   2.196   3.724   8.704
18890TIP3    H156555   2.249   3.706   8.785
18890TIP3    H256556   2.139   3.645   8.701
18891TIP3   OH256557   2.280   3.658   8.335
18891TIP3    H156558   2.318   3.585   8.282
18891TIP3    H256559   2.347   3.728   8.326
18892TIP3   OH256560   1.843   5.188   8.603
18892TIP3    H156561   1.893   5.172   8.520
18892TIP3    H256562   1.897   5.255   8.646
18893TIP3   OH256563   1.478   5.296   9.180
18893TIP3    H156564   1.398   5.298   9.125
18893TIP3    H256565   1.464   5.377   9.233
18894TIP3   OH256566   1.726   5.221   9.270
18894TIP3    H156567   1.634   5.244   9.241
18894TIP3    H256568   1.777   5.291   9.225
18895TIP3   OH256569   1.930   5.423   9.179
18895TIP3    H156570   1.917   5.508   9.132
18895TIP3    H256571   1.959   5.364   9.107
18896TIP3   OH256572   0.893   4.966   9.123
18896TIP3    H156573   0.919   4.884   9.169
18896TIP3    H256574   0.980   5.011   9.121
18897TIP3   OH256575   1.159   5.052   9.153
18897TIP3    H156576   1.215   4.973   9.142
18897TIP3    H256577   1.178   5.079   9.244
18898TIP3   OH256578   2.270   3.609   9.159
18898TIP3    H156579   2.315   3.644   9.078
18898TIP3    H256580   2.177   3.617   9.132
18899TIP3   OH256581   2.366   3.679   8.916
18899TIP3    H156582   2.439   3.628   8.875
18899TIP3    H256583   2.399   3.770   8.903
18900TIP3   OH256584   1.998   3.579   9.098
18900TIP3    H156585   1.991   3.584   9.002
18900TIP3    H256586   2.028   3.487   9.111
18901TIP3   OH256587   2.016   3.510   8.695
18901TIP3    H156588   1.928   3.551   8.698
18901TIP3    H256589   1.998   3.425   8.740
18902TIP3   OH256590   0.902   3.454   8.656
18902TIP3    H156591   0.951   3.381   8.613
18902TIP3    H256592   0.972   3.498   8.708
18903TIP3   OH256593   1.413   3.610   8.779
18903TIP3    H156594   1.476   3.563   8.837
18903TIP3    H256595   1.435   3.702   8.803
18904TIP3   OH256596   1.270   5.038   8.277
18904TIP3    H156597   1.358   5.060   8.241
18904TIP3    H256598   1.248   4.963   8.218
18905TIP3   OH256599   1.988   5.155   8.370
18905TIP3    H156600   1.980   5.057   8.356
18905TIP3    H256601   1.945   5.188   8.289
18906TIP3   OH256602   0.591   4.878   8.380
18906TIP3    H156603   0.610   4.973   8.392
18906TIP3    H256604   0.674   4.843   8.342
18907TIP3   OH256605   3.483   4.674   8.324
18907TIP3    H156606   3.453   4.765   8.302
18907TIP3    H256607   3.407   4.622   8.292
18908TIP3   OH256608   3.483   4.673   8.704
18908TIP3    H156609   3.510   4.640   8.792
18908TIP3    H256610   3.440   4.595   8.666
18909TIP3   OH256611   2.780   4.568   9.066
18909TIP3    H156612   2.811   4.504   9.132
18909TIP3    H256613   2.856   4.628   9.061
18910TIP3   OH256614   3.724   4.974   8.384
18910TIP3    H156615   3.707   4.904   8.448
18910TIP3    H256616   3.751   5.049   8.440
18911TIP3   OH256617   2.751   4.976   8.797
18911TIP3    H156618   2.742   4.879   8.798
18911TIP3    H256619   2.848   4.984   8.790
18912TIP3   OH256620   2.457   4.181   8.583
18912TIP3    H156621   2.407   4.264   8.593
18912TIP3    H256622   2.388   4.125   8.542
18913TIP3   OH256623   2.518   4.467   8.751
18913TIP3    H156624   2.567   4.391   8.788
18913TIP3    H256625   2.574   4.493   8.677
18914TIP3   OH256626   3.372   5.435   8.401
18914TIP3    H156627   3.420   5.364   8.355
18914TIP3    H256628   3.365   5.400   8.491
18915TIP3   OH256629   3.278   4.897   8.753
18915TIP3    H156630   3.314   4.820   8.705
18915TIP3    H256631   3.362   4.942   8.775
18916TIP3   OH256632   4.286   4.223   8.749
18916TIP3    H156633   4.324   4.302   8.792
18916TIP3    H256634   4.319   4.232   8.658
18917TIP3   OH256635   3.700   4.403   8.788
18917TIP3    H156636   3.736   4.314   8.806
18917TIP3    H256637   3.663   4.390   8.699
18918TIP3   OH256638   3.027   4.059   8.753
18918TIP3    H156639   3.008   4.130   8.688
18918TIP3    H256640   2.981   3.984   8.708
18919TIP3   OH256641   3.719   4.150   8.374
18919TIP3    H156642   3.791   4.133   8.440
18919TIP3    H256643   3.772   4.182   8.299
18920TIP3   OH256644   2.663   4.261   8.859
18920TIP3    H156645   2.747   4.240   8.905
18920TIP3    H256646   2.673   4.205   8.779
18921TIP3   OH256647   3.104   4.459   8.650
18921TIP3    H156648   3.198   4.432   8.663
18921TIP3    H256649   3.064   4.375   8.618
18922TIP3   OH256650   4.369   4.429   8.918
18922TIP3    H156651   4.284   4.477   8.909
18922TIP3    H256652   4.370   4.416   9.014
18923TIP3   OH256653   3.026   4.040   9.187
18923TIP3    H156654   2.967   4.079   9.120
18923TIP3    H256655   2.968   4.034   9.264
18924TIP3   OH256656   3.379   4.896   8.191
18924TIP3    H156657   3.329   4.868   8.113
18924TIP3    H256658   3.332   4.979   8.215
18925TIP3   OH256659   3.134   4.817   8.982
18925TIP3    H156660   3.069   4.880   9.020
18925TIP3    H256661   3.173   4.868   8.909
18926TIP3   OH256662   3.929   4.154   8.544
18926TIP3    H156663   3.942   4.084   8.609
18926TIP3    H256664   3.995   4.220   8.570
18927TIP3   OH256665   2.897   4.156   8.972
18927TIP3    H156666   2.960   4.230   8.992
18927TIP3    H256667   2.944   4.115   8.895
18928TIP3   OH256668   2.960   5.009   9.078
18928TIP3    H156669   2.933   5.095   9.039
18928TIP3    H256670   2.881   4.993   9.135
18929TIP3   OH256671   2.354   4.697   8.317
18929TIP3    H156672   2.319   4.714   8.227
18929TIP3    H256673   2.384   4.785   8.345
18930TIP3   OH256674   3.796   5.215   8.556
18930TIP3    H156675   3.706   5.208   8.594
18930TIP3    H256676   3.790   5.300   8.510
18931TIP3   OH256677   4.082   4.127   8.920
18931TIP3    H156678   3.994   4.140   8.882
18931TIP3    H256679   4.142   4.148   8.845
18932TIP3   OH256680   3.384   3.759   8.897
18932TIP3    H156681   3.373   3.664   8.916
18932TIP3    H256682   3.306   3.795   8.945
18933TIP3   OH256683   3.500   5.263   8.231
18933TIP3    H156684   3.550   5.181   8.207
18933TIP3    H256685   3.558   5.330   8.187
18934TIP3   OH256686   3.641   5.047   8.131
18934TIP3    H156687   3.590   4.971   8.102
18934TIP3    H256688   3.678   5.014   8.216
18935TIP3   OH256689   4.025   5.128   8.899
18935TIP3    H156690   4.014   5.062   8.827
18935TIP3    H256691   4.009   5.211   8.848
18936TIP3   OH256692   3.314   4.524   8.155
18936TIP3    H156693   3.231   4.573   8.134
18936TIP3    H256694   3.357   4.520   8.068
18937TIP3   OH256695   3.270   4.309   7.871
18937TIP3    H156696   3.339   4.355   7.921
18937TIP3    H256697   3.324   4.241   7.825
18938TIP3   OH256698   4.212   4.765   8.738
18938TIP3    H156699   4.131   4.821   8.734
18938TIP3    H256700   4.249   4.784   8.649
18939TIP3   OH256701   3.659   4.607   8.127
18939TIP3    H156702   3.604   4.631   8.205
18939TIP3    H256703   3.742   4.578   8.171
18940TIP3   OH256704   2.892   4.605   8.543
18940TIP3    H156705   2.849   4.547   8.476
18940TIP3    H256706   2.968   4.550   8.570
18941TIP3   OH256707   3.021   5.015   8.691
18941TIP3    H156708   2.999   4.972   8.608
18941TIP3    H256709   3.111   4.982   8.709
18942TIP3   OH256710   3.031   4.574   8.898
18942TIP3    H156711   3.062   4.554   8.807
18942TIP3    H256712   3.073   4.661   8.916
18943TIP3   OH256713   3.555   5.213   8.674
18943TIP3    H156714   3.539   5.293   8.726
18943TIP3    H256715   3.539   5.141   8.738
18944TIP3   OH256716   3.164   5.131   9.220
18944TIP3    H156717   3.105   5.195   9.266
18944TIP3    H256718   3.098   5.078   9.171
18945TIP3   OH256719   3.503   4.463   7.952
18945TIP3    H156720   3.559   4.522   8.007
18945TIP3    H256721   3.532   4.486   7.861
18946TIP3   OH256722   2.923   4.690   9.317
18946TIP3    H156723   2.923   4.773   9.369
18946TIP3    H256724   2.830   4.662   9.330
18947TIP3   OH256725   3.244   5.143   8.229
18947TIP3    H156726   3.320   5.200   8.248
18947TIP3    H256727   3.181   5.204   8.189
18948TIP3   OH256728   2.962   5.299   9.307
18948TIP3    H156729   2.925   5.299   9.217
18948TIP3    H256730   2.884   5.275   9.361
18949TIP3   OH256731   2.757   4.448   8.350
18949TIP3    H156732   2.693   4.493   8.292
18949TIP3    H256733   2.717   4.360   8.358
18950TIP3   OH256734   3.812   5.072   7.545
18950TIP3    H156735   3.818   5.169   7.534
18950TIP3    H256736   3.907   5.047   7.539
18951TIP3   OH256737   2.549   4.819   9.252
18951TIP3    H156738   2.482   4.798   9.184
18951TIP3    H256739   2.585   4.731   9.275
18952TIP3   OH256740   2.393   5.019   8.896
18952TIP3    H156741   2.488   5.015   8.879
18952TIP3    H256742   2.385   5.102   8.944
18953TIP3   OH256743   4.260   5.475   8.942
18953TIP3    H156744   4.260   5.378   8.957
18953TIP3    H256745   4.176   5.500   8.987
18954TIP3   OH256746   3.366   5.257   9.078
18954TIP3    H156747   3.366   5.351   9.108
18954TIP3    H256748   3.293   5.221   9.132
18955TIP3   OH256749   3.124   5.391   8.029
18955TIP3    H156750   3.075   5.369   7.948
18955TIP3    H256751   3.091   5.480   8.051
18956TIP3   OH256752   2.562   5.240   8.413
18956TIP3    H156753   2.608   5.229   8.499
18956TIP3    H256754   2.506   5.160   8.412
18957TIP3   OH256755   3.326   5.291   7.670
18957TIP3    H156756   3.384   5.221   7.635
18957TIP3    H256757   3.359   5.300   7.762
18958TIP3   OH256758   3.376   5.338   7.940
18958TIP3    H156759   3.287   5.348   7.982
18958TIP3    H256760   3.426   5.296   8.012
18959TIP3   OH256761   2.744   5.012   9.244
18959TIP3    H156762   2.789   4.997   9.330
18959TIP3    H256763   2.673   4.944   9.247
18960TIP3   OH256764   3.143   3.837   9.023
18960TIP3    H156765   3.053   3.805   8.998
18960TIP3    H256766   3.119   3.921   9.065
18961TIP3   OH256767   3.688   3.957   9.222
18961TIP3    H156768   3.752   3.916   9.284
18961TIP3    H256769   3.602   3.926   9.257
18962TIP3   OH256770   3.923   4.408   9.142
18962TIP3    H156771   3.887   4.380   9.230
18962TIP3    H256772   3.843   4.440   9.100
18963TIP3   OH256773   3.589   4.508   7.695
18963TIP3    H156774   3.546   4.482   7.611
18963TIP3    H256775   3.618   4.598   7.675
18964TIP3   OH256776   3.290   3.888   7.998
18964TIP3    H156777   3.258   3.885   8.091
18964TIP3    H256778   3.253   3.804   7.966
18965TIP3   OH256779   3.076   4.352   9.047
18965TIP3    H156780   3.026   4.373   9.129
18965TIP3    H256781   3.060   4.432   8.993
18966TIP3   OH256782   2.959   4.239   8.561
18966TIP3    H156783   2.866   4.212   8.577
18966TIP3    H256784   2.973   4.199   8.472
18967TIP3   OH256785   3.451   4.327   8.290
18967TIP3    H156786   3.397   4.396   8.246
18967TIP3    H256787   3.504   4.293   8.215
18968TIP3   OH256788   3.631   4.612   9.366
18968TIP3    H156789   3.600   4.535   9.418
18968TIP3    H256790   3.724   4.620   9.395
18969TIP3   OH256791   3.608   4.355   8.528
18969TIP3    H156792   3.548   4.381   8.455
18969TIP3    H256793   3.642   4.272   8.488
18970TIP3   OH256794   2.894   4.388   9.256
18970TIP3    H156795   2.914   4.456   9.322
18970TIP3    H256796   2.840   4.326   9.307
18971TIP3   OH256797   2.945   3.860   7.964
18971TIP3    H156798   2.938   3.855   8.062
18971TIP3    H256799   2.864   3.908   7.942
18972TIP3   OH256800   2.486   3.905   8.836
18972TIP3    H156801   2.562   3.936   8.888
18972TIP3    H256802   2.526   3.871   8.754
18973TIP3   OH256803   2.462   3.885   8.356
18973TIP3    H156804   2.507   3.923   8.277
18973TIP3    H256805   2.401   3.958   8.377
18974TIP3   OH256806   3.609   4.603   8.948
18974TIP3    H156807   3.651   4.534   8.892
18974TIP3    H256808   3.586   4.550   9.027
18975TIP3   OH256809   3.286   4.068   8.623
18975TIP3    H156810   3.205   4.059   8.676
18975TIP3    H256811   3.356   4.054   8.690
18976TIP3   OH256812   2.721   4.115   8.631
18976TIP3    H156813   2.626   4.122   8.604
18976TIP3    H256814   2.746   4.025   8.606
18977TIP3   OH256815   2.991   4.114   8.319
18977TIP3    H156816   3.085   4.127   8.298
18977TIP3    H256817   2.945   4.136   8.235
18978TIP3   OH256818   3.779   4.140   8.830
18978TIP3    H156819   3.738   4.146   8.918
18978TIP3    H256820   3.722   4.074   8.786
18979TIP3   OH256821   2.830   4.147   8.098
18979TIP3    H156822   2.757   4.102   8.051
18979TIP3    H256823   2.882   4.181   8.022
18980TIP3   OH256824   3.948   5.823   9.042
18980TIP3    H156825   3.946   5.850   8.949
18980TIP3    H256826   4.025   5.874   9.076
18981TIP3   OH256827   2.894   4.936   9.471
18981TIP3    H156828   2.957   5.002   9.501
18981TIP3    H256829   2.837   4.926   9.550
18982TIP3   OH256830   3.373   4.391   8.721
18982TIP3    H156831   3.438   4.346   8.666
18982TIP3    H256832   3.381   4.344   8.806
18983TIP3   OH256833   2.894   3.877   8.597
18983TIP3    H156834   2.861   3.796   8.642
18983TIP3    H256835   2.947   3.839   8.525
18984TIP3   OH256836   3.346   4.280   9.015
18984TIP3    H156837   3.256   4.319   9.024
18984TIP3    H256838   3.403   4.345   9.059
18985TIP3   OH256839   3.086   4.676   8.105
18985TIP3    H156840   3.013   4.611   8.092
18985TIP3    H256841   3.066   4.710   8.196
18986TIP3   OH256842   3.977   4.908   8.740
18986TIP3    H156843   4.007   4.957   8.659
18986TIP3    H256844   3.894   4.868   8.707
18987TIP3   OH256845   3.539   3.995   7.956
18987TIP3    H156846   3.444   3.973   7.973
18987TIP3    H256847   3.549   4.085   7.992
18988TIP3   OH256848   3.503   4.998   9.103
18988TIP3    H156849   3.499   4.968   9.195
18988TIP3    H256850   3.451   5.081   9.107
18989TIP3   OH256851   3.611   4.235   8.070
18989TIP3    H156852   3.708   4.238   8.085
18989TIP3    H256853   3.594   4.315   8.017
18990TIP3   OH256854   2.777   4.699   8.781
18990TIP3    H156855   2.813   4.670   8.695
18990TIP3    H256856   2.813   4.633   8.841
18991TIP3   OH256857   3.228   4.827   7.924
18991TIP3    H156858   3.181   4.913   7.932
18991TIP3    H256859   3.173   4.771   7.983
18992TIP3   OH256860   2.668   4.600   9.381
18992TIP3    H156861   2.644   4.629   9.471
18992TIP3    H256862   2.590   4.545   9.357
18993TIP3   OH256863   3.377   4.731   9.404
18993TIP3    H156864   3.321   4.668   9.356
18993TIP3    H256865   3.467   4.701   9.377
18994TIP3   OH256866   3.650   5.252   8.996
18994TIP3    H156867   3.554   5.248   9.006
18994TIP3    H256868   3.674   5.306   9.075
18995TIP3   OH256869   4.055   4.321   7.906
18995TIP3    H156870   3.996   4.271   7.845
18995TIP3    H256871   4.051   4.408   7.862
18996TIP3   OH256872   4.277   5.190   8.987
18996TIP3    H156873   4.180   5.174   8.985
18996TIP3    H256874   4.301   5.154   8.899
18997TIP3   OH256875   3.750   5.145   7.812
18997TIP3    H156876   3.729   5.076   7.876
18997TIP3    H256877   3.765   5.095   7.730
18998TIP3   OH256878   3.751   4.770   8.659
18998TIP3    H156879   3.656   4.745   8.668
18998TIP3    H256880   3.783   4.693   8.608
18999TIP3   OH256881   2.875   5.001   8.405
18999TIP3    H156882   2.876   5.083   8.352
18999TIP3    H256883   2.780   4.984   8.412
19000TIP3   OH256884   2.438   4.306   8.105
19000TIP3    H156885   2.485   4.390   8.122
19000TIP3    H256886   2.361   4.314   8.165
19001TIP3   OH256887   3.018   4.769   8.351
19001TIP3    H156888   2.981   4.858   8.369
19001TIP3    H256889   2.979   4.718   8.424
19002TIP3   OH256890   3.145   5.345   8.874
19002TIP3    H156891   3.184   5.419   8.823
19002TIP3    H256892   3.222   5.313   8.923
19003TIP3   OH256893   2.796   5.240   8.259
19003TIP3    H156894   2.710   5.247   8.303
19003TIP3    H256895   2.826   5.334   8.261
19004TIP3   OH256896   3.534   4.981   8.832
19004TIP3    H156897   3.528   4.980   8.930
19004TIP3    H256898   3.604   4.917   8.815
19005TIP3   OH256899   3.504   4.865   7.714
19005TIP3    H156900   3.556   4.846   7.797
19005TIP3    H256901   3.414   4.846   7.745
19006TIP3   OH256902   3.783   5.513   8.882
19006TIP3    H156903   3.703   5.458   8.874
19006TIP3    H256904   3.768   5.579   8.811
19007TIP3   OH256905   3.846   5.347   7.534
19007TIP3    H156906   3.890   5.419   7.486
19007TIP3    H256907   3.767   5.396   7.566
19008TIP3   OH256908   3.668   4.801   7.926
19008TIP3    H156909   3.658   4.739   8.002
19008TIP3    H256910   3.766   4.802   7.919
19009TIP3   OH256911   2.582   5.210   9.034
19009TIP3    H156912   2.636   5.135   9.066
19009TIP3    H256913   2.613   5.281   9.092
19010TIP3   OH256914   2.880   4.851   7.711
19010TIP3    H156915   2.887   4.758   7.684
19010TIP3    H256916   2.859   4.841   7.806
19011TIP3   OH256917   2.829   4.859   7.980
19011TIP3    H156918   2.887   4.829   8.052
19011TIP3    H256919   2.830   4.957   7.992
19012TIP3   OH256920   2.558   4.551   8.191
19012TIP3    H156921   2.490   4.595   8.246
19012TIP3    H256922   2.569   4.620   8.122
19013TIP3   OH256923   3.703   4.195   9.092
19013TIP3    H156924   3.789   4.216   9.131
19013TIP3    H256925   3.684   4.109   9.136
19014TIP3   OH256926   3.566   3.949   8.246
19014TIP3    H156927   3.571   3.966   8.150
19014TIP3    H256928   3.619   4.023   8.283
19015TIP3   OH256929   3.088   5.059   7.937
19015TIP3    H156930   3.000   5.083   7.972
19015TIP3    H256931   3.100   5.128   7.870
19016TIP3   OH256932   3.273   4.120   8.349
19016TIP3    H156933   3.341   4.189   8.332
19016TIP3    H256934   3.278   4.112   8.447
19017TIP3   OH256935   3.545   4.436   9.152
19017TIP3    H156936   3.559   4.484   9.235
19017TIP3    H256937   3.595   4.353   9.166
19018TIP3   OH256938   3.418   3.847   8.454
19018TIP3    H156939   3.417   3.923   8.515
19018TIP3    H256940   3.474   3.884   8.381
19019TIP3   OH256941   2.830   5.133   8.003
19019TIP3    H156942   2.798   5.201   7.940
19019TIP3    H256943   2.812   5.175   8.089
19020TIP3   OH256944   2.930   3.843   8.241
19020TIP3    H156945   2.927   3.934   8.277
19020TIP3    H256946   3.026   3.824   8.249
19021TIP3   OH256947   4.189   4.334   9.122
19021TIP3    H156948   4.097   4.363   9.141
19021TIP3    H256949   4.173   4.271   9.050
19022TIP3   OH256950   3.833   4.535   8.526
19022TIP3    H156951   3.758   4.473   8.535
19022TIP3    H256952   3.905   4.487   8.572
19023TIP3   OH256953   2.549   4.762   8.010
19023TIP3    H156954   2.607   4.839   8.002
19023TIP3    H256955   2.564   4.722   7.921
19024TIP3   OH256956   2.493   4.037   8.131
19024TIP3    H156957   2.490   4.135   8.124
19024TIP3    H256958   2.414   4.011   8.083
19025TIP3   OH256959   3.803   5.486   8.476
19025TIP3    H156960   3.760   5.533   8.401
19025TIP3    H256961   3.897   5.506   8.455
19026TIP3   OH256962   2.877   3.762   9.002
19026TIP3    H156963   2.847   3.727   8.915
19026TIP3    H256964   2.869   3.682   9.059
19027TIP3   OH256965   2.424   4.984   8.386
19027TIP3    H156966   2.345   5.008   8.437
19027TIP3    H256967   2.399   5.017   8.297
19028TIP3   OH256968   2.578   5.514   9.429
19028TIP3    H156969   2.655   5.500   9.486
19028TIP3    H256970   2.534   5.427   9.435
19029TIP3   OH256971   3.061   5.471   9.508
19029TIP3    H156972   3.157   5.461   9.502
19029TIP3    H256973   3.032   5.419   9.431
19030TIP3   OH256974   3.038   5.058   7.629
19030TIP3    H156975   2.979   4.988   7.666
19030TIP3    H256976   3.112   5.002   7.598
19031TIP3   OH256977   3.697   5.388   9.231
19031TIP3    H156978   3.688   5.318   9.300
19031TIP3    H256979   3.774   5.439   9.263
19032TIP3   OH256980   3.474   5.099   7.539
19032TIP3    H156981   3.521   5.038   7.598
19032TIP3    H256982   3.531   5.101   7.460
19033TIP3   OH256983   2.685   4.568   7.844
19033TIP3    H156984   2.736   4.544   7.922
19033TIP3    H256985   2.755   4.577   7.776
19034TIP3   OH256986   3.329   5.005   9.407
19034TIP3    H156987   3.274   5.014   9.327
19034TIP3    H256988   3.350   4.909   9.409
19035TIP3   OH256989   3.196   4.773   7.654
19035TIP3    H156990   3.191   4.787   7.751
19035TIP3    H256991   3.191   4.675   7.650
19036TIP3   OH256992   3.835   4.995   9.042
19036TIP3    H156993   3.873   5.074   8.997
19036TIP3    H256994   3.743   5.028   9.055
19037TIP3   OH256995   2.897   4.477   8.074
19037TIP3    H156996   2.863   4.434   8.154
19037TIP3    H256997   2.927   4.400   8.021
19038TIP3   OH256998   3.163   4.541   9.303
19038TIP3    H156999   3.085   4.600   9.307
19038TIP3    H257000   3.207   4.573   9.221
19039TIP3   OH257001   2.990   4.270   7.911
19039TIP3    H157002   2.962   4.271   7.817
19039TIP3    H257003   3.087   4.278   7.902
19040TIP3   OH257004   3.674   4.940   9.425
19040TIP3    H157005   3.769   4.955   9.424
19040TIP3    H257006   3.667   4.873   9.495
19041TIP3   OH257007   3.866   4.614   7.515
19041TIP3    H157008   3.788   4.577   7.468
19041TIP3    H257009   3.822   4.712   7.522
19042TIP3   OH257010   3.260   4.312   9.437
19042TIP3    H157011   3.264   4.244   9.367
19042TIP3    H257012   3.220   4.388   9.389
19043TIP3   OH257013   3.283   4.115   9.235
19043TIP3    H157014   3.311   4.159   9.152
19043TIP3    H257015   3.189   4.093   9.214
19044TIP3   OH257016   3.315   4.653   9.105
19044TIP3    H157017   3.395   4.657   9.051
19044TIP3    H257018   3.257   4.719   9.061
19045TIP3   OH257019   3.914   4.612   9.476
19045TIP3    H157020   3.948   4.522   9.487
19045TIP3    H257021   3.991   4.664   9.504
19046TIP3   OH257022   3.428   3.878   9.243
19046TIP3    H157023   3.375   3.960   9.232
19046TIP3    H257024   3.358   3.812   9.259
19047TIP3   OH257025   3.522   4.387   9.467
19047TIP3    H157026   3.556   4.324   9.533
19047TIP3    H257027   3.428   4.359   9.458
19048TIP3   OH257028   3.793   4.329   9.364
19048TIP3    H157029   3.711   4.322   9.416
19048TIP3    H257030   3.860   4.313   9.434
19049TIP3   OH257031   3.998   4.315   9.552
19049TIP3    H157032   4.017   4.220   9.532
19049TIP3    H257033   4.002   4.316   9.648
19050TIP3   OH257034   5.481   5.671   0.069
19050TIP3    H157035   5.517   5.752   0.110
19050TIP3    H257036   5.392   5.701   0.044
19051TIP3   OH257037   2.801   5.344   7.823
19051TIP3    H157038   2.894   5.335   7.797
19051TIP3    H257039   2.763   5.374   7.739
19052TIP3   OH257040   2.278   4.708   8.048
19052TIP3    H157041   2.364   4.743   8.016
19052TIP3    H257042   2.270   4.628   7.992
19053TIP3   OH257043   2.190   5.329   8.444
19053TIP3    H157044   2.124   5.266   8.409
19053TIP3    H257045   2.236   5.272   8.511
19054TIP3   OH257046   2.326   5.183   8.632
19054TIP3    H157047   2.316   5.106   8.690
19054TIP3    H257048   2.378   5.242   8.690
19055TIP3   OH257049   4.055   5.578   8.431
19055TIP3    H157050   4.081   5.613   8.518
19055TIP3    H257051   4.115   5.625   8.371
19056TIP3   OH257052   4.086   5.599   8.713
19056TIP3    H157053   4.043   5.511   8.709
19056TIP3    H257054   4.160   5.579   8.773
19057TIP3   OH257055   4.129   5.273   9.284
19057TIP3    H157056   4.057   5.284   9.350
19057TIP3    H257057   4.172   5.361   9.288
19058TIP3   OH257058   3.951   4.783   7.899
19058TIP3    H157059   4.018   4.851   7.877
19058TIP3    H257060   3.990   4.746   7.982
19059TIP3   OH257061   4.073   4.657   8.110
19059TIP3    H157062   4.009   4.614   8.170
19059TIP3    H257063   4.139   4.695   8.172
19060TIP3   OH257064   4.125   5.042   8.548
19060TIP3    H157065   4.180   4.982   8.495
19060TIP3    H257066   4.117   5.119   8.488
19061TIP3   OH257067   3.961   5.346   8.744
19061TIP3    H157068   3.891   5.394   8.791
19061TIP3    H257069   3.911   5.300   8.673
19062TIP3   OH257070   4.016   4.554   7.741
19062TIP3    H157071   3.932   4.578   7.701
19062TIP3    H257072   4.022   4.628   7.806
19063TIP3   OH257073   3.886   4.244   7.698
19063TIP3    H157074   3.819   4.259   7.630
19063TIP3    H257075   3.871   4.147   7.711
19064TIP3   OH257076   3.889   4.511   8.256
19064TIP3    H157077   3.898   4.414   8.253
19064TIP3    H257078   3.875   4.526   8.353
19065TIP3   OH257079   2.516   4.591   8.999
19065TIP3    H157080   2.514   4.558   8.907
19065TIP3    H257081   2.613   4.590   9.017
19066TIP3   OH257082   4.321   4.740   9.165
19066TIP3    H157083   4.291   4.649   9.165
19066TIP3    H257084   4.417   4.725   9.162
19067TIP3   OH257085   3.823   3.981   7.701
19067TIP3    H157086   3.909   3.951   7.738
19067TIP3    H257087   3.761   3.913   7.732
19068TIP3   OH257088   3.889   4.225   8.151
19068TIP3    H157089   3.931   4.140   8.172
19068TIP3    H257090   3.948   4.257   8.081
19069TIP3   OH257091   4.049   4.415   8.647
19069TIP3    H157092   4.134   4.439   8.603
19069TIP3    H257093   4.077   4.417   8.739
19070TIP3   OH257094   4.119   4.563   8.896
19070TIP3    H157095   4.024   4.559   8.883
19070TIP3    H257096   4.150   4.629   8.830
19071TIP3   OH257097   4.560   4.137   9.424
19071TIP3    H157098   4.621   4.075   9.379
19071TIP3    H257099   4.540   4.202   9.353
19072TIP3   OH257100   2.693   3.968   9.010
19072TIP3    H157101   2.753   3.891   9.017
19072TIP3    H257102   2.757   4.040   9.000
19073TIP3   OH257103   2.501   4.239   9.086
19073TIP3    H157104   2.549   4.233   9.001
19073TIP3    H257105   2.528   4.326   9.118
19074TIP3   OH257106   4.442   4.287   9.229
19074TIP3    H157107   4.353   4.319   9.252
19074TIP3    H257108   4.417   4.207   9.178
19075TIP3   OH257109   4.079   3.939   7.785
19075TIP3    H157110   4.116   3.850   7.794
19075TIP3    H257111   4.154   3.995   7.815
19076TIP3   OH257112   2.480   3.747   8.586
19076TIP3    H157113   2.385   3.743   8.607
19076TIP3    H257114   2.480   3.802   8.505
19077TIP3   OH257115   3.638   5.446   8.089
19077TIP3    H157116   3.690   5.430   8.007
19077TIP3    H257117   3.693   5.512   8.134
19078TIP3   OH257118   2.747   5.241   9.477
19078TIP3    H157119   2.654   5.229   9.452
19078TIP3    H257120   2.740   5.273   9.568
19079TIP3   OH257121   2.918   5.280   9.022
19079TIP3    H157122   2.869   5.356   8.984
19079TIP3    H257123   3.003   5.295   8.977
19080TIP3   OH257124   3.365   5.525   9.156
19080TIP3    H157125   3.405   5.529   9.246
19080TIP3    H257126   3.430   5.577   9.104
19081TIP3   OH257127   3.543   5.677   9.018
19081TIP3    H157128   3.617   5.628   8.978
19081TIP3    H257129   3.593   5.736   9.079
19082TIP3   OH257130   4.340   4.038   9.117
19082TIP3    H157131   4.248   4.028   9.089
19082TIP3    H257132   4.373   3.945   9.105
19083TIP3   OH257133   2.598   5.536   9.048
19083TIP3    H157134   2.509   5.571   9.022
19083TIP3    H257135   2.609   5.579   9.134
19084TIP3   OH257136   2.832   5.517   8.902
19084TIP3    H157137   2.746   5.530   8.949
19084TIP3    H257138   2.810   5.551   8.814
19085TIP3   OH257139   3.258   5.547   8.700
19085TIP3    H157140   3.188   5.568   8.636
19085TIP3    H257141   3.271   5.634   8.744
19086TIP3   OH257142   3.526   5.486   8.751
19086TIP3    H157143   3.431   5.503   8.733
19086TIP3    H257144   3.567   5.564   8.712
19087TIP3   OH257145   3.735   5.679   8.668
19087TIP3    H157146   3.720   5.764   8.622
19087TIP3    H257147   3.759   5.619   8.594
19088TIP3   OH257148   2.506   5.333   8.791
19088TIP3    H157149   2.533   5.308   8.882
19088TIP3    H257150   2.578   5.290   8.740
19089TIP3   OH257151   2.699   5.205   8.647
19089TIP3    H157152   2.715   5.120   8.695
19089TIP3    H257153   2.790   5.241   8.643
19090TIP3   OH257154   2.966   5.301   8.648
19090TIP3    H157155   2.997   5.209   8.636
19090TIP3    H257156   3.008   5.321   8.734
19091TIP3   OH257157   3.538   3.954   8.734
19091TIP3    H157158   3.499   3.883   8.789
19091TIP3    H257159   3.612   3.908   8.690
19092TIP3   OH257160   4.065   3.855   8.659
19092TIP3    H157161   4.111   3.886   8.578
19092TIP3    H257162   3.972   3.853   8.632
19093TIP3   OH257163   4.171   3.932   8.421
19093TIP3    H157164   4.202   3.885   8.340
19093TIP3    H257165   4.195   4.023   8.394
19094TIP3   OH257166   2.791   3.665   8.755
19094TIP3    H157167   2.700   3.631   8.754
19094TIP3    H257168   2.842   3.581   8.753
19095TIP3   OH257169   2.578   3.533   8.403
19095TIP3    H157170   2.609   3.589   8.329
19095TIP3    H257171   2.549   3.600   8.468
19096TIP3   OH257172   3.231   3.701   8.635
19096TIP3    H157173   3.293   3.746   8.575
19096TIP3    H257174   3.262   3.731   8.721
19097TIP3   OH257175   3.781   3.844   8.616
19097TIP3    H157176   3.784   3.806   8.527
19097TIP3    H257177   3.768   3.763   8.671
19098TIP3   OH257178   3.800   3.771   8.189
19098TIP3    H157179   3.707   3.796   8.193
19098TIP3    H257180   3.798   3.681   8.227
19099TIP3   OH257181   2.295   5.104   8.182
19099TIP3    H157182   2.211   5.068   8.148
19099TIP3    H257183   2.280   5.198   8.163
19100TIP3   OH257184   2.694   3.693   8.168
19100TIP3    H157185   2.740   3.630   8.110
19100TIP3    H257186   2.768   3.746   8.203
19101TIP3   OH257187   3.207   3.869   8.264
19101TIP3    H157188   3.266   3.821   8.323
19101TIP3    H257189   3.229   3.961   8.290
19102TIP3   OH257190   3.065   5.296   7.761
19102TIP3    H157191   3.154   5.316   7.726
19102TIP3    H257192   3.043   5.219   7.703
19103TIP3   OH257193   3.784   5.411   7.857
19103TIP3    H157194   3.776   5.314   7.842
19103TIP3    H257195   3.741   5.445   7.775
19104TIP3   OH257196   2.378   5.153   7.829
19104TIP3    H157197   2.368   5.151   7.925
19104TIP3    H257198   2.426   5.071   7.810
19105TIP3   OH257199   4.052   4.053   9.499
19105TIP3    H157200   4.070   3.998   9.579
19105TIP3    H257201   4.141   4.043   9.457
19106TIP3   OH257202   4.013   5.556   9.042
19106TIP3    H157203   3.933   5.525   8.996
19106TIP3    H257204   3.995   5.652   9.047
19107TIP3   OH257205   5.277   4.930   7.812
19107TIP3    H157206   5.247   5.020   7.788
19107TIP3    H257207   5.203   4.878   7.778
19108TIP3   OH257208   5.276   4.932   8.195
19108TIP3    H157209   5.307   4.893   8.279
19108TIP3    H257210   5.236   4.855   8.152
19109TIP3   OH257211   4.576   4.824   8.560
19109TIP3    H157212   4.608   4.756   8.622
19109TIP3    H257213   4.656   4.877   8.546
19110TIP3   OH257214   5.514   5.230   7.875
19110TIP3    H157215   5.509   5.153   7.934
19110TIP3    H257216   5.558   5.296   7.929
19111TIP3   OH257217   4.548   5.233   8.285
19111TIP3    H157218   4.538   5.135   8.286
19111TIP3    H257219   4.645   5.240   8.276
19112TIP3   OH257220   4.256   4.443   8.066
19112TIP3    H157221   4.201   4.522   8.079
19112TIP3    H257222   4.189   4.379   8.038
19113TIP3   OH257223   4.313   4.724   8.238
19113TIP3    H157224   4.362   4.647   8.275
19113TIP3    H257225   4.370   4.748   8.164
19114TIP3   OH257226   5.170   5.699   7.886
19114TIP3    H157227   5.214   5.625   7.839
19114TIP3    H257228   5.144   5.660   7.970
19115TIP3   OH257229   5.077   5.156   8.238
19115TIP3    H157230   5.105   5.075   8.191
19115TIP3    H257231   5.165   5.192   8.260
19116TIP3   OH257232   6.087   4.475   8.236
19116TIP3    H157233   6.117   4.557   8.280
19116TIP3    H257234   6.111   4.493   8.144
19117TIP3   OH257235   5.489   4.659   8.273
19117TIP3    H157236   5.530   4.573   8.294
19117TIP3    H257237   5.457   4.641   8.182
19118TIP3   OH257238   4.825   4.316   8.238
19118TIP3    H157239   4.803   4.387   8.174
19118TIP3    H257240   4.778   4.240   8.195
19119TIP3   OH257241   5.518   4.406   7.861
19119TIP3    H157242   5.591   4.390   7.925
19119TIP3    H257243   5.570   4.441   7.786
19120TIP3   OH257244   4.459   4.517   8.344
19120TIP3    H157245   4.542   4.495   8.391
19120TIP3    H257246   4.469   4.460   8.265
19121TIP3   OH257247   4.900   4.715   8.139
19121TIP3    H157248   4.993   4.688   8.152
19121TIP3    H257249   4.860   4.632   8.106
19122TIP3   OH257250   6.162   4.681   8.406
19122TIP3    H157251   6.078   4.728   8.389
19122TIP3    H257252   6.175   4.702   8.500
19123TIP3   OH257253   4.824   4.299   8.671
19123TIP3    H157254   4.761   4.332   8.605
19123TIP3    H257255   4.772   4.314   8.753
19124TIP3   OH257256   5.169   5.150   7.682
19124TIP3    H157257   5.128   5.125   7.597
19124TIP3    H257258   5.123   5.234   7.701
19125TIP3   OH257259   4.930   5.074   8.467
19125TIP3    H157260   4.864   5.136   8.506
19125TIP3    H257261   4.967   5.127   8.394
19126TIP3   OH257262   5.730   4.408   8.031
19126TIP3    H157263   5.724   4.355   8.111
19126TIP3    H257264   5.786   4.483   8.059
19127TIP3   OH257265   4.692   4.413   8.456
19127TIP3    H157266   4.756   4.484   8.479
19127TIP3    H257267   4.740   4.370   8.381
19128TIP3   OH257268   4.757   5.266   8.565
19128TIP3    H157269   4.729   5.351   8.525
19128TIP3    H257270   4.678   5.249   8.622
19129TIP3   OH257271   4.150   4.959   7.806
19129TIP3    H157272   4.113   4.986   7.719
19129TIP3    H257273   4.184   5.043   7.841
19130TIP3   OH257274   5.588   5.474   8.049
19130TIP3    H157275   5.497   5.470   8.077
19130TIP3    H257276   5.588   5.552   7.990
19131TIP3   OH257277   5.881   4.376   8.404
19131TIP3    H157278   5.793   4.404   8.374
19131TIP3    H257279   5.940   4.406   8.331
19132TIP3   OH257280   5.180   4.018   8.386
19132TIP3    H157281   5.168   3.923   8.403
19132TIP3    H257282   5.101   4.054   8.432
19133TIP3   OH257283   5.299   5.521   7.727
19133TIP3    H157284   5.344   5.438   7.698
19133TIP3    H257285   5.355   5.586   7.678
19134TIP3   OH257286   5.432   5.306   7.621
19134TIP3    H157287   5.400   5.227   7.575
19134TIP3    H257288   5.466   5.267   7.705
19135TIP3   OH257289   5.807   5.390   8.384
19135TIP3    H157290   5.806   5.307   8.332
19135TIP3    H257291   5.814   5.458   8.314
19136TIP3   OH257292   5.110   4.782   7.642
19136TIP3    H157293   5.028   4.830   7.620
19136TIP3    H257294   5.154   4.777   7.555
19137TIP3   OH257295   5.067   4.565   7.359
19137TIP3    H157296   5.137   4.613   7.407
19137TIP3    H257297   5.123   4.499   7.311
19138TIP3   OH257298   6.011   5.022   8.229
19138TIP3    H157299   5.930   5.076   8.235
19138TIP3    H257300   6.041   5.044   8.138
19139TIP3   OH257301   5.455   4.863   7.614
19139TIP3    H157302   5.400   4.887   7.692
19139TIP3    H257303   5.538   4.835   7.658
19140TIP3   OH257304   5.692   4.902   8.523
19140TIP3    H157305   5.688   4.985   8.574
19140TIP3    H257306   5.605   4.905   8.479
19141TIP3   OH257307   4.688   4.861   8.030
19141TIP3    H157308   4.645   4.804   7.962
19141TIP3    H257309   4.764   4.806   8.057
19142TIP3   OH257310   4.817   5.272   8.177
19142TIP3    H157311   4.792   5.232   8.093
19142TIP3    H257312   4.906   5.235   8.192
19143TIP3   OH257313   4.824   4.831   8.385
19143TIP3    H157314   4.855   4.808   8.296
19143TIP3    H257315   4.867   4.917   8.403
19144TIP3   OH257316   5.353   5.518   8.238
19144TIP3    H157317   5.263   5.515   8.207
19144TIP3    H257318   5.367   5.422   8.257
19145TIP3   OH257319   4.962   5.389   8.704
19145TIP3    H157320   4.903   5.450   8.754
19145TIP3    H257321   4.895   5.335   8.657
19146TIP3   OH257322   5.298   4.719   7.439
19146TIP3    H157323   5.356   4.779   7.492
19146TIP3    H257324   5.323   4.745   7.347
19147TIP3   OH257325   4.718   4.948   8.808
19147TIP3    H157326   4.720   5.034   8.855
19147TIP3    H257327   4.623   4.928   8.811
19148TIP3   OH257328   5.040   5.402   7.717
19148TIP3    H157329   5.116   5.462   7.730
19148TIP3    H257330   4.975   5.459   7.673
19149TIP3   OH257331   4.757   5.558   8.795
19149TIP3    H157332   4.721   5.553   8.705
19149TIP3    H257333   4.678   5.535   8.850
19150TIP3   OH257334   5.813   3.962   7.487
19150TIP3    H157335   5.731   3.980   7.539
19150TIP3    H257336   5.823   4.046   7.438
19151TIP3   OH257337   4.555   4.704   7.838
19151TIP3    H157338   4.490   4.750   7.779
19151TIP3    H257339   4.514   4.618   7.848
19152TIP3   OH257340   5.611   5.329   7.036
19152TIP3    H157341   5.619   5.426   7.021
19152TIP3    H257342   5.703   5.300   7.023
19153TIP3   OH257343   4.335   5.087   8.743
19153TIP3    H157344   4.274   5.064   8.671
19153TIP3    H257345   4.373   5.000   8.769
19154TIP3   OH257346   4.189   5.275   8.382
19154TIP3    H157347   4.284   5.273   8.365
19154TIP3    H257348   4.179   5.360   8.429
19155TIP3   OH257349   6.061   5.725   8.426
19155TIP3    H157350   6.058   5.630   8.445
19155TIP3    H257351   5.977   5.754   8.469
19156TIP3   OH257352   5.143   5.530   8.551
19156TIP3    H157353   5.156   5.614   8.599
19156TIP3    H257354   5.082   5.482   8.611
19157TIP3   OH257355   4.921   5.645   7.521
19157TIP3    H157356   4.881   5.620   7.435
19157TIP3    H257357   4.886   5.734   7.536
19158TIP3   OH257358   4.351   5.497   7.901
19158TIP3    H157359   4.405   5.486   7.982
19158TIP3    H257360   4.297   5.417   7.904
19159TIP3   OH257361   5.127   5.552   7.153
19159TIP3    H157362   5.184   5.479   7.119
19159TIP3    H257363   5.156   5.557   7.246
19160TIP3   OH257364   5.172   5.597   7.427
19160TIP3    H157365   5.082   5.606   7.465
19160TIP3    H257366   5.218   5.547   7.496
19161TIP3   OH257367   5.944   4.863   8.703
19161TIP3    H157368   5.863   4.872   8.651
19161TIP3    H257369   5.961   4.766   8.695
19162TIP3   OH257370   4.542   5.269   8.732
19162TIP3    H157371   4.590   5.253   8.815
19162TIP3    H257372   4.467   5.207   8.739
19163TIP3   OH257373   4.939   4.094   8.512
19163TIP3    H157374   4.850   4.062   8.487
19163TIP3    H257375   4.913   4.175   8.560
19164TIP3   OH257376   5.473   4.210   8.709
19164TIP3    H157377   5.540   4.181   8.773
19164TIP3    H257378   5.389   4.188   8.754
19165TIP3   OH257379   5.715   4.638   8.628
19165TIP3    H157380   5.666   4.633   8.714
19165TIP3    H257381   5.688   4.724   8.593
19166TIP3   OH257382   5.372   4.768   7.183
19166TIP3    H157383   5.339   4.741   7.095
19166TIP3    H257384   5.453   4.817   7.158
19167TIP3   OH257385   5.087   4.143   7.484
19167TIP3    H157386   5.054   4.141   7.576
19167TIP3    H257387   5.048   4.060   7.452
19168TIP3   OH257388   4.872   4.608   8.534
19168TIP3    H157389   4.821   4.628   8.615
19168TIP3    H257390   4.855   4.688   8.480
19169TIP3   OH257391   4.755   4.496   8.047
19169TIP3    H157392   4.663   4.468   8.064
19169TIP3    H257393   4.769   4.456   7.958
19170TIP3   OH257394   5.247   4.583   7.775
19170TIP3    H157395   5.192   4.653   7.733
19170TIP3    H257396   5.300   4.551   7.700
19171TIP3   OH257397   5.420   4.862   8.863
19171TIP3    H157398   5.397   4.788   8.924
19171TIP3    H257399   5.515   4.873   8.884
19172TIP3   OH257400   5.405   4.612   8.012
19172TIP3    H157401   5.344   4.638   7.941
19172TIP3    H257402   5.438   4.528   7.972
19173TIP3   OH257403   4.690   4.638   8.743
19173TIP3    H157404   4.723   4.696   8.813
19173TIP3    H257405   4.678   4.554   8.791
19174TIP3   OH257406   4.743   4.115   7.452
19174TIP3    H157407   4.734   4.110   7.549
19174TIP3    H257408   4.661   4.162   7.429
19175TIP3   OH257409   4.281   4.171   8.315
19175TIP3    H157410   4.357   4.190   8.374
19175TIP3    H257411   4.319   4.110   8.250
19176TIP3   OH257412   4.268   4.135   7.836
19176TIP3    H157413   4.318   4.181   7.767
19176TIP3    H257414   4.214   4.205   7.876
19177TIP3   OH257415   5.415   4.858   8.437
19177TIP3    H157416   5.448   4.786   8.379
19177TIP3    H257417   5.387   4.806   8.515
19178TIP3   OH257418   5.083   4.323   8.110
19178TIP3    H157419   5.000   4.316   8.161
19178TIP3    H257420   5.150   4.314   8.179
19179TIP3   OH257421   4.518   4.372   8.117
19179TIP3    H157422   4.424   4.378   8.091
19179TIP3    H257423   4.541   4.280   8.096
19180TIP3   OH257424   4.787   4.372   7.804
19180TIP3    H157425   4.882   4.384   7.783
19180TIP3    H257426   4.741   4.394   7.720
19181TIP3   OH257427   5.574   4.395   8.311
19181TIP3    H157428   5.538   4.404   8.402
19181TIP3    H257429   5.511   4.331   8.273
19182TIP3   OH257430   4.622   4.406   7.583
19182TIP3    H157431   4.555   4.356   7.533
19182TIP3    H257432   4.676   4.440   7.509
19183TIP3   OH257433   5.742   6.078   8.527
19183TIP3    H157434   5.742   6.106   8.434
19183TIP3    H257435   5.820   6.127   8.561
19184TIP3   OH257436   4.701   5.191   8.953
19184TIP3    H157437   4.782   5.222   9.000
19184TIP3    H257438   4.637   5.194   9.027
19185TIP3   OH257439   5.168   4.648   8.209
19185TIP3    H157440   5.235   4.602   8.156
19185TIP3    H257441   5.174   4.603   8.295
19186TIP3   OH257442   4.692   4.132   8.085
19186TIP3    H157443   4.655   4.052   8.130
19186TIP3    H257444   4.740   4.092   8.012
19187TIP3   OH257445   5.143   4.543   8.491
19187TIP3    H157446   5.053   4.575   8.509
19187TIP3    H257447   5.200   4.600   8.546
19188TIP3   OH257448   4.881   4.932   7.592
19188TIP3    H157449   4.806   4.870   7.578
19188TIP3    H257450   4.861   4.966   7.682
19189TIP3   OH257451   5.780   5.172   8.221
19189TIP3    H157452   5.806   5.216   8.138
19189TIP3    H257453   5.696   5.127   8.196
19190TIP3   OH257454   5.337   4.247   7.450
19190TIP3    H157455   5.241   4.229   7.460
19190TIP3    H257456   5.346   4.341   7.476
19191TIP3   OH257457   5.300   5.266   8.582
19191TIP3    H157458   5.300   5.221   8.668
19191TIP3    H257459   5.242   5.342   8.598
19192TIP3   OH257460   5.407   4.492   7.556
19192TIP3    H157461   5.504   4.497   7.571
19192TIP3    H257462   5.389   4.571   7.502
19193TIP3   OH257463   4.573   4.956   8.268
19193TIP3    H157464   4.608   4.927   8.181
19193TIP3    H257465   4.610   4.889   8.327
19194TIP3   OH257466   5.025   5.088   7.418
19194TIP3    H157467   4.973   5.171   7.421
19194TIP3    H257468   4.969   5.029   7.472
19195TIP3   OH257469   4.452   4.878   8.879
19195TIP3    H157470   4.482   4.868   8.971
19195TIP3    H257471   4.390   4.804   8.869
19196TIP3   OH257472   5.177   4.991   8.898
19196TIP3    H157473   5.118   4.929   8.851
19196TIP3    H257474   5.265   4.955   8.873
19197TIP3   OH257475   5.851   4.581   7.392
19197TIP3    H157476   5.788   4.535   7.331
19197TIP3    H257477   5.847   4.670   7.350
19198TIP3   OH257478   6.063   5.438   8.474
19198TIP3    H157479   5.966   5.432   8.467
19198TIP3    H257480   6.090   5.409   8.384
19199TIP3   OH257481   5.551   5.400   7.301
19199TIP3    H157482   5.524   5.328   7.359
19199TIP3    H257483   5.562   5.356   7.214
19200TIP3   OH257484   5.543   5.032   8.138
19200TIP3    H157485   5.452   5.001   8.152
19200TIP3    H257486   5.582   4.953   8.096
19201TIP3   OH257487   4.673   5.256   7.900
19201TIP3    H157488   4.673   5.340   7.849
19201TIP3    H257489   4.579   5.236   7.898
19202TIP3   OH257490   4.816   5.026   7.840
19202TIP3    H157491   4.777   5.114   7.855
19202TIP3    H257492   4.775   4.974   7.911
19203TIP3   OH257493   4.939   5.599   8.360
19203TIP3    H157494   4.979   5.672   8.309
19203TIP3    H257495   5.014   5.572   8.418
19204TIP3   OH257496   4.608   5.494   7.777
19204TIP3    H157497   4.512   5.501   7.790
19204TIP3    H257498   4.629   5.585   7.748
19205TIP3   OH257499   5.349   5.251   8.313
19205TIP3    H157500   5.330   5.240   8.410
19205TIP3    H257501   5.407   5.174   8.298
19206TIP3   OH257502   5.304   5.129   7.201
19206TIP3    H157503   5.353   5.104   7.282
19206TIP3    H257504   5.214   5.100   7.224
19207TIP3   OH257505   5.644   5.605   7.022
19207TIP3    H157506   5.681   5.676   6.967
19207TIP3    H257507   5.564   5.651   7.055
19208TIP3   OH257508   4.665   4.383   8.887
19208TIP3    H157509   4.569   4.386   8.902
19208TIP3    H257510   4.693   4.322   8.958
19209TIP3   OH257511   5.464   5.067   7.423
19209TIP3    H157512   5.454   4.997   7.491
19209TIP3    H257513   5.560   5.062   7.407
19210TIP3   OH257514   4.381   5.467   8.520
19210TIP3    H157515   4.432   5.390   8.549
19210TIP3    H257516   4.407   5.533   8.585
19211TIP3   OH257517   4.703   5.092   7.202
19211TIP3    H157518   4.693   4.999   7.177
19211TIP3    H257519   4.649   5.097   7.283
19212TIP3   OH257520   4.613   5.109   7.472
19212TIP3    H157521   4.691   5.100   7.528
19212TIP3    H257522   4.608   5.204   7.453
19213TIP3   OH257523   4.361   4.818   7.681
19213TIP3    H157524   4.288   4.857   7.734
19213TIP3    H257525   4.371   4.885   7.611
19214TIP3   OH257526   5.497   4.447   8.571
19214TIP3    H157527   5.580   4.481   8.609
19214TIP3    H257528   5.483   4.365   8.623
19215TIP3   OH257529   5.378   4.198   7.732
19215TIP3    H157530   5.366   4.221   7.638
19215TIP3    H257531   5.419   4.280   7.768
19216TIP3   OH257532   4.873   5.316   7.425
19216TIP3    H157533   4.796   5.364   7.458
19216TIP3    H257534   4.895   5.371   7.349
19217TIP3   OH257535   5.071   4.376   7.836
19217TIP3    H157536   5.136   4.447   7.819
19217TIP3    H257537   5.075   4.369   7.934
19218TIP3   OH257538   5.340   4.696   8.643
19218TIP3    H157539   5.359   4.747   8.725
19218TIP3    H257540   5.393   4.616   8.655
19219TIP3   OH257541   5.216   4.105   7.940
19219TIP3    H157542   5.211   4.182   8.000
19219TIP3    H257543   5.275   4.140   7.870
19220TIP3   OH257544   4.728   4.100   7.729
19220TIP3    H157545   4.725   4.190   7.766
19220TIP3    H257546   4.824   4.081   7.737
19221TIP3   OH257547   5.981   4.595   8.622
19221TIP3    H157548   5.883   4.594   8.632
19221TIP3    H257549   5.990   4.550   8.537
19222TIP3   OH257550   5.630   4.792   8.015
19222TIP3    H157551   5.555   4.730   8.024
19222TIP3    H257552   5.702   4.743   8.061
19223TIP3   OH257553   4.337   5.025   7.480
19223TIP3    H157554   4.391   5.106   7.482
19223TIP3    H257555   4.391   4.973   7.416
19224TIP3   OH257556   4.294   4.295   7.603
19224TIP3    H157557   4.279   4.386   7.630
19224TIP3    H257558   4.207   4.254   7.601
19225TIP3   OH257559   5.598   5.742   7.966
19225TIP3    H157560   5.555   5.792   7.892
19225TIP3    H257561   5.691   5.765   7.946
19226TIP3   OH257562   4.673   4.015   8.489
19226TIP3    H157563   4.641   3.979   8.404
19226TIP3    H257564   4.665   3.937   8.548
19227TIP3   OH257565   4.217   5.232   7.875
19227TIP3    H157566   4.140   5.264   7.923
19227TIP3    H257567   4.199   5.270   7.786
19228TIP3   OH257568   4.372   5.772   8.936
19228TIP3    H157569   4.455   5.771   8.987
19228TIP3    H257570   4.348   5.678   8.939
19229TIP3   OH257571   4.860   5.746   8.975
19229TIP3    H157572   4.948   5.711   8.994
19229TIP3    H257573   4.829   5.682   8.908
19230TIP3   OH257574   4.834   5.315   7.114
19230TIP3    H157575   4.772   5.249   7.155
19230TIP3    H257576   4.903   5.255   7.083
19231TIP3   OH257577   5.502   5.646   8.687
19231TIP3    H157578   5.480   5.576   8.752
19231TIP3    H257579   5.571   5.695   8.734
19232TIP3   OH257580   5.272   5.356   7.026
19232TIP3    H157581   5.314   5.289   7.083
19232TIP3    H257582   5.327   5.354   6.946
19233TIP3   OH257583   4.501   5.177   9.143
19233TIP3    H157584   4.518   5.081   9.144
19233TIP3    H257585   4.416   5.183   9.095
19234TIP3   OH257586   4.473   4.824   7.334
19234TIP3    H157587   4.530   4.799   7.408
19234TIP3    H257588   4.541   4.832   7.263
19235TIP3   OH257589   5.112   5.265   8.913
19235TIP3    H157590   5.065   5.275   8.828
19235TIP3    H257591   5.142   5.171   8.910
19236TIP3   OH257592   5.004   5.028   7.140
19236TIP3    H157593   4.983   5.045   7.233
19236TIP3    H257594   4.992   4.931   7.137
19237TIP3   OH257595   5.605   5.253   8.522
19237TIP3    H157596   5.669   5.313   8.478
19237TIP3    H257597   5.522   5.302   8.523
19238TIP3   OH257598   4.605   4.898   9.127
19238TIP3    H157599   4.683   4.845   9.107
19238TIP3    H257600   4.634   4.938   9.212
19239TIP3   OH257601   4.689   4.734   7.558
19239TIP3    H157602   4.659   4.691   7.640
19239TIP3    H257603   4.722   4.657   7.506
19240TIP3   OH257604   4.954   4.798   8.785
19240TIP3    H157605   4.878   4.859   8.790
19240TIP3    H257606   5.003   4.833   8.707
19241TIP3   OH257607   4.787   4.526   7.399
19241TIP3    H157608   4.759   4.527   7.305
19241TIP3    H257609   4.884   4.534   7.390
19242TIP3   OH257610   5.474   5.205   8.917
19242TIP3    H157611   5.558   5.179   8.876
19242TIP3    H257612   5.466   5.139   8.988
19243TIP3   OH257613   5.610   4.859   7.059
19243TIP3    H157614   5.587   4.812   6.977
19243TIP3    H257615   5.579   4.949   7.035
19244TIP3   OH257616   5.079   4.585   8.912
19244TIP3    H157617   5.079   4.504   8.858
19244TIP3    H257618   5.034   4.650   8.854
19245TIP3   OH257619   5.081   4.374   8.718
19245TIP3    H157620   5.108   4.410   8.631
19245TIP3    H257621   4.988   4.349   8.701
19246TIP3   OH257622   5.111   4.913   8.595
19246TIP3    H157623   5.189   4.907   8.539
19246TIP3    H257624   5.054   4.976   8.546
19247TIP3   OH257625   5.691   4.876   8.973
19247TIP3    H157626   5.736   4.791   8.986
19247TIP3    H257627   5.763   4.931   8.939
19248TIP3   OH257628   5.738   5.125   8.715
19248TIP3    H157629   5.680   5.175   8.653
19248TIP3    H257630   5.825   5.143   8.672
19249TIP3   OH257631   4.955   4.702   9.137
19249TIP3    H157632   4.886   4.635   9.156
19249TIP3    H257633   4.991   4.669   9.052
19250TIP3   OH257634   5.213   4.137   8.784
19250TIP3    H157635   5.164   4.219   8.763
19250TIP3    H257636   5.144   4.069   8.773
19251TIP3   OH257637   5.338   4.644   9.002
19251TIP3    H157638   5.328   4.630   9.098
19251TIP3    H257639   5.248   4.617   8.973
19252TIP3   OH257640   5.580   4.592   8.857
19252TIP3    H157641   5.503   4.590   8.918
19252TIP3    H257642   5.652   4.559   8.914
19253TIP3   OH257643   5.810   4.531   9.008
19253TIP3    H157644   5.821   4.435   9.027
19253TIP3    H257645   5.804   4.570   9.097
19254TIP3   OH257646   4.794   4.481   9.192
19254TIP3    H157647   4.799   4.390   9.159
19254TIP3    H257648   4.830   4.469   9.283
19255TIP3   OH257649   5.311   4.148   9.040
19255TIP3    H157650   5.376   4.076   9.036
19255TIP3    H257651   5.269   4.140   8.952
19256TIP3   OH257652   5.375   4.364   9.198
19256TIP3    H157653   5.352   4.291   9.136
19256TIP3    H257654   5.296   4.421   9.194
19257TIP3   OH257655   4.075   4.980   7.530
19257TIP3    H157656   4.167   5.011   7.514
19257TIP3    H257657   4.073   4.900   7.477
19258TIP3   OH257658   3.986   5.585   7.932
19258TIP3    H157659   3.920   5.522   7.896
19258TIP3    H257660   4.032   5.528   7.998
19259TIP3   OH257661   4.122   5.438   8.119
19259TIP3    H157662   4.112   5.362   8.178
19259TIP3    H257663   4.174   5.498   8.175
19260TIP3   OH257664   5.847   5.841   7.919
19260TIP3    H157665   5.881   5.880   8.001
19260TIP3    H257666   5.912   5.872   7.854
19261TIP3   OH257667   5.881   5.859   8.202
19261TIP3    H157668   5.855   5.766   8.188
19261TIP3    H257669   5.960   5.846   8.257
19262TIP3   OH257670   5.922   5.535   8.769
19262TIP3    H157671   5.854   5.542   8.838
19262TIP3    H257672   5.968   5.622   8.777
19263TIP3   OH257673   5.743   5.046   7.394
19263TIP3    H157674   5.813   5.109   7.365
19263TIP3    H257675   5.786   5.006   7.473
19264TIP3   OH257676   5.870   4.915   7.597
19264TIP3    H157677   5.806   4.870   7.657
19264TIP3    H257678   5.937   4.950   7.660
19265TIP3   OH257679   5.919   5.303   8.024
19265TIP3    H157680   5.978   5.239   7.980
19265TIP3    H257681   5.922   5.380   7.964
19266TIP3   OH257682   5.776   5.598   8.208
19266TIP3    H157683   5.704   5.646   8.249
19266TIP3    H257684   5.730   5.547   8.138
19267TIP3   OH257685   5.809   4.821   7.245
19267TIP3    H157686   5.738   4.824   7.177
19267TIP3    H257687   5.783   4.897   7.300
19268TIP3   OH257688   5.680   4.494   7.199
19268TIP3    H157689   5.637   4.533   7.122
19268TIP3    H257690   5.655   4.400   7.189
19269TIP3   OH257691   5.685   4.768   7.744
19269TIP3    H157692   5.694   4.672   7.738
19269TIP3    H257693   5.672   4.782   7.841
19270TIP3   OH257694   4.312   4.843   8.491
19270TIP3    H157695   4.310   4.812   8.398
19270TIP3    H257696   4.410   4.845   8.507
19271TIP3   OH257697   5.975   5.194   8.598
19271TIP3    H157698   6.046   5.126   8.592
19271TIP3    H257699   6.010   5.265   8.541
19272TIP3   OH257700   6.159   5.001   8.621
19272TIP3    H157701   6.085   4.949   8.658
19272TIP3    H257702   6.233   4.938   8.634
19273TIP3   OH257703   5.624   4.228   7.185
19273TIP3    H157704   5.700   4.197   7.239
19273TIP3    H257705   5.551   4.169   7.211
19274TIP3   OH257706   5.681   4.486   7.639
19274TIP3    H157707   5.722   4.397   7.655
19274TIP3    H257708   5.740   4.518   7.569
19275TIP3   OH257709   5.843   4.663   8.132
19275TIP3    H157710   5.930   4.688   8.093
19275TIP3    H257711   5.858   4.696   8.223
19276TIP3   OH257712   5.912   4.803   8.367
19276TIP3    H157713   5.834   4.837   8.415
19276TIP3    H257714   5.944   4.884   8.321
19277TIP3   OH257715   4.527   4.547   9.173
19277TIP3    H157716   4.625   4.535   9.170
19277TIP3    H257717   4.502   4.458   9.205
19278TIP3   OH257718   6.363   4.394   8.922
19278TIP3    H157719   6.421   4.327   8.879
19278TIP3    H257720   6.337   4.450   8.847
19279TIP3   OH257721   5.790   4.235   7.677
19279TIP3    H157722   5.838   4.218   7.760
19279TIP3    H257723   5.730   4.158   7.675
19280TIP3   OH257724   4.487   4.223   8.502
19280TIP3    H157725   4.547   4.145   8.507
19280TIP3    H257726   4.552   4.294   8.491
19281TIP3   OH257727   4.293   4.501   8.568
19281TIP3    H157728   4.340   4.482   8.485
19281TIP3    H257729   4.335   4.584   8.594
19282TIP3   OH257730   6.236   4.536   8.728
19282TIP3    H157731   6.148   4.573   8.749
19282TIP3    H257732   6.210   4.463   8.669
19283TIP3   OH257733   5.872   4.172   7.308
19283TIP3    H157734   5.912   4.098   7.257
19283TIP3    H257735   5.940   4.241   7.301
19284TIP3   OH257736   5.438   5.700   7.580
19284TIP3    H157737   5.483   5.681   7.494
19284TIP3    H257738   5.495   5.770   7.615
19285TIP3   OH257739   4.497   4.085   8.886
19285TIP3    H157740   4.447   4.073   8.968
19285TIP3    H257741   4.427   4.116   8.826
19286TIP3   OH257742   4.539   5.503   8.963
19286TIP3    H157743   4.446   5.479   8.945
19286TIP3    H257744   4.544   5.488   9.058
19287TIP3   OH257745   4.714   5.537   8.511
19287TIP3    H157746   4.663   5.611   8.472
19287TIP3    H257747   4.798   5.551   8.463
19288TIP3   OH257748   5.181   5.797   8.645
19288TIP3    H157749   5.198   5.776   8.740
19288TIP3    H257750   5.257   5.854   8.630
19289TIP3   OH257751   6.133   4.297   8.606
19289TIP3    H157752   6.042   4.289   8.573
19289TIP3    H257753   6.165   4.204   8.594
19290TIP3   OH257754   4.394   5.798   8.532
19290TIP3    H157755   4.304   5.830   8.507
19290TIP3    H257756   4.398   5.827   8.623
19291TIP3   OH257757   4.630   5.776   8.391
19291TIP3    H157758   4.543   5.788   8.436
19291TIP3    H257759   4.608   5.807   8.300
19292TIP3   OH257760   5.058   5.792   8.190
19292TIP3    H157761   4.989   5.815   8.125
19292TIP3    H257762   5.079   5.880   8.227
19293TIP3   OH257763   5.519   5.916   8.170
19293TIP3    H157764   5.505   6.005   8.130
19293TIP3    H257765   5.552   5.867   8.092
19294TIP3   OH257766   4.302   5.590   8.278
19294TIP3    H157767   4.330   5.564   8.368
19294TIP3    H257768   4.374   5.547   8.226
19295TIP3   OH257769   4.494   5.462   8.134
19295TIP3    H157770   4.512   5.377   8.181
19295TIP3    H257771   4.585   5.498   8.124
19296TIP3   OH257772   4.764   5.559   8.134
19296TIP3    H157773   4.790   5.467   8.118
19296TIP3    H257774   4.805   5.574   8.221
19297TIP3   OH257775   5.336   4.212   8.223
19297TIP3    H157776   5.294   4.142   8.277
19297TIP3    H257777   5.408   4.163   8.179
19298TIP3   OH257778   5.863   4.095   8.132
19298TIP3    H157779   5.898   4.145   8.055
19298TIP3    H257780   5.767   4.110   8.122
19299TIP3   OH257781   5.957   4.194   7.894
19299TIP3    H157782   6.029   4.142   7.854
19299TIP3    H257783   5.991   4.285   7.878
19300TIP3   OH257784   4.586   3.921   8.242
19300TIP3    H157785   4.494   3.892   8.220
19300TIP3    H257786   4.632   3.835   8.239
19301TIP3   OH257787   4.361   3.780   7.853
19301TIP3    H157788   4.393   3.863   7.814
19301TIP3    H257789   4.341   3.808   7.945
19302TIP3   OH257790   5.029   3.956   8.119
19302TIP3    H157791   5.091   4.005   8.064
19302TIP3    H257792   5.050   3.988   8.208
19303TIP3   OH257793   5.580   4.100   8.105
19303TIP3    H157794   5.575   4.062   8.016
19303TIP3    H257795   5.566   4.020   8.161
19304TIP3   OH257796   5.608   4.022   7.667
19304TIP3    H157797   5.520   4.062   7.678
19304TIP3    H257798   5.594   3.936   7.714
19305TIP3   OH257799   4.085   5.359   7.677
19305TIP3    H157800   4.002   5.328   7.636
19305TIP3    H257801   4.082   5.453   7.653
19306TIP3   OH257802   4.492   3.965   7.638
19306TIP3    H157803   4.538   3.890   7.595
19306TIP3    H257804   4.565   4.009   7.685
19307TIP3   OH257805   5.004   4.125   7.750
19307TIP3    H157806   5.061   4.076   7.811
19307TIP3    H257807   5.026   4.217   7.777
19308TIP3   OH257808   4.872   5.552   7.265
19308TIP3    H157809   4.951   5.565   7.210
19308TIP3    H257810   4.818   5.496   7.207
19309TIP3   OH257811   5.579   5.667   7.344
19309TIP3    H157812   5.572   5.570   7.330
19309TIP3    H257813   5.536   5.701   7.263
19310TIP3   OH257814   4.795   4.204   9.134
19310TIP3    H157815   4.763   4.132   9.190
19310TIP3    H257816   4.890   4.205   9.159
19311TIP3   OH257817   5.044   4.198   9.251
19311TIP3    H157818   5.129   4.167   9.215
19311TIP3    H257819   5.030   4.132   9.322
19312TIP3   OH257820   4.142   5.358   7.324
19312TIP3    H157821   4.147   5.417   7.401
19312TIP3    H257822   4.239   5.346   7.311
19313TIP3   OH257823   5.868   4.260   9.039
19313TIP3    H157824   5.887   4.229   9.130
19313TIP3    H257825   5.956   4.255   8.997
19314TIP3   OH257826   5.817   5.814   8.521
19314TIP3    H157827   5.735   5.775   8.551
19314TIP3    H257828   5.798   5.909   8.525
19315TIP3   OH257829   7.075   5.184   7.297
19315TIP3    H157830   7.048   5.276   7.279
19315TIP3    H257831   6.996   5.136   7.267
19316TIP3   OH257832   7.071   5.184   7.678
19316TIP3    H157833   7.104   5.156   7.766
19316TIP3    H257834   7.030   5.102   7.645
19317TIP3   OH257835   6.371   5.082   8.046
19317TIP3    H157836   6.403   5.014   8.109
19317TIP3    H257837   6.451   5.134   8.033
19318TIP3   OH257838   7.314   5.487   7.360
19318TIP3    H157839   7.304   5.419   7.428
19318TIP3    H257840   7.345   5.563   7.412
19319TIP3   OH257841   6.342   5.488   7.770
19319TIP3    H157842   6.335   5.391   7.772
19319TIP3    H257843   6.439   5.498   7.764
19320TIP3   OH257844   6.050   4.695   7.555
19320TIP3    H157845   6.000   4.778   7.567
19320TIP3    H257846   5.981   4.638   7.518
19321TIP3   OH257847   6.109   4.981   7.726
19321TIP3    H157848   6.158   4.904   7.763
19321TIP3    H257849   6.169   5.009   7.655
19322TIP3   OH257850   6.962   5.945   7.375
19322TIP3    H157851   7.011   5.875   7.327
19322TIP3    H257852   6.965   5.914   7.466
19323TIP3   OH257853   6.872   5.410   7.726
19323TIP3    H157854   6.911   5.333   7.680
19323TIP3    H257855   6.955   5.455   7.751
19324TIP3   OH257856   7.885   4.732   7.722
19324TIP3    H157857   7.913   4.814   7.768
19324TIP3    H257858   7.906   4.754   7.630
19325TIP3   OH257859   7.284   4.913   7.760
19325TIP3    H157860   7.326   4.828   7.780
19325TIP3    H257861   7.253   4.897   7.669
19326TIP3   OH257862   6.620   4.572   7.725
19326TIP3    H157863   6.600   4.644   7.662
19326TIP3    H257864   6.573   4.498   7.681
19327TIP3   OH257865   7.315   4.662   7.347
19327TIP3    H157866   7.387   4.646   7.413
19327TIP3    H257867   7.367   4.698   7.274
19328TIP3   OH257868   6.256   4.774   7.832
19328TIP3    H157869   6.339   4.753   7.879
19328TIP3    H257870   6.267   4.718   7.752
19329TIP3   OH257871   6.696   4.972   7.624
19329TIP3    H157872   6.790   4.946   7.638
19329TIP3    H257873   6.657   4.888   7.592
19330TIP3   OH257874   7.958   4.939   7.892
19330TIP3    H157875   7.874   4.986   7.874
19330TIP3    H257876   7.968   4.958   7.987
19331TIP3   OH257877   6.618   4.555   8.158
19331TIP3    H157878   6.558   4.591   8.091
19331TIP3    H257879   6.567   4.572   8.240
19332TIP3   OH257880   6.969   5.407   7.165
19332TIP3    H157881   6.922   5.384   7.085
19332TIP3    H257882   6.925   5.491   7.190
19333TIP3   OH257883   6.724   5.329   7.955
19333TIP3    H157884   6.662   5.395   7.992
19333TIP3    H257885   6.768   5.381   7.884
19334TIP3   OH257886   7.526   4.664   7.518
19334TIP3    H157887   7.519   4.614   7.600
19334TIP3    H257888   7.581   4.740   7.546
19335TIP3   OH257889   6.488   4.670   7.943
19335TIP3    H157890   6.551   4.742   7.966
19335TIP3    H257891   6.537   4.628   7.869
19336TIP3   OH257892   6.551   5.523   8.051
19336TIP3    H157893   6.526   5.609   8.012
19336TIP3    H257894   6.473   5.509   8.109
19337TIP3   OH257895   5.948   5.213   7.288
19337TIP3    H157896   5.907   5.239   7.204
19337TIP3    H257897   5.978   5.299   7.324
19338TIP3   OH257898   7.385   5.726   7.526
19338TIP3    H157899   7.295   5.721   7.565
19338TIP3    H257900   7.382   5.813   7.482
19339TIP3   OH257901   7.676   4.638   7.890
19339TIP3    H157902   7.588   4.664   7.858
19339TIP3    H257903   7.735   4.666   7.816
19340TIP3   OH257904   6.974   4.275   7.869
19340TIP3    H157905   6.966   4.180   7.889
19340TIP3    H257906   6.896   4.311   7.917
19341TIP3   OH257907   7.089   5.775   7.201
19341TIP3    H157908   7.142   5.694   7.180
19341TIP3    H257909   7.148   5.842   7.160
19342TIP3   OH257910   7.234   5.559   7.106
19342TIP3    H157911   7.184   5.481   7.076
19342TIP3    H257912   7.270   5.528   7.192
19343TIP3   OH257913   7.614   5.641   7.874
19343TIP3    H157914   7.603   5.565   7.812
19343TIP3    H257915   7.594   5.717   7.814
19344TIP3   OH257916   6.903   5.035   7.128
19344TIP3    H157917   6.823   5.087   7.105
19344TIP3    H257918   6.950   5.034   7.043
19345TIP3   OH257919   6.863   4.822   6.844
19345TIP3    H157920   6.930   4.869   6.896
19345TIP3    H257921   6.918   4.756   6.798
19346TIP3   OH257922   7.809   5.279   7.715
19346TIP3    H157923   7.726   5.332   7.721
19346TIP3    H257924   7.838   5.303   7.625
19347TIP3   OH257925   7.252   5.118   7.101
19347TIP3    H157926   7.197   5.144   7.179
19347TIP3    H257927   7.335   5.092   7.145
19348TIP3   OH257928   7.487   5.159   8.011
19348TIP3    H157929   7.485   5.243   8.060
19348TIP3    H257930   7.401   5.163   7.965
19349TIP3   OH257931   6.484   5.117   7.517
19349TIP3    H157932   6.443   5.059   7.449
19349TIP3    H257933   6.561   5.064   7.545
19350TIP3   OH257934   6.612   5.526   7.666
19350TIP3    H157935   6.594   5.483   7.582
19350TIP3    H257936   6.703   5.495   7.685
19351TIP3   OH257937   6.618   5.089   7.871
19351TIP3    H157938   6.653   5.067   7.782
19351TIP3    H257939   6.663   5.174   7.892
19352TIP3   OH257940   7.144   5.726   7.647
19352TIP3    H157941   7.132   5.807   7.699
19352TIP3    H257942   7.131   5.654   7.712
19353TIP3   OH257943   6.758   5.645   8.195
19353TIP3    H157944   6.699   5.708   8.242
19353TIP3    H257945   6.692   5.591   8.147
19354TIP3   OH257946   7.094   4.976   6.928
19354TIP3    H157947   7.152   5.035   6.981
19354TIP3    H257948   7.123   4.998   6.836
19355TIP3   OH257949   6.513   5.202   8.296
19355TIP3    H157950   6.517   5.289   8.341
19355TIP3    H257951   6.417   5.183   8.302
19356TIP3   OH257952   6.835   5.657   7.201
19356TIP3    H157953   6.914   5.710   7.220
19356TIP3    H257954   6.774   5.723   7.164
19357TIP3   OH257955   6.553   5.814   8.280
19357TIP3    H157956   6.518   5.811   8.189
19357TIP3    H257957   6.473   5.793   8.334
19358TIP3   OH257958   7.608   4.218   6.974
19358TIP3    H157959   7.527   4.236   7.026
19358TIP3    H257960   7.619   4.303   6.925
19359TIP3   OH257961   6.351   4.960   7.322
19359TIP3    H157962   6.285   5.004   7.264
19359TIP3    H257963   6.310   4.873   7.334
19360TIP3   OH257964   7.407   5.585   6.519
19360TIP3    H157965   7.411   5.683   6.508
19360TIP3    H257966   7.500   5.561   6.504
19361TIP3   OH257967   6.128   5.343   8.230
19361TIP3    H157968   6.071   5.316   8.156
19361TIP3    H257969   6.169   5.258   8.257
19362TIP3   OH257970   5.986   5.534   7.868
19362TIP3    H157971   6.081   5.523   7.849
19362TIP3    H257972   5.987   5.616   7.919
19363TIP3   OH257973   7.854   5.987   7.922
19363TIP3    H157974   7.849   5.890   7.933
19363TIP3    H257975   7.769   6.013   7.965
19364TIP3   OH257976   6.956   5.775   8.050
19364TIP3    H157977   6.956   5.867   8.083
19364TIP3    H257978   6.886   5.735   8.106
19365TIP3   OH257979   6.714   5.902   7.004
19365TIP3    H157980   6.671   5.885   6.919
19365TIP3    H257981   6.685   5.993   7.026
19366TIP3   OH257982   6.153   5.752   7.387
19366TIP3    H157983   6.203   5.742   7.471
19366TIP3    H257984   6.098   5.673   7.389
19367TIP3   OH257985   6.918   5.803   6.644
19367TIP3    H157986   6.977   5.733   6.609
19367TIP3    H257987   6.952   5.814   6.735
19368TIP3   OH257988   6.967   5.851   6.914
19368TIP3    H157989   6.880   5.860   6.959
19368TIP3    H257990   7.022   5.816   6.985
19369TIP3   OH257991   7.741   5.120   8.191
19369TIP3    H157992   7.661   5.133   8.139
19369TIP3    H257993   7.756   5.024   8.179
19370TIP3   OH257994   6.336   5.526   8.219
19370TIP3    H157995   6.388   5.509   8.301
19370TIP3    H257996   6.263   5.462   8.228
19371TIP3   OH257997   6.735   4.350   8.000
19371TIP3    H157998   6.645   4.319   7.976
19371TIP3    H257999   6.711   4.433   8.046
19372TIP3   OH258000   7.269   4.466   8.194
19372TIP3    H158001   7.339   4.435   8.256
19372TIP3    H258002   7.187   4.443   8.242
19373TIP3   OH258003   7.511   4.895   8.114
19373TIP3    H158004   7.462   4.891   8.200
19373TIP3    H258005   7.485   4.982   8.079
19374TIP3   OH258006   7.179   5.018   6.669
19374TIP3    H158007   7.138   4.995   6.584
19374TIP3    H258008   7.210   5.108   6.654
19375TIP3   OH258009   6.882   4.400   6.972
19375TIP3    H158010   6.850   4.398   7.064
19375TIP3    H258011   6.844   4.316   6.940
19376TIP3   OH258012   6.667   4.865   8.019
19376TIP3    H158013   6.618   4.887   8.101
19376TIP3    H258014   6.651   4.946   7.966
19377TIP3   OH258015   6.551   4.752   7.533
19377TIP3    H158016   6.458   4.724   7.551
19377TIP3    H258017   6.565   4.711   7.445
19378TIP3   OH258018   7.042   4.838   7.261
19378TIP3    H158019   6.988   4.909   7.220
19378TIP3    H258020   7.096   4.808   7.186
19379TIP3   OH258021   7.216   5.117   8.349
19379TIP3    H158022   7.194   5.043   8.410
19379TIP3    H258023   7.311   5.130   8.370
19380TIP3   OH258024   7.200   4.866   7.501
19380TIP3    H158025   7.140   4.896   7.429
19380TIP3    H258026   7.232   4.784   7.459
19381TIP3   OH258027   6.485   4.895   8.229
19381TIP3    H158028   6.519   4.956   8.297
19381TIP3    H258029   6.475   4.812   8.280
19382TIP3   OH258030   6.537   4.372   6.938
19382TIP3    H158031   6.530   4.368   7.035
19382TIP3    H258032   6.457   4.422   6.916
19383TIP3   OH258033   6.079   4.419   7.809
19383TIP3    H158034   6.156   4.448   7.862
19383TIP3    H258035   6.119   4.382   7.728
19384TIP3   OH258036   6.054   4.398   7.328
19384TIP3    H158037   6.100   4.437   7.250
19384TIP3    H258038   5.993   4.470   7.350
19385TIP3   OH258039   7.209   5.113   7.924
19385TIP3    H158040   7.242   5.041   7.865
19385TIP3    H258041   7.181   5.061   8.002
19386TIP3   OH258042   6.877   4.577   7.596
19386TIP3    H158043   6.796   4.572   7.650
19386TIP3    H258044   6.947   4.571   7.663
19387TIP3   OH258045   6.313   4.629   7.604
19387TIP3    H158046   6.219   4.635   7.577
19387TIP3    H258047   6.338   4.537   7.581
19388TIP3   OH258048   6.583   4.626   7.292
19388TIP3    H158049   6.678   4.641   7.272
19388TIP3    H258050   6.538   4.650   7.208
19389TIP3   OH258051   7.370   4.651   7.797
19389TIP3    H158052   7.336   4.661   7.888
19389TIP3    H258053   7.307   4.587   7.760
19390TIP3   OH258054   6.422   4.660   7.071
19390TIP3    H158055   6.350   4.615   7.023
19390TIP3    H258056   6.474   4.695   6.995
19391TIP3   OH258057   7.539   6.340   8.006
19391TIP3    H158058   7.529   6.369   7.914
19391TIP3    H258059   7.620   6.390   8.031
19392TIP3   OH258060   6.497   5.449   8.438
19392TIP3    H158061   6.578   5.479   8.484
19392TIP3    H258062   6.433   5.449   8.512
19393TIP3   OH258063   6.962   4.902   7.693
19393TIP3    H158064   7.034   4.861   7.642
19393TIP3    H258065   6.972   4.860   7.780
19394TIP3   OH258066   6.485   4.390   7.570
19394TIP3    H158067   6.452   4.310   7.616
19394TIP3    H258068   6.540   4.352   7.500
19395TIP3   OH258069   6.939   4.797   7.982
19395TIP3    H158070   6.850   4.834   7.997
19395TIP3    H258071   6.997   4.857   8.034
19396TIP3   OH258072   6.675   5.190   7.076
19396TIP3    H158073   6.603   5.125   7.066
19396TIP3    H258074   6.658   5.223   7.168
19397TIP3   OH258075   7.577   5.425   7.707
19397TIP3    H158076   7.602   5.474   7.626
19397TIP3    H258077   7.490   5.385   7.682
19398TIP3   OH258078   7.133   4.505   6.933
19398TIP3    H158079   7.037   4.486   6.947
19398TIP3    H258080   7.143   4.597   6.963
19399TIP3   OH258081   7.070   5.504   8.076
19399TIP3    H158082   7.099   5.486   8.166
19399TIP3    H258083   7.039   5.596   8.080
19400TIP3   OH258084   7.204   4.747   7.042
19400TIP3    H158085   7.300   4.753   7.059
19400TIP3    H258086   7.186   4.828   6.990
19401TIP3   OH258087   6.366   5.210   7.754
19401TIP3    H158088   6.405   5.184   7.668
19401TIP3    H258089   6.410   5.148   7.814
19402TIP3   OH258090   6.820   5.339   6.897
19402TIP3    H158091   6.774   5.425   6.904
19402TIP3    H258092   6.766   5.283   6.957
19403TIP3   OH258093   6.245   5.135   8.368
19403TIP3    H158094   6.271   5.120   8.461
19403TIP3    H258095   6.181   5.064   8.354
19404TIP3   OH258096   6.973   5.244   8.387
19404TIP3    H158097   6.916   5.187   8.334
19404TIP3    H258098   7.062   5.213   8.360
19405TIP3   OH258099   7.235   5.759   7.975
19405TIP3    H158100   7.139   5.766   7.982
19405TIP3    H258101   7.264   5.817   8.049
19406TIP3   OH258102   7.646   4.835   6.879
19406TIP3    H158103   7.583   4.791   6.817
19406TIP3    H258104   7.643   4.925   6.839
19407TIP3   OH258105   7.864   5.694   7.961
19407TIP3    H158106   7.766   5.690   7.952
19407TIP3    H258107   7.889   5.666   7.870
19408TIP3   OH258108   7.329   5.660   6.782
19408TIP3    H158109   7.325   5.594   6.852
19408TIP3    H258110   7.359   5.609   6.704
19409TIP3   OH258111   7.341   5.287   7.626
19409TIP3    H158112   7.248   5.261   7.639
19409TIP3    H258113   7.376   5.208   7.581
19410TIP3   OH258114   6.468   5.514   7.378
19410TIP3    H158115   6.472   5.596   7.325
19410TIP3    H258116   6.373   5.500   7.385
19411TIP3   OH258117   6.030   4.820   7.080
19411TIP3    H158118   6.078   4.903   7.101
19411TIP3    H258119   5.954   4.826   7.141
19412TIP3   OH258120   6.608   5.281   7.323
19412TIP3    H158121   6.573   5.371   7.341
19412TIP3    H258122   6.572   5.231   7.398
19413TIP3   OH258123   6.738   5.859   7.848
19413TIP3    H158124   6.779   5.930   7.795
19413TIP3    H258125   6.815   5.825   7.896
19414TIP3   OH258126   6.389   5.754   7.231
19414TIP3    H158127   6.302   5.763   7.276
19414TIP3    H258128   6.421   5.846   7.234
19415TIP3   OH258129   7.126   5.493   7.806
19415TIP3    H158130   7.118   5.491   7.904
19415TIP3    H258131   7.208   5.443   7.793
19416TIP3   OH258132   7.099   5.372   6.686
19416TIP3    H158133   7.151   5.357   6.768
19416TIP3    H258134   7.009   5.360   6.719
19417TIP3   OH258135   7.375   6.028   7.856
19417TIP3    H158136   7.294   5.975   7.843
19417TIP3    H258137   7.363   6.096   7.785
19418TIP3   OH258138   7.428   5.861   6.504
19418TIP3    H158139   7.476   5.935   6.462
19418TIP3    H258140   7.350   5.911   6.536
19419TIP3   OH258141   6.461   4.639   8.375
19419TIP3    H158142   6.364   4.642   8.388
19419TIP3    H258143   6.489   4.577   8.445
19420TIP3   OH258144   7.259   5.310   6.900
19420TIP3    H158145   7.250   5.251   6.977
19420TIP3    H258146   7.357   5.317   6.895
19421TIP3   OH258147   6.172   5.723   8.010
19421TIP3    H158148   6.227   5.648   8.038
19421TIP3    H258149   6.208   5.794   8.065
19422TIP3   OH258150   6.468   5.366   6.688
19422TIP3    H158151   6.481   5.274   6.659
19422TIP3    H258152   6.449   5.354   6.783
19423TIP3   OH258153   6.412   5.371   6.960
19423TIP3    H158154   6.483   5.344   7.020
19423TIP3    H258155   6.417   5.469   6.967
19424TIP3   OH258156   6.148   5.065   7.163
19424TIP3    H158157   6.082   5.109   7.220
19424TIP3    H258158   6.163   5.134   7.097
19425TIP3   OH258159   7.295   4.703   8.057
19425TIP3    H158160   7.377   4.738   8.094
19425TIP3    H258161   7.281   4.621   8.109
19426TIP3   OH258162   7.176   4.455   7.218
19426TIP3    H158163   7.163   4.480   7.125
19426TIP3    H258164   7.216   4.535   7.257
19427TIP3   OH258165   6.677   5.568   6.908
19427TIP3    H158166   6.591   5.597   6.945
19427TIP3    H258167   6.696   5.642   6.849
19428TIP3   OH258168   6.866   4.632   7.323
19428TIP3    H158169   6.932   4.703   7.306
19428TIP3    H258170   6.871   4.624   7.420
19429TIP3   OH258171   7.135   4.951   8.132
19429TIP3    H158172   7.156   5.004   8.211
19429TIP3    H258173   7.191   4.872   8.143
19430TIP3   OH258174   7.011   4.361   7.425
19430TIP3    H158175   7.009   4.435   7.488
19430TIP3    H258176   7.072   4.397   7.357
19431TIP3   OH258177   6.419   5.644   6.976
19431TIP3    H158178   6.391   5.713   6.913
19431TIP3    H258179   6.405   5.689   7.062
19432TIP3   OH258180   6.522   4.357   7.214
19432TIP3    H158181   6.520   4.447   7.251
19432TIP3    H258182   6.618   4.338   7.223
19433TIP3   OH258183   7.778   4.852   8.108
19433TIP3    H158184   7.680   4.851   8.118
19433TIP3    H258185   7.785   4.803   8.025
19434TIP3   OH258186   7.427   5.046   7.499
19434TIP3    H158187   7.351   4.986   7.512
19434TIP3    H258188   7.499   4.999   7.547
19435TIP3   OH258189   6.139   5.276   6.970
19435TIP3    H158190   6.204   5.348   6.978
19435TIP3    H258191   6.184   5.222   6.903
19436TIP3   OH258192   6.085   4.550   7.102
19436TIP3    H158193   6.082   4.648   7.097
19436TIP3    H258194   6.000   4.526   7.063
19437TIP3   OH258195   7.395   5.994   7.447
19437TIP3    H158196   7.353   6.042   7.373
19437TIP3    H258197   7.489   6.016   7.428
19438TIP3   OH258198   6.470   4.270   7.977
19438TIP3    H158199   6.440   4.236   7.891
19438TIP3    H258200   6.461   4.191   8.035
19439TIP3   OH258201   6.013   5.492   7.361
19439TIP3    H158202   5.935   5.521   7.410
19439TIP3    H258203   5.992   5.529   7.272
19440TIP3   OH258204   6.167   6.027   8.434
19440TIP3    H158205   6.254   6.029   8.480
19440TIP3    H258206   6.153   5.931   8.427
19441TIP3   OH258207   6.647   5.995   8.474
19441TIP3    H158208   6.743   5.979   8.482
19441TIP3    H258209   6.625   5.937   8.398
19442TIP3   OH258210   6.630   5.571   6.601
19442TIP3    H158211   6.573   5.500   6.640
19442TIP3    H258212   6.705   5.518   6.569
19443TIP3   OH258213   7.285   5.902   8.207
19443TIP3    H158214   7.279   5.831   8.275
19443TIP3    H258215   7.364   5.952   8.235
19444TIP3   OH258216   7.065   5.610   6.512
19444TIP3    H158217   7.119   5.557   6.573
19444TIP3    H258218   7.123   5.617   6.433
19445TIP3   OH258219   6.296   5.436   8.629
19445TIP3    H158220   6.316   5.340   8.632
19445TIP3    H258221   6.209   5.436   8.585
19446TIP3   OH258222   6.274   5.088   6.821
19446TIP3    H158223   6.329   5.054   6.894
19446TIP3    H258224   6.342   5.092   6.750
19447TIP3   OH258225   6.905   5.520   8.402
19447TIP3    H158226   6.865   5.536   8.315
19447TIP3    H258227   6.937   5.427   8.395
19448TIP3   OH258228   6.784   5.285   6.628
19448TIP3    H158229   6.785   5.299   6.725
19448TIP3    H258230   6.781   5.187   6.624
19449TIP3   OH258231   7.397   5.528   8.008
19449TIP3    H158232   7.473   5.572   7.964
19449TIP3    H258233   7.328   5.596   7.996
19450TIP3   OH258234   6.415   5.169   8.609
19450TIP3    H158235   6.490   5.112   8.588
19450TIP3    H258236   6.440   5.201   8.699
19451TIP3   OH258237   6.483   4.990   7.044
19451TIP3    H158238   6.457   4.949   7.128
19451TIP3    H258239   6.518   4.914   6.994
19452TIP3   OH258240   6.749   5.053   8.270
19452TIP3    H158241   6.674   5.116   8.275
19452TIP3    H258242   6.799   5.087   8.192
19453TIP3   OH258243   6.583   4.783   6.885
19453TIP3    H158244   6.556   4.785   6.791
19453TIP3    H258245   6.680   4.791   6.877
19454TIP3   OH258246   7.267   5.456   8.406
19454TIP3    H158247   7.348   5.435   8.358
19454TIP3    H258248   7.267   5.388   8.476
19455TIP3   OH258249   7.466   5.147   6.485
19455TIP3    H158250   7.396   5.081   6.466
19455TIP3    H258251   7.406   5.226   6.501
19456TIP3   OH258252   6.873   4.842   8.400
19456TIP3    H158253   6.875   4.762   8.345
19456TIP3    H258254   6.831   4.907   8.341
19457TIP3   OH258255   6.877   4.630   8.206
19457TIP3    H158256   6.905   4.669   8.121
19457TIP3    H258257   6.784   4.606   8.187
19458TIP3   OH258258   6.905   5.165   8.079
19458TIP3    H158259   6.988   5.171   8.031
19458TIP3    H258260   6.851   5.233   8.035
19459TIP3   OH258261   7.488   5.133   8.462
19459TIP3    H158262   7.535   5.048   8.468
19459TIP3    H258263   7.557   5.191   8.426
19460TIP3   OH258264   7.527   5.385   8.196
19460TIP3    H158265   7.470   5.439   8.136
19460TIP3    H258266   7.615   5.404   8.156
19461TIP3   OH258267   6.750   4.957   8.628
19461TIP3    H158268   6.683   4.888   8.641
19461TIP3    H258269   6.787   4.931   8.541
19462TIP3   OH258270   7.010   4.394   8.272
19462TIP3    H158271   6.961   4.476   8.250
19462TIP3    H258272   6.940   4.326   8.260
19463TIP3   OH258273   7.135   4.899   8.489
19463TIP3    H158274   7.125   4.887   8.585
19463TIP3    H258275   7.045   4.873   8.459
19464TIP3   OH258276   7.376   4.850   8.344
19464TIP3    H158277   7.300   4.847   8.404
19464TIP3    H258278   7.449   4.815   8.401
19465TIP3   OH258279   7.607   4.789   8.496
19465TIP3    H158280   7.618   4.693   8.512
19465TIP3    H258281   7.601   4.826   8.586
19466TIP3   OH258282   6.592   4.736   8.681
19466TIP3    H158283   6.599   4.646   8.645
19466TIP3    H258284   6.628   4.723   8.771
19467TIP3   OH258285   7.103   4.403   8.530
19467TIP3    H158286   7.172   4.334   8.526
19467TIP3    H258287   7.065   4.396   8.441
19468TIP3   OH258288   7.169   4.617   8.689
19468TIP3    H158289   7.148   4.546   8.625
19468TIP3    H258290   7.092   4.677   8.681
19469TIP3   OH258291   6.389   5.845   6.788
19469TIP3    H158292   6.485   5.843   6.770
19469TIP3    H258293   6.359   5.894   6.710
19470TIP3   OH258294   5.871   5.228   7.007
19470TIP3    H158295   5.965   5.250   6.993
19470TIP3    H258296   5.865   5.139   6.964
19471TIP3   OH258297   5.780   5.841   7.420
19471TIP3    H158298   5.715   5.777   7.383
19471TIP3    H258299   5.827   5.784   7.485
19472TIP3   OH258300   5.918   5.695   7.606
19472TIP3    H158301   5.911   5.618   7.664
19472TIP3    H258302   5.973   5.754   7.660
19473TIP3   OH258303   7.644   6.089   7.400
19473TIP3    H158304   7.669   6.110   7.493
19473TIP3    H258305   7.705   6.144   7.349
19474TIP3   OH258306   7.700   6.088   7.666
19474TIP3    H158307   7.652   6.005   7.682
19474TIP3    H258308   7.750   6.098   7.748
19475TIP3   OH258309   7.724   5.789   8.260
19475TIP3    H158310   7.650   5.797   8.324
19475TIP3    H258311   7.765   5.878   8.265
19476TIP3   OH258312   7.539   5.301   6.878
19476TIP3    H158313   7.605   5.369   6.853
19476TIP3    H258314   7.581   5.264   6.959
19477TIP3   OH258315   7.666   5.169   7.082
19477TIP3    H158316   7.602   5.127   7.144
19477TIP3    H258317   7.732   5.209   7.143
19478TIP3   OH258318   7.720   5.560   7.517
19478TIP3    H158319   7.774   5.499   7.463
19478TIP3    H258320   7.715   5.638   7.458
19479TIP3   OH258321   7.551   5.856   7.716
19479TIP3    H158322   7.482   5.907   7.762
19479TIP3    H258323   7.501   5.812   7.644
19480TIP3   OH258324   7.607   5.076   6.733
19480TIP3    H158325   7.542   5.088   6.662
19480TIP3    H258326   7.583   5.151   6.792
19481TIP3   OH258327   7.476   4.752   6.682
19481TIP3    H158328   7.430   4.782   6.604
19481TIP3    H258329   7.454   4.656   6.680
19482TIP3   OH258330   7.481   5.025   7.230
19482TIP3    H158331   7.490   4.928   7.228
19482TIP3    H258332   7.468   5.042   7.326
19483TIP3   OH258333   6.107   5.105   7.977
19483TIP3    H158334   6.106   5.071   7.884
19483TIP3    H258335   6.204   5.104   7.994
19484TIP3   OH258336   7.770   5.450   8.088
19484TIP3    H158337   7.843   5.385   8.078
19484TIP3    H258338   7.796   5.521   8.027
19485TIP3   OH258339   7.957   5.257   8.105
19485TIP3    H158340   7.882   5.207   8.144
19485TIP3    H258341   8.029   5.192   8.119
19486TIP3   OH258342   7.420   4.487   6.673
19486TIP3    H158343   7.496   4.454   6.726
19486TIP3    H258344   7.348   4.426   6.698
19487TIP3   OH258345   7.476   4.741   7.126
19487TIP3    H158346   7.517   4.652   7.142
19487TIP3    H258347   7.537   4.774   7.057
19488TIP3   OH258348   7.640   4.917   7.620
19488TIP3    H158349   7.726   4.944   7.581
19488TIP3    H258350   7.653   4.953   7.710
19489TIP3   OH258351   7.707   5.060   7.853
19489TIP3    H158352   7.629   5.094   7.902
19489TIP3    H258353   7.739   5.142   7.808
19490TIP3   OH258354   6.325   4.789   8.654
19490TIP3    H158355   6.423   4.781   8.654
19490TIP3    H258356   6.301   4.703   8.694
19491TIP3   OH258357   8.167   4.654   8.410
19491TIP3    H158358   8.219   4.585   8.364
19491TIP3    H258359   8.134   4.707   8.335
19492TIP3   OH258360   7.586   4.491   7.162
19492TIP3    H158361   7.635   4.476   7.245
19492TIP3    H258362   7.526   4.414   7.161
19493TIP3   OH258363   6.286   4.479   7.984
19493TIP3    H158364   6.348   4.403   7.994
19493TIP3    H258365   6.349   4.553   7.978
19494TIP3   OH258366   6.089   4.754   8.055
19494TIP3    H158367   6.138   4.743   7.971
19494TIP3    H258368   6.125   4.838   8.087
19495TIP3   OH258369   8.031   4.790   8.217
19495TIP3    H158370   7.944   4.829   8.236
19495TIP3    H258371   8.004   4.718   8.156
19496TIP3   OH258372   7.667   4.429   6.793
19496TIP3    H158373   7.708   4.355   6.744
19496TIP3    H258374   7.737   4.498   6.788
19497TIP3   OH258375   6.072   4.259   7.559
19497TIP3    H158376   5.978   4.254   7.583
19497TIP3    H258377   6.071   4.315   7.478
19498TIP3   OH258378   7.227   5.957   7.060
19498TIP3    H158379   7.285   5.946   6.982
19498TIP3    H258380   7.278   6.022   7.113
19499TIP3   OH258381   6.293   4.339   8.373
19499TIP3    H158382   6.241   4.330   8.455
19499TIP3    H258383   6.225   4.374   8.312
19500TIP3   OH258384   6.335   5.763   8.448
19500TIP3    H158385   6.243   5.734   8.431
19500TIP3    H258386   6.345   5.745   8.542
19501TIP3   OH258387   6.509   5.794   7.995
19501TIP3    H158388   6.464   5.871   7.956
19501TIP3    H258389   6.597   5.806   7.952
19502TIP3   OH258390   6.956   6.041   8.134
19502TIP3    H158391   6.998   6.041   8.222
19502TIP3    H258392   7.023   6.090   8.081
19503TIP3   OH258393   7.134   6.191   7.992
19503TIP3    H158394   7.205   6.144   7.945
19503TIP3    H258395   7.187   6.248   8.051
19504TIP3   OH258396   7.930   4.553   8.092
19504TIP3    H158397   7.837   4.541   8.063
19504TIP3    H258398   7.963   4.461   8.080
19505TIP3   OH258399   6.188   6.050   8.023
19505TIP3    H158400   6.099   6.084   7.999
19505TIP3    H258401   6.204   6.098   8.106
19506TIP3   OH258402   6.423   6.030   7.876
19506TIP3    H158403   6.337   6.042   7.923
19506TIP3    H258404   6.403   6.068   7.788
19507TIP3   OH258405   6.848   6.060   7.675
19507TIP3    H158406   6.783   6.083   7.607
19507TIP3    H258407   6.865   6.147   7.717
19508TIP3   OH258408   7.119   5.997   7.727
19508TIP3    H158409   7.026   6.019   7.705
19508TIP3    H258410   7.168   6.070   7.685
19509TIP3   OH258411   7.311   6.186   7.643
19509TIP3    H158412   7.313   6.278   7.608
19509TIP3    H258413   7.351   6.138   7.568
19510TIP3   OH258414   6.096   5.844   7.765
19510TIP3    H158415   6.126   5.822   7.856
19510TIP3    H258416   6.170   5.803   7.714
19511TIP3   OH258417   6.291   5.718   7.621
19511TIP3    H158418   6.309   5.633   7.668
19511TIP3    H258419   6.382   5.756   7.617
19512TIP3   OH258420   6.556   5.813   7.624
19512TIP3    H158421   6.590   5.723   7.610
19512TIP3    H258422   6.602   5.835   7.708
19513TIP3   OH258423   7.131   4.467   7.706
19513TIP3    H158424   7.090   4.399   7.762
19513TIP3    H258425   7.206   4.420   7.665
19514TIP3   OH258426   7.657   4.350   7.607
19514TIP3    H158427   7.691   4.403   7.532
19514TIP3    H258428   7.561   4.370   7.605
19515TIP3   OH258429   7.753   4.453   7.375
19515TIP3    H158430   7.827   4.400   7.339
19515TIP3    H258431   7.789   4.544   7.362
19516TIP3   OH258432   6.383   4.178   7.729
19516TIP3    H158433   6.292   4.143   7.729
19516TIP3    H258434   6.433   4.093   7.726
19517TIP3   OH258435   6.168   4.047   7.375
19517TIP3    H158436   6.199   4.105   7.303
19517TIP3    H258437   6.140   4.112   7.442
19518TIP3   OH258438   6.824   4.213   7.608
19518TIP3    H158439   6.885   4.261   7.550
19518TIP3    H258440   6.851   4.245   7.695
19519TIP3   OH258441   7.372   4.357   7.592
19519TIP3    H158442   7.373   4.317   7.504
19519TIP3    H258443   7.361   4.277   7.649
19520TIP3   OH258444   7.403   4.278   7.153
19520TIP3    H158445   7.316   4.319   7.166
19520TIP3    H258446   7.390   4.193   7.202
19521TIP3   OH258447   5.886   5.617   7.157
19521TIP3    H158448   5.801   5.584   7.121
19521TIP3    H258449   5.876   5.711   7.136
19522TIP3   OH258450   6.286   4.209   7.138
19522TIP3    H158451   6.335   4.144   7.083
19522TIP3    H258452   6.359   4.262   7.175
19523TIP3   OH258453   6.800   4.382   7.237
19523TIP3    H158454   6.859   4.334   7.298
19523TIP3    H258455   6.821   4.474   7.263
19524TIP3   OH258456   6.658   5.808   6.738
19524TIP3    H158457   6.747   5.830   6.702
19524TIP3    H258458   6.636   5.732   6.679
19525TIP3   OH258459   7.376   5.925   6.828
19525TIP3    H158460   7.364   5.828   6.815
19525TIP3    H258461   7.331   5.959   6.748
19526TIP3   OH258462   6.591   4.459   8.620
19526TIP3    H158463   6.559   4.388   8.677
19526TIP3    H258464   6.686   4.460   8.645
19527TIP3   OH258465   6.840   4.456   8.738
19527TIP3    H158466   6.924   4.431   8.696
19527TIP3    H258467   6.829   4.385   8.804
19528TIP3   OH258468   5.963   5.643   6.795
19528TIP3    H158469   5.964   5.671   6.887
19528TIP3    H258470   6.051   5.602   6.784
19529TIP3   OH258471   7.664   4.518   8.526
19529TIP3    H158472   7.684   4.485   8.616
19529TIP3    H258473   7.752   4.510   8.483
19530TIP3   OH258474   7.605   6.071   8.017
19530TIP3    H158475   7.526   6.039   7.969
19530TIP3    H258476   7.587   6.167   8.015
19531TIP3   OH258477   8.872   5.450   6.784
19531TIP3    H158478   8.833   5.535   6.756
19531TIP3    H258479   8.800   5.390   6.757
19532TIP3   OH258480   8.845   5.447   7.171
19532TIP3    H158481   8.898   5.410   7.243
19532TIP3    H258482   8.817   5.366   7.124
19533TIP3   OH258483   8.170   5.336   7.529
19533TIP3    H158484   8.203   5.270   7.593
19533TIP3    H258485   8.244   5.397   7.526
19534TIP3   OH258486   9.126   5.719   6.893
19534TIP3    H158487   9.040   5.671   6.889
19534TIP3    H258488   9.097   5.812   6.885
19535TIP3   OH258489   8.141   5.746   7.260
19535TIP3    H158490   8.130   5.648   7.260
19535TIP3    H258491   8.237   5.753   7.249
19536TIP3   OH258492   7.848   4.952   7.040
19536TIP3    H158493   7.800   5.035   7.056
19536TIP3    H258494   7.776   4.895   7.007
19537TIP3   OH258495   7.905   5.236   7.209
19537TIP3    H158496   7.956   5.162   7.248
19537TIP3    H258497   7.966   5.270   7.143
19538TIP3   OH258498   8.758   6.205   6.859
19538TIP3    H158499   8.811   6.134   6.819
19538TIP3    H258500   8.748   6.176   6.950
19539TIP3   OH258501   8.666   5.667   7.211
19539TIP3    H158502   8.703   5.585   7.174
19539TIP3    H258503   8.750   5.712   7.234
19540TIP3   OH258504   9.679   4.987   7.210
19540TIP3    H158505   9.708   5.069   7.253
19540TIP3    H258506   9.707   5.003   7.118
19541TIP3   OH258507   9.081   5.170   7.246
19541TIP3    H158508   9.122   5.084   7.266
19541TIP3    H258509   9.050   5.155   7.155
19542TIP3   OH258510   8.418   4.828   7.211
19542TIP3    H158511   8.396   4.900   7.149
19542TIP3    H258512   8.369   4.754   7.168
19543TIP3   OH258513   9.111   4.919   6.835
19543TIP3    H158514   9.184   4.903   6.899
19543TIP3    H258515   9.161   4.955   6.759
19544TIP3   OH258516   8.052   5.031   7.318
19544TIP3    H158517   8.134   5.010   7.366
19544TIP3    H258518   8.064   4.975   7.239
19545TIP3   OH258519   8.494   5.228   7.109
19545TIP3    H158520   8.587   5.201   7.125
19545TIP3    H258521   8.454   5.144   7.078
19546TIP3   OH258522   9.753   5.191   7.382
19546TIP3    H158523   9.669   5.239   7.369
19546TIP3    H258524   9.783   5.230   7.467
19547TIP3   OH258525   8.415   4.812   7.646
19547TIP3    H158526   8.355   4.848   7.579
19547TIP3    H258527   8.363   4.828   7.727
19548TIP3   OH258528   8.766   5.667   6.657
19548TIP3    H158529   8.723   5.638   6.576
19548TIP3    H258530   8.719   5.751   6.674
19549TIP3   OH258531   8.521   5.587   7.443
19549TIP3    H158532   8.456   5.650   7.481
19549TIP3    H258533   8.559   5.639   7.369
19550TIP3   OH258534   9.323   4.920   7.004
19550TIP3    H158535   9.317   4.869   7.086
19550TIP3    H258536   9.378   4.995   7.031
19551TIP3   OH258537   8.286   4.926   7.430
19551TIP3    H158538   8.348   4.999   7.452
19551TIP3    H258539   8.334   4.885   7.355
19552TIP3   OH258540   8.349   5.778   7.539
19552TIP3    H158541   8.323   5.863   7.498
19552TIP3    H258542   8.270   5.763   7.596
19553TIP3   OH258543   7.738   5.472   6.777
19553TIP3    H158544   7.700   5.519   6.702
19553TIP3    H258545   7.809   5.537   6.801
19554TIP3   OH258546   9.191   5.956   7.023
19554TIP3    H158547   9.101   5.971   7.065
19554TIP3    H258548   9.196   6.040   6.971
19555TIP3   OH258549   9.473   4.887   7.377
19555TIP3    H158550   9.385   4.916   7.347
19555TIP3    H258551   9.532   4.919   7.305
19556TIP3   OH258552   8.773   4.531   7.361
19556TIP3    H158553   8.759   4.436   7.377
19556TIP3    H258554   8.695   4.569   7.406
19557TIP3   OH258555   8.898   6.033   6.701
19557TIP3    H158556   8.938   5.951   6.664
19557TIP3    H258557   8.951   6.100   6.653
19558TIP3   OH258558   9.027   5.818   6.589
19558TIP3    H158559   8.993   5.746   6.532
19558TIP3    H258560   9.083   5.767   6.648
19559TIP3   OH258561   9.403   5.906   7.352
19559TIP3    H158562   9.465   5.863   7.292
19559TIP3    H258563   9.385   5.991   7.307
19560TIP3   OH258564   8.705   5.294   6.617
19560TIP3    H158565   8.622   5.343   6.597
19560TIP3    H258566   8.746   5.291   6.529
19561TIP3   OH258567   8.660   5.077   6.333
19561TIP3    H158568   8.729   5.127   6.380
19561TIP3    H258569   8.715   5.013   6.284
19562TIP3   OH258570   9.589   5.536   7.200
19562TIP3    H158571   9.580   5.627   7.227
19562TIP3    H258572   9.624   5.546   7.109
19563TIP3   OH258573   9.047   5.375   6.586
19563TIP3    H158574   8.993   5.399   6.664
19563TIP3    H258575   9.130   5.345   6.630
19564TIP3   OH258576   9.285   5.417   7.497
19564TIP3    H158577   9.282   5.499   7.550
19564TIP3    H258578   9.195   5.417   7.458
19565TIP3   OH258579   8.281   5.372   7.004
19565TIP3    H158580   8.239   5.318   6.934
19565TIP3    H258581   8.358   5.319   7.030
19566TIP3   OH258582   8.408   5.787   7.150
19566TIP3    H158583   8.380   5.745   7.067
19566TIP3    H258584   8.497   5.749   7.165
19567TIP3   OH258585   8.422   5.343   7.358
19567TIP3    H158586   8.451   5.326   7.266
19567TIP3    H258587   8.461   5.431   7.377
19568TIP3   OH258588   8.950   5.981   7.136
19568TIP3    H158589   8.926   6.064   7.181
19568TIP3    H258590   8.928   5.913   7.204
19569TIP3   OH258591   8.553   5.901   7.683
19569TIP3    H158592   8.493   5.965   7.728
19569TIP3    H258593   8.487   5.849   7.633
19570TIP3   OH258594   8.890   5.232   6.412
19570TIP3    H158595   8.948   5.291   6.465
19570TIP3    H258596   8.914   5.259   6.320
19571TIP3   OH258597   8.308   5.457   7.781
19571TIP3    H158598   8.313   5.544   7.827
19571TIP3    H258599   8.213   5.438   7.791
19572TIP3   OH258600   8.638   5.912   6.683
19572TIP3    H158601   8.702   5.977   6.715
19572TIP3    H258602   8.564   5.966   6.653
19573TIP3   OH258603   8.349   6.073   7.771
19573TIP3    H158604   8.315   6.070   7.679
19573TIP3    H258605   8.270   6.049   7.823
19574TIP3   OH258606   9.405   4.475   6.462
19574TIP3    H158607   9.323   4.495   6.512
19574TIP3    H258608   9.417   4.558   6.411
19575TIP3   OH258609   8.149   5.216   6.803
19575TIP3    H158610   8.083   5.267   6.752
19575TIP3    H258611   8.101   5.135   6.822
19576TIP3   OH258612   7.928   5.600   7.716
19576TIP3    H158613   7.863   5.579   7.646
19576TIP3    H258614   7.964   5.511   7.739
19577TIP3   OH258615   7.782   5.788   7.358
19577TIP3    H158616   7.878   5.793   7.342
19577TIP3    H258617   7.765   5.873   7.401
19578TIP3   OH258618   8.755   6.027   7.539
19578TIP3    H158619   8.752   6.121   7.566
19578TIP3    H258620   8.681   5.990   7.593
19579TIP3   OH258621   8.516   6.166   6.487
19579TIP3    H158622   8.459   6.141   6.413
19579TIP3    H258623   8.480   6.252   6.515
19580TIP3   OH258624   7.950   6.007   6.861
19580TIP3    H158625   7.986   5.987   6.950
19580TIP3    H258626   7.913   5.920   6.836
19581TIP3   OH258627   8.727   6.055   6.133
19581TIP3    H158628   8.763   5.967   6.146
19581TIP3    H258629   8.742   6.091   6.223
19582TIP3   OH258630   8.763   6.108   6.398
19582TIP3    H158631   8.674   6.120   6.439
19582TIP3    H258632   8.811   6.067   6.472
19583TIP3   OH258633   9.545   5.381   7.668
19583TIP3    H158634   9.462   5.390   7.619
19583TIP3    H258635   9.558   5.284   7.665
19584TIP3   OH258636   8.135   5.781   7.705
19584TIP3    H158637   8.183   5.765   7.789
19584TIP3    H258638   8.059   5.719   7.712
19585TIP3   OH258639   8.533   4.608   7.486
19585TIP3    H158640   8.443   4.576   7.462
19585TIP3    H258641   8.507   4.689   7.533
19586TIP3   OH258642   9.064   4.723   7.682
19586TIP3    H158643   9.131   4.694   7.748
19586TIP3    H258644   8.979   4.702   7.727
19587TIP3   OH258645   9.306   5.152   7.602
19587TIP3    H158646   9.256   5.147   7.687
19587TIP3    H258647   9.278   5.237   7.565
19588TIP3   OH258648   8.965   5.286   6.158
19588TIP3    H158649   8.931   5.254   6.071
19588TIP3    H258650   9.046   5.332   6.130
19589TIP3   OH258651   8.678   4.656   6.458
19589TIP3    H158652   8.646   4.654   6.550
19589TIP3    H258653   8.640   4.573   6.426
19590TIP3   OH258654   8.466   5.121   7.507
19590TIP3    H158655   8.413   5.141   7.588
19590TIP3    H258656   8.449   5.202   7.453
19591TIP3   OH258657   8.348   5.007   7.020
19591TIP3    H158658   8.255   4.982   7.038
19591TIP3    H258659   8.361   4.967   6.931
19592TIP3   OH258660   8.840   5.096   6.749
19592TIP3    H158661   8.785   5.165   6.706
19592TIP3    H258662   8.893   5.064   6.674
19593TIP3   OH258663   9.012   5.373   7.835
19593TIP3    H158664   8.988   5.300   7.897
19593TIP3    H258665   9.106   5.385   7.856
19594TIP3   OH258666   8.997   5.125   6.987
19594TIP3    H158667   8.936   5.151   6.915
19594TIP3    H258668   9.032   5.043   6.946
19595TIP3   OH258669   8.285   5.151   7.716
19595TIP3    H158670   8.303   5.215   7.786
19595TIP3    H258671   8.271   5.069   7.767
19596TIP3   OH258672   8.333   4.628   6.425
19596TIP3    H158673   8.326   4.625   6.523
19596TIP3    H258674   8.253   4.679   6.402
19597TIP3   OH258675   7.877   4.678   7.292
19597TIP3    H158676   7.952   4.706   7.348
19597TIP3    H258677   7.919   4.639   7.214
19598TIP3   OH258678   7.851   4.654   6.814
19598TIP3    H158679   7.897   4.694   6.738
19598TIP3    H258680   7.790   4.727   6.838
19599TIP3   OH258681   9.019   5.374   7.411
19599TIP3    H158682   9.044   5.299   7.352
19599TIP3    H258683   8.982   5.323   7.487
19600TIP3   OH258684   8.675   4.831   7.083
19600TIP3    H158685   8.591   4.829   7.134
19600TIP3    H258686   8.741   4.830   7.153
19601TIP3   OH258687   8.110   4.886   7.090
19601TIP3    H158688   8.016   4.893   7.064
19601TIP3    H258689   8.133   4.794   7.068
19602TIP3   OH258690   8.380   4.882   6.778
19602TIP3    H158691   8.474   4.898   6.756
19602TIP3    H258692   8.333   4.907   6.695
19603TIP3   OH258693   9.167   4.906   7.285
19603TIP3    H158694   9.130   4.918   7.375
19603TIP3    H258695   9.102   4.845   7.246
19604TIP3   OH258696   8.218   4.915   6.556
19604TIP3    H158697   8.146   4.871   6.507
19604TIP3    H258698   8.271   4.951   6.483
19605TIP3   OH258699   8.295   5.703   7.925
19605TIP3    H158700   8.373   5.736   7.974
19605TIP3    H258701   8.229   5.704   7.997
19606TIP3   OH258702   8.759   5.156   7.180
19606TIP3    H158703   8.831   5.114   7.130
19606TIP3    H258704   8.768   5.115   7.268
19607TIP3   OH258705   8.282   4.646   7.058
19607TIP3    H158706   8.248   4.566   7.104
19607TIP3    H258707   8.333   4.607   6.985
19608TIP3   OH258708   8.735   5.054   7.469
19608TIP3    H158709   8.644   5.089   7.482
19608TIP3    H258710   8.791   5.116   7.520
19609TIP3   OH258711   8.475   5.441   6.570
19609TIP3    H158712   8.398   5.383   6.555
19609TIP3    H258713   8.453   5.479   6.659
19610TIP3   OH258714   8.930   4.758   6.427
19610TIP3    H158715   8.833   4.742   6.434
19610TIP3    H258716   8.940   4.853   6.449
19611TIP3   OH258717   8.876   5.769   7.560
19611TIP3    H158718   8.886   5.739   7.651
19611TIP3    H258719   8.832   5.855   7.570
19612TIP3   OH258720   9.000   5.005   6.530
19612TIP3    H158721   9.096   5.011   6.544
19612TIP3    H258722   8.981   5.083   6.475
19613TIP3   OH258723   8.164   5.466   7.242
19613TIP3    H158724   8.201   5.441   7.155
19613TIP3    H258725   8.203   5.400   7.301
19614TIP3   OH258726   8.609   5.596   6.386
19614TIP3    H158727   8.563   5.682   6.395
19614TIP3    H258728   8.556   5.540   6.446
19615TIP3   OH258729   8.045   5.386   7.852
19615TIP3    H158730   8.064   5.373   7.947
19615TIP3    H258731   7.974   5.321   7.837
19616TIP3   OH258732   8.768   5.502   7.874
19616TIP3    H158733   8.707   5.444   7.825
19616TIP3    H258734   8.854   5.468   7.844
19617TIP3   OH258735   9.033   6.018   7.454
19617TIP3    H158736   8.938   6.020   7.471
19617TIP3    H258737   9.067   6.068   7.532
19618TIP3   OH258738   9.441   5.093   6.366
19618TIP3    H158739   9.378   5.048   6.305
19618TIP3    H258740   9.440   5.181   6.323
19619TIP3   OH258741   9.661   5.942   7.457
19619TIP3    H158742   9.566   5.961   7.451
19619TIP3    H258743   9.682   5.919   7.365
19620TIP3   OH258744   9.120   5.891   6.232
19620TIP3    H158745   9.099   5.849   6.318
19620TIP3    H258746   9.211   5.865   6.219
19621TIP3   OH258747   8.256   5.768   6.865
19621TIP3    H158748   8.250   5.850   6.814
19621TIP3    H258749   8.170   5.727   6.842
19622TIP3   OH258750   7.821   5.087   6.561
19622TIP3    H158751   7.874   5.165   6.588
19622TIP3    H258752   7.753   5.086   6.632
19623TIP3   OH258753   8.406   5.542   6.814
19623TIP3    H158754   8.363   5.629   6.827
19623TIP3    H258755   8.364   5.491   6.886
19624TIP3   OH258756   8.534   6.116   7.335
19624TIP3    H158757   8.573   6.189   7.283
19624TIP3    H258758   8.611   6.084   7.385
19625TIP3   OH258759   8.189   6.009   6.715
19625TIP3    H158760   8.101   6.006   6.759
19625TIP3    H258761   8.209   6.104   6.721
19626TIP3   OH258762   8.929   5.747   7.295
19626TIP3    H158763   8.911   5.761   7.391
19626TIP3    H258764   8.977   5.663   7.299
19627TIP3   OH258765   9.162   6.289   7.343
19627TIP3    H158766   9.085   6.232   7.328
19627TIP3    H258767   9.151   6.355   7.271
19628TIP3   OH258768   9.224   6.110   5.995
19628TIP3    H158769   9.268   6.173   5.936
19628TIP3    H258770   9.154   6.170   6.030
19629TIP3   OH258771   8.256   4.894   7.862
19629TIP3    H158772   8.159   4.899   7.874
19629TIP3    H258773   8.282   4.831   7.932
19630TIP3   OH258774   9.064   5.595   6.411
19630TIP3    H158775   9.045   5.514   6.462
19630TIP3    H258776   9.157   5.577   6.385
19631TIP3   OH258777   7.979   5.981   7.488
19631TIP3    H158778   8.027   5.905   7.525
19631TIP3    H258779   7.988   6.046   7.559
19632TIP3   OH258780   8.262   5.624   6.171
19632TIP3    H158781   8.278   5.532   6.145
19632TIP3    H258782   8.250   5.614   6.268
19633TIP3   OH258783   8.218   5.623   6.439
19633TIP3    H158784   8.250   5.596   6.525
19633TIP3    H258785   8.205   5.720   6.453
19634TIP3   OH258786   7.938   5.323   6.649
19634TIP3    H158787   7.884   5.373   6.715
19634TIP3    H258788   7.971   5.399   6.598
19635TIP3   OH258789   9.090   4.960   7.544
19635TIP3    H158790   9.173   4.994   7.583
19635TIP3    H258791   9.075   4.878   7.596
19636TIP3   OH258792   8.971   4.711   6.706
19636TIP3    H158793   8.958   4.733   6.612
19636TIP3    H258794   9.011   4.793   6.742
19637TIP3   OH258795   8.477   5.833   6.397
19637TIP3    H158796   8.388   5.847   6.434
19637TIP3    H258797   8.482   5.908   6.336
19638TIP3   OH258798   8.664   4.888   6.809
19638TIP3    H158799   8.729   4.960   6.792
19638TIP3    H258800   8.667   4.882   6.907
19639TIP3   OH258801   8.932   5.211   7.614
19639TIP3    H158802   8.949   5.262   7.695
19639TIP3    H258803   8.985   5.130   7.629
19640TIP3   OH258804   8.808   4.618   6.914
19640TIP3    H158805   8.799   4.696   6.972
19640TIP3    H258806   8.868   4.654   6.844
19641TIP3   OH258807   8.218   5.899   6.460
19641TIP3    H158808   8.184   5.971   6.403
19641TIP3    H258809   8.197   5.934   6.550
19642TIP3   OH258810   8.318   4.613   6.702
19642TIP3    H158811   8.316   4.704   6.738
19642TIP3    H258812   8.414   4.595   6.710
19643TIP3   OH258813   9.572   5.106   7.601
19643TIP3    H158814   9.473   5.107   7.605
19643TIP3    H258815   9.585   5.072   7.511
19644TIP3   OH258816   9.230   5.306   6.980
19644TIP3    H158817   9.149   5.256   7.000
19644TIP3    H258818   9.297   5.258   7.033
19645TIP3   OH258819   7.921   5.544   6.447
19645TIP3    H158820   7.959   5.604   6.515
19645TIP3    H258821   8.000   5.522   6.394
19646TIP3   OH258822   7.880   4.811   6.590
19646TIP3    H158823   7.877   4.908   6.581
19646TIP3    H258824   7.797   4.783   6.551
19647TIP3   OH258825   9.178   6.230   6.933
19647TIP3    H158826   9.138   6.284   6.861
19647TIP3    H258827   9.272   6.260   6.922
19648TIP3   OH258828   8.269   4.528   7.463
19648TIP3    H158829   8.236   4.493   7.377
19648TIP3    H258830   8.259   4.449   7.521
19649TIP3   OH258831   7.964   6.278   7.920
19649TIP3    H158832   8.051   6.277   7.963
19649TIP3    H258833   7.942   6.183   7.915
19650TIP3   OH258834   8.461   6.249   7.960
19650TIP3    H158835   8.551   6.215   7.955
19650TIP3    H258836   8.419   6.197   7.888
19651TIP3   OH258837   8.429   5.823   6.089
19651TIP3    H158838   8.361   5.765   6.131
19651TIP3    H258839   8.492   5.754   6.065
19652TIP3   OH258840   9.115   6.141   7.687
19652TIP3    H158841   9.073   6.085   7.755
19652TIP3    H258842   9.153   6.211   7.740
19653TIP3   OH258843   8.094   5.692   8.115
19653TIP3    H158844   8.110   5.596   8.118
19653TIP3    H258845   8.005   5.695   8.072
19654TIP3   OH258846   8.075   5.333   6.302
19654TIP3    H158847   8.127   5.310   6.381
19654TIP3    H258848   8.146   5.343   6.236
19655TIP3   OH258849   8.704   5.778   7.887
19655TIP3    H158850   8.656   5.792   7.803
19655TIP3    H258851   8.732   5.684   7.881
19656TIP3   OH258852   8.576   5.544   6.115
19656TIP3    H158853   8.588   5.558   6.212
19656TIP3    H258854   8.578   5.446   6.112
19657TIP3   OH258855   9.195   5.776   7.483
19657TIP3    H158856   9.265   5.830   7.441
19657TIP3    H258857   9.119   5.837   7.480
19658TIP3   OH258858   8.212   5.426   8.097
19658TIP3    H158859   8.285   5.366   8.079
19658TIP3    H258860   8.236   5.459   8.186
19659TIP3   OH258861   8.276   5.248   6.529
19659TIP3    H158862   8.252   5.209   6.615
19659TIP3    H258863   8.313   5.171   6.481
19660TIP3   OH258864   8.550   5.314   7.762
19660TIP3    H158865   8.470   5.370   7.765
19660TIP3    H258866   8.594   5.347   7.681
19661TIP3   OH258867   8.379   5.038   6.372
19661TIP3    H158868   8.352   5.041   6.278
19661TIP3    H258869   8.476   5.047   6.364
19662TIP3   OH258870   9.065   5.714   7.893
19662TIP3    H158871   9.149   5.693   7.851
19662TIP3    H258872   9.058   5.646   7.962
19663TIP3   OH258873   9.196   5.383   6.032
19663TIP3    H158874   9.172   5.327   5.955
19663TIP3    H258875   9.241   5.456   5.987
19664TIP3   OH258876   8.674   5.099   7.884
19664TIP3    H158877   8.670   5.019   7.829
19664TIP3    H258878   8.628   5.166   7.828
19665TIP3   OH258879   8.674   4.885   7.691
19665TIP3    H158880   8.700   4.926   7.606
19665TIP3    H258881   8.580   4.862   7.674
19666TIP3   OH258882   8.703   5.426   7.566
19666TIP3    H158883   8.779   5.427   7.508
19666TIP3    H258884   8.643   5.491   7.524
19667TIP3   OH258885   9.296   5.388   7.961
19667TIP3    H158886   9.338   5.304   7.939
19667TIP3    H258887   9.362   5.452   7.927
19668TIP3   OH258888   9.326   5.640   7.676
19668TIP3    H158889   9.267   5.692   7.617
19668TIP3    H258890   9.412   5.657   7.632
19669TIP3   OH258891   8.549   5.211   8.113
19669TIP3    H158892   8.479   5.144   8.128
19669TIP3    H258893   8.583   5.185   8.025
19670TIP3   OH258894   8.806   4.651   7.759
19670TIP3    H158895   8.757   4.733   7.736
19670TIP3    H258896   8.736   4.583   7.747
19671TIP3   OH258897   8.931   5.155   7.975
19671TIP3    H158898   8.915   5.144   8.071
19671TIP3    H258899   8.842   5.130   7.942
19672TIP3   OH258900   9.173   5.107   7.832
19672TIP3    H158901   9.094   5.105   7.890
19672TIP3    H258902   9.242   5.073   7.892
19673TIP3   OH258903   9.392   5.044   7.995
19673TIP3    H158904   9.406   4.948   8.006
19673TIP3    H258905   9.392   5.078   8.086
19674TIP3   OH258906   8.389   4.993   8.167
19674TIP3    H158907   8.393   4.901   8.132
19674TIP3    H258908   8.422   4.979   8.258
19675TIP3   OH258909   8.902   4.660   8.016
19675TIP3    H158910   8.968   4.588   8.009
19675TIP3    H258911   8.860   4.655   7.928
19676TIP3   OH258912   8.967   4.875   8.175
19676TIP3    H158913   8.943   4.804   8.111
19676TIP3    H258914   8.889   4.935   8.169
19677TIP3   OH258915   8.186   6.108   6.275
19677TIP3    H158916   8.281   6.102   6.254
19677TIP3    H258917   8.153   6.153   6.195
19678TIP3   OH258918   7.664   5.478   6.478
19678TIP3    H158919   7.749   5.528   6.470
19678TIP3    H258920   7.699   5.393   6.506
19679TIP3   OH258921   7.579   6.098   6.902
19679TIP3    H158922   7.512   6.033   6.872
19679TIP3    H258923   7.627   6.044   6.969
19680TIP3   OH258924   7.711   5.963   7.097
19680TIP3    H158925   7.704   5.879   7.143
19680TIP3    H258926   7.764   6.015   7.159
19681TIP3   OH258927   9.412   6.357   6.920
19681TIP3    H158928   9.462   6.357   7.003
19681TIP3    H258929   9.483   6.369   6.855
19682TIP3   OH258930   9.504   6.356   7.178
19682TIP3    H158931   9.453   6.272   7.176
19682TIP3    H258932   9.519   6.367   7.273
19683TIP3   OH258933   9.337   5.561   6.365
19683TIP3    H158934   9.409   5.622   6.337
19683TIP3    H258935   9.379   5.520   6.444
19684TIP3   OH258936   9.461   5.430   6.569
19684TIP3    H158937   9.400   5.382   6.630
19684TIP3    H258938   9.530   5.463   6.630
19685TIP3   OH258939   9.347   6.128   7.209
19685TIP3    H158940   9.278   6.177   7.259
19685TIP3    H258941   9.297   6.091   7.135
19686TIP3   OH258942   9.400   5.335   6.218
19686TIP3    H158943   9.324   5.334   6.157
19686TIP3    H258944   9.377   5.411   6.274
19687TIP3   OH258945   9.268   5.011   6.174
19687TIP3    H158946   9.237   5.042   6.088
19687TIP3    H258947   9.245   4.915   6.169
19688TIP3   OH258948   9.278   5.280   6.714
19688TIP3    H158949   9.286   5.184   6.708
19688TIP3    H258950   9.266   5.293   6.811
19689TIP3   OH258951   7.905   5.353   7.464
19689TIP3    H158952   7.902   5.326   7.370
19689TIP3    H258953   8.002   5.356   7.479
19690TIP3   OH258954   9.558   5.702   7.552
19690TIP3    H158955   9.636   5.645   7.570
19690TIP3    H258956   9.602   5.787   7.533
19691TIP3   OH258957   9.761   5.527   7.595
19691TIP3    H158958   9.683   5.473   7.622
19691TIP3    H258959   9.831   5.461   7.614
19692TIP3   OH258960   9.214   4.746   6.167
19692TIP3    H158961   9.292   4.710   6.214
19692TIP3    H258962   9.144   4.682   6.184
19693TIP3   OH258963   9.275   5.000   6.613
19693TIP3    H158964   9.315   4.911   6.629
19693TIP3    H258965   9.333   5.031   6.541
19694TIP3   OH258966   9.437   5.175   7.107
19694TIP3    H158967   9.523   5.202   7.067
19694TIP3    H258968   9.452   5.207   7.198
19695TIP3   OH258969   9.504   5.315   7.342
19695TIP3    H158970   9.426   5.348   7.391
19695TIP3    H258971   9.531   5.395   7.291
19696TIP3   OH258972   8.121   5.044   8.141
19696TIP3    H158973   8.219   5.036   8.141
19696TIP3    H258974   8.097   4.958   8.181
19697TIP3   OH258975   9.997   4.936   7.875
19697TIP3    H158976  10.017   4.847   7.839
19697TIP3    H258977   9.937   4.973   7.806
19698TIP3   OH258978   9.382   4.749   6.651
19698TIP3    H158979   9.431   4.732   6.735
19698TIP3    H258980   9.322   4.672   6.649
19699TIP3   OH258981   8.083   4.734   7.468
19699TIP3    H158982   8.146   4.660   7.479
19699TIP3    H258983   8.145   4.810   7.464
19700TIP3   OH258984   7.887   5.009   7.543
19700TIP3    H158985   7.936   5.003   7.459
19700TIP3    H258986   7.913   5.097   7.573
19701TIP3   OH258987   9.816   5.038   7.704
19701TIP3    H158988   9.729   5.083   7.705
19701TIP3    H258989   9.796   4.969   7.639
19702TIP3   OH258990   9.465   4.684   6.283
19702TIP3    H158991   9.504   4.611   6.229
19702TIP3    H258992   9.532   4.754   6.273
19703TIP3   OH258993   7.869   4.513   7.044
19703TIP3    H158994   7.775   4.510   7.070
19703TIP3    H258995   7.866   4.570   6.965
19704TIP3   OH258996   9.027   6.213   6.548
19704TIP3    H158997   9.080   6.201   6.467
19704TIP3    H258998   9.077   6.281   6.596
19705TIP3   OH258999   8.090   4.596   7.859
19705TIP3    H159000   8.038   4.584   7.940
19705TIP3    H259001   8.021   4.632   7.799
19706TIP3   OH259002   8.131   6.015   7.939
19706TIP3    H159003   8.039   5.992   7.918
19706TIP3    H259004   8.134   5.999   8.034
19707TIP3   OH259005   8.310   6.050   7.486
19707TIP3    H159006   8.254   6.121   7.448
19707TIP3    H259007   8.393   6.068   7.437
19708TIP3   OH259008   8.749   6.295   7.603
19708TIP3    H159009   8.784   6.292   7.695
19708TIP3    H259010   8.821   6.346   7.559
19709TIP3   OH259011   8.945   6.442   7.479
19709TIP3    H159012   9.008   6.386   7.432
19709TIP3    H259013   8.993   6.527   7.480
19710TIP3   OH259014   9.724   4.807   7.578
19710TIP3    H159015   9.633   4.801   7.544
19710TIP3    H259016   9.756   4.715   7.564
19711TIP3   OH259017   7.985   6.313   7.511
19711TIP3    H159018   7.901   6.347   7.479
19711TIP3    H259019   7.982   6.342   7.603
19712TIP3   OH259020   8.221   6.289   7.365
19712TIP3    H159021   8.136   6.301   7.414
19712TIP3    H259022   8.197   6.320   7.276
19713TIP3   OH259023   8.648   6.317   7.157
19713TIP3    H159024   8.575   6.337   7.096
19713TIP3    H259025   8.659   6.403   7.202
19714TIP3   OH259026   8.913   6.250   7.211
19714TIP3    H159027   8.819   6.273   7.193
19714TIP3    H259028   8.959   6.326   7.170
19715TIP3   OH259029   9.108   6.439   7.121
19715TIP3    H159030   9.096   6.528   7.081
19715TIP3    H259031   9.136   6.386   7.045
19716TIP3   OH259032   7.898   6.108   7.254
19716TIP3    H159033   7.924   6.076   7.343
19716TIP3    H259034   7.967   6.061   7.200
19717TIP3   OH259035   8.085   5.975   7.107
19717TIP3    H159036   8.101   5.888   7.151
19717TIP3    H259037   8.175   6.009   7.098
19718TIP3   OH259038   8.358   6.073   7.106
19718TIP3    H159039   8.383   5.980   7.094
19718TIP3    H259040   8.396   6.089   7.194
19719TIP3   OH259041   8.932   4.726   7.200
19719TIP3    H159042   8.887   4.657   7.251
19719TIP3    H259043   9.001   4.676   7.153
19720TIP3   OH259044   9.455   4.608   7.106
19720TIP3    H159045   9.492   4.658   7.030
19720TIP3    H259046   9.359   4.623   7.097
19721TIP3   OH259047   9.549   4.706   6.869
19721TIP3    H159048   9.621   4.654   6.828
19721TIP3    H259049   9.582   4.798   6.853
19722TIP3   OH259050   8.180   4.434   7.214
19722TIP3    H159051   8.088   4.400   7.216
19722TIP3    H259052   8.230   4.350   7.212
19723TIP3   OH259053   7.963   4.304   6.861
19723TIP3    H159054   7.995   4.362   6.790
19723TIP3    H259055   7.936   4.368   6.929
19724TIP3   OH259056   8.622   4.467   7.093
19724TIP3    H159057   8.682   4.518   7.037
19724TIP3    H259058   8.641   4.504   7.181
19725TIP3   OH259059   9.173   4.613   7.079
19725TIP3    H159060   9.167   4.578   6.989
19725TIP3    H259061   9.158   4.532   7.133
19726TIP3   OH259062   9.200   4.535   6.641
19726TIP3    H159063   9.112   4.577   6.650
19726TIP3    H259064   9.185   4.450   6.688
19727TIP3   OH259065   7.677   5.866   6.619
19727TIP3    H159066   7.583   5.847   6.600
19727TIP3    H259067   7.673   5.955   6.653
19728TIP3   OH259068   8.082   4.466   6.624
19728TIP3    H159069   8.131   4.401   6.570
19728TIP3    H259070   8.156   4.518   6.662
19729TIP3   OH259071   8.595   4.638   6.724
19729TIP3    H159072   8.655   4.591   6.785
19729TIP3    H259073   8.617   4.730   6.750
19730TIP3   OH259074   8.454   6.063   6.221
19730TIP3    H159075   8.538   6.092   6.181
19730TIP3    H259076   8.432   5.986   6.163
19731TIP3   OH259077   9.167   6.170   6.312
19731TIP3    H159078   9.150   6.078   6.285
19731TIP3    H259079   9.128   6.219   6.236
19732TIP3   OH259080   8.387   4.718   8.108
19732TIP3    H159081   8.353   4.645   8.163
19732TIP3    H259082   8.481   4.717   8.134
19733TIP3   OH259083   8.637   4.714   8.226
19733TIP3    H159084   8.719   4.684   8.184
19733TIP3    H259085   8.621   4.643   8.291
19734TIP3   OH259086   7.757   5.898   6.287
19734TIP3    H159087   7.750   5.913   6.383
19734TIP3    H259088   7.847   5.860   6.279
19735TIP3   OH259089   9.459   4.776   8.008
19735TIP3    H159090   9.479   4.743   8.098
19735TIP3    H259091   9.547   4.772   7.964
19736TIP3   OH259092   9.966   5.572   6.999
19736TIP3    H159093   9.997   5.508   7.065
19736TIP3    H259094  10.014   5.652   7.028
19737TIP3   OH259095   9.931   6.005   6.761
19737TIP3    H159096   9.921   5.907   6.757
19737TIP3    H259097  10.026   6.012   6.736
19738TIP3   OH259098   9.640   5.206   6.529
19738TIP3    H159099   9.593   5.290   6.540
19738TIP3    H259100   9.570   5.151   6.490
19739TIP3   OH259101   9.697   5.494   6.699
19739TIP3    H159102   9.748   5.419   6.738
19739TIP3    H259103   9.759   5.526   6.632
19740TIP3   OH259104  10.398   5.919   6.668
19740TIP3    H159105  10.442   5.871   6.594
19740TIP3    H259106  10.472   5.927   6.732
19741TIP3   OH259107  10.197   5.086   6.710
19741TIP3    H159108  10.198   5.152   6.638
19741TIP3    H259109  10.166   5.008   6.660
19742TIP3   OH259110   9.844   5.288   6.803
19742TIP3    H159111   9.926   5.268   6.852
19742TIP3    H259112   9.859   5.233   6.723
19743TIP3   OH259113  10.249   5.503   6.582
19743TIP3    H159114  10.345   5.487   6.595
19743TIP3    H259115  10.219   5.413   6.555
19744TIP3   OH259116  10.199   5.066   7.133
19744TIP3    H159117  10.141   5.102   7.063
19744TIP3    H259118  10.145   5.085   7.212
19745TIP3   OH259119  10.270   5.842   6.945
19745TIP3    H159120  10.217   5.913   6.983
19745TIP3    H259121  10.350   5.891   6.915
19746TIP3   OH259122  10.068   5.181   6.922
19746TIP3    H159123  10.132   5.253   6.942
19746TIP3    H259124  10.115   5.140   6.845
19747TIP3   OH259125   9.537   5.728   6.264
19747TIP3    H159126   9.508   5.748   6.173
19747TIP3    H259127   9.576   5.812   6.294
19748TIP3   OH259128  10.049   5.648   6.479
19748TIP3    H159129  10.013   5.585   6.412
19748TIP3    H259130  10.126   5.597   6.512
19749TIP3   OH259131  10.176   6.057   6.625
19749TIP3    H159132  10.152   6.023   6.536
19749TIP3    H259133  10.256   6.002   6.644
19750TIP3   OH259134  10.233   5.592   6.846
19750TIP3    H159135  10.242   5.589   6.749
19750TIP3    H259136  10.249   5.687   6.867
19751TIP3   OH259137  10.009   5.766   7.198
19751TIP3    H159138  10.035   5.847   7.243
19751TIP3    H259139   9.950   5.720   7.261
19752TIP3   OH259140  10.398   6.209   6.211
19752TIP3    H159141  10.468   6.274   6.210
19752TIP3    H259142  10.340   6.242   6.140
19753TIP3   OH259143   9.939   5.469   6.295
19753TIP3    H159144   9.878   5.514   6.233
19753TIP3    H259145   9.897   5.383   6.304
19754TIP3   OH259146   9.698   5.835   7.200
19754TIP3    H159147   9.704   5.824   7.103
19754TIP3    H259148   9.757   5.764   7.232
19755TIP3   OH259149  10.311   6.407   5.989
19755TIP3    H159150  10.270   6.398   5.901
19755TIP3    H259151  10.280   6.496   6.016
19756TIP3   OH259152   9.743   6.264   6.361
19756TIP3    H159153   9.787   6.258   6.449
19756TIP3    H259154   9.702   6.175   6.355
19757TIP3   OH259155   9.889   6.052   7.194
19757TIP3    H159156   9.943   6.044   7.275
19757TIP3    H259157   9.835   5.973   7.198
19758TIP3   OH259158  10.316   4.856   6.987
19758TIP3    H159159  10.228   4.828   6.956
19758TIP3    H259160  10.294   4.943   7.023
19759TIP3   OH259161  10.260   5.360   6.976
19759TIP3    H159162  10.239   5.399   7.063
19759TIP3    H259163  10.251   5.441   6.920
19760TIP3   OH259164  10.144   5.260   6.504
19760TIP3    H159165  10.053   5.233   6.528
19760TIP3    H259166  10.149   5.230   6.411
19761TIP3   OH259167  10.051   5.403   7.209
19761TIP3    H159168  10.108   5.450   7.271
19761TIP3    H259169  10.047   5.314   7.249
19762TIP3   OH259170  10.117   4.900   5.913
19762TIP3    H159171  10.079   4.877   5.999
19762TIP3    H259172  10.041   4.934   5.864
19763TIP3   OH259173   9.671   4.931   6.784
19763TIP3    H159174   9.747   4.962   6.837
19763TIP3    H259175   9.711   4.898   6.702
19764TIP3   OH259176   9.647   4.911   6.306
19764TIP3    H159177   9.688   4.950   6.225
19764TIP3    H259178   9.585   4.983   6.327
19765TIP3   OH259179   9.904   5.144   6.577
19765TIP3    H159180   9.810   5.148   6.550
19765TIP3    H259181   9.930   5.052   6.556
19766TIP3   OH259182  10.159   5.168   6.244
19766TIP3    H159183  10.230   5.177   6.180
19766TIP3    H259184  10.082   5.175   6.183
19767TIP3   OH259185   9.993   5.172   6.036
19767TIP3    H159186   9.931   5.127   5.975
19767TIP3    H259187  10.058   5.206   5.971
19768TIP3   OH259188  10.074   4.905   6.538
19768TIP3    H159189  10.043   4.827   6.587
19768TIP3    H259190  10.130   4.866   6.469
19769TIP3   OH259191  10.198   5.744   6.058
19769TIP3    H159192  10.190   5.650   6.034
19769TIP3    H259193  10.263   5.743   6.130
19770TIP3   OH259194   9.960   5.729   6.733
19770TIP3    H159195   9.991   5.702   6.644
19770TIP3    H259196   9.995   5.657   6.790
19771TIP3   OH259197   9.826   5.636   7.351
19771TIP3    H159198   9.824   5.619   7.448
19771TIP3    H259199   9.779   5.557   7.320
19772TIP3   OH259200  10.056   6.031   6.362
19772TIP3    H159201  10.068   6.109   6.305
19772TIP3    H259202   9.966   6.007   6.340
19773TIP3   OH259203   9.624   5.333   6.053
19773TIP3    H159204   9.673   5.415   6.074
19773TIP3    H259205   9.549   5.339   6.116
19774TIP3   OH259206  10.241   5.816   6.347
19774TIP3    H159207  10.185   5.893   6.325
19774TIP3    H259208  10.175   5.756   6.386
19775TIP3   OH259209   9.981   6.260   6.207
19775TIP3    H159210   9.894   6.277   6.248
19775TIP3    H259211  10.021   6.350   6.213
19776TIP3   OH259212  10.044   5.150   7.345
19776TIP3    H159213   9.948   5.155   7.362
19776TIP3    H259214  10.074   5.095   7.419
19777TIP3   OH259215   9.806   6.213   6.962
19777TIP3    H159216   9.783   6.144   7.028
19777TIP3    H259217   9.820   6.290   7.019
19778TIP3   OH259218  10.063   5.875   5.661
19778TIP3    H159219  10.077   5.782   5.638
19778TIP3    H259220  10.047   5.868   5.758
19779TIP3   OH259221  10.000   5.881   5.932
19779TIP3    H159222  10.078   5.841   5.978
19779TIP3    H259223  10.015   5.977   5.948
19780TIP3   OH259224   9.739   5.575   6.137
19780TIP3    H159225   9.676   5.625   6.193
19780TIP3    H259226   9.764   5.644   6.072
19781TIP3   OH259227  10.263   6.105   5.893
19781TIP3    H159228  10.171   6.123   5.921
19781TIP3    H259229  10.282   6.183   5.840
19782TIP3   OH259230   9.998   6.158   5.949
19782TIP3    H159231   9.973   6.227   5.884
19782TIP3    H259232   9.988   6.205   6.034
19783TIP3   OH259233  10.117   4.876   6.197
19783TIP3    H159234  10.085   4.960   6.235
19783TIP3    H259235  10.199   4.908   6.154
19784TIP3   OH259236   9.731   5.794   5.943
19784TIP3    H159237   9.802   5.860   5.953
19784TIP3    H259238   9.776   5.736   5.878
19785TIP3   OH259239   9.674   5.062   6.083
19785TIP3    H159240   9.676   5.159   6.072
19785TIP3    H259241   9.602   5.037   6.024
19786TIP3   OH259242  10.050   4.784   6.952
19786TIP3    H159243  10.026   4.751   6.863
19786TIP3    H259244  10.048   4.703   7.006
19787TIP3   OH259245   9.614   6.011   6.329
19787TIP3    H159246   9.536   6.027   6.384
19787TIP3    H259247   9.584   6.048   6.243
19788TIP3   OH259248  10.207   6.093   5.575
19788TIP3    H159249  10.159   6.017   5.616
19788TIP3    H259250  10.300   6.062   5.585
19789TIP3   OH259251   9.862   5.599   5.803
19789TIP3    H159252   9.921   5.568   5.874
19789TIP3    H259253   9.928   5.608   5.730
19790TIP3   OH259254  10.055   5.495   6.010
19790TIP3    H159255  10.049   5.461   6.100
19790TIP3    H259256  10.104   5.424   5.964
19791TIP3   OH259257  10.314   5.532   7.189
19791TIP3    H159258  10.305   5.599   7.260
19791TIP3    H259259  10.332   5.589   7.113
19792TIP3   OH259260  10.178   5.294   5.869
19792TIP3    H159261  10.140   5.288   5.780
19792TIP3    H259262  10.272   5.310   5.847
19793TIP3   OH259263  10.449   5.326   7.316
19793TIP3    H159264  10.460   5.235   7.280
19793TIP3    H259265  10.376   5.362   7.261
19794TIP3   OH259266  10.463   5.105   7.171
19794TIP3    H159267  10.494   5.116   7.079
19794TIP3    H259268  10.370   5.078   7.157
19795TIP3   OH259269  10.164   5.277   7.599
19795TIP3    H159270  10.176   5.180   7.600
19795TIP3    H259271  10.205   5.307   7.682
19796TIP3   OH259272   9.977   6.344   5.748
19796TIP3    H159273  10.073   6.356   5.743
19796TIP3    H259274   9.949   6.415   5.689
19797TIP3   OH259275   9.469   5.729   5.991
19797TIP3    H159276   9.560   5.760   5.970
19797TIP3    H259277   9.466   5.644   5.942
19798TIP3   OH259278   9.368   6.343   6.403
19798TIP3    H159279   9.305   6.283   6.358
19798TIP3    H259280   9.415   6.282   6.461
19799TIP3   OH259281   9.700   5.607   6.963
19799TIP3    H159282   9.686   5.592   6.867
19799TIP3    H259283   9.798   5.600   6.966
19800TIP3   OH259284   9.892   5.290   7.604
19800TIP3    H159285   9.989   5.299   7.600
19800TIP3    H259286   9.882   5.216   7.666
19801TIP3   OH259287   9.872   4.992   6.964
19801TIP3    H159288   9.934   4.917   6.969
19801TIP3    H259289   9.935   5.066   6.953
19802TIP3   OH259290   9.682   5.270   7.029
19802TIP3    H159291   9.728   5.250   6.944
19802TIP3    H259292   9.723   5.354   7.051
19803TIP3   OH259293   9.665   4.770   6.534
19803TIP3    H159294   9.570   4.767   6.556
19803TIP3    H259295   9.665   4.827   6.454
19804TIP3   OH259296   9.882   4.851   7.347
19804TIP3    H159297   9.828   4.844   7.428
19804TIP3    H259298   9.817   4.889   7.285
19805TIP3   OH259299   9.860   6.220   6.613
19805TIP3    H159300   9.910   6.136   6.615
19805TIP3    H259301   9.936   6.281   6.593
19806TIP3   OH259302  10.105   6.323   6.569
19806TIP3    H159303  10.150   6.237   6.567
19806TIP3    H259304  10.154   6.372   6.636
19807TIP3   OH259305   9.970   4.698   6.697
19807TIP3    H159306   9.876   4.668   6.697
19807TIP3    H259307  10.014   4.610   6.701
19808TIP3   OH259308   9.765   4.559   6.347
19808TIP3    H159309   9.791   4.619   6.274
19808TIP3    H259310   9.733   4.622   6.414
19809TIP3   OH259311   9.467   6.128   6.135
19809TIP3    H159312   9.386   6.098   6.090
19809TIP3    H259313   9.467   6.222   6.109
19810TIP3   OH259314   9.872   4.722   6.121
19810TIP3    H159315   9.912   4.658   6.058
19810TIP3    H259316   9.951   4.768   6.156
19811TIP3   OH259317  10.256   6.327   5.715
19811TIP3    H159318  10.352   6.334   5.706
19811TIP3    H259319  10.234   6.254   5.653
19812TIP3   OH259320  10.149   4.995   7.591
19812TIP3    H159321  10.104   4.923   7.638
19812TIP3    H259322  10.239   4.957   7.586
19813TIP3   OH259323  10.379   4.875   7.661
19813TIP3    H159324  10.448   4.935   7.625
19813TIP3    H259325  10.381   4.904   7.753
19814TIP3   OH259326   9.552   6.152   5.771
19814TIP3    H159327   9.563   6.190   5.859
19814TIP3    H259328   9.642   6.113   5.754
19815TIP3   OH259329   1.323   6.228   8.474
19815TIP3    H159330   1.296   6.321   8.455
19815TIP3    H259331   1.244   6.181   8.442
19816TIP3   OH259332   1.330   6.224   8.846
19816TIP3    H159333   1.354   6.200   8.938
19816TIP3    H259334   1.281   6.145   8.817
19817TIP3   OH259335   1.565   6.530   8.536
19817TIP3    H159336   1.550   6.463   8.604
19817TIP3    H259337   1.593   6.607   8.589
19818TIP3   OH259338   1.210   6.993   8.547
19818TIP3    H159339   1.257   6.919   8.504
19818TIP3    H259340   1.194   6.958   8.635
19819TIP3   OH259341   1.109   6.403   8.882
19819TIP3    H159342   1.187   6.355   8.847
19819TIP3    H259343   1.153   6.481   8.919
19820TIP3   OH259344   2.131   5.775   8.901
19820TIP3    H159345   2.159   5.856   8.948
19820TIP3    H259346   2.151   5.799   8.809
19821TIP3   OH259347   1.533   5.958   8.937
19821TIP3    H159348   1.576   5.872   8.955
19821TIP3    H259349   1.501   5.944   8.846
19822TIP3   OH259350   0.899   5.619   8.900
19822TIP3    H159351   0.862   5.694   8.850
19822TIP3    H259352   0.865   5.544   8.848
19823TIP3   OH259353   1.563   5.706   8.525
19823TIP3    H159354   1.636   5.691   8.589
19823TIP3    H259355   1.614   5.743   8.450
19824TIP3   OH259356   0.944   6.024   8.818
19824TIP3    H159357   1.038   5.995   8.820
19824TIP3    H259358   0.901   5.950   8.772
19825TIP3   OH259359   2.202   5.978   9.074
19825TIP3    H159360   2.121   6.030   9.057
19825TIP3    H259361   2.226   6.009   9.163
19826TIP3   OH259362   1.216   6.451   8.343
19826TIP3    H159363   1.175   6.429   8.258
19826TIP3    H259364   1.171   6.534   8.366
19827TIP3   OH259365   1.776   5.709   8.694
19827TIP3    H159366   1.768   5.659   8.776
19827TIP3    H259367   1.830   5.786   8.722
19828TIP3   OH259368   1.636   6.773   8.704
19828TIP3    H159369   1.547   6.766   8.744
19828TIP3    H259370   1.629   6.859   8.659
19829TIP3   OH259371   1.923   5.676   9.066
19829TIP3    H159372   1.837   5.704   9.031
19829TIP3    H259373   1.985   5.707   8.996
19830TIP3   OH259374   1.229   5.315   9.044
19830TIP3    H159375   1.210   5.221   9.063
19830TIP3    H259376   1.150   5.357   9.085
19831TIP3   OH259377   1.339   6.818   8.380
19831TIP3    H159378   1.390   6.737   8.356
19831TIP3    H259379   1.398   6.886   8.340
19832TIP3   OH259380   1.481   6.605   8.283
19832TIP3    H159381   1.440   6.525   8.246
19832TIP3    H259382   1.516   6.570   8.368
19833TIP3   OH259383   1.862   6.689   9.048
19833TIP3    H159384   1.851   6.611   8.989
19833TIP3    H259385   1.846   6.763   8.986
19834TIP3   OH259386   1.154   6.078   8.304
19834TIP3    H159387   1.073   6.129   8.280
19834TIP3    H259388   1.202   6.078   8.219
19835TIP3   OH259389   1.113   5.864   8.025
19835TIP3    H159390   1.181   5.914   8.072
19835TIP3    H259391   1.169   5.801   7.976
19836TIP3   OH259392   2.056   6.321   8.891
19836TIP3    H159393   1.975   6.375   8.898
19836TIP3    H259394   2.087   6.347   8.801
19837TIP3   OH259395   1.500   6.162   8.278
19837TIP3    H159396   1.445   6.189   8.355
19837TIP3    H259397   1.583   6.137   8.323
19838TIP3   OH259398   1.737   6.197   9.192
19838TIP3    H159399   1.738   6.282   9.240
19838TIP3    H259400   1.653   6.205   9.143
19839TIP3   OH259401   0.875   6.122   9.062
19839TIP3    H159402   0.906   6.088   8.975
19839TIP3    H259403   0.931   6.200   9.073
19840TIP3   OH259404   1.396   6.774   8.826
19840TIP3    H159405   1.378   6.846   8.889
19840TIP3    H259406   1.381   6.694   8.881
19841TIP3   OH259407   1.343   6.020   8.103
19841TIP3    H159408   1.401   6.080   8.155
19841TIP3    H259409   1.368   6.045   8.011
19842TIP3   OH259410   1.081   6.705   8.383
19842TIP3    H159411   1.165   6.750   8.401
19842TIP3    H259412   1.034   6.773   8.331
19843TIP3   OH259413   1.857   5.264   8.151
19843TIP3    H159414   1.776   5.282   8.202
19843TIP3    H259415   1.868   5.347   8.101
19844TIP3   OH259416   1.653   6.631   7.697
19844TIP3    H159417   1.660   6.729   7.686
19844TIP3    H259418   1.747   6.604   7.686
19845TIP3   OH259419   2.101   7.030   9.095
19845TIP3    H159420   2.100   6.933   9.108
19845TIP3    H259421   2.016   7.054   9.138
19846TIP3   OH259422   1.207   6.773   9.244
19846TIP3    H159423   1.213   6.871   9.250
19846TIP3    H259424   1.117   6.761   9.208
19847TIP3   OH259425   0.990   6.927   8.204
19847TIP3    H159426   0.957   6.904   8.115
19847TIP3    H259427   0.951   7.014   8.218
19848TIP3   OH259428   1.168   6.849   7.822
19848TIP3    H159429   1.224   6.779   7.782
19848TIP3    H259430   1.209   6.857   7.911
19849TIP3   OH259431   1.232   6.888   8.087
19849TIP3    H159432   1.149   6.893   8.140
19849TIP3    H259433   1.293   6.854   8.154
19850TIP3   OH259434   1.998   6.161   9.365
19850TIP3    H159435   1.913   6.184   9.324
19850TIP3    H259436   2.005   6.066   9.345
19851TIP3   OH259437   0.987   5.398   9.147
19851TIP3    H159438   0.924   5.350   9.202
19851TIP3    H259439   1.006   5.478   9.199
19852TIP3   OH259440   1.442   5.518   9.336
19852TIP3    H159441   1.510   5.504   9.406
19852TIP3    H259442   1.360   5.514   9.388
19853TIP3   OH259443   1.737   5.933   9.322
19853TIP3    H159444   1.763   5.963   9.412
19853TIP3    H259445   1.731   6.017   9.274
19854TIP3   OH259446   1.419   6.066   7.847
19854TIP3    H159447   1.384   6.042   7.759
19854TIP3    H259448   1.494   6.123   7.823
19855TIP3   OH259449   1.132   5.444   8.148
19855TIP3    H159450   1.100   5.441   8.240
19855TIP3    H259451   1.093   5.361   8.115
19856TIP3   OH259452   0.908   5.892   9.203
19856TIP3    H159453   0.874   5.927   9.286
19856TIP3    H259454   0.894   5.968   9.143
19857TIP3   OH259455   0.791   5.787   8.711
19857TIP3    H159456   0.697   5.803   8.696
19857TIP3    H259457   0.816   5.746   8.626
19858TIP3   OH259458   1.290   5.881   8.437
19858TIP3    H159459   1.237   5.953   8.396
19858TIP3    H259460   1.345   5.852   8.362
19859TIP3   OH259461   1.448   5.911   8.678
19859TIP3    H159462   1.390   5.943   8.607
19859TIP3    H259463   1.480   5.829   8.635
19860TIP3   OH259464   0.791   5.421   8.119
19860TIP3    H159465   0.777   5.415   8.215
19860TIP3    H259466   0.701   5.429   8.085
19861TIP3   OH259467   1.455   6.161   9.097
19861TIP3    H159468   1.491   6.090   9.038
19861TIP3    H259469   1.432   6.108   9.176
19862TIP3   OH259470   1.141   5.620   8.768
19862TIP3    H159471   1.060   5.623   8.824
19862TIP3    H259472   1.210   5.616   8.836
19863TIP3   OH259473   0.838   5.675   8.464
19863TIP3    H159474   0.934   5.689   8.451
19863TIP3    H259475   0.798   5.711   8.382
19864TIP3   OH259476   1.621   5.692   8.972
19864TIP3    H159477   1.580   5.708   9.060
19864TIP3    H259478   1.556   5.630   8.933
19865TIP3   OH259479   0.657   5.729   8.243
19865TIP3    H159480   0.616   5.643   8.223
19865TIP3    H259481   0.717   5.745   8.167
19866TIP3   OH259482   1.811   7.363   9.161
19866TIP3    H159483   1.800   7.416   9.081
19866TIP3    H259484   1.808   7.429   9.232
19867TIP3   OH259485   1.211   5.946   8.867
19867TIP3    H159486   1.284   5.906   8.817
19867TIP3    H259487   1.221   5.904   8.954
19868TIP3   OH259488   0.769   5.434   8.746
19868TIP3    H159489   0.706   5.361   8.762
19868TIP3    H259490   0.811   5.405   8.664
19869TIP3   OH259491   1.186   5.845   9.154
19869TIP3    H159492   1.095   5.877   9.167
19869TIP3    H259493   1.239   5.909   9.206
19870TIP3   OH259494   0.930   6.227   8.242
19870TIP3    H159495   0.853   6.166   8.238
19870TIP3    H259496   0.919   6.266   8.332
19871TIP3   OH259497   1.826   6.469   8.884
19871TIP3    H159498   1.850   6.519   8.803
19871TIP3    H259499   1.739   6.430   8.860
19872TIP3   OH259500   1.383   5.546   8.116
19872TIP3    H159501   1.286   5.530   8.123
19872TIP3    H259502   1.392   5.641   8.139
19873TIP3   OH259503   1.349   6.542   9.244
19873TIP3    H159504   1.309   6.491   9.318
19873TIP3    H259505   1.298   6.626   9.250
19874TIP3   OH259506   1.452   5.793   8.219
19874TIP3    H159507   1.548   5.800   8.234
19874TIP3    H259508   1.433   5.873   8.166
19875TIP3   OH259509   1.081   6.379   8.074
19875TIP3    H159510   1.035   6.466   8.082
19875TIP3    H259511   1.023   6.323   8.130
19876TIP3   OH259512   1.488   6.816   9.138
19876TIP3    H159513   1.396   6.795   9.158
19876TIP3    H259514   1.514   6.864   9.219
19877TIP3   OH259515   1.897   5.882   8.053
19877TIP3    H159516   1.833   5.837   7.992
19877TIP3    H259517   1.890   5.972   8.014
19878TIP3   OH259518   2.113   6.737   9.137
19878TIP3    H159519   2.015   6.735   9.129
19878TIP3    H259520   2.138   6.710   9.046
19879TIP3   OH259521   1.599   6.702   7.965
19879TIP3    H159522   1.567   6.633   8.025
19879TIP3    H259523   1.604   6.656   7.879
19880TIP3   OH259524   1.591   6.331   8.804
19880TIP3    H159525   1.497   6.305   8.815
19880TIP3    H259526   1.626   6.253   8.757
19881TIP3   OH259527   0.902   6.326   8.490
19881TIP3    H159528   0.891   6.421   8.505
19881TIP3    H259529   0.849   6.289   8.562
19882TIP3   OH259530   1.383   6.538   8.975
19882TIP3    H159531   1.375   6.536   9.073
19882TIP3    H259532   1.461   6.483   8.961
19883TIP3   OH259533   1.350   6.428   7.863
19883TIP3    H159534   1.398   6.404   7.946
19883TIP3    H259535   1.259   6.403   7.887
19884TIP3   OH259536   1.622   7.073   9.034
19884TIP3    H159537   1.545   7.014   9.024
19884TIP3    H259538   1.609   7.136   8.960
19885TIP3   OH259539   1.688   6.906   7.685
19885TIP3    H159540   1.720   6.978   7.628
19885TIP3    H259541   1.609   6.952   7.721
19886TIP3   OH259542   1.508   6.363   8.083
19886TIP3    H159543   1.499   6.297   8.154
19886TIP3    H259544   1.605   6.363   8.070
19887TIP3   OH259545   0.771   6.382   7.890
19887TIP3    H159546   0.782   6.295   7.845
19887TIP3    H259547   0.742   6.354   7.977
19888TIP3   OH259548   1.533   5.760   9.222
19888TIP3    H159549   1.617   5.788   9.263
19888TIP3    H259550   1.506   5.681   9.272
19889TIP3   OH259551   1.423   5.500   8.396
19889TIP3    H159552   1.410   5.523   8.302
19889TIP3    H259553   1.464   5.581   8.432
19890TIP3   OH259554   0.936   6.606   8.095
19890TIP3    H159555   0.844   6.628   8.113
19890TIP3    H259556   0.951   6.648   8.009
19891TIP3   OH259557   1.113   5.678   8.499
19891TIP3    H159558   1.179   5.748   8.479
19891TIP3    H259559   1.124   5.670   8.596
19892TIP3   OH259560   1.380   5.998   9.301
19892TIP3    H159561   1.385   6.011   9.396
19892TIP3    H259562   1.426   5.913   9.290
19893TIP3   OH259563   1.262   5.406   8.604
19893TIP3    H159564   1.254   5.483   8.663
19893TIP3    H259565   1.322   5.442   8.534
19894TIP3   OH259566   0.778   5.416   8.403
19894TIP3    H159567   0.798   5.505   8.439
19894TIP3    H259568   0.869   5.380   8.402
19895TIP3   OH259569   2.011   5.898   9.286
19895TIP3    H159570   1.916   5.879   9.291
19895TIP3    H259571   2.035   5.860   9.201
19896TIP3   OH259572   1.676   6.090   8.675
19896TIP3    H159573   1.599   6.031   8.689
19896TIP3    H259574   1.747   6.043   8.724
19897TIP3   OH259575   1.643   7.046   8.629
19897TIP3    H159576   1.601   7.093   8.553
19897TIP3    H259577   1.738   7.064   8.607
19898TIP3   OH259578   0.923   6.601   7.807
19898TIP3    H159579   0.867   6.524   7.829
19898TIP3    H259580   0.967   6.569   7.727
19899TIP3   OH259581   1.527   6.947   9.379
19899TIP3    H159582   1.509   6.885   9.453
19899TIP3    H259583   1.604   6.998   9.412
19900TIP3   OH259584   1.317   6.658   7.689
19900TIP3    H159585   1.362   6.593   7.746
19900TIP3    H259586   1.372   6.659   7.608
19901TIP3   OH259587   1.191   6.423   9.438
19901TIP3    H159588   1.125   6.492   9.449
19901TIP3    H259589   1.224   6.408   9.529
19902TIP3   OH259590   1.055   6.322   7.801
19902TIP3    H159591   1.042   6.342   7.896
19902TIP3    H259592   1.044   6.224   7.800
19903TIP3   OH259593   1.651   6.569   9.182
19903TIP3    H159594   1.719   6.623   9.138
19903TIP3    H259595   1.572   6.625   9.174
19904TIP3   OH259596   0.738   6.031   8.225
19904TIP3    H159597   0.706   5.975   8.296
19904TIP3    H259598   0.771   5.965   8.161
19905TIP3   OH259599   1.071   6.102   9.419
19905TIP3    H159600   0.978   6.131   9.410
19905TIP3    H259601   1.107   6.129   9.331
19906TIP3   OH259602   0.835   5.826   8.062
19906TIP3    H159603   0.810   5.834   7.968
19906TIP3    H259604   0.933   5.834   8.055
19907TIP3   OH259605   1.572   6.526   9.559
19907TIP3    H159606   1.658   6.532   9.516
19907TIP3    H259607   1.577   6.436   9.592
19908TIP3   OH259608   1.660   6.161   7.721
19908TIP3    H159609   1.631   6.114   7.640
19908TIP3    H259610   1.626   6.251   7.699
19909TIP3   OH259611   1.097   5.638   9.324
19909TIP3    H159612   1.143   5.694   9.259
19909TIP3    H259613   1.017   5.689   9.342
19910TIP3   OH259614   1.152   6.220   9.188
19910TIP3    H159615   1.244   6.212   9.161
19910TIP3    H259616   1.147   6.315   9.208
19911TIP3   OH259617   1.778   6.423   9.366
19911TIP3    H159618   1.720   6.477   9.306
19911TIP3    H259619   1.866   6.448   9.329
19912TIP3   OH259620   1.897   7.134   8.582
19912TIP3    H159621   1.921   7.170   8.669
19912TIP3    H259622   1.952   7.187   8.523
19913TIP3   OH259623   1.925   7.160   8.863
19913TIP3    H159624   1.884   7.070   8.861
19913TIP3    H259625   2.000   7.143   8.922
19914TIP3   OH259626   1.985   6.836   9.414
19914TIP3    H159627   1.910   6.836   9.477
19914TIP3    H259628   2.019   6.927   9.423
19915TIP3   OH259629   1.790   6.345   8.056
19915TIP3    H159630   1.857   6.412   8.032
19915TIP3    H259631   1.831   6.306   8.137
19916TIP3   OH259632   1.916   6.213   8.260
19916TIP3    H159633   1.850   6.172   8.320
19916TIP3    H259634   1.980   6.253   8.323
19917TIP3   OH259635   1.968   6.605   8.693
19917TIP3    H159636   2.023   6.544   8.641
19917TIP3    H259637   1.960   6.681   8.632
19918TIP3   OH259638   1.802   6.906   8.889
19918TIP3    H159639   1.732   6.948   8.942
19918TIP3    H259640   1.751   6.859   8.820
19919TIP3   OH259641   1.855   6.122   7.907
19919TIP3    H159642   1.783   6.125   7.840
19919TIP3    H259643   1.828   6.198   7.963
19920TIP3   OH259644   1.729   5.795   7.859
19920TIP3    H159645   1.679   5.835   7.787
19920TIP3    H259646   1.701   5.701   7.851
19921TIP3   OH259647   1.731   6.070   8.407
19921TIP3    H159648   1.738   5.973   8.404
19921TIP3    H259649   1.717   6.086   8.503
19922TIP3   OH259650   2.019   6.497   9.267
19922TIP3    H159651   2.093   6.432   9.256
19922TIP3    H259652   2.046   6.568   9.206
19923TIP3   OH259653   2.206   6.308   9.281
19923TIP3    H159654   2.134   6.253   9.320
19923TIP3    H259655   2.281   6.246   9.293
19924TIP3   OH259656   1.669   5.529   7.849
19924TIP3    H159657   1.743   5.498   7.904
19924TIP3    H259658   1.595   5.471   7.873
19925TIP3   OH259659   1.726   5.786   8.304
19925TIP3    H159660   1.766   5.697   8.319
19925TIP3    H259661   1.784   5.819   8.234
19926TIP3   OH259662   1.889   5.961   8.797
19926TIP3    H159663   1.974   5.988   8.757
19926TIP3    H259664   1.901   5.999   8.886
19927TIP3   OH259665   1.954   6.104   9.029
19927TIP3    H159666   1.878   6.141   9.079
19927TIP3    H259667   1.988   6.185   8.984
19928TIP3   OH259668   2.396   5.675   9.563
19928TIP3    H159669   2.468   5.624   9.522
19928TIP3    H259670   2.410   5.764   9.529
19929TIP3   OH259671   1.836   5.536   8.340
19929TIP3    H159672   1.883   5.520   8.424
19929TIP3    H259673   1.775   5.459   8.338
19930TIP3   OH259674   2.281   5.853   9.379
19930TIP3    H159675   2.189   5.861   9.410
19930TIP3    H259676   2.275   5.770   9.329
19931TIP3   OH259677   1.917   5.472   7.971
19931TIP3    H159678   1.956   5.397   7.920
19931TIP3    H259679   1.985   5.541   7.962
19932TIP3   OH259680   1.485   7.000   8.244
19932TIP3    H159681   1.529   6.988   8.158
19932TIP3    H259682   1.535   7.074   8.280
19933TIP3   OH259683   1.268   7.037   9.282
19933TIP3    H159684   1.340   7.016   9.343
19933TIP3    H259685   1.313   7.100   9.221
19934TIP3   OH259686   1.402   7.244   9.157
19934TIP3    H159687   1.468   7.189   9.112
19934TIP3    H259688   1.460   7.298   9.214
19935TIP3   OH259689   2.178   5.598   9.252
19935TIP3    H159690   2.087   5.591   9.218
19935TIP3    H259691   2.209   5.505   9.242
19936TIP3   OH259692   1.103   7.116   8.815
19936TIP3    H159693   1.010   7.131   8.792
19936TIP3    H259694   1.126   7.202   8.855
19937TIP3   OH259695   1.365   7.057   8.907
19937TIP3    H159696   1.276   7.060   8.868
19937TIP3    H259697   1.413   7.121   8.853
19938TIP3   OH259698   1.574   7.242   8.815
19938TIP3    H159699   1.557   7.325   8.765
19938TIP3    H259700   1.602   7.181   8.744
19939TIP3   OH259701   1.383   5.514   8.887
19939TIP3    H159702   1.342   5.445   8.942
19939TIP3    H259703   1.455   5.465   8.843
19940TIP3   OH259704   1.907   5.394   8.795
19940TIP3    H159705   1.944   5.446   8.720
19940TIP3    H259706   1.812   5.412   8.787
19941TIP3   OH259707   2.002   5.495   8.558
19941TIP3    H159708   2.074   5.443   8.518
19941TIP3    H259709   2.035   5.587   8.543
19942TIP3   OH259710   1.081   5.258   8.783
19942TIP3    H159711   1.141   5.311   8.727
19942TIP3    H259712   1.098   5.295   8.871
19943TIP3   OH259713   1.626   5.402   8.768
19943TIP3    H159714   1.620   5.367   8.678
19943TIP3    H259715   1.609   5.321   8.822
19944TIP3   OH259716   1.652   5.324   8.331
19944TIP3    H159717   1.565   5.365   8.340
19944TIP3    H259718   1.638   5.238   8.378
19945TIP3   OH259719   0.570   5.173   8.357
19945TIP3    H159720   0.569   5.157   8.261
19945TIP3    H259721   0.591   5.267   8.362
19946TIP3   OH259722   1.054   5.425   8.415
19946TIP3    H159723   1.114   5.379   8.476
19946TIP3    H259724   1.075   5.518   8.439
19947TIP3   OH259725   0.916   6.861   7.944
19947TIP3    H159726   1.003   6.864   7.898
19947TIP3    H259727   0.862   6.823   7.871
19948TIP3   OH259728   1.626   6.970   8.007
19948TIP3    H159729   1.618   6.873   7.992
19948TIP3    H259730   1.579   7.006   7.929
19949TIP3   OH259731   1.854   7.103   9.198
19949TIP3    H159732   1.773   7.076   9.150
19949TIP3    H259733   1.846   7.201   9.188
19950TIP3   OH259734   3.120   6.486   7.960
19950TIP3    H159735   3.093   6.578   7.942
19950TIP3    H259736   3.041   6.438   7.932
19951TIP3   OH259737   3.117   6.484   8.341
19951TIP3    H159738   3.149   6.459   8.430
19951TIP3    H259739   3.075   6.402   8.311
19952TIP3   OH259740   2.419   6.380   8.705
19952TIP3    H159741   2.449   6.314   8.770
19952TIP3    H259742   2.492   6.444   8.709
19953TIP3   OH259743   3.361   6.788   8.023
19953TIP3    H159744   3.347   6.719   8.089
19953TIP3    H259745   3.387   6.863   8.078
19954TIP3   OH259746   2.387   6.790   8.430
19954TIP3    H159747   2.378   6.692   8.435
19954TIP3    H259748   2.484   6.799   8.433
19955TIP3   OH259749   2.097   5.997   8.216
19955TIP3    H159750   2.047   6.079   8.233
19955TIP3    H259751   2.025   5.940   8.183
19956TIP3   OH259752   2.154   6.281   8.388
19956TIP3    H159753   2.203   6.206   8.427
19956TIP3    H259754   2.217   6.313   8.322
19957TIP3   OH259755   3.009   7.251   8.037
19957TIP3    H159756   3.057   7.178   7.994
19957TIP3    H259757   3.001   7.219   8.128
19958TIP3   OH259758   2.917   6.711   8.388
19958TIP3    H159759   2.957   6.634   8.343
19958TIP3    H259760   3.000   6.757   8.413
19959TIP3   OH259761   3.929   6.032   8.388
19959TIP3    H159762   3.957   6.115   8.432
19959TIP3    H259763   3.950   6.053   8.295
19960TIP3   OH259764   3.330   6.214   8.423
19960TIP3    H159765   3.371   6.129   8.444
19960TIP3    H259766   3.299   6.198   8.332
19961TIP3   OH259767   2.666   5.872   8.388
19961TIP3    H159768   2.644   5.945   8.326
19961TIP3    H259769   2.617   5.799   8.345
19962TIP3   OH259770   3.360   5.962   8.011
19962TIP3    H159771   3.432   5.947   8.076
19962TIP3    H259772   3.412   5.999   7.937
19963TIP3   OH259773   2.300   6.075   8.495
19963TIP3    H159774   2.383   6.055   8.543
19963TIP3    H259775   2.312   6.018   8.416
19964TIP3   OH259776   2.743   6.273   8.282
19964TIP3    H159777   2.835   6.247   8.300
19964TIP3    H259778   2.703   6.188   8.255
19965TIP3   OH259779   4.003   6.240   8.556
19965TIP3    H159780   3.918   6.288   8.540
19965TIP3    H259781   4.015   6.260   8.650
19966TIP3   OH259782   2.663   5.854   8.821
19966TIP3    H159783   2.603   5.893   8.756
19966TIP3    H259784   2.612   5.872   8.904
19967TIP3   OH259785   3.014   6.709   7.830
19967TIP3    H159786   2.968   6.686   7.749
19967TIP3    H259787   2.970   6.793   7.854
19968TIP3   OH259788   2.769   6.631   8.618
19968TIP3    H159789   2.705   6.695   8.657
19968TIP3    H259790   2.811   6.685   8.549
19969TIP3   OH259791   3.571   5.965   8.182
19969TIP3    H159792   3.560   5.917   8.265
19969TIP3    H259793   3.625   6.042   8.209
19970TIP3   OH259794   2.533   5.971   8.607
19970TIP3    H159795   2.594   6.045   8.630
19970TIP3    H259796   2.584   5.930   8.533
19971TIP3   OH259797   2.596   6.823   8.712
19971TIP3    H159798   2.571   6.911   8.677
19971TIP3    H259799   2.518   6.808   8.771
19972TIP3   OH259800   1.996   6.515   7.952
19972TIP3    H159801   1.947   6.542   7.872
19972TIP3    H259802   2.022   6.602   7.989
19973TIP3   OH259803   3.432   7.029   8.190
19973TIP3    H159804   3.343   7.020   8.231
19973TIP3    H259805   3.423   7.117   8.147
19974TIP3   OH259806   3.723   5.931   8.553
19974TIP3    H159807   3.635   5.963   8.526
19974TIP3    H259808   3.781   5.963   8.481
19975TIP3   OH259809   3.021   5.576   8.535
19975TIP3    H159810   3.008   5.481   8.554
19975TIP3    H259811   2.943   5.613   8.582
19976TIP3   OH259812   3.136   7.077   7.867
19976TIP3    H159813   3.187   6.995   7.845
19976TIP3    H259814   3.194   7.144   7.824
19977TIP3   OH259815   3.279   6.862   7.770
19977TIP3    H159816   3.235   6.783   7.736
19977TIP3    H259817   3.314   6.829   7.855
19978TIP3   OH259818   3.659   6.946   8.534
19978TIP3    H159819   3.647   6.867   8.476
19978TIP3    H259820   3.641   7.019   8.472
19979TIP3   OH259821   2.949   6.336   7.791
19979TIP3    H159822   2.869   6.388   7.767
19979TIP3    H259823   2.997   6.333   7.706
19980TIP3   OH259824   2.912   6.128   7.508
19980TIP3    H159825   2.982   6.172   7.559
19980TIP3    H259826   2.964   6.058   7.463
19981TIP3   OH259827   3.854   6.581   8.379
19981TIP3    H159828   3.771   6.633   8.386
19981TIP3    H259829   3.882   6.604   8.288
19982TIP3   OH259830   3.297   6.420   7.764
19982TIP3    H159831   3.242   6.445   7.842
19982TIP3    H259832   3.380   6.393   7.808
19983TIP3   OH259833   3.532   6.460   8.674
19983TIP3    H159834   3.530   6.542   8.726
19983TIP3    H259835   3.445   6.465   8.629
19984TIP3   OH259836   2.530   6.416   8.178
19984TIP3    H159837   2.494   6.358   8.109
19984TIP3    H259838   2.608   6.365   8.209
19985TIP3   OH259839   2.662   6.832   8.327
19985TIP3    H159840   2.640   6.782   8.247
19985TIP3    H259841   2.751   6.799   8.348
19986TIP3   OH259842   2.669   6.389   8.532
19986TIP3    H159843   2.703   6.372   8.442
19986TIP3    H259844   2.709   6.475   8.556
19987TIP3   OH259845   3.192   7.025   8.311
19987TIP3    H159846   3.177   7.106   8.364
19987TIP3    H259847   3.177   6.953   8.375
19988TIP3   OH259848   2.803   6.945   8.857
19988TIP3    H159849   2.745   7.008   8.905
19988TIP3    H259850   2.735   6.892   8.810
19989TIP3   OH259851   3.140   6.278   7.591
19989TIP3    H159852   3.199   6.337   7.643
19989TIP3    H259853   3.164   6.304   7.499
19990TIP3   OH259854   2.555   6.505   8.954
19990TIP3    H159855   2.562   6.590   9.003
19990TIP3    H259856   2.461   6.484   8.969
19991TIP3   OH259857   2.881   6.957   7.860
19991TIP3    H159858   2.958   7.012   7.885
19991TIP3    H259859   2.817   7.023   7.830
19992TIP3   OH259860   2.598   7.112   8.944
19992TIP3    H159861   2.561   7.112   8.854
19992TIP3    H259862   2.520   7.093   8.999
19993TIP3   OH259863   3.653   5.520   7.637
19993TIP3    H159864   3.572   5.539   7.689
19993TIP3    H259865   3.664   5.604   7.588
19994TIP3   OH259866   2.402   6.259   7.967
19994TIP3    H159867   2.327   6.306   7.924
19994TIP3    H259868   2.357   6.183   8.005
19995TIP3   OH259869   3.451   6.886   7.185
19995TIP3    H159870   3.459   6.983   7.172
19995TIP3    H259871   3.544   6.858   7.173
19996TIP3   OH259872   2.176   6.644   8.892
19996TIP3    H159873   2.111   6.621   8.823
19996TIP3    H259874   2.213   6.557   8.918
19997TIP3   OH259875   2.030   6.837   8.527
19997TIP3    H159876   2.127   6.835   8.518
19997TIP3    H259877   2.017   6.917   8.579
19998TIP3   OH259878   3.897   7.288   8.578
19998TIP3    H159879   3.895   7.192   8.594
19998TIP3    H259880   3.814   7.314   8.624
19999TIP3   OH259881   3.001   7.075   8.714
19999TIP3    H159882   3.001   7.168   8.746
19999TIP3    H259883   2.931   7.036   8.770
20000TIP3   OH259884   2.762   7.205   7.666
20000TIP3    H159885   2.714   7.187   7.583
20000TIP3    H259886   2.728   7.294   7.691
20001TIP3   OH259887   2.201   7.053   8.049
20001TIP3    H159888   2.247   7.044   8.135
20001TIP3    H259889   2.135   6.983   8.056
20002TIP3   OH259890   2.965   7.106   7.307
20002TIP3    H159891   3.023   7.035   7.272
20002TIP3    H259892   2.998   7.114   7.399
20003TIP3   OH259893   3.013   7.153   7.578
20003TIP3    H159894   2.925   7.163   7.619
20003TIP3    H259895   3.063   7.112   7.650
20004TIP3   OH259896   3.789   6.423   8.852
20004TIP3    H159897   3.705   6.434   8.806
20004TIP3    H259898   3.802   6.326   8.846
20005TIP3   OH259899   2.383   6.826   8.880
20005TIP3    H159900   2.431   6.813   8.964
20005TIP3    H259901   2.308   6.763   8.890
20006TIP3   OH259902   2.781   5.652   8.664
20006TIP3    H159903   2.691   5.621   8.639
20006TIP3    H259904   2.756   5.734   8.711
20007TIP3   OH259905   3.313   5.765   8.858
20007TIP3    H159906   3.381   5.742   8.925
20007TIP3    H259907   3.229   5.747   8.905
20008TIP3   OH259908   3.555   6.196   8.778
20008TIP3    H159909   3.507   6.191   8.864
20008TIP3    H259910   3.529   6.284   8.744
20009TIP3   OH259911   3.212   6.327   7.333
20009TIP3    H159912   3.180   6.300   7.245
20009TIP3    H259913   3.293   6.375   7.309
20010TIP3   OH259914   2.925   5.703   7.634
20010TIP3    H159915   2.896   5.700   7.728
20010TIP3    H259916   2.889   5.617   7.603
20011TIP3   OH259917   2.711   6.166   8.682
20011TIP3    H159918   2.663   6.188   8.765
20011TIP3    H259919   2.696   6.248   8.630
20012TIP3   OH259920   2.595   6.052   8.196
20012TIP3    H159921   2.503   6.024   8.216
20012TIP3    H259922   2.608   6.009   8.109
20013TIP3   OH259923   3.086   6.137   7.924
20013TIP3    H159924   3.034   6.209   7.883
20013TIP3    H259925   3.142   6.109   7.849
20014TIP3   OH259926   3.261   6.417   9.010
20014TIP3    H159927   3.238   6.345   9.074
20014TIP3    H259928   3.354   6.433   9.034
20015TIP3   OH259929   3.245   6.167   8.164
20015TIP3    H159930   3.185   6.198   8.093
20015TIP3    H259931   3.277   6.085   8.122
20016TIP3   OH259932   2.531   6.195   8.893
20016TIP3    H159933   2.558   6.258   8.961
20016TIP3    H259934   2.520   6.113   8.945
20017TIP3   OH259935   2.580   5.694   7.606
20017TIP3    H159936   2.583   5.672   7.701
20017TIP3    H259937   2.487   5.681   7.586
20018TIP3   OH259938   2.124   5.720   8.471
20018TIP3    H159939   2.200   5.749   8.525
20018TIP3    H259940   2.164   5.682   8.392
20019TIP3   OH259941   2.099   5.700   7.987
20019TIP3    H159942   2.149   5.742   7.914
20019TIP3    H259943   2.038   5.772   8.012
20020TIP3   OH259944   3.254   6.415   8.586
20020TIP3    H159945   3.287   6.342   8.529
20020TIP3    H259946   3.226   6.364   8.665
20021TIP3   OH259947   2.921   5.877   8.259
20021TIP3    H159948   2.840   5.873   8.313
20021TIP3    H259949   2.991   5.875   8.327
20022TIP3   OH259950   2.359   5.930   8.264
20022TIP3    H159951   2.263   5.938   8.241
20022TIP3    H259952   2.380   5.837   8.246
20023TIP3   OH259953   2.628   5.926   7.952
20023TIP3    H159954   2.725   5.938   7.946
20023TIP3    H259955   2.595   5.968   7.870
20024TIP3   OH259956   3.416   5.950   8.458
20024TIP3    H159957   3.384   5.962   8.550
20024TIP3    H259958   3.349   5.889   8.423
20025TIP3   OH259959   2.481   5.979   7.707
20025TIP3    H159960   2.388   5.950   7.715
20025TIP3    H259961   2.521   5.906   7.659
20026TIP3   OH259962   3.586   7.638   8.679
20026TIP3    H159963   3.584   7.664   8.586
20026TIP3    H259964   3.662   7.689   8.714
20027TIP3   OH259965   2.543   6.748   9.102
20027TIP3    H159966   2.622   6.780   9.149
20027TIP3    H259967   2.478   6.749   9.175
20028TIP3   OH259968   3.007   6.203   8.356
20028TIP3    H159969   3.080   6.162   8.308
20028TIP3    H259970   3.015   6.163   8.445
20029TIP3   OH259971   2.530   5.689   8.233
20029TIP3    H159972   2.495   5.611   8.281
20029TIP3    H259973   2.589   5.647   8.169
20030TIP3   OH259974   2.983   6.100   8.645
20030TIP3    H159975   2.894   6.136   8.661
20030TIP3    H259976   3.041   6.159   8.697
20031TIP3   OH259977   2.721   6.490   7.739
20031TIP3    H159978   2.649   6.425   7.730
20031TIP3    H259979   2.705   6.525   7.830
20032TIP3   OH259980   3.622   6.726   8.371
20032TIP3    H159981   3.645   6.775   8.289
20032TIP3    H259982   3.535   6.686   8.347
20033TIP3   OH259983   3.177   5.805   7.598
20033TIP3    H159984   3.081   5.789   7.610
20033TIP3    H259985   3.189   5.898   7.626
20034TIP3   OH259986   3.121   6.809   8.738
20034TIP3    H159987   3.141   6.786   8.829
20034TIP3    H259988   3.080   6.897   8.746
20035TIP3   OH259989   3.249   6.049   7.704
20035TIP3    H159990   3.345   6.055   7.722
20035TIP3    H259991   3.231   6.129   7.652
20036TIP3   OH259992   2.411   6.510   8.418
20036TIP3    H159993   2.453   6.481   8.334
20036TIP3    H259994   2.451   6.449   8.482
20037TIP3   OH259995   2.864   6.640   7.557
20037TIP3    H159996   2.818   6.727   7.566
20037TIP3    H259997   2.812   6.585   7.620
20038TIP3   OH259998   2.293   6.433   9.029
20038TIP3    H159999   2.317   6.422   9.123
20038TIP3    H260000   2.225   6.365   9.018
20039TIP3   OH260001   3.018   6.547   9.048
20039TIP3    H160002   2.959   6.486   9.001
20039TIP3    H260003   3.106   6.514   9.022
20040TIP3   OH260004   3.280   7.069   8.630
20040TIP3    H160005   3.184   7.067   8.645
20040TIP3    H260006   3.310   7.118   8.709
20041TIP3   OH260007   3.691   6.139   7.543
20041TIP3    H160008   3.628   6.093   7.482
20041TIP3    H260009   3.688   6.228   7.501
20042TIP3   OH260010   3.909   6.997   8.624
20042TIP3    H160011   3.811   6.992   8.617
20042TIP3    H260012   3.933   6.967   8.533
20043TIP3   OH260013   3.390   6.960   7.450
20043TIP3    H160014   3.366   6.891   7.514
20043TIP3    H260015   3.402   6.910   7.367
20044TIP3   OH260016   3.386   6.589   8.288
20044TIP3    H160017   3.293   6.563   8.303
20044TIP3    H260018   3.421   6.509   8.244
20045TIP3   OH260019   2.510   6.812   8.035
20045TIP3    H160020   2.512   6.897   7.986
20045TIP3    H260021   2.417   6.805   8.056
20046TIP3   OH260022   2.077   6.121   7.748
20046TIP3    H160023   2.119   6.207   7.766
20046TIP3    H260024   1.997   6.127   7.805
20047TIP3   OH260025   2.652   6.582   7.984
20047TIP3    H160026   2.616   6.671   8.001
20047TIP3    H260027   2.618   6.533   8.061
20048TIP3   OH260028   2.782   7.159   8.511
20048TIP3    H160029   2.823   7.233   8.463
20048TIP3    H260030   2.858   7.127   8.563
20049TIP3   OH260031   2.434   7.053   7.893
20049TIP3    H160032   2.347   7.061   7.939
20049TIP3    H260033   2.464   7.147   7.897
20050TIP3   OH260034   3.172   6.794   8.470
20050TIP3    H160035   3.161   6.794   8.567
20050TIP3    H260036   3.253   6.743   8.459
20051TIP3   OH260037   3.144   6.684   7.353
20051TIP3    H160038   3.200   6.660   7.430
20051TIP3    H260039   3.056   6.663   7.389
20052TIP3   OH260040   3.421   7.326   8.520
20052TIP3    H160041   3.342   7.269   8.515
20052TIP3    H260042   3.403   7.391   8.449
20053TIP3   OH260043   3.484   7.162   7.172
20053TIP3    H160044   3.522   7.234   7.118
20053TIP3    H260045   3.405   7.208   7.206
20054TIP3   OH260046   2.507   5.936   9.037
20054TIP3    H160047   2.412   5.944   9.057
20054TIP3    H260048   2.538   5.882   9.112
20055TIP3   OH260049   3.305   6.618   7.567
20055TIP3    H160050   3.295   6.554   7.640
20055TIP3    H260051   3.402   6.619   7.557
20056TIP3   OH260052   2.222   7.023   8.670
20056TIP3    H160053   2.274   6.950   8.707
20056TIP3    H260054   2.246   7.095   8.730
20057TIP3   OH260055   2.506   6.682   7.349
20057TIP3    H160056   2.551   6.604   7.315
20057TIP3    H260057   2.501   6.666   7.445
20058TIP3   OH260058   2.468   6.667   7.620
20058TIP3    H160059   2.527   6.647   7.693
20058TIP3    H260060   2.461   6.765   7.626
20059TIP3   OH260061   2.192   6.369   7.827
20059TIP3    H160062   2.126   6.411   7.886
20059TIP3    H260063   2.202   6.441   7.761
20060TIP3   OH260064   3.343   6.000   8.716
20060TIP3    H160065   3.418   6.042   8.761
20060TIP3    H260066   3.326   5.921   8.772
20061TIP3   OH260067   3.219   5.757   7.882
20061TIP3    H160068   3.208   5.782   7.789
20061TIP3    H260069   3.261   5.837   7.920
20062TIP3   OH260070   2.721   6.870   7.569
20062TIP3    H160071   2.635   6.896   7.608
20062TIP3    H260072   2.740   6.947   7.514
20063TIP3   OH260073   2.906   5.936   7.988
20063TIP3    H160074   2.973   6.004   7.969
20063TIP3    H260075   2.915   5.926   8.085
20064TIP3   OH260076   3.181   6.253   8.795
20064TIP3    H160077   3.198   6.309   8.873
20064TIP3    H260078   3.236   6.175   8.814
20065TIP3   OH260079   3.056   5.663   8.090
20065TIP3    H160080   3.054   5.737   8.153
20065TIP3    H260081   3.116   5.699   8.021
20066TIP3   OH260082   2.462   6.940   7.639
20066TIP3    H160083   2.434   7.010   7.576
20066TIP3    H260084   2.447   6.985   7.725
20067TIP3   OH260085   2.569   5.658   7.876
20067TIP3    H160086   2.571   5.745   7.921
20067TIP3    H260087   2.664   5.633   7.887
20068TIP3   OH260088   3.821   6.152   8.771
20068TIP3    H160089   3.724   6.152   8.782
20068TIP3    H260090   3.828   6.110   8.684
20069TIP3   OH260091   3.472   6.347   8.162
20069TIP3    H160092   3.396   6.288   8.176
20069TIP3    H260093   3.543   6.300   8.211
20070TIP3   OH260094   2.182   6.576   7.638
20070TIP3    H160095   2.231   6.659   7.651
20070TIP3    H260096   2.227   6.542   7.559
20071TIP3   OH260097   2.142   5.857   7.754
20071TIP3    H160098   2.123   5.953   7.761
20071TIP3    H260099   2.055   5.821   7.734
20072TIP3   OH260100   3.440   7.302   8.112
20072TIP3    H160101   3.397   7.349   8.037
20072TIP3    H260102   3.534   7.321   8.092
20073TIP3   OH260103   2.517   5.570   8.640
20073TIP3    H160104   2.484   5.537   8.554
20073TIP3    H260105   2.505   5.492   8.698
20074TIP3   OH260106   2.053   6.785   8.020
20074TIP3    H160107   1.985   6.819   8.080
20074TIP3    H260108   2.027   6.830   7.936
20075TIP3   OH260109   2.213   7.325   9.089
20075TIP3    H160110   2.297   7.329   9.139
20075TIP3    H260111   2.195   7.230   9.088
20076TIP3   OH260112   2.690   7.297   9.136
20076TIP3    H160113   2.786   7.286   9.144
20076TIP3    H260114   2.670   7.237   9.062
20077TIP3   OH260115   2.677   6.878   7.262
20077TIP3    H160116   2.618   6.811   7.303
20077TIP3    H260117   2.749   6.821   7.229
20078TIP3   OH260118   3.340   7.196   8.863
20078TIP3    H160119   3.327   7.130   8.935
20078TIP3    H260120   3.412   7.252   8.899
20079TIP3   OH260121   3.111   6.912   7.175
20079TIP3    H160122   3.158   6.850   7.234
20079TIP3    H260123   3.168   6.914   7.096
20080TIP3   OH260124   2.342   6.736   9.292
20080TIP3    H160125   2.361   6.641   9.297
20080TIP3    H260126   2.254   6.737   9.247
20081TIP3   OH260127   2.330   6.373   7.474
20081TIP3    H160128   2.381   6.360   7.556
20081TIP3    H260129   2.388   6.430   7.422
20082TIP3   OH260130   2.952   6.822   9.065
20082TIP3    H160131   2.908   6.837   8.979
20082TIP3    H260132   2.982   6.729   9.059
20083TIP3   OH260133   2.811   6.583   7.294
20083TIP3    H160134   2.828   6.601   7.389
20083TIP3    H260135   2.826   6.486   7.291
20084TIP3   OH260136   3.443   6.828   8.669
20084TIP3    H160137   3.516   6.877   8.627
20084TIP3    H260138   3.370   6.892   8.660
20085TIP3   OH260139   2.462   6.468   9.270
20085TIP3    H160140   2.535   6.407   9.257
20085TIP3    H260141   2.487   6.505   9.358
20086TIP3   OH260142   2.526   6.283   7.708
20086TIP3    H160143   2.485   6.276   7.796
20086TIP3    H260144   2.557   6.191   7.696
20087TIP3   OH260145   2.795   6.354   8.933
20087TIP3    H160146   2.720   6.416   8.940
20087TIP3    H260147   2.843   6.389   8.855
20088TIP3   OH260148   3.311   6.757   9.069
20088TIP3    H160149   3.396   6.738   9.027
20088TIP3    H260150   3.309   6.692   9.141
20089TIP3   OH260151   3.451   6.417   7.209
20089TIP3    H160152   3.427   6.370   7.127
20089TIP3    H260153   3.419   6.507   7.185
20090TIP3   OH260154   2.921   6.143   9.062
20090TIP3    H160155   2.919   6.063   9.007
20090TIP3    H260156   2.876   6.209   9.005
20091TIP3   OH260157   2.923   5.928   8.866
20091TIP3    H160158   2.948   5.971   8.782
20091TIP3    H260159   2.828   5.907   8.850
20092TIP3   OH260160   2.950   6.465   8.739
20092TIP3    H160161   3.033   6.475   8.691
20092TIP3    H260162   2.894   6.534   8.698
20093TIP3   OH260163   3.531   6.433   9.122
20093TIP3    H160164   3.581   6.352   9.141
20093TIP3    H260165   3.601   6.493   9.094
20094TIP3   OH260166   3.574   6.684   8.857
20094TIP3    H160167   3.515   6.738   8.799
20094TIP3    H260168   3.661   6.705   8.816
20095TIP3   OH260169   2.797   6.261   9.287
20095TIP3    H160170   2.726   6.195   9.305
20095TIP3    H260171   2.833   6.228   9.203
20096TIP3   OH260172   3.054   5.694   8.935
20096TIP3    H160173   3.006   5.777   8.913
20096TIP3    H260174   2.983   5.628   8.925
20097TIP3   OH260175   3.180   6.200   9.153
20097TIP3    H160176   3.169   6.190   9.249
20097TIP3    H260177   3.090   6.175   9.124
20098TIP3   OH260178   3.417   6.143   9.004
20098TIP3    H160179   3.343   6.149   9.067
20098TIP3    H260180   3.491   6.116   9.063
20099TIP3   OH260181   3.646   6.087   9.157
20099TIP3    H160182   3.659   5.992   9.179
20099TIP3    H260183   3.642   6.129   9.245
20100TIP3   OH260184   2.633   6.042   9.330
20100TIP3    H160185   2.644   5.949   9.302
20100TIP3    H260186   2.677   6.037   9.419
20101TIP3   OH260187   3.149   5.702   9.193
20101TIP3    H160188   3.218   5.633   9.185
20101TIP3    H260189   3.108   5.698   9.105
20102TIP3   OH260190   3.215   5.924   9.344
20102TIP3    H160191   3.188   5.853   9.282
20102TIP3    H260192   3.136   5.983   9.344
20103TIP3   OH260193   2.435   7.143   7.451
20103TIP3    H160194   2.530   7.145   7.431
20103TIP3    H260195   2.401   7.194   7.375
20104TIP3   OH260196   1.913   6.529   7.667
20104TIP3    H160197   2.009   6.549   7.658
20104TIP3    H260198   1.907   6.441   7.625
20105TIP3   OH260199   1.832   7.140   8.079
20105TIP3    H160200   1.761   7.082   8.045
20105TIP3    H260201   1.873   7.083   8.147
20106TIP3   OH260202   1.969   6.992   8.267
20106TIP3    H160203   1.952   6.921   8.331
20106TIP3    H260204   2.016   7.056   8.324
20107TIP3   OH260205   3.692   7.395   8.067
20107TIP3    H160206   3.717   7.423   8.157
20107TIP3    H260207   3.757   7.442   8.012
20108TIP3   OH260208   3.725   7.413   8.347
20108TIP3    H160209   3.679   7.327   8.346
20108TIP3    H260210   3.795   7.393   8.411
20109TIP3   OH260211   3.768   7.091   8.921
20109TIP3    H160212   3.695   7.097   8.986
20109TIP3    H260213   3.808   7.179   8.927
20110TIP3   OH260214   3.585   6.604   7.544
20110TIP3    H160215   3.654   6.667   7.517
20110TIP3    H260216   3.626   6.564   7.623
20111TIP3   OH260217   3.711   6.472   7.747
20111TIP3    H160218   3.646   6.429   7.807
20111TIP3    H260219   3.776   6.510   7.810
20112TIP3   OH260220   3.766   6.863   8.180
20112TIP3    H160221   3.820   6.799   8.129
20112TIP3    H260222   3.754   6.936   8.116
20113TIP3   OH260223   3.598   7.164   8.374
20113TIP3    H160224   3.529   7.205   8.428
20113TIP3    H260225   3.546   7.115   8.307
20114TIP3   OH260226   3.650   6.379   7.395
20114TIP3    H160227   3.578   6.382   7.328
20114TIP3    H260228   3.624   6.455   7.451
20115TIP3   OH260229   3.520   6.052   7.349
20115TIP3    H160230   3.477   6.090   7.272
20115TIP3    H260231   3.495   5.957   7.340
20116TIP3   OH260232   3.526   6.326   7.893
20116TIP3    H160233   3.535   6.230   7.890
20116TIP3    H260234   3.513   6.342   7.990
20117TIP3   OH260235   2.154   6.400   8.641
20117TIP3    H160236   2.152   6.372   8.547
20117TIP3    H260237   2.251   6.402   8.657
20118TIP3   OH260238   3.815   6.751   8.749
20118TIP3    H160239   3.889   6.686   8.741
20118TIP3    H260240   3.844   6.823   8.690
20119TIP3   OH260241   4.004   6.559   8.764
20119TIP3    H160242   3.929   6.511   8.805
20119TIP3    H260243   4.076   6.494   8.781
20120TIP3   OH260244   3.465   5.785   7.334
20120TIP3    H160245   3.542   5.757   7.387
20120TIP3    H260246   3.394   5.727   7.364
20121TIP3   OH260247   3.521   6.042   7.789
20121TIP3    H160248   3.562   5.954   7.805
20121TIP3    H260249   3.581   6.076   7.720
20122TIP3   OH260250   3.685   6.218   8.283
20122TIP3    H160251   3.771   6.244   8.244
20122TIP3    H260252   3.697   6.255   8.373
20123TIP3   OH260253   3.751   6.361   8.516
20123TIP3    H160254   3.674   6.394   8.566
20123TIP3    H260255   3.784   6.443   8.473
20124TIP3   OH260256   2.370   6.097   9.307
20124TIP3    H160257   2.468   6.090   9.313
20124TIP3    H260258   2.345   6.011   9.348
20125TIP3   OH260259   4.204   5.947   9.071
20125TIP3    H160260   4.262   5.884   9.024
20125TIP3    H260261   4.177   6.008   8.999
20126TIP3   OH260262   3.631   5.793   7.827
20126TIP3    H160263   3.680   5.777   7.911
20126TIP3    H260264   3.571   5.715   7.826
20127TIP3   OH260265   2.332   5.778   8.644
20127TIP3    H160266   2.395   5.705   8.657
20127TIP3    H260267   2.393   5.854   8.641
20128TIP3   OH260268   2.135   6.053   8.719
20128TIP3    H160269   2.184   6.048   8.635
20128TIP3    H260270   2.162   6.140   8.752
20129TIP3   OH260271   4.079   6.094   8.879
20129TIP3    H160272   3.995   6.134   8.910
20129TIP3    H260273   4.044   6.024   8.821
20130TIP3   OH260274   3.712   5.730   7.456
20130TIP3    H160275   3.755   5.656   7.409
20130TIP3    H260276   3.781   5.799   7.452
20131TIP3   OH260277   2.117   5.562   8.221
20131TIP3    H160278   2.023   5.556   8.247
20131TIP3    H260279   2.113   5.617   8.141
20132TIP3   OH260280   3.276   7.260   7.725
20132TIP3    H160281   3.329   7.245   7.645
20132TIP3    H260282   3.329   7.325   7.773
20133TIP3   OH260283   2.341   5.635   9.025
20133TIP3    H160284   2.292   5.632   9.109
20133TIP3    H260285   2.274   5.676   8.967
20134TIP3   OH260286   2.380   7.058   9.110
20134TIP3    H160287   2.286   7.034   9.097
20134TIP3    H260288   2.389   7.050   9.206
20135TIP3   OH260289   2.555   7.093   8.657
20135TIP3    H160290   2.505   7.169   8.622
20135TIP3    H260291   2.641   7.109   8.613
20136TIP3   OH260292   3.000   7.341   8.791
20136TIP3    H160293   3.039   7.341   8.881
20136TIP3    H260294   3.067   7.394   8.743
20137TIP3   OH260295   3.182   7.493   8.651
20137TIP3    H160296   3.256   7.439   8.620
20137TIP3    H260297   3.229   7.550   8.716
20138TIP3   OH260298   3.975   5.856   8.755
20138TIP3    H160299   3.883   5.852   8.724
20138TIP3    H260300   4.003   5.763   8.743
20139TIP3   OH260301   2.235   7.353   8.684
20139TIP3    H160302   2.145   7.384   8.661
20139TIP3    H260303   2.247   7.397   8.769
20140TIP3   OH260304   2.469   7.331   8.539
20140TIP3    H160305   2.383   7.343   8.587
20140TIP3    H260306   2.446   7.365   8.451
20141TIP3   OH260307   2.896   7.363   8.335
20141TIP3    H160308   2.823   7.384   8.274
20141TIP3    H260309   2.907   7.448   8.382
20142TIP3   OH260310   3.163   7.300   8.385
20142TIP3    H160311   3.068   7.316   8.369
20142TIP3    H260312   3.202   7.382   8.352
20143TIP3   OH260313   3.376   7.495   8.306
20143TIP3    H160314   3.358   7.579   8.258
20143TIP3    H260315   3.396   7.433   8.233
20144TIP3   OH260316   2.144   7.148   8.426
20144TIP3    H160317   2.169   7.123   8.518
20144TIP3    H260318   2.217   7.104   8.377
20145TIP3   OH260319   2.338   7.018   8.282
20145TIP3    H160320   2.352   6.935   8.333
20145TIP3    H260321   2.428   7.056   8.281
20146TIP3   OH260322   2.604   7.114   8.286
20146TIP3    H160323   2.635   7.022   8.278
20146TIP3    H260324   2.645   7.137   8.371
20147TIP3   OH260325   3.176   5.768   8.370
20147TIP3    H160326   3.135   5.701   8.426
20147TIP3    H260327   3.251   5.720   8.330
20148TIP3   OH260328   3.704   5.649   8.280
20148TIP3    H160329   3.740   5.702   8.206
20148TIP3    H260330   3.608   5.669   8.274
20149TIP3   OH260331   3.797   5.752   8.044
20149TIP3    H160332   3.870   5.700   8.004
20149TIP3    H260333   3.831   5.844   8.029
20150TIP3   OH260334   2.428   5.479   8.391
20150TIP3    H160335   2.336   5.445   8.391
20150TIP3    H260336   2.478   5.395   8.388
20151TIP3   OH260337   2.212   5.347   8.045
20151TIP3    H160338   2.243   5.402   7.971
20151TIP3    H260339   2.183   5.414   8.111
20152TIP3   OH260340   2.868   5.515   8.270
20152TIP3    H160341   2.931   5.563   8.214
20152TIP3    H260342   2.891   5.547   8.358
20153TIP3   OH260343   3.420   5.657   8.256
20153TIP3    H160344   3.417   5.621   8.167
20153TIP3    H260345   3.406   5.577   8.311
20154TIP3   OH260346   3.448   5.579   7.817
20154TIP3    H160347   3.361   5.620   7.829
20154TIP3    H260348   3.435   5.494   7.864
20155TIP3   OH260349   1.933   6.917   7.817
20155TIP3    H160350   1.847   6.887   7.784
20155TIP3    H260351   1.923   7.013   7.802
20156TIP3   OH260352   2.333   5.517   7.795
20156TIP3    H160353   2.377   5.441   7.751
20156TIP3    H260354   2.408   5.560   7.841
20157TIP3   OH260355   2.845   5.684   7.900
20157TIP3    H160356   2.903   5.634   7.960
20157TIP3    H260357   2.868   5.775   7.928
20158TIP3   OH260358   2.705   7.110   7.402
20158TIP3    H160359   2.793   7.133   7.365
20158TIP3    H260360   2.682   7.035   7.342
20159TIP3   OH260361   3.424   7.226   7.493
20159TIP3    H160362   3.414   7.129   7.480
20159TIP3    H260363   3.377   7.259   7.414
20160TIP3   OH260364   2.633   5.758   9.274
20160TIP3    H160365   2.605   5.685   9.332
20160TIP3    H260366   2.728   5.763   9.299
20161TIP3   OH260367   2.884   5.750   9.378
20161TIP3    H160368   2.975   5.730   9.350
20161TIP3    H260369   2.875   5.696   9.460
20162TIP3   OH260370   2.006   6.944   7.458
20162TIP3    H160371   2.000   6.977   7.549
20162TIP3    H260372   2.097   6.907   7.454
20163TIP3   OH260373   3.709   5.816   9.189
20163TIP3    H160374   3.729   5.787   9.281
20163TIP3    H260375   3.797   5.814   9.148
20164TIP3   OH260376   3.653   7.371   8.677
20164TIP3    H160377   3.571   7.337   8.635
20164TIP3    H260378   3.630   7.466   8.685
20165TIP3   OH260379   4.919   6.746   7.446
20165TIP3    H160380   4.885   6.835   7.424
20165TIP3    H260381   4.844   6.692   7.418
20166TIP3   OH260382   4.882   6.746   7.836
20166TIP3    H160383   4.942   6.714   7.905
20166TIP3    H260384   4.860   6.664   7.789
20167TIP3   OH260385   4.214   6.638   8.192
20167TIP3    H160386   4.245   6.571   8.256
20167TIP3    H260387   4.291   6.697   8.189
20168TIP3   OH260388   5.166   7.039   7.508
20168TIP3    H160389   5.108   6.989   7.566
20168TIP3    H260390   5.189   7.117   7.561
20169TIP3   OH260391   4.184   7.048   7.919
20169TIP3    H160392   4.175   6.950   7.922
20169TIP3    H260393   4.281   7.055   7.915
20170TIP3   OH260394   3.891   6.254   7.705
20170TIP3    H160395   3.841   6.336   7.718
20170TIP3    H260396   3.822   6.196   7.669
20171TIP3   OH260397   3.952   6.538   7.874
20171TIP3    H160398   4.000   6.462   7.913
20171TIP3    H260399   4.010   6.563   7.801
20172TIP3   OH260400   4.805   7.507   7.526
20172TIP3    H160401   4.853   7.436   7.478
20172TIP3    H260402   4.798   7.470   7.614
20173TIP3   OH260403   4.710   6.969   7.876
20173TIP3    H160404   4.748   6.886   7.839
20173TIP3    H260405   4.794   7.014   7.898
20174TIP3   OH260406   5.707   6.299   7.859
20174TIP3    H160407   5.747   6.370   7.915
20174TIP3    H260408   5.764   6.300   7.781
20175TIP3   OH260409   5.132   6.474   7.906
20175TIP3    H160410   5.166   6.384   7.923
20175TIP3    H260411   5.101   6.464   7.813
20176TIP3   OH260412   4.463   6.129   7.875
20176TIP3    H160413   4.441   6.201   7.812
20176TIP3    H260414   4.416   6.055   7.831
20177TIP3   OH260415   5.154   6.223   7.497
20177TIP3    H160416   5.226   6.206   7.562
20177TIP3    H260417   5.205   6.255   7.421
20178TIP3   OH260418   4.097   6.332   7.982
20178TIP3    H160419   4.179   6.311   8.029
20178TIP3    H260420   4.108   6.276   7.903
20179TIP3   OH260421   4.537   6.530   7.773
20179TIP3    H160422   4.631   6.503   7.788
20179TIP3    H260423   4.497   6.446   7.742
20180TIP3   OH260424   5.789   6.487   8.042
20180TIP3    H160425   5.706   6.540   8.045
20180TIP3    H260426   5.835   6.518   8.122
20181TIP3   OH260427   4.460   6.113   8.310
20181TIP3    H160428   4.400   6.149   8.242
20181TIP3    H260429   4.407   6.130   8.391
20182TIP3   OH260430   4.808   6.965   7.320
20182TIP3    H160431   4.766   6.940   7.237
20182TIP3    H260432   4.762   7.049   7.340
20183TIP3   OH260433   4.566   6.888   8.106
20183TIP3    H160434   4.502   6.952   8.144
20183TIP3    H260435   4.606   6.939   8.033
20184TIP3   OH260436   5.364   6.217   7.667
20184TIP3    H160437   5.356   6.157   7.743
20184TIP3    H260438   5.444   6.266   7.686
20185TIP3   OH260439   4.330   6.227   8.094
20185TIP3    H160440   4.393   6.300   8.115
20185TIP3    H260441   4.378   6.186   8.018
20186TIP3   OH260442   4.393   7.080   8.202
20186TIP3    H160443   4.367   7.166   8.164
20186TIP3    H260444   4.315   7.064   8.259
20187TIP3   OH260445   3.790   6.772   7.438
20187TIP3    H160446   3.748   6.798   7.355
20187TIP3    H260447   3.820   6.857   7.475
20188TIP3   OH260448   5.229   7.287   7.679
20188TIP3    H160449   5.139   7.279   7.718
20188TIP3    H260450   5.221   7.372   7.632
20189TIP3   OH260451   5.520   6.181   8.047
20189TIP3    H160452   5.430   6.205   8.018
20189TIP3    H260453   5.575   6.212   7.973
20190TIP3   OH260454   4.820   5.830   8.026
20190TIP3    H160455   4.802   5.735   8.040
20190TIP3    H260456   4.741   5.869   8.069
20191TIP3   OH260457   4.933   7.335   7.356
20191TIP3    H160458   4.981   7.253   7.331
20191TIP3    H260459   4.991   7.401   7.312
20192TIP3   OH260460   5.072   7.120   7.258
20192TIP3    H160461   5.040   7.041   7.211
20192TIP3    H260462   5.112   7.081   7.338
20193TIP3   OH260463   5.455   7.201   8.007
20193TIP3    H160464   5.450   7.144   7.929
20193TIP3    H260465   5.436   7.288   7.965
20194TIP3   OH260466   4.747   6.597   7.278
20194TIP3    H160467   4.665   6.645   7.255
20194TIP3    H260468   4.791   6.590   7.191
20195TIP3   OH260469   4.704   6.380   6.998
20195TIP3    H160470   4.776   6.428   7.042
20195TIP3    H260471   4.757   6.313   6.949
20196TIP3   OH260472   5.598   6.840   7.823
20196TIP3    H160473   5.589   6.919   7.879
20196TIP3    H260474   5.668   6.872   7.761
20197TIP3   OH260475   5.094   6.677   7.248
20197TIP3    H160476   5.037   6.703   7.325
20197TIP3    H260477   5.176   6.651   7.294
20198TIP3   OH260478   5.329   6.720   8.161
20198TIP3    H160479   5.324   6.801   8.215
20198TIP3    H260480   5.239   6.719   8.122
20199TIP3   OH260481   4.326   6.676   7.667
20199TIP3    H160482   4.283   6.618   7.600
20199TIP3    H260483   4.402   6.621   7.695
20200TIP3   OH260484   4.456   7.089   7.813
20200TIP3    H160485   4.433   7.042   7.732
20200TIP3    H260486   4.545   7.053   7.832
20201TIP3   OH260487   4.465   6.644   8.021
20201TIP3    H160488   4.496   6.625   7.931
20201TIP3    H260489   4.506   6.731   8.040
20202TIP3   OH260490   4.988   7.284   7.798
20202TIP3    H160491   4.972   7.364   7.851
20202TIP3    H260492   4.973   7.211   7.862
20203TIP3   OH260493   4.599   7.202   8.345
20203TIP3    H160494   4.539   7.265   8.392
20203TIP3    H260495   4.533   7.148   8.297
20204TIP3   OH260496   4.934   6.534   7.075
20204TIP3    H160497   4.993   6.593   7.126
20204TIP3    H260498   4.959   6.559   6.982
20205TIP3   OH260499   4.353   6.759   8.444
20205TIP3    H160500   4.357   6.845   8.491
20205TIP3    H260501   4.258   6.739   8.455
20206TIP3   OH260502   4.677   7.215   7.352
20206TIP3    H160503   4.754   7.271   7.371
20206TIP3    H260504   4.614   7.277   7.312
20207TIP3   OH260505   4.394   7.371   8.433
20207TIP3    H160506   4.358   7.367   8.342
20207TIP3    H260507   4.315   7.349   8.487
20208TIP3   OH260508   5.451   5.777   7.126
20208TIP3    H160509   5.368   5.795   7.175
20208TIP3    H260510   5.461   5.859   7.073
20209TIP3   OH260511   4.190   6.519   7.475
20209TIP3    H160512   4.125   6.561   7.416
20209TIP3    H260513   4.153   6.430   7.484
20210TIP3   OH260514   5.248   7.144   6.674
20210TIP3    H160515   5.257   7.240   6.658
20210TIP3    H260516   5.340   7.114   6.660
20211TIP3   OH260517   3.974   6.901   8.378
20211TIP3    H160518   3.907   6.878   8.311
20211TIP3    H260519   4.010   6.813   8.404
20212TIP3   OH260520   3.827   7.096   8.008
20212TIP3    H160521   3.923   7.088   8.004
20212TIP3    H260522   3.815   7.172   8.067
20213TIP3   OH260523   5.689   7.546   8.064
20213TIP3    H160524   5.690   7.449   8.079
20213TIP3    H260525   5.605   7.569   8.111
20214TIP3   OH260526   4.797   7.331   8.202
20214TIP3    H160527   4.797   7.424   8.234
20214TIP3    H260528   4.726   7.292   8.256
20215TIP3   OH260529   4.556   7.460   7.154
20215TIP3    H160530   4.512   7.439   7.070
20215TIP3    H260531   4.524   7.551   7.173
20216TIP3   OH260532   3.995   7.312   7.537
20216TIP3    H160533   4.043   7.300   7.622
20216TIP3    H260534   3.938   7.233   7.538
20217TIP3   OH260535   4.760   7.361   6.795
20217TIP3    H160536   4.818   7.292   6.757
20217TIP3    H260537   4.795   7.369   6.886
20218TIP3   OH260538   4.809   7.411   7.065
20218TIP3    H160539   4.721   7.419   7.108
20218TIP3    H260540   4.859   7.366   7.135
20219TIP3   OH260541   5.580   6.676   8.344
20219TIP3    H160542   5.498   6.684   8.293
20219TIP3    H260543   5.598   6.580   8.336
20220TIP3   OH260544   4.178   7.084   8.367
20220TIP3    H160545   4.227   7.068   8.450
20220TIP3    H260546   4.104   7.020   8.375
20221TIP3   OH260547   4.578   5.909   8.151
20221TIP3    H160548   4.489   5.876   8.124
20221TIP3    H260549   4.551   5.991   8.196
20222TIP3   OH260550   5.104   6.021   8.349
20222TIP3    H160551   5.144   6.031   8.437
20222TIP3    H260552   5.011   6.001   8.373
20223TIP3   OH260553   5.349   6.452   8.262
20223TIP3    H160554   5.303   6.446   8.348
20223TIP3    H260555   5.320   6.539   8.229
20224TIP3   OH260556   5.010   6.586   6.821
20224TIP3    H160557   4.976   6.557   6.734
20224TIP3    H260558   5.093   6.631   6.794
20225TIP3   OH260559   4.729   5.962   7.124
20225TIP3    H160560   4.690   5.953   7.213
20225TIP3    H260561   4.687   5.883   7.082
20226TIP3   OH260562   4.510   6.422   8.171
20226TIP3    H160563   4.457   6.442   8.251
20226TIP3    H260564   4.493   6.503   8.117
20227TIP3   OH260565   4.392   6.310   7.684
20227TIP3    H160566   4.300   6.282   7.701
20227TIP3    H260567   4.406   6.270   7.595
20228TIP3   OH260568   4.884   6.398   7.411
20228TIP3    H160569   4.830   6.467   7.368
20228TIP3    H260570   4.937   6.365   7.336
20229TIP3   OH260571   5.060   6.676   8.497
20229TIP3    H160572   5.036   6.604   8.560
20229TIP3    H260573   5.153   6.690   8.520
20230TIP3   OH260574   5.028   6.419   7.655
20230TIP3    H160575   4.974   6.448   7.579
20230TIP3    H260576   5.070   6.341   7.613
20231TIP3   OH260577   4.329   6.452   8.379
20231TIP3    H160578   4.345   6.516   8.450
20231TIP3    H260579   4.314   6.370   8.429
20232TIP3   OH260580   4.383   5.937   7.091
20232TIP3    H160581   4.371   5.928   7.188
20232TIP3    H260582   4.296   5.970   7.064
20233TIP3   OH260583   3.920   5.977   7.958
20233TIP3    H160584   3.997   6.006   8.012
20233TIP3    H260585   3.961   5.940   7.878
20234TIP3   OH260586   3.894   5.954   7.479
20234TIP3    H160587   3.942   5.993   7.402
20234TIP3    H260588   3.835   6.029   7.500
20235TIP3   OH260589   5.065   6.673   8.076
20235TIP3    H160590   5.090   6.599   8.015
20235TIP3    H260591   5.026   6.622   8.150
20236TIP3   OH260592   4.721   6.133   7.747
20236TIP3    H160593   4.637   6.128   7.796
20236TIP3    H260594   4.786   6.134   7.819
20237TIP3   OH260595   4.155   6.187   7.754
20237TIP3    H160596   4.060   6.193   7.727
20237TIP3    H260597   4.179   6.095   7.731
20238TIP3   OH260598   4.425   6.188   7.441
20238TIP3    H160599   4.519   6.197   7.418
20238TIP3    H260600   4.378   6.209   7.357
20239TIP3   OH260601   5.213   6.207   7.949
20239TIP3    H160602   5.173   6.220   8.038
20239TIP3    H260603   5.148   6.146   7.910
20240TIP3   OH260604   4.260   6.221   7.221
20240TIP3    H160605   4.191   6.171   7.174
20240TIP3    H260606   4.314   6.252   7.145
20241TIP3   OH260607   5.381   7.895   8.165
20241TIP3    H160608   5.378   7.917   8.070
20241TIP3    H260609   5.455   7.949   8.197
20242TIP3   OH260610   4.338   7.006   8.586
20242TIP3    H160611   4.416   7.039   8.634
20242TIP3    H260612   4.272   7.003   8.658
20243TIP3   OH260613   4.803   6.456   7.841
20243TIP3    H160614   4.877   6.421   7.789
20243TIP3    H260615   4.815   6.413   7.928
20244TIP3   OH260616   4.328   5.948   7.720
20244TIP3    H160617   4.295   5.867   7.765
20244TIP3    H260618   4.377   5.910   7.646
20245TIP3   OH260619   4.780   6.353   8.136
20245TIP3    H160620   4.689   6.390   8.146
20245TIP3    H260621   4.835   6.417   8.184
20246TIP3   OH260622   4.515   6.748   7.227
20246TIP3    H160623   4.444   6.682   7.217
20246TIP3    H260624   4.498   6.781   7.319
20247TIP3   OH260625   4.977   6.060   7.091
20247TIP3    H160626   4.881   6.039   7.099
20247TIP3    H260627   4.981   6.155   7.113
20248TIP3   OH260628   4.923   7.070   8.225
20248TIP3    H160629   4.932   7.040   8.316
20248TIP3    H260630   4.876   7.155   8.235
20249TIP3   OH260631   5.045   6.309   7.195
20249TIP3    H160632   5.142   6.313   7.203
20249TIP3    H260633   5.025   6.384   7.137
20250TIP3   OH260634   4.210   6.771   7.905
20250TIP3    H160635   4.248   6.741   7.820
20250TIP3    H260636   4.245   6.705   7.966
20251TIP3   OH260637   4.662   6.897   7.049
20251TIP3    H160638   4.615   6.983   7.057
20251TIP3    H260639   4.608   6.841   7.108
20252TIP3   OH260640   4.089   6.687   8.515
20252TIP3    H160641   4.107   6.675   8.610
20252TIP3    H260642   4.018   6.623   8.500
20253TIP3   OH260643   4.811   6.809   8.535
20253TIP3    H160644   4.753   6.745   8.492
20253TIP3    H260645   4.900   6.772   8.516
20254TIP3   OH260646   5.079   7.327   8.118
20254TIP3    H160647   4.982   7.321   8.131
20254TIP3    H260648   5.105   7.377   8.199
20255TIP3   OH260649   5.485   6.396   7.030
20255TIP3    H160650   5.424   6.350   6.968
20255TIP3    H260651   5.483   6.484   6.986
20256TIP3   OH260652   5.703   7.253   8.113
20256TIP3    H160653   5.605   7.247   8.103
20256TIP3    H260654   5.730   7.225   8.022
20257TIP3   OH260655   5.186   7.215   6.937
20257TIP3    H160656   5.163   7.141   6.995
20257TIP3    H260657   5.200   7.172   6.851
20258TIP3   OH260658   4.308   7.072   7.529
20258TIP3    H160659   4.309   7.153   7.475
20258TIP3    H260660   4.214   7.056   7.537
20259TIP3   OH260661   3.869   6.378   7.227
20259TIP3    H160662   3.919   6.460   7.250
20259TIP3    H260663   3.794   6.383   7.291
20260TIP3   OH260664   4.450   6.840   7.474
20260TIP3    H160665   4.414   6.929   7.492
20260TIP3    H260666   4.413   6.788   7.548
20261TIP3   OH260667   4.578   7.417   7.998
20261TIP3    H160668   4.619   7.489   7.947
20261TIP3    H260669   4.654   7.383   8.048
20262TIP3   OH260670   4.229   7.312   7.381
20262TIP3    H160671   4.143   7.318   7.427
20262TIP3    H260672   4.259   7.405   7.384
20263TIP3   OH260673   4.967   7.054   7.958
20263TIP3    H160674   4.955   7.057   8.056
20263TIP3    H260675   5.036   6.987   7.950
20264TIP3   OH260676   4.940   6.944   6.840
20264TIP3    H160677   4.993   6.920   6.918
20264TIP3    H260678   4.852   6.915   6.868
20265TIP3   OH260679   5.216   7.586   8.007
20265TIP3    H160680   5.137   7.528   8.001
20265TIP3    H260681   5.199   7.650   7.935
20266TIP3   OH260682   5.281   7.419   6.659
20266TIP3    H160683   5.320   7.490   6.605
20266TIP3    H260684   5.201   7.466   6.691
20267TIP3   OH260685   4.301   6.195   8.525
20267TIP3    H160686   4.205   6.202   8.541
20267TIP3    H260687   4.327   6.135   8.597
20268TIP3   OH260688   5.100   6.884   7.059
20268TIP3    H160689   5.090   6.813   7.125
20268TIP3    H260690   5.197   6.879   7.042
20269TIP3   OH260691   4.019   7.281   8.156
20269TIP3    H160692   4.069   7.204   8.187
20269TIP3    H260693   4.041   7.345   8.224
20270TIP3   OH260694   4.307   6.924   6.838
20270TIP3    H160695   4.323   6.833   6.809
20270TIP3    H260696   4.288   6.911   6.933
20271TIP3   OH260697   4.253   6.929   7.111
20271TIP3    H160698   4.324   6.900   7.170
20271TIP3    H260699   4.259   7.027   7.119
20272TIP3   OH260700   3.989   6.622   7.313
20272TIP3    H160701   3.923   6.666   7.371
20272TIP3    H260702   4.005   6.692   7.247
20273TIP3   OH260703   5.134   6.260   8.207
20273TIP3    H160704   5.215   6.297   8.245
20273TIP3    H260705   5.121   6.178   8.259
20274TIP3   OH260706   5.014   6.013   7.371
20274TIP3    H160707   4.999   6.033   7.276
20274TIP3    H260708   5.053   6.096   7.404
20275TIP3   OH260709   4.519   7.127   7.061
20275TIP3    H160710   4.432   7.156   7.095
20275TIP3    H260711   4.535   7.196   6.994
20276TIP3   OH260712   4.710   6.190   7.474
20276TIP3    H160713   4.775   6.261   7.456
20276TIP3    H260714   4.713   6.185   7.572
20277TIP3   OH260715   4.976   6.511   8.279
20277TIP3    H160716   4.995   6.566   8.358
20277TIP3    H260717   5.031   6.432   8.293
20278TIP3   OH260718   4.856   5.922   7.581
20278TIP3    H160719   4.839   6.003   7.632
20278TIP3    H260720   4.913   5.956   7.509
20279TIP3   OH260721   4.261   7.203   7.126
20279TIP3    H160722   4.231   7.272   7.063
20279TIP3    H260723   4.245   7.246   7.213
20280TIP3   OH260724   4.360   5.914   7.368
20280TIP3    H160725   4.361   6.005   7.402
20280TIP3    H260726   4.455   5.892   7.373
20281TIP3   OH260727   5.616   6.409   8.267
20281TIP3    H160728   5.518   6.406   8.267
20281TIP3    H260729   5.635   6.371   8.180
20282TIP3   OH260730   3.979   6.834   7.119
20282TIP3    H160731   4.046   6.905   7.129
20282TIP3    H260732   4.025   6.779   7.053
20283TIP3   OH260733   3.926   6.109   7.255
20283TIP3    H160734   3.924   6.207   7.247
20283TIP3    H260735   3.844   6.083   7.213
20284TIP3   OH260736   5.236   7.558   7.600
20284TIP3    H160737   5.193   7.605   7.525
20284TIP3    H260738   5.330   7.578   7.579
20285TIP3   OH260739   4.313   5.828   8.127
20285TIP3    H160740   4.281   5.796   8.040
20285TIP3    H260741   4.302   5.749   8.184
20286TIP3   OH260742   3.854   7.050   7.509
20286TIP3    H160743   3.781   7.078   7.565
20286TIP3    H260744   3.827   7.088   7.422
20287TIP3   OH260745   4.008   7.586   8.574
20287TIP3    H160746   4.092   7.586   8.625
20287TIP3    H260747   3.984   7.492   8.578
20288TIP3   OH260748   4.493   7.555   8.621
20288TIP3    H160749   4.586   7.532   8.629
20288TIP3    H260750   4.465   7.495   8.548
20289TIP3   OH260751   4.471   7.128   6.753
20289TIP3    H160752   4.415   7.056   6.791
20289TIP3    H260753   4.546   7.077   6.719
20290TIP3   OH260754   5.132   7.457   8.354
20290TIP3    H160755   5.120   7.388   8.423
20290TIP3    H260756   5.207   7.509   8.389
20291TIP3   OH260757   4.907   7.170   6.663
20291TIP3    H160758   4.952   7.106   6.720
20291TIP3    H260759   4.963   7.170   6.582
20292TIP3   OH260760   4.140   6.995   8.778
20292TIP3    H160761   4.156   6.899   8.784
20292TIP3    H260762   4.050   6.997   8.737
20293TIP3   OH260763   4.115   6.646   6.971
20293TIP3    H160764   4.169   6.609   7.044
20293TIP3    H260765   4.183   6.649   6.900
20294TIP3   OH260766   4.748   7.079   8.552
20294TIP3    H160767   4.704   7.093   8.466
20294TIP3    H260768   4.777   6.985   8.546
20295TIP3   OH260769   4.622   6.843   6.779
20295TIP3    H160770   4.626   6.856   6.876
20295TIP3    H260771   4.624   6.745   6.774
20296TIP3   OH260772   5.243   7.082   8.152
20296TIP3    H160773   5.312   7.135   8.109
20296TIP3    H260774   5.166   7.142   8.146
20297TIP3   OH260775   4.258   6.731   8.761
20297TIP3    H160776   4.319   6.657   8.752
20297TIP3    H260777   4.280   6.763   8.851
20298TIP3   OH260778   4.324   6.548   7.195
20298TIP3    H160779   4.298   6.504   7.277
20298TIP3    H260780   4.360   6.474   7.142
20299TIP3   OH260781   4.596   6.614   8.428
20299TIP3    H160782   4.516   6.670   8.430
20299TIP3    H260783   4.641   6.647   8.346
20300TIP3   OH260784   4.424   6.343   7.036
20300TIP3    H160785   4.397   6.338   6.942
20300TIP3    H260786   4.521   6.348   7.028
20301TIP3   OH260787   5.110   7.016   8.557
20301TIP3    H160788   5.193   6.994   8.513
20301TIP3    H260789   5.099   6.944   8.621
20302TIP3   OH260790   5.246   6.674   6.698
20302TIP3    H160791   5.227   6.625   6.615
20302TIP3    H260792   5.215   6.763   6.671
20303TIP3   OH260793   4.723   6.398   8.547
20303TIP3    H160794   4.716   6.318   8.490
20303TIP3    H260795   4.677   6.465   8.492
20304TIP3   OH260796   4.718   6.186   8.356
20304TIP3    H160797   4.744   6.228   8.271
20304TIP3    H260798   4.624   6.163   8.338
20305TIP3   OH260799   4.747   6.725   8.229
20305TIP3    H160800   4.825   6.729   8.172
20305TIP3    H260801   4.688   6.791   8.187
20306TIP3   OH260802   5.328   6.692   8.610
20306TIP3    H160803   5.378   6.610   8.623
20306TIP3    H260804   5.398   6.752   8.579
20307TIP3   OH260805   5.370   6.942   8.344
20307TIP3    H160806   5.312   6.995   8.285
20307TIP3    H260807   5.458   6.961   8.303
20308TIP3   OH260808   4.607   6.518   8.776
20308TIP3    H160809   4.527   6.467   8.801
20308TIP3    H260810   4.622   6.490   8.685
20309TIP3   OH260811   4.849   5.952   8.420
20309TIP3    H160812   4.798   6.034   8.398
20309TIP3    H260813   4.780   5.884   8.409
20310TIP3   OH260814   4.979   6.456   8.638
20310TIP3    H160815   4.972   6.424   8.727
20310TIP3    H260816   4.888   6.437   8.604
20311TIP3   OH260817   5.217   6.400   8.491
20311TIP3    H160818   5.142   6.408   8.553
20311TIP3    H260819   5.291   6.373   8.550
20312TIP3   OH260820   5.436   6.341   8.646
20312TIP3    H160821   5.454   6.246   8.665
20312TIP3    H260822   5.439   6.382   8.735
20313TIP3   OH260823   4.437   6.298   8.826
20313TIP3    H160824   4.438   6.205   8.795
20313TIP3    H260825   4.467   6.285   8.919
20314TIP3   OH260826   4.954   5.966   8.674
20314TIP3    H160827   5.015   5.890   8.670
20314TIP3    H260828   4.906   5.957   8.589
20315TIP3   OH260829   5.002   6.182   8.833
20315TIP3    H160830   4.992   6.104   8.774
20315TIP3    H260831   4.915   6.224   8.822
20316TIP3   OH260832   4.231   7.406   6.940
20316TIP3    H160833   4.327   7.402   6.920
20316TIP3    H260834   4.200   7.453   6.860
20317TIP3   OH260835   3.711   6.787   7.155
20317TIP3    H160836   3.806   6.809   7.143
20317TIP3    H260837   3.707   6.698   7.114
20318TIP3   OH260838   3.625   7.400   7.569
20318TIP3    H160839   3.558   7.337   7.534
20318TIP3    H260840   3.669   7.343   7.636
20319TIP3   OH260841   3.761   7.253   7.756
20319TIP3    H160842   3.750   7.177   7.816
20319TIP3    H260843   3.810   7.313   7.815
20320TIP3   OH260844   5.487   7.653   7.555
20320TIP3    H160845   5.519   7.686   7.641
20320TIP3    H260846   5.551   7.690   7.493
20321TIP3   OH260847   5.520   7.672   7.839
20321TIP3    H160848   5.474   7.586   7.831
20321TIP3    H260849   5.595   7.645   7.894
20322TIP3   OH260850   5.562   7.348   8.407
20322TIP3    H160851   5.491   7.353   8.474
20322TIP3    H260852   5.604   7.436   8.415
20323TIP3   OH260853   5.379   6.863   7.030
20323TIP3    H160854   5.448   6.925   7.000
20323TIP3    H260855   5.422   6.822   7.108
20324TIP3   OH260856   5.505   6.729   7.232
20324TIP3    H160857   5.447   6.683   7.295
20324TIP3    H260858   5.578   6.763   7.289
20325TIP3   OH260859   5.572   7.113   7.679
20325TIP3    H160860   5.617   7.058   7.614
20325TIP3    H260861   5.544   7.189   7.624
20326TIP3   OH260862   5.393   7.423   7.863
20326TIP3    H160863   5.321   7.467   7.913
20326TIP3    H260864   5.342   7.375   7.794
20327TIP3   OH260865   5.446   6.636   6.883
20327TIP3    H160866   5.375   6.637   6.814
20327TIP3    H260867   5.418   6.714   6.935
20328TIP3   OH260868   5.315   6.310   6.839
20328TIP3    H160869   5.280   6.347   6.757
20328TIP3    H260870   5.290   6.215   6.829
20329TIP3   OH260871   5.327   6.573   7.391
20329TIP3    H160872   5.334   6.481   7.358
20329TIP3    H260873   5.286   6.560   7.477
20330TIP3   OH260874   3.949   6.658   8.126
20330TIP3    H160875   3.948   6.627   8.033
20330TIP3    H260876   4.046   6.659   8.143
20331TIP3   OH260877   5.610   7.008   8.230
20331TIP3    H160878   5.684   6.942   8.229
20331TIP3    H260879   5.649   7.082   8.179
20332TIP3   OH260880   5.793   6.816   8.261
20332TIP3    H160881   5.720   6.762   8.300
20332TIP3    H260882   5.868   6.755   8.276
20333TIP3   OH260883   5.260   6.045   6.826
20333TIP3    H160884   5.335   6.010   6.878
20333TIP3    H260885   5.187   5.984   6.847
20334TIP3   OH260886   5.325   6.306   7.277
20334TIP3    H160887   5.360   6.216   7.294
20334TIP3    H260888   5.380   6.331   7.200
20335TIP3   OH260889   5.474   6.540   7.756
20335TIP3    H160890   5.557   6.495   7.737
20335TIP3    H260891   5.459   6.512   7.850
20336TIP3   OH260892   5.550   6.626   8.017
20336TIP3    H160893   5.468   6.649   8.067
20336TIP3    H260894   5.569   6.710   7.973
20337TIP3   OH260895   4.168   6.345   8.799
20337TIP3    H160896   4.266   6.340   8.805
20337TIP3    H260897   4.143   6.262   8.844
20338TIP3   OH260898   5.995   6.203   8.560
20338TIP3    H160899   6.057   6.140   8.518
20338TIP3    H260900   5.973   6.263   8.486
20339TIP3   OH260901   5.424   6.053   7.317
20339TIP3    H160902   5.474   6.032   7.398
20339TIP3    H260903   5.365   5.975   7.312
20340TIP3   OH260904   4.128   6.036   8.133
20340TIP3    H160905   4.190   5.961   8.143
20340TIP3    H260906   4.190   6.111   8.128
20341TIP3   OH260907   3.931   6.310   8.206
20341TIP3    H160908   3.980   6.303   8.122
20341TIP3    H260909   3.960   6.397   8.238
20342TIP3   OH260910   5.872   6.351   8.369
20342TIP3    H160911   5.783   6.389   8.383
20342TIP3    H260912   5.852   6.280   8.306
20343TIP3   OH260913   5.511   5.985   6.947
20343TIP3    H160914   5.549   5.913   6.893
20343TIP3    H260915   5.577   6.056   6.936
20344TIP3   OH260916   3.914   5.816   7.709
20344TIP3    H160917   3.819   5.812   7.733
20344TIP3    H260918   3.912   5.872   7.629
20345TIP3   OH260919   5.073   7.517   7.214
20345TIP3    H160920   5.121   7.499   7.131
20345TIP3    H260921   5.130   7.584   7.255
20346TIP3   OH260922   4.134   5.892   8.522
20346TIP3    H160923   4.084   5.889   8.605
20346TIP3    H260924   4.067   5.932   8.462
20347TIP3   OH260925   4.175   7.318   8.601
20347TIP3    H160926   4.083   7.292   8.582
20347TIP3    H260927   4.180   7.301   8.696
20348TIP3   OH260928   4.352   7.351   8.147
20348TIP3    H160929   4.302   7.426   8.109
20348TIP3    H260930   4.437   7.366   8.101
20349TIP3   OH260931   4.798   7.597   8.283
20349TIP3    H160932   4.838   7.598   8.372
20349TIP3    H260933   4.864   7.649   8.232
20350TIP3   OH260934   4.976   7.749   8.141
20350TIP3    H160935   5.048   7.697   8.102
20350TIP3    H260936   5.027   7.806   8.203
20351TIP3   OH260937   5.769   6.114   8.240
20351TIP3    H160938   5.678   6.109   8.206
20351TIP3    H260939   5.800   6.021   8.230
20352TIP3   OH260940   4.030   7.615   8.166
20352TIP3    H160941   3.939   7.647   8.147
20352TIP3    H260942   4.038   7.640   8.259
20353TIP3   OH260943   4.266   7.590   8.027
20353TIP3    H160944   4.180   7.602   8.074
20353TIP3    H260945   4.244   7.620   7.937
20354TIP3   OH260946   4.692   7.619   7.824
20354TIP3    H160947   4.622   7.639   7.760
20354TIP3    H260948   4.704   7.706   7.868
20355TIP3   OH260949   4.959   7.558   7.875
20355TIP3    H160950   4.865   7.573   7.857
20355TIP3    H260951   5.000   7.635   7.833
20356TIP3   OH260952   5.170   7.752   7.792
20356TIP3    H160953   5.153   7.836   7.744
20356TIP3    H260954   5.193   7.691   7.718
20357TIP3   OH260955   3.942   7.408   7.915
20357TIP3    H160956   3.967   7.379   8.005
20357TIP3    H260957   4.012   7.361   7.864
20358TIP3   OH260958   4.133   7.276   7.770
20358TIP3    H160959   4.147   7.191   7.819
20358TIP3    H260960   4.224   7.311   7.767
20359TIP3   OH260961   4.401   7.372   7.773
20359TIP3    H160962   4.430   7.280   7.760
20359TIP3    H260963   4.443   7.391   7.858
20360TIP3   OH260964   4.981   6.029   7.870
20360TIP3    H160965   4.932   5.959   7.917
20360TIP3    H260966   5.040   5.978   7.813
20361TIP3   OH260967   5.501   5.912   7.774
20361TIP3    H160968   5.538   5.958   7.695
20361TIP3    H260969   5.405   5.921   7.759
20362TIP3   OH260970   5.594   6.008   7.534
20362TIP3    H160971   5.665   5.954   7.492
20362TIP3    H260972   5.630   6.098   7.516
20363TIP3   OH260973   4.223   5.737   7.880
20363TIP3    H160974   4.131   5.703   7.879
20363TIP3    H260975   4.273   5.653   7.876
20364TIP3   OH260976   4.004   5.603   7.522
20364TIP3    H160977   4.042   5.660   7.453
20364TIP3    H260978   3.981   5.668   7.591
20365TIP3   OH260979   4.664   5.775   7.752
20365TIP3    H160980   4.729   5.822   7.697
20365TIP3    H260981   4.688   5.803   7.841
20366TIP3   OH260982   5.224   5.916   7.737
20366TIP3    H160983   5.209   5.881   7.648
20366TIP3    H260984   5.205   5.837   7.793
20367TIP3   OH260985   5.245   5.837   7.306
20367TIP3    H160986   5.156   5.875   7.311
20367TIP3    H260987   5.230   5.751   7.350
20368TIP3   OH260988   3.728   7.174   7.305
20368TIP3    H160989   3.643   7.141   7.271
20368TIP3    H260990   3.716   7.269   7.288
20369TIP3   OH260991   4.127   5.765   7.288
20369TIP3    H160992   4.173   5.698   7.234
20369TIP3    H260993   4.202   5.815   7.325
20370TIP3   OH260994   4.637   5.940   7.389
20370TIP3    H160995   4.696   5.887   7.444
20370TIP3    H260996   4.664   6.031   7.415
20371TIP3   OH260997   4.500   7.366   6.887
20371TIP3    H160998   4.588   7.387   6.851
20371TIP3    H260999   4.477   7.290   6.829
20372TIP3   OH261000   5.217   7.482   6.981
20372TIP3    H161001   5.209   7.384   6.967
20372TIP3    H261002   5.174   7.515   6.899
20373TIP3   OH261003   4.434   6.020   8.771
20373TIP3    H161004   4.398   5.949   8.827
20373TIP3    H261005   4.528   6.019   8.798
20374TIP3   OH261006   4.688   6.012   8.890
20374TIP3    H161007   4.768   5.972   8.853
20374TIP3    H261008   4.664   5.946   8.958
20375TIP3   OH261009   3.804   7.202   6.945
20375TIP3    H161010   3.803   7.227   7.039
20375TIP3    H261011   3.893   7.160   6.935
20376TIP3   OH261012   5.501   6.075   8.680
20376TIP3    H161013   5.525   6.042   8.769
20376TIP3    H261014   5.586   6.068   8.632
20377TIP3   OH261015   5.445   7.626   8.169
20377TIP3    H161016   5.366   7.594   8.122
20377TIP3    H261017   5.424   7.722   8.172
20378TIP3   OH261018   6.713   6.999   6.933
20378TIP3    H161019   6.684   7.091   6.915
20378TIP3    H261020   6.634   6.950   6.904
20379TIP3   OH261021   6.706   6.997   7.317
20379TIP3    H161022   6.742   6.969   7.403
20379TIP3    H261023   6.666   6.915   7.284
20380TIP3   OH261024   6.014   6.894   7.696
20380TIP3    H161025   6.069   6.828   7.741
20380TIP3    H261026   6.084   6.938   7.644
20381TIP3   OH261027   6.953   7.302   6.997
20381TIP3    H161028   6.940   7.233   7.063
20381TIP3    H261029   6.979   7.378   7.052
20382TIP3   OH261030   5.980   7.300   7.410
20382TIP3    H161031   5.972   7.202   7.410
20382TIP3    H261032   6.077   7.309   7.400
20383TIP3   OH261033   5.682   6.505   7.196
20383TIP3    H161034   5.636   6.591   7.198
20383TIP3    H261035   5.615   6.451   7.151
20384TIP3   OH261036   5.743   6.792   7.361
20384TIP3    H161037   5.796   6.716   7.395
20384TIP3    H261038   5.805   6.831   7.298
20385TIP3   OH261039   6.601   7.761   7.015
20385TIP3    H161040   6.647   7.690   6.965
20385TIP3    H261041   6.611   7.730   7.106
20386TIP3   OH261042   6.508   7.225   7.364
20386TIP3    H161043   6.546   7.147   7.320
20386TIP3    H261044   6.592   7.271   7.386
20387TIP3   OH261045   7.497   6.555   7.357
20387TIP3    H161046   7.549   6.615   7.413
20387TIP3    H261047   7.534   6.574   7.270
20388TIP3   OH261048   6.923   6.731   7.395
20388TIP3    H161049   6.963   6.644   7.417
20388TIP3    H261050   6.891   6.713   7.304
20389TIP3   OH261051   6.260   6.384   7.365
20389TIP3    H161052   6.240   6.459   7.306
20389TIP3    H261053   6.210   6.313   7.319
20390TIP3   OH261054   6.953   6.474   6.985
20390TIP3    H161055   7.024   6.460   7.052
20390TIP3    H261056   7.005   6.512   6.912
20391TIP3   OH261057   5.890   6.587   7.465
20391TIP3    H161058   5.977   6.571   7.510
20391TIP3    H261059   5.906   6.533   7.385
20392TIP3   OH261060   6.331   6.787   7.262
20392TIP3    H161061   6.426   6.763   7.277
20392TIP3    H261062   6.295   6.701   7.231
20393TIP3   OH261063   7.603   6.767   7.518
20393TIP3    H161064   7.512   6.801   7.521
20393TIP3    H261065   7.607   6.713   7.599
20394TIP3   OH261066   6.605   7.222   6.804
20394TIP3    H161067   6.560   7.198   6.722
20394TIP3    H261068   6.560   7.306   6.826
20395TIP3   OH261069   6.366   7.142   7.596
20395TIP3    H161070   6.303   7.207   7.632
20395TIP3    H261071   6.408   7.192   7.523
20396TIP3   OH261072   7.164   6.478   7.157
20396TIP3    H161073   7.155   6.434   7.242
20396TIP3    H261074   7.220   6.554   7.182
20397TIP3   OH261075   6.116   6.492   7.581
20397TIP3    H161076   6.178   6.531   7.647
20397TIP3    H261077   6.181   6.459   7.516
20398TIP3   OH261078   6.188   7.338   7.690
20398TIP3    H161079   6.164   7.423   7.648
20398TIP3    H261080   6.109   7.324   7.746
20399TIP3   OH261081   5.584   7.028   6.926
20399TIP3    H161082   5.545   7.052   6.839
20399TIP3    H261083   5.614   7.114   6.960
20400TIP3   OH261084   7.023   7.541   7.161
20400TIP3    H161085   6.934   7.533   7.205
20400TIP3    H261086   7.015   7.631   7.122
20401TIP3   OH261087   7.305   6.436   7.522
20401TIP3    H161088   7.225   6.482   7.494
20401TIP3    H261089   7.373   6.474   7.461
20402TIP3   OH261090   6.611   6.089   7.508
20402TIP3    H161091   6.601   5.994   7.527
20402TIP3    H261092   6.535   6.125   7.557
20403TIP3   OH261093   6.724   7.591   6.836
20403TIP3    H161094   6.776   7.510   6.817
20403TIP3    H261095   6.785   7.658   6.796
20404TIP3   OH261096   6.870   7.376   6.744
20404TIP3    H161097   6.828   7.296   6.709
20404TIP3    H261098   6.906   7.343   6.829
20405TIP3   OH261099   7.261   7.456   7.508
20405TIP3    H161100   7.240   7.380   7.449
20405TIP3    H261101   7.225   7.531   7.457
20406TIP3   OH261102   6.540   6.850   6.764
20406TIP3    H161103   6.460   6.901   6.740
20406TIP3    H261104   6.588   6.848   6.679
20407TIP3   OH261105   6.500   6.635   6.483
20407TIP3    H161106   6.569   6.684   6.532
20407TIP3    H261107   6.556   6.571   6.435
20408TIP3   OH261108   7.450   7.102   7.355
20408TIP3    H161109   7.363   7.148   7.360
20408TIP3    H261110   7.472   7.117   7.261
20409TIP3   OH261111   6.890   6.933   6.737
20409TIP3    H161112   6.835   6.958   6.815
20409TIP3    H261113   6.972   6.906   6.782
20410TIP3   OH261114   7.123   6.975   7.649
20410TIP3    H161115   7.116   7.061   7.693
20410TIP3    H261116   7.036   6.971   7.604
20411TIP3   OH261117   6.121   6.934   7.153
20411TIP3    H161118   6.082   6.873   7.087
20411TIP3    H261119   6.197   6.883   7.186
20412TIP3   OH261120   6.248   7.340   7.305
20412TIP3    H161121   6.233   7.296   7.220
20412TIP3    H261122   6.340   7.311   7.325
20413TIP3   OH261123   6.224   6.925   7.496
20413TIP3    H161124   6.276   6.876   7.429
20413TIP3    H261125   6.292   6.986   7.532
20414TIP3   OH261126   6.784   7.540   7.284
20414TIP3    H161127   6.776   7.623   7.334
20414TIP3    H261128   6.768   7.470   7.351
20415TIP3   OH261129   6.389   7.458   7.843
20415TIP3    H161130   6.327   7.522   7.883
20415TIP3    H261131   6.328   7.404   7.789
20416TIP3   OH261132   6.731   6.791   6.564
20416TIP3    H161133   6.790   6.850   6.617
20416TIP3    H261134   6.757   6.816   6.472
20417TIP3   OH261135   6.150   7.023   7.934
20417TIP3    H161136   6.149   7.109   7.981
20417TIP3    H261137   6.056   7.004   7.921
20418TIP3   OH261138   6.471   7.472   6.839
20418TIP3    H161139   6.551   7.524   6.857
20418TIP3    H261140   6.412   7.539   6.801
20419TIP3   OH261141   6.186   7.636   7.918
20419TIP3    H161142   6.156   7.630   7.825
20419TIP3    H261143   6.105   7.610   7.968
20420TIP3   OH261144   7.242   6.035   6.610
20420TIP3    H161145   7.162   6.054   6.663
20420TIP3    H261146   7.255   6.119   6.562
20421TIP3   OH261147   5.986   6.774   6.961
20421TIP3    H161148   5.922   6.818   6.901
20421TIP3    H261149   5.950   6.686   6.968
20422TIP3   OH261150   7.043   7.400   6.159
20422TIP3    H161151   7.052   7.497   6.146
20422TIP3    H261152   7.136   7.371   6.146
20423TIP3   OH261153   5.771   7.160   7.869
20423TIP3    H161154   5.712   7.139   7.793
20423TIP3    H261155   5.808   7.072   7.893
20424TIP3   OH261156   5.624   7.347   7.505
20424TIP3    H161157   5.718   7.340   7.486
20424TIP3    H261158   5.619   7.430   7.555
20425TIP3   OH261159   7.480   7.795   7.553
20425TIP3    H161160   7.480   7.697   7.562
20425TIP3    H261161   7.392   7.817   7.592
20426TIP3   OH261162   6.569   7.588   7.680
20426TIP3    H161163   6.590   7.676   7.715
20426TIP3    H261164   6.509   7.552   7.749
20427TIP3   OH261165   6.351   7.717   6.641
20427TIP3    H161166   6.308   7.698   6.556
20427TIP3    H261167   6.321   7.807   6.660
20428TIP3   OH261168   5.791   7.567   7.025
20428TIP3    H161169   5.840   7.556   7.109
20428TIP3    H261170   5.735   7.487   7.026
20429TIP3   OH261171   6.555   7.618   6.282
20429TIP3    H161172   6.614   7.548   6.245
20429TIP3    H261173   6.590   7.626   6.373
20430TIP3   OH261174   6.604   7.666   6.553
20430TIP3    H161175   6.517   7.674   6.596
20430TIP3    H261176   6.657   7.626   6.624
20431TIP3   OH261177   7.383   6.944   7.823
20431TIP3    H161178   7.302   6.950   7.771
20431TIP3    H261179   7.405   6.849   7.809
20432TIP3   OH261180   5.972   7.348   7.861
20432TIP3    H161181   6.027   7.324   7.938
20432TIP3    H261182   5.901   7.281   7.865
20433TIP3   OH261183   6.372   6.172   7.642
20433TIP3    H161184   6.279   6.146   7.622
20433TIP3    H261185   6.363   6.268   7.647
20434TIP3   OH261186   6.907   6.277   7.834
20434TIP3    H161187   6.978   6.252   7.897
20434TIP3    H261188   6.825   6.259   7.884
20435TIP3   OH261189   7.137   6.701   7.744
20435TIP3    H161190   7.097   6.702   7.834
20435TIP3    H261191   7.121   6.792   7.713
20436TIP3   OH261192   6.806   6.839   6.307
20436TIP3    H161193   6.773   6.813   6.220
20436TIP3    H261194   6.886   6.889   6.283
20437TIP3   OH261195   6.519   6.214   6.609
20437TIP3    H161196   6.488   6.212   6.701
20437TIP3    H261197   6.481   6.130   6.577
20438TIP3   OH261198   6.189   6.564   7.172
20438TIP3    H161199   6.096   6.537   7.189
20438TIP3    H261200   6.203   6.524   7.084
20439TIP3   OH261201   6.678   6.651   6.897
20439TIP3    H161202   6.625   6.723   6.856
20439TIP3    H261203   6.733   6.622   6.822
20440TIP3   OH261204   6.856   6.936   7.991
20440TIP3    H161205   6.830   6.860   8.048
20440TIP3    H261206   6.952   6.938   8.006
20441TIP3   OH261207   6.839   6.681   7.137
20441TIP3    H161208   6.777   6.709   7.068
20441TIP3    H261209   6.870   6.597   7.096
20442TIP3   OH261210   6.175   6.186   6.575
20442TIP3    H161211   6.166   6.184   6.673
20442TIP3    H261212   6.095   6.236   6.551
20443TIP3   OH261213   5.718   6.235   7.453
20443TIP3    H161214   5.799   6.264   7.499
20443TIP3    H261215   5.750   6.201   7.368
20444TIP3   OH261216   5.691   6.212   6.967
20444TIP3    H161217   5.736   6.249   6.888
20444TIP3    H261218   5.630   6.285   6.987
20445TIP3   OH261219   6.850   6.929   7.560
20445TIP3    H161220   6.881   6.855   7.502
20445TIP3    H261221   6.819   6.878   7.638
20446TIP3   OH261222   6.514   6.387   7.232
20446TIP3    H161223   6.433   6.387   7.287
20446TIP3    H261224   6.584   6.392   7.299
20447TIP3   OH261225   5.948   6.442   7.240
20447TIP3    H161226   5.854   6.444   7.212
20447TIP3    H261227   5.977   6.352   7.216
20448TIP3   OH261228   6.220   6.439   6.929
20448TIP3    H161229   6.315   6.455   6.911
20448TIP3    H261230   6.176   6.465   6.845
20449TIP3   OH261231   7.001   6.467   7.430
20449TIP3    H161232   6.970   6.477   7.523
20449TIP3    H261233   6.936   6.403   7.395
20450TIP3   OH261234   6.058   6.476   6.707
20450TIP3    H161235   5.989   6.429   6.657
20450TIP3    H261236   6.112   6.511   6.633
20451TIP3   OH261237   7.176   8.149   7.654
20451TIP3    H161238   7.173   8.170   7.559
20451TIP3    H261239   7.252   8.204   7.683
20452TIP3   OH261240   6.130   7.269   8.075
20452TIP3    H161241   6.215   7.291   8.119
20452TIP3    H261242   6.071   7.263   8.153
20453TIP3   OH261243   6.596   6.719   7.328
20453TIP3    H161244   6.673   6.673   7.292
20453TIP3    H261245   6.595   6.685   7.421
20454TIP3   OH261246   6.119   6.206   7.206
20454TIP3    H161247   6.090   6.124   7.251
20454TIP3    H261248   6.176   6.172   7.136
20455TIP3   OH261249   6.584   6.635   7.591
20455TIP3    H161250   6.503   6.619   7.644
20455TIP3    H261251   6.643   6.670   7.659
20456TIP3   OH261252   6.311   7.005   6.712
20456TIP3    H161253   6.239   6.939   6.702
20456TIP3    H261254   6.295   7.038   6.804
20457TIP3   OH261255   7.212   7.239   7.344
20457TIP3    H161256   7.235   7.288   7.263
20457TIP3    H261257   7.126   7.198   7.320
20458TIP3   OH261258   6.770   6.318   6.572
20458TIP3    H161259   6.674   6.301   6.584
20458TIP3    H261260   6.781   6.412   6.599
20459TIP3   OH261261   6.728   7.336   7.706
20459TIP3    H161262   6.721   7.302   7.796
20459TIP3    H261263   6.680   7.420   7.708
20460TIP3   OH261264   6.841   6.562   6.678
20460TIP3    H161265   6.937   6.568   6.696
20460TIP3    H261266   6.823   6.643   6.626
20461TIP3   OH261267   5.993   7.015   7.387
20461TIP3    H161268   6.028   6.999   7.298
20461TIP3    H261269   6.066   6.976   7.440
20462TIP3   OH261270   6.458   7.153   6.534
20462TIP3    H161271   6.411   7.239   6.542
20462TIP3    H261272   6.404   7.097   6.594
20463TIP3   OH261273   5.868   6.944   8.010
20463TIP3    H161274   5.918   6.959   8.093
20463TIP3    H261275   5.848   6.850   8.021
20464TIP3   OH261276   6.608   7.063   8.029
20464TIP3    H161277   6.540   7.006   7.985
20464TIP3    H261278   6.690   7.025   7.991
20465TIP3   OH261279   7.285   6.651   6.514
20465TIP3    H161280   7.221   6.606   6.454
20465TIP3    H261281   7.279   6.741   6.474
20466TIP3   OH261282   7.506   7.514   7.597
20466TIP3    H161283   7.408   7.503   7.586
20466TIP3    H261284   7.534   7.482   7.508
20467TIP3   OH261285   6.982   7.472   6.424
20467TIP3    H161286   6.958   7.403   6.487
20467TIP3    H261287   6.994   7.424   6.340
20468TIP3   OH261288   6.978   7.102   7.263
20468TIP3    H161289   6.885   7.075   7.277
20468TIP3    H261290   7.013   7.022   7.218
20469TIP3   OH261291   6.104   7.329   7.017
20469TIP3    H161292   6.110   7.410   6.963
20469TIP3    H261293   6.009   7.313   7.018
20470TIP3   OH261294   5.669   6.633   6.718
20470TIP3    H161295   5.716   6.717   6.738
20470TIP3    H261296   5.591   6.641   6.778
20471TIP3   OH261297   6.245   7.096   6.959
20471TIP3    H161298   6.210   7.185   6.979
20471TIP3    H261299   6.211   7.045   7.034
20472TIP3   OH261300   6.373   7.671   7.485
20472TIP3    H161301   6.419   7.741   7.434
20472TIP3    H261302   6.449   7.634   7.536
20473TIP3   OH261303   6.025   7.569   6.868
20473TIP3    H161304   5.939   7.577   6.913
20473TIP3    H261305   6.057   7.662   6.871
20474TIP3   OH261306   6.765   7.307   7.440
20474TIP3    H161307   6.757   7.307   7.538
20474TIP3    H261308   6.844   7.252   7.428
20475TIP3   OH261309   6.736   7.199   6.325
20475TIP3    H161310   6.790   7.175   6.404
20475TIP3    H261311   6.648   7.173   6.356
20476TIP3   OH261312   7.077   7.676   6.146
20476TIP3    H161313   7.116   7.748   6.094
20476TIP3    H261314   6.997   7.721   6.179
20477TIP3   OH261315   6.088   6.454   8.087
20477TIP3    H161316   6.021   6.446   8.018
20477TIP3    H261317   6.128   6.366   8.090
20478TIP3   OH261318   6.897   7.133   6.541
20478TIP3    H161319   6.887   7.067   6.613
20478TIP3    H261320   6.994   7.132   6.530
20479TIP3   OH261321   5.811   7.538   7.646
20479TIP3    H161322   5.864   7.460   7.667
20479TIP3    H261323   5.852   7.603   7.705
20480TIP3   OH261324   6.103   7.181   6.326
20480TIP3    H161325   6.118   7.090   6.295
20480TIP3    H261326   6.085   7.167   6.420
20481TIP3   OH261327   6.048   7.185   6.600
20481TIP3    H161328   6.122   7.157   6.656
20481TIP3    H261329   6.054   7.283   6.606
20482TIP3   OH261330   5.785   6.879   6.800
20482TIP3    H161331   5.719   6.924   6.857
20482TIP3    H261332   5.802   6.948   6.734
20483TIP3   OH261333   6.932   6.513   7.691
20483TIP3    H161334   7.014   6.556   7.721
20483TIP3    H261335   6.925   6.434   7.748
20484TIP3   OH261336   6.814   6.268   6.856
20484TIP3    H161337   6.801   6.294   6.763
20484TIP3    H261338   6.854   6.349   6.894
20485TIP3   OH261339   6.314   7.383   6.546
20485TIP3    H161340   6.228   7.412   6.582
20485TIP3    H261341   6.332   7.453   6.483
20486TIP3   OH261342   6.501   6.447   6.960
20486TIP3    H161343   6.568   6.517   6.942
20486TIP3    H261344   6.508   6.438   7.057
20487TIP3   OH261345   6.779   6.766   7.766
20487TIP3    H161346   6.788   6.820   7.847
20487TIP3    H261347   6.834   6.689   7.785
20488TIP3   OH261348   6.648   6.174   7.062
20488TIP3    H161349   6.646   6.247   7.126
20488TIP3    H261350   6.709   6.211   6.994
20489TIP3   OH261351   6.056   7.459   6.613
20489TIP3    H161352   6.027   7.529   6.550
20489TIP3    H261353   6.042   7.503   6.699
20490TIP3   OH261354   6.159   6.171   6.852
20490TIP3    H161355   6.157   6.262   6.888
20490TIP3    H261356   6.255   6.152   6.860
20491TIP3   OH261357   7.413   6.688   7.733
20491TIP3    H161358   7.318   6.667   7.728
20491TIP3    H261359   7.455   6.605   7.707
20492TIP3   OH261360   7.061   6.863   7.134
20492TIP3    H161361   6.987   6.802   7.149
20492TIP3    H261362   7.135   6.818   7.182
20493TIP3   OH261363   5.776   7.091   6.607
20493TIP3    H161364   5.844   7.160   6.615
20493TIP3    H261365   5.820   7.035   6.540
20494TIP3   OH261366   5.720   6.364   6.743
20494TIP3    H161367   5.720   6.461   6.735
20494TIP3    H261368   5.642   6.339   6.692
20495TIP3   OH261369   7.031   7.814   7.085
20495TIP3    H161370   6.989   7.863   7.011
20495TIP3    H261371   7.125   7.832   7.066
20496TIP3   OH261372   6.104   6.087   7.617
20496TIP3    H161373   6.077   6.054   7.528
20496TIP3    H261374   6.097   6.006   7.671
20497TIP3   OH261375   5.650   7.308   6.998
20497TIP3    H161376   5.571   7.337   7.045
20497TIP3    H261377   5.631   7.343   6.909
20498TIP3   OH261378   5.799   7.837   8.065
20498TIP3    H161379   5.890   7.821   8.096
20498TIP3    H261380   5.768   7.745   8.059
20499TIP3   OH261381   6.292   7.805   8.113
20499TIP3    H161382   6.385   7.775   8.116
20499TIP3    H261383   6.261   7.754   8.035
20500TIP3   OH261384   6.267   7.385   6.240
20500TIP3    H161385   6.211   7.314   6.278
20500TIP3    H261386   6.342   7.333   6.206
20501TIP3   OH261387   6.940   7.744   7.893
20501TIP3    H161388   6.906   7.654   7.907
20501TIP3    H261389   6.963   7.739   7.797
20502TIP3   OH261390   6.703   7.427   6.149
20502TIP3    H161391   6.748   7.362   6.208
20502TIP3    H261392   6.761   7.427   6.070
20503TIP3   OH261393   5.933   7.254   8.269
20503TIP3    H161394   5.954   7.158   8.276
20503TIP3    H261395   5.846   7.251   8.225
20504TIP3   OH261396   5.911   6.903   6.459
20504TIP3    H161397   5.967   6.867   6.531
20504TIP3    H261398   5.978   6.906   6.387
20505TIP3   OH261399   6.540   7.332   8.043
20505TIP3    H161400   6.500   7.347   7.955
20505TIP3    H261401   6.572   7.239   8.035
20506TIP3   OH261402   6.418   7.100   6.265
20506TIP3    H161403   6.422   7.113   6.362
20506TIP3    H261404   6.419   7.001   6.261
20507TIP3   OH261405   7.040   7.342   7.647
20507TIP3    H161406   7.106   7.400   7.604
20507TIP3    H261407   6.961   7.397   7.643
20508TIP3   OH261408   6.047   6.988   8.237
20508TIP3    H161409   6.120   6.931   8.210
20508TIP3    H261410   6.075   7.013   8.328
20509TIP3   OH261411   6.119   6.805   6.681
20509TIP3    H161412   6.096   6.762   6.764
20509TIP3    H261413   6.155   6.730   6.629
20510TIP3   OH261414   6.399   6.897   7.936
20510TIP3    H161415   6.309   6.934   7.929
20510TIP3    H261416   6.419   6.875   7.844
20511TIP3   OH261417   6.220   6.598   6.522
20511TIP3    H161418   6.193   6.599   6.428
20511TIP3    H261419   6.317   6.605   6.514
20512TIP3   OH261420   6.917   7.270   8.049
20512TIP3    H161421   6.980   7.236   7.985
20512TIP3    H261422   6.905   7.195   8.110
20513TIP3   OH261423   7.044   6.931   6.182
20513TIP3    H161424   7.020   6.883   6.101
20513TIP3    H261425   7.012   7.021   6.158
20514TIP3   OH261426   6.509   6.661   8.037
20514TIP3    H161427   6.472   6.586   7.987
20514TIP3    H261428   6.469   6.733   7.984
20515TIP3   OH261429   6.567   6.997   7.717
20515TIP3    H161430   6.631   6.985   7.646
20515TIP3    H261431   6.498   7.051   7.675
20516TIP3   OH261432   7.133   6.949   8.102
20516TIP3    H161433   7.172   6.861   8.110
20516TIP3    H261434   7.202   6.996   8.054
20517TIP3   OH261435   7.164   7.208   7.845
20517TIP3    H161436   7.108   7.257   7.779
20517TIP3    H261437   7.251   7.217   7.800
20518TIP3   OH261438   6.391   6.774   8.269
20518TIP3    H161439   6.322   6.705   8.280
20518TIP3    H261440   6.422   6.757   8.178
20519TIP3   OH261441   6.640   6.215   7.908
20519TIP3    H161442   6.593   6.290   7.867
20519TIP3    H261443   6.574   6.143   7.898
20520TIP3   OH261444   6.770   6.714   8.124
20520TIP3    H161445   6.756   6.700   8.220
20520TIP3    H261446   6.681   6.691   8.090
20521TIP3   OH261447   7.014   6.670   7.984
20521TIP3    H161448   6.937   6.665   8.044
20521TIP3    H261449   7.086   6.633   8.039
20522TIP3   OH261450   7.235   6.599   8.133
20522TIP3    H161451   7.252   6.504   8.152
20522TIP3    H261452   7.239   6.640   8.222
20523TIP3   OH261453   6.227   6.561   8.324
20523TIP3    H161454   6.225   6.485   8.263
20523TIP3    H261455   6.265   6.524   8.406
20524TIP3   OH261456   6.739   6.217   8.166
20524TIP3    H161457   6.808   6.148   8.160
20524TIP3    H261458   6.700   6.212   8.077
20525TIP3   OH261459   6.806   6.431   8.327
20525TIP3    H161460   6.783   6.361   8.262
20525TIP3    H261461   6.730   6.492   8.319
20526TIP3   OH261462   6.027   7.662   6.426
20526TIP3    H161463   6.123   7.658   6.407
20526TIP3    H261464   5.997   7.709   6.347
20527TIP3   OH261465   5.508   7.041   6.645
20527TIP3    H161466   5.602   7.064   6.629
20527TIP3    H261467   5.502   6.953   6.602
20528TIP3   OH261468   5.418   7.656   7.056
20528TIP3    H161469   5.352   7.592   7.020
20528TIP3    H261470   5.465   7.599   7.122
20529TIP3   OH261471   5.555   7.511   7.243
20529TIP3    H161472   5.547   7.433   7.300
20529TIP3    H261473   5.609   7.569   7.299
20530TIP3   OH261474   7.284   7.906   7.040
20530TIP3    H161475   7.309   7.937   7.129
20530TIP3    H261476   7.345   7.954   6.983
20531TIP3   OH261477   7.318   7.922   7.324
20531TIP3    H161478   7.263   7.841   7.321
20531TIP3    H261479   7.389   7.890   7.382
20532TIP3   OH261480   7.367   7.604   7.892
20532TIP3    H161481   7.276   7.603   7.926
20532TIP3    H261482   7.370   7.687   7.843
20533TIP3   OH261483   7.178   7.117   6.517
20533TIP3    H161484   7.247   7.180   6.491
20533TIP3    H261485   7.218   7.077   6.597
20534TIP3   OH261486   7.304   6.985   6.721
20534TIP3    H161487   7.239   6.941   6.780
20534TIP3    H261488   7.368   7.023   6.785
20535TIP3   OH261489   7.360   7.377   7.156
20535TIP3    H161490   7.413   7.312   7.105
20535TIP3    H261491   7.347   7.449   7.091
20536TIP3   OH261492   7.185   7.680   7.347
20536TIP3    H161493   7.114   7.692   7.414
20536TIP3    H261494   7.136   7.631   7.278
20537TIP3   OH261495   7.243   6.892   6.368
20537TIP3    H161496   7.170   6.896   6.301
20537TIP3    H261497   7.216   6.968   6.424
20538TIP3   OH261498   7.115   6.565   6.320
20538TIP3    H161499   7.069   6.603   6.245
20538TIP3    H261500   7.090   6.470   6.312
20539TIP3   OH261501   7.119   6.839   6.867
20539TIP3    H161502   7.128   6.743   6.865
20539TIP3    H261503   7.105   6.857   6.963
20540TIP3   OH261504   5.753   6.903   7.614
20540TIP3    H161505   5.757   6.883   7.518
20540TIP3    H261506   5.850   6.911   7.634
20541TIP3   OH261507   7.405   7.259   7.720
20541TIP3    H161508   7.479   7.197   7.709
20541TIP3    H261509   7.422   7.324   7.650
20542TIP3   OH261510   7.608   7.079   7.748
20542TIP3    H161511   7.525   7.032   7.777
20542TIP3    H261512   7.670   7.004   7.762
20543TIP3   OH261513   7.057   6.299   6.307
20543TIP3    H161514   7.134   6.269   6.361
20543TIP3    H261515   6.985   6.241   6.335
20544TIP3   OH261516   7.113   6.555   6.763
20544TIP3    H161517   7.154   6.467   6.779
20544TIP3    H261518   7.173   6.589   6.694
20545TIP3   OH261519   7.273   6.738   7.252
20545TIP3    H161520   7.361   6.760   7.216
20545TIP3    H261521   7.288   6.764   7.345
20546TIP3   OH261522   7.338   6.877   7.487
20546TIP3    H161523   7.261   6.911   7.537
20546TIP3    H261524   7.374   6.958   7.445
20547TIP3   OH261525   5.954   6.607   8.295
20547TIP3    H161526   6.049   6.596   8.272
20547TIP3    H261527   5.938   6.519   8.334
20548TIP3   OH261528   7.791   6.469   8.016
20548TIP3    H161529   7.850   6.395   7.991
20548TIP3    H261530   7.770   6.503   7.926
20549TIP3   OH261531   7.224   6.306   6.799
20549TIP3    H161532   7.273   6.291   6.883
20549TIP3    H261533   7.164   6.229   6.799
20550TIP3   OH261534   5.924   6.301   7.636
20550TIP3    H161535   5.985   6.224   7.637
20550TIP3    H261536   5.988   6.373   7.620
20551TIP3   OH261537   5.720   6.609   7.677
20551TIP3    H161538   5.764   6.564   7.601
20551TIP3    H261539   5.799   6.650   7.716
20552TIP3   OH261540   7.304   6.245   6.430
20552TIP3    H161541   7.348   6.169   6.386
20552TIP3    H261542   7.373   6.313   6.426
20553TIP3   OH261543   5.708   6.079   7.201
20553TIP3    H161544   5.613   6.069   7.217
20553TIP3    H261545   5.710   6.130   7.118
20554TIP3   OH261546   6.867   7.775   6.699
20554TIP3    H161547   6.920   7.759   6.618
20554TIP3    H261548   6.923   7.838   6.747
20555TIP3   OH261549   5.928   6.149   8.008
20555TIP3    H161550   5.882   6.147   8.093
20555TIP3    H261551   5.859   6.183   7.948
20556TIP3   OH261552   5.966   7.591   8.095
20556TIP3    H161553   5.881   7.552   8.068
20556TIP3    H261554   5.981   7.547   8.180
20557TIP3   OH261555   6.147   7.612   7.636
20557TIP3    H161556   6.104   7.688   7.593
20557TIP3    H261557   6.234   7.620   7.592
20558TIP3   OH261558   6.595   7.855   7.780
20558TIP3    H161559   6.646   7.854   7.863
20558TIP3    H261560   6.658   7.899   7.719
20559TIP3   OH261561   6.766   7.993   7.617
20559TIP3    H161562   6.827   7.929   7.577
20559TIP3    H261563   6.827   8.047   7.672
20560TIP3   OH261564   5.823   7.869   7.653
20560TIP3    H161565   5.735   7.906   7.630
20560TIP3    H261566   5.827   7.890   7.747
20561TIP3   OH261567   6.061   7.846   7.514
20561TIP3    H161568   5.974   7.860   7.557
20561TIP3    H261569   6.043   7.877   7.423
20562TIP3   OH261570   6.478   7.880   7.315
20562TIP3    H161571   6.414   7.902   7.245
20562TIP3    H261572   6.494   7.967   7.356
20563TIP3   OH261573   6.747   7.814   7.336
20563TIP3    H161574   6.655   7.843   7.328
20563TIP3    H261575   6.798   7.896   7.329
20564TIP3   OH261576   6.969   8.021   7.278
20564TIP3    H161577   6.949   8.094   7.217
20564TIP3    H261578   6.986   7.945   7.218
20565TIP3   OH261579   5.735   7.659   7.403
20565TIP3    H161580   5.764   7.635   7.493
20565TIP3    H261581   5.808   7.618   7.351
20566TIP3   OH261582   5.929   7.532   7.259
20566TIP3    H161583   5.947   7.446   7.304
20566TIP3    H261584   6.020   7.569   7.254
20567TIP3   OH261585   6.194   7.628   7.263
20567TIP3    H161586   6.227   7.537   7.247
20567TIP3    H261587   6.243   7.648   7.345
20568TIP3   OH261588   6.769   6.281   7.342
20568TIP3    H161589   6.729   6.212   7.397
20568TIP3    H261590   6.846   6.236   7.302
20569TIP3   OH261591   7.295   6.153   7.248
20569TIP3    H161592   7.334   6.212   7.180
20569TIP3    H261593   7.203   6.186   7.252
20570TIP3   OH261594   7.390   6.267   7.016
20570TIP3    H161595   7.464   6.214   6.978
20570TIP3    H261596   7.424   6.358   7.003
20571TIP3   OH261597   6.020   5.992   7.368
20571TIP3    H161598   5.928   5.958   7.365
20571TIP3    H261599   6.070   5.908   7.363
20572TIP3   OH261600   5.809   5.860   7.013
20572TIP3    H161601   5.838   5.917   6.939
20572TIP3    H261602   5.778   5.926   7.078
20573TIP3   OH261603   6.462   6.026   7.246
20573TIP3    H161604   6.520   6.075   7.185
20573TIP3    H261605   6.488   6.062   7.331
20574TIP3   OH261606   7.006   6.171   7.232
20574TIP3    H161607   7.013   6.135   7.142
20574TIP3    H261608   6.995   6.088   7.285
20575TIP3   OH261609   7.040   6.093   6.791
20575TIP3    H161610   6.954   6.136   6.804
20575TIP3    H261611   7.026   6.008   6.838
20576TIP3   OH261612   5.523   7.432   6.795
20576TIP3    H161613   5.439   7.398   6.758
20576TIP3    H261614   5.512   7.526   6.774
20577TIP3   OH261615   5.923   6.021   6.778
20577TIP3    H161616   5.972   5.959   6.720
20577TIP3    H261617   5.996   6.075   6.813
20578TIP3   OH261618   6.436   6.195   6.875
20578TIP3    H161619   6.498   6.151   6.936
20578TIP3    H261620   6.456   6.289   6.900
20579TIP3   OH261621   6.295   7.623   6.374
20579TIP3    H161622   6.384   7.644   6.339
20579TIP3    H261623   6.274   7.547   6.316
20580TIP3   OH261624   7.015   7.739   6.467
20580TIP3    H161625   7.006   7.642   6.454
20580TIP3    H261626   6.970   7.772   6.387
20581TIP3   OH261627   6.227   6.246   8.252
20581TIP3    H161628   6.201   6.185   8.323
20581TIP3    H261629   6.318   6.268   8.280
20582TIP3   OH261630   6.475   6.272   8.376
20582TIP3    H161631   6.560   6.250   8.334
20582TIP3    H261632   6.466   6.199   8.440
20583TIP3   OH261633   5.601   7.459   6.432
20583TIP3    H161634   5.603   7.484   6.526
20583TIP3    H261635   5.689   7.416   6.419
20584TIP3   OH261636   7.303   6.331   8.161
20584TIP3    H161637   7.324   6.300   8.252
20584TIP3    H261638   7.390   6.327   8.117
20585TIP3   OH261639   7.246   7.878   7.663
20585TIP3    H161640   7.170   7.821   7.633
20585TIP3    H261641   7.210   7.967   7.644
20586TIP3   OH261642   8.508   7.255   6.421
20586TIP3    H161643   8.481   7.347   6.402
20586TIP3    H261644   8.429   7.207   6.392
20587TIP3   OH261645   8.497   7.255   6.802
20587TIP3    H161646   8.530   7.229   6.891
20587TIP3    H261647   8.459   7.171   6.771
20588TIP3   OH261648   7.806   7.151   7.167
20588TIP3    H161649   7.836   7.081   7.229
20588TIP3    H261650   7.886   7.204   7.158
20589TIP3   OH261651   8.744   7.553   6.484
20589TIP3    H161652   8.743   7.480   6.548
20589TIP3    H261653   8.762   7.629   6.540
20590TIP3   OH261654   7.777   7.562   6.895
20590TIP3    H161655   7.766   7.464   6.896
20590TIP3    H261656   7.873   7.569   6.890
20591TIP3   OH261657   7.486   6.769   6.677
20591TIP3    H161658   7.434   6.850   6.692
20591TIP3    H261659   7.416   6.709   6.646
20592TIP3   OH261660   7.544   7.052   6.848
20592TIP3    H161661   7.592   6.975   6.887
20592TIP3    H261662   7.603   7.076   6.775
20593TIP3   OH261663   8.421   8.011   6.526
20593TIP3    H161664   8.460   7.953   6.457
20593TIP3    H261665   8.402   7.944   6.593
20594TIP3   OH261666   8.295   7.476   6.845
20594TIP3    H161667   8.333   7.397   6.802
20594TIP3    H261668   8.378   7.524   6.863
20595TIP3   OH261669   9.307   6.799   6.843
20595TIP3    H161670   9.333   6.889   6.865
20595TIP3    H261671   9.325   6.800   6.747
20596TIP3   OH261672   8.726   6.985   6.883
20596TIP3    H161673   8.763   6.897   6.903
20596TIP3    H261674   8.690   6.970   6.793
20597TIP3   OH261675   8.055   6.643   6.848
20597TIP3    H161676   8.032   6.715   6.786
20597TIP3    H261677   8.006   6.568   6.806
20598TIP3   OH261678   8.748   6.733   6.472
20598TIP3    H161679   8.822   6.716   6.535
20598TIP3    H261680   8.799   6.769   6.397
20599TIP3   OH261681   7.692   6.847   6.954
20599TIP3    H161682   7.773   6.823   7.003
20599TIP3    H261683   7.701   6.788   6.876
20600TIP3   OH261684   8.130   7.043   6.747
20600TIP3    H161685   8.223   7.017   6.761
20600TIP3    H261686   8.089   6.959   6.716
20601TIP3   OH261687   8.051   6.626   7.285
20601TIP3    H161688   7.988   6.662   7.220
20601TIP3    H261689   8.002   6.643   7.368
20602TIP3   OH261690   8.400   7.477   6.292
20602TIP3    H161691   8.356   7.454   6.209
20602TIP3    H261692   8.354   7.561   6.315
20603TIP3   OH261693   8.159   7.400   7.081
20603TIP3    H161694   8.092   7.463   7.116
20603TIP3    H261695   8.196   7.449   7.005
20604TIP3   OH261696   8.960   6.727   6.642
20604TIP3    H161697   8.944   6.682   6.726
20604TIP3    H261698   9.002   6.810   6.673
20605TIP3   OH261699   7.923   6.741   7.068
20605TIP3    H161700   7.986   6.813   7.090
20605TIP3    H261701   7.972   6.698   6.993
20606TIP3   OH261702   7.974   7.588   7.165
20606TIP3    H161703   7.951   7.675   7.126
20606TIP3    H261704   7.895   7.574   7.221
20607TIP3   OH261705   7.383   7.285   6.412
20607TIP3    H161706   7.339   7.311   6.330
20607TIP3    H261707   7.412   7.371   6.449
20608TIP3   OH261708   9.104   6.694   7.015
20608TIP3    H161709   9.018   6.723   6.981
20608TIP3    H261710   9.167   6.728   6.948
20609TIP3   OH261711   8.410   6.345   6.998
20609TIP3    H161712   8.396   6.250   7.015
20609TIP3    H261713   8.331   6.383   7.043
20610TIP3   OH261714   8.518   7.853   6.322
20610TIP3    H161715   8.569   7.771   6.303
20610TIP3    H261716   8.575   7.919   6.277
20611TIP3   OH261717   8.662   7.636   6.234
20611TIP3    H161718   8.626   7.557   6.191
20611TIP3    H261719   8.697   7.597   6.317
20612TIP3   OH261720   8.336   7.105   6.251
20612TIP3    H161721   8.257   7.158   6.229
20612TIP3    H261722   8.386   7.107   6.168
20613TIP3   OH261723   8.298   6.891   5.965
20613TIP3    H161724   8.360   6.940   6.023
20613TIP3    H261725   8.363   6.834   5.918
20614TIP3   OH261726   8.684   7.189   6.223
20614TIP3    H161727   8.631   7.214   6.303
20614TIP3    H261728   8.768   7.163   6.267
20615TIP3   OH261729   7.918   7.188   6.639
20615TIP3    H161730   7.877   7.129   6.572
20615TIP3    H261731   7.995   7.134   6.669
20616TIP3   OH261732   8.047   7.602   6.787
20616TIP3    H161733   8.023   7.556   6.705
20616TIP3    H261734   8.135   7.564   6.806
20617TIP3   OH261735   8.056   7.158   6.996
20617TIP3    H161736   8.087   7.138   6.905
20617TIP3    H261737   8.098   7.244   7.016
20618TIP3   OH261738   8.537   7.824   6.764
20618TIP3    H161739   8.610   7.862   6.812
20618TIP3    H261740   8.544   7.729   6.787
20619TIP3   OH261741   8.108   7.749   7.346
20619TIP3    H161742   8.075   7.827   7.300
20619TIP3    H261743   8.078   7.679   7.285
20620TIP3   OH261744   8.525   7.049   6.050
20620TIP3    H161745   8.586   7.106   6.103
20620TIP3    H261746   8.553   7.073   5.958
20621TIP3   OH261747   7.943   7.260   7.413
20621TIP3    H161748   7.940   7.349   7.454
20621TIP3    H261749   7.847   7.238   7.418
20622TIP3   OH261750   8.269   7.728   6.326
20622TIP3    H161751   8.348   7.783   6.339
20622TIP3    H261752   8.206   7.789   6.286
20623TIP3   OH261753   9.040   6.290   6.099
20623TIP3    H161754   8.959   6.315   6.149
20623TIP3    H261755   9.056   6.372   6.046
20624TIP3   OH261756   7.786   7.030   6.441
20624TIP3    H161757   7.717   7.075   6.387
20624TIP3    H261758   7.743   6.947   6.462
20625TIP3   OH261759   8.838   7.658   5.645
20625TIP3    H161760   8.845   7.755   5.633
20625TIP3    H261761   8.932   7.632   5.633
20626TIP3   OH261762   7.566   7.413   7.351
20626TIP3    H161763   7.496   7.393   7.285
20626TIP3    H261764   7.599   7.324   7.375
20627TIP3   OH261765   7.418   7.608   6.983
20627TIP3    H161766   7.514   7.604   6.975
20627TIP3    H261767   7.404   7.687   7.037
20628TIP3   OH261768   8.150   7.973   6.129
20628TIP3    H161769   8.104   7.955   6.045
20628TIP3    H261770   8.118   8.063   6.151
20629TIP3   OH261771   7.588   7.823   6.510
20629TIP3    H161772   7.635   7.814   6.595
20629TIP3    H261773   7.528   7.747   6.514
20630TIP3   OH261774   8.352   7.875   5.767
20630TIP3    H161775   8.411   7.805   5.731
20630TIP3    H261776   8.385   7.884   5.858
20631TIP3   OH261777   8.400   7.923   6.036
20631TIP3    H161778   8.312   7.933   6.077
20631TIP3    H261779   8.450   7.881   6.108
20632TIP3   OH261780   7.763   7.600   7.336
20632TIP3    H161781   7.815   7.569   7.413
20632TIP3    H261782   7.688   7.536   7.339
20633TIP3   OH261783   8.169   6.423   7.123
20633TIP3    H161784   8.080   6.390   7.098
20633TIP3    H261785   8.142   6.504   7.172
20634TIP3   OH261786   8.697   6.534   7.318
20634TIP3    H161787   8.761   6.514   7.388
20634TIP3    H261788   8.611   6.516   7.362
20635TIP3   OH261789   8.600   7.100   5.794
20635TIP3    H161790   8.571   7.070   5.705
20635TIP3    H261791   8.681   7.149   5.771
20636TIP3   OH261792   8.315   6.473   6.092
20636TIP3    H161793   8.285   6.472   6.185
20636TIP3    H261794   8.272   6.391   6.061
20637TIP3   OH261795   8.103   6.935   7.144
20637TIP3    H161796   8.052   6.954   7.225
20637TIP3    H261797   8.085   7.016   7.091
20638TIP3   OH261798   7.984   6.824   6.657
20638TIP3    H161799   7.892   6.795   6.676
20638TIP3    H261800   7.998   6.781   6.569
20639TIP3   OH261801   8.476   6.908   6.385
20639TIP3    H161802   8.422   6.979   6.343
20639TIP3    H261803   8.531   6.879   6.309
20640TIP3   OH261804   8.632   6.937   6.625
20640TIP3    H161805   8.572   6.967   6.553
20640TIP3    H261806   8.665   6.855   6.582
20641TIP3   OH261807   7.917   6.961   7.350
20641TIP3    H161808   7.947   7.020   7.421
20641TIP3    H261809   7.900   6.879   7.400
20642TIP3   OH261810   7.961   6.436   6.052
20642TIP3    H161811   7.964   6.434   6.150
20642TIP3    H261812   7.883   6.491   6.037
20643TIP3   OH261813   7.513   6.492   6.927
20643TIP3    H161814   7.587   6.519   6.985
20643TIP3    H261815   7.557   6.449   6.852
20644TIP3   OH261816   7.488   6.470   6.448
20644TIP3    H161817   7.536   6.510   6.373
20644TIP3    H261818   7.427   6.543   6.472
20645TIP3   OH261819   8.610   7.173   7.044
20645TIP3    H161820   8.662   7.110   6.988
20645TIP3    H261821   8.596   7.117   7.123
20646TIP3   OH261822   8.311   6.646   6.719
20646TIP3    H161823   8.228   6.642   6.770
20646TIP3    H261824   8.378   6.644   6.790
20647TIP3   OH261825   7.748   6.700   6.726
20647TIP3    H161826   7.653   6.707   6.701
20647TIP3    H261827   7.769   6.607   6.706
20648TIP3   OH261828   8.018   6.697   6.417
20648TIP3    H161829   8.112   6.712   6.396
20648TIP3    H261830   7.971   6.720   6.334
20649TIP3   OH261831   8.806   6.720   6.921
20649TIP3    H161832   8.779   6.731   7.014
20649TIP3    H261833   8.738   6.659   6.888
20650TIP3   OH261834   7.856   6.731   6.197
20650TIP3    H161835   7.778   6.690   6.157
20650TIP3    H261836   7.906   6.763   6.119
20651TIP3   OH261837   7.917   7.497   7.537
20651TIP3    H161838   7.983   7.562   7.565
20651TIP3    H261839   7.854   7.499   7.613
20652TIP3   OH261840   8.396   6.973   6.816
20652TIP3    H161841   8.467   6.930   6.767
20652TIP3    H261842   8.404   6.932   6.904
20653TIP3   OH261843   7.919   6.458   6.696
20653TIP3    H161844   7.883   6.380   6.743
20653TIP3    H261845   7.975   6.417   6.629
20654TIP3   OH261846   8.373   6.870   7.102
20654TIP3    H161847   8.283   6.903   7.119
20654TIP3    H261848   8.429   6.927   7.158
20655TIP3   OH261849   8.109   7.260   6.201
20655TIP3    H161850   8.036   7.195   6.191
20655TIP3    H261851   8.092   7.294   6.292
20656TIP3   OH261852   8.569   6.571   6.063
20656TIP3    H161853   8.471   6.558   6.070
20656TIP3    H261854   8.580   6.666   6.084
20657TIP3   OH261855   8.637   6.819   6.165
20657TIP3    H161856   8.733   6.824   6.181
20657TIP3    H261857   8.621   6.898   6.110
20658TIP3   OH261858   7.803   7.285   6.878
20658TIP3    H161859   7.840   7.254   6.793
20658TIP3    H261860   7.836   7.218   6.939
20659TIP3   OH261861   8.252   7.409   6.019
20659TIP3    H161862   8.206   7.496   6.028
20659TIP3    H261863   8.199   7.355   6.081
20660TIP3   OH261864   7.677   7.196   7.492
20660TIP3    H161865   7.681   7.167   7.585
20660TIP3    H261866   7.607   7.137   7.457
20661TIP3   OH261867   8.417   7.268   7.500
20661TIP3    H161868   8.357   7.247   7.427
20661TIP3    H261869   8.457   7.350   7.468
20662TIP3   OH261870   9.076   6.908   6.004
20662TIP3    H161871   9.014   6.864   5.941
20662TIP3    H261872   9.078   6.996   5.960
20663TIP3   OH261873   8.771   7.723   5.909
20663TIP3    H161874   8.756   7.651   5.971
20663TIP3    H261875   8.790   7.678   5.825
20664TIP3   OH261876   8.757   7.360   6.739
20664TIP3    H161877   8.669   7.323   6.757
20664TIP3    H261878   8.803   7.283   6.701
20665TIP3   OH261879   7.901   7.584   6.501
20665TIP3    H161880   7.902   7.667   6.449
20665TIP3    H261881   7.806   7.571   6.512
20666TIP3   OH261882   7.465   6.891   6.206
20666TIP3    H161883   7.510   6.975   6.227
20666TIP3    H261884   7.387   6.897   6.266
20667TIP3   OH261885   8.042   7.353   6.446
20667TIP3    H161886   8.006   7.442   6.464
20667TIP3    H261887   8.005   7.302   6.521
20668TIP3   OH261888   8.164   7.926   6.972
20668TIP3    H161889   8.188   8.012   6.935
20668TIP3    H261890   8.237   7.917   7.035
20669TIP3   OH261891   7.822   7.824   6.355
20669TIP3    H161892   7.736   7.831   6.400
20669TIP3    H261893   7.853   7.917   6.358
20670TIP3   OH261894   8.543   7.583   6.904
20670TIP3    H161895   8.553   7.589   7.001
20670TIP3    H261896   8.618   7.525   6.886
20671TIP3   OH261897   8.532   7.455   5.814
20671TIP3    H161898   8.586   7.431   5.892
20671TIP3    H261899   8.444   7.431   5.845
20672TIP3   OH261900   8.871   7.933   5.632
20672TIP3    H161901   8.917   8.004   5.584
20672TIP3    H261902   8.791   7.982   5.661
20673TIP3   OH261903   7.891   6.707   7.499
20673TIP3    H161904   7.794   6.719   7.509
20673TIP3    H261905   7.906   6.644   7.571
20674TIP3   OH261906   8.694   7.392   6.030
20674TIP3    H161907   8.684   7.324   6.101
20674TIP3    H261908   8.791   7.388   6.016
20675TIP3   OH261909   7.612   7.796   7.132
20675TIP3    H161910   7.657   7.713   7.154
20675TIP3    H261911   7.649   7.853   7.200
20676TIP3   OH261912   7.902   7.438   5.811
20676TIP3    H161913   7.914   7.346   5.783
20676TIP3    H261914   7.883   7.427   5.907
20677TIP3   OH261915   7.848   7.441   6.083
20677TIP3    H161916   7.915   7.415   6.147
20677TIP3    H261917   7.850   7.539   6.090
20678TIP3   OH261918   7.582   7.136   6.287
20678TIP3    H161919   7.516   7.180   6.345
20678TIP3    H261920   7.595   7.207   6.221
20679TIP3   OH261921   8.745   6.771   7.185
20679TIP3    H161922   8.795   6.811   7.258
20679TIP3    H261923   8.715   6.688   7.229
20680TIP3   OH261924   8.613   6.524   6.342
20680TIP3    H161925   8.597   6.549   6.249
20680TIP3    H261926   8.650   6.607   6.379
20681TIP3   OH261927   8.112   7.641   6.034
20681TIP3    H161928   8.025   7.668   6.069
20681TIP3    H261929   8.128   7.713   5.970
20682TIP3   OH261930   8.301   6.703   6.446
20682TIP3    H161931   8.366   6.774   6.429
20682TIP3    H261932   8.304   6.696   6.544
20683TIP3   OH261933   8.575   7.017   7.265
20683TIP3    H161934   8.561   7.045   7.357
20683TIP3    H261935   8.632   6.940   7.279
20684TIP3   OH261936   8.447   6.434   6.552
20684TIP3    H161937   8.437   6.511   6.610
20684TIP3    H261938   8.506   6.470   6.482
20685TIP3   OH261939   7.853   7.714   6.100
20685TIP3    H161940   7.824   7.784   6.037
20685TIP3    H261941   7.837   7.758   6.186
20686TIP3   OH261942   7.958   6.429   6.331
20686TIP3    H161943   7.954   6.516   6.373
20686TIP3    H261944   8.053   6.409   6.343
20687TIP3   OH261945   8.854   7.116   6.620
20687TIP3    H161946   8.774   7.061   6.630
20687TIP3    H261947   8.920   7.066   6.671
20688TIP3   OH261948   7.571   7.347   6.095
20688TIP3    H161949   7.634   7.421   6.103
20688TIP3    H261950   7.618   7.294   6.027
20689TIP3   OH261951   7.524   6.622   6.214
20689TIP3    H161952   7.514   6.720   6.219
20689TIP3    H261953   7.434   6.594   6.195
20690TIP3   OH261954   7.906   6.340   7.100
20690TIP3    H161955   7.873   6.307   7.014
20690TIP3    H261956   7.896   6.261   7.157
20691TIP3   OH261957   7.445   7.560   6.482
20691TIP3    H161958   7.373   7.591   6.539
20691TIP3    H261959   7.419   7.600   6.396
20692TIP3   OH261960   8.064   7.643   5.726
20692TIP3    H161961   8.008   7.571   5.764
20692TIP3    H261962   8.138   7.591   5.690
20693TIP3   OH261963   8.500   7.682   5.635
20693TIP3    H161964   8.547   7.621   5.694
20693TIP3    H261965   8.557   7.684   5.556
20694TIP3   OH261966   7.746   7.500   7.744
20694TIP3    H161967   7.755   7.403   7.750
20694TIP3    H261968   7.653   7.510   7.717
20695TIP3   OH261969   7.707   7.159   5.945
20695TIP3    H161970   7.761   7.128   6.020
20695TIP3    H261971   7.776   7.165   5.875
20696TIP3   OH261972   8.217   7.350   5.751
20696TIP3    H161973   8.219   7.368   5.848
20696TIP3    H261974   8.210   7.253   5.750
20697TIP3   OH261975   7.869   7.249   7.752
20697TIP3    H161976   7.915   7.172   7.717
20697TIP3    H261977   7.813   7.211   7.821
20698TIP3   OH261978   7.916   7.061   6.169
20698TIP3    H161979   7.888   7.025   6.255
20698TIP3    H261980   7.950   6.981   6.124
20699TIP3   OH261981   8.176   7.118   7.383
20699TIP3    H161982   8.098   7.177   7.386
20699TIP3    H261983   8.227   7.156   7.309
20700TIP3   OH261984   8.017   6.852   6.009
20700TIP3    H161985   7.991   6.861   5.916
20700TIP3    H261986   8.115   6.863   6.004
20701TIP3   OH261987   8.845   7.190   5.666
20701TIP3    H161988   8.822   7.140   5.586
20701TIP3    H261989   8.809   7.279   5.641
20702TIP3   OH261990   8.277   6.898   7.512
20702TIP3    H161991   8.287   6.821   7.452
20702TIP3    H261992   8.247   6.969   7.451
20703TIP3   OH261993   8.310   6.697   7.323
20703TIP3    H161994   8.335   6.736   7.237
20703TIP3    H261995   8.216   6.673   7.309
20704TIP3   OH261996   8.343   7.238   7.205
20704TIP3    H161997   8.422   7.238   7.149
20704TIP3    H261998   8.286   7.306   7.162
20705TIP3   OH261999   8.155   7.020   7.722
20705TIP3    H162000   8.100   6.944   7.751
20705TIP3    H262001   8.193   6.983   7.638
20706TIP3   OH262002   8.441   6.465   7.396
20706TIP3    H162003   8.392   6.547   7.374
20706TIP3    H262004   8.371   6.398   7.386
20707TIP3   OH262005   8.542   6.937   7.563
20707TIP3    H162006   8.565   6.895   7.646
20707TIP3    H262007   8.448   6.913   7.553
20708TIP3   OH262008   8.027   6.797   7.807
20708TIP3    H162009   8.030   6.712   7.759
20708TIP3    H262010   8.049   6.765   7.897
20709TIP3   OH262011   8.536   6.466   7.654
20709TIP3    H162012   8.603   6.396   7.642
20709TIP3    H262013   8.493   6.465   7.566
20710TIP3   OH262014   8.602   6.693   7.788
20710TIP3    H162015   8.586   6.608   7.742
20710TIP3    H262016   8.511   6.728   7.794
20711TIP3   OH262017   7.823   7.916   5.912
20711TIP3    H162018   7.919   7.915   5.893
20711TIP3    H262019   7.792   7.965   5.834
20712TIP3   OH262020   7.303   7.299   6.128
20712TIP3    H162021   7.398   7.321   6.117
20712TIP3    H262022   7.298   7.211   6.087
20713TIP3   OH262023   7.217   7.911   6.543
20713TIP3    H162024   7.150   7.849   6.508
20713TIP3    H262025   7.262   7.855   6.609
20714TIP3   OH262026   7.354   7.764   6.729
20714TIP3    H162027   7.341   7.690   6.791
20714TIP3    H262028   7.404   7.825   6.786
20715TIP3   OH262029   8.973   7.374   6.001
20715TIP3    H162030   9.043   7.437   5.975
20715TIP3    H262031   9.014   7.333   6.081
20716TIP3   OH262032   9.096   7.244   6.204
20716TIP3    H162033   9.037   7.200   6.270
20716TIP3    H262034   9.169   7.278   6.260
20717TIP3   OH262035   9.049   7.150   5.846
20717TIP3    H162036   8.970   7.152   5.786
20717TIP3    H262037   9.024   7.222   5.907
20718TIP3   OH262038   8.906   6.829   5.809
20718TIP3    H162039   8.869   6.856   5.724
20718TIP3    H262040   8.882   6.734   5.810
20719TIP3   OH262041   8.913   7.096   6.353
20719TIP3    H162042   8.924   6.999   6.350
20719TIP3    H262043   8.900   7.112   6.449
20720TIP3   OH262044   7.542   7.174   7.099
20720TIP3    H162045   7.539   7.141   7.006
20720TIP3    H262046   7.638   7.173   7.116
20721TIP3   OH262047   8.847   6.567   5.818
20721TIP3    H162048   8.930   6.527   5.849
20721TIP3    H262049   8.783   6.494   5.820
20722TIP3   OH262050   8.910   6.812   6.250
20722TIP3    H162051   8.952   6.725   6.265
20722TIP3    H262052   8.968   6.847   6.180
20723TIP3   OH262053   9.044   6.971   6.753
20723TIP3    H162054   9.130   6.993   6.710
20723TIP3    H262055   9.057   7.010   6.840
20724TIP3   OH262056   7.765   6.869   7.799
20724TIP3    H162057   7.858   6.839   7.788
20724TIP3    H262058   7.721   6.782   7.794
20725TIP3   OH262059   9.019   6.563   6.290
20725TIP3    H162060   9.067   6.547   6.374
20725TIP3    H262061   8.958   6.486   6.288
20726TIP3   OH262062   7.720   6.548   7.100
20726TIP3    H162063   7.782   6.473   7.114
20726TIP3    H262064   7.782   6.623   7.101
20727TIP3   OH262065   7.519   6.828   7.172
20727TIP3    H162066   7.572   6.821   7.090
20727TIP3    H262067   7.559   6.904   7.215
20728TIP3   OH262068   9.102   6.495   5.920
20728TIP3    H162069   9.143   6.426   5.865
20728TIP3    H262070   9.167   6.568   5.912
20729TIP3   OH262071   7.507   6.329   6.680
20729TIP3    H162072   7.414   6.325   6.708
20729TIP3    H262073   7.502   6.385   6.600
20730TIP3   OH262074   8.653   8.045   6.181
20730TIP3    H162075   8.690   8.017   6.095
20730TIP3    H262076   8.735   8.040   6.235
20731TIP3   OH262077   7.745   7.851   7.600
20731TIP3    H162078   7.659   7.820   7.565
20731TIP3    H262079   7.749   7.805   7.685
20732TIP3   OH262080   7.948   7.858   7.121
20732TIP3    H162081   7.892   7.928   7.081
20732TIP3    H262082   8.028   7.874   7.067
20733TIP3   OH262083   9.353   6.623   7.191
20733TIP3    H162084   9.261   6.621   7.163
20733TIP3    H262085   9.380   6.529   7.178
20734TIP3   OH262086   7.621   8.142   7.135
20734TIP3    H162087   7.527   8.162   7.113
20734TIP3    H262088   7.614   8.127   7.230
20735TIP3   OH262089   7.840   8.064   6.983
20735TIP3    H162090   7.767   8.103   7.036
20735TIP3    H262091   7.840   8.124   6.906
20736TIP3   OH262092   7.533   7.917   6.889
20736TIP3    H162093   7.560   7.891   6.979
20736TIP3    H262094   7.606   7.876   6.837
20737TIP3   OH262095   7.725   7.788   6.743
20737TIP3    H162096   7.742   7.705   6.793
20737TIP3    H262097   7.816   7.827   6.739
20738TIP3   OH262098   7.993   7.882   6.741
20738TIP3    H162099   8.024   7.790   6.733
20738TIP3    H262100   8.025   7.903   6.830
20739TIP3   OH262101   8.567   6.540   6.836
20739TIP3    H162102   8.523   6.472   6.889
20739TIP3    H262103   8.638   6.490   6.791
20740TIP3   OH262104   9.092   6.415   6.741
20740TIP3    H162105   9.127   6.470   6.668
20740TIP3    H262106   8.997   6.437   6.738
20741TIP3   OH262107   9.188   6.521   6.508
20741TIP3    H162108   9.259   6.469   6.464
20741TIP3    H262109   9.217   6.612   6.484
20742TIP3   OH262110   7.816   6.248   6.852
20742TIP3    H162111   7.725   6.213   6.854
20742TIP3    H262112   7.866   6.163   6.849
20743TIP3   OH262113   7.580   6.123   6.487
20743TIP3    H162114   7.627   6.180   6.424
20743TIP3    H262115   7.568   6.182   6.564
20744TIP3   OH262116   8.255   6.287   6.728
20744TIP3    H162117   8.321   6.337   6.677
20744TIP3    H262118   8.274   6.316   6.818
20745TIP3   OH262119   8.812   6.428   6.717
20745TIP3    H162120   8.801   6.394   6.628
20745TIP3    H262121   8.795   6.347   6.771
20746TIP3   OH262122   8.835   6.350   6.279
20746TIP3    H162123   8.750   6.396   6.292
20746TIP3    H262124   8.820   6.268   6.329
20747TIP3   OH262125   7.321   7.687   6.279
20747TIP3    H162126   7.236   7.655   6.245
20747TIP3    H262127   7.309   7.782   6.264
20748TIP3   OH262128   7.720   6.284   6.258
20748TIP3    H162129   7.768   6.215   6.207
20748TIP3    H262130   7.795   6.334   6.297
20749TIP3   OH262131   8.235   6.453   6.359
20749TIP3    H162132   8.290   6.404   6.423
20749TIP3    H262133   8.256   6.545   6.387
20750TIP3   OH262134   8.093   7.879   5.862
20750TIP3    H162135   8.180   7.902   5.825
20750TIP3    H262136   8.070   7.804   5.803
20751TIP3   OH262137   8.792   7.989   5.951
20751TIP3    H162138   8.791   7.892   5.936
20751TIP3    H262139   8.758   8.022   5.865
20752TIP3   OH262140   8.049   6.535   7.735
20752TIP3    H162141   7.988   6.478   7.784
20752TIP3    H262142   8.134   6.524   7.781
20753TIP3   OH262143   8.289   6.527   7.872
20753TIP3    H162144   8.364   6.492   7.821
20753TIP3    H262145   8.269   6.452   7.932
20754TIP3   OH262146   7.396   7.715   5.919
20754TIP3    H162147   7.395   7.742   6.012
20754TIP3    H262148   7.485   7.674   5.909
20755TIP3   OH262149   9.273   7.016   6.166
20755TIP3    H162150   9.234   7.104   6.178
20755TIP3    H262151   9.200   6.967   6.126
20756TIP3   OH262152   9.343   7.302   6.309
20756TIP3    H162153   9.394   7.229   6.348
20756TIP3    H262154   9.404   7.338   6.244
20757TIP3   OH262155   9.859   6.880   6.324
20757TIP3    H162156   9.863   6.959   6.267
20757TIP3    H262157   9.801   6.823   6.271
20758TIP3   OH262158   9.455   7.071   6.441
20758TIP3    H162159   9.550   7.073   6.461
20758TIP3    H262160   9.460   7.024   6.356
20759TIP3   OH262161   9.176   7.543   5.900
20759TIP3    H162162   9.136   7.579   5.820
20759TIP3    H262163   9.208   7.626   5.944
20760TIP3   OH262164  10.091   7.346   5.656
20760TIP3    H162165  10.051   7.433   5.652
20760TIP3    H262166  10.184   7.364   5.681
20761TIP3   OH262167  10.083   7.148   5.448
20761TIP3    H162168  10.115   7.192   5.530
20761TIP3    H262169  10.159   7.095   5.419
20762TIP3   OH262170   9.548   7.290   5.951
20762TIP3    H162171   9.498   7.320   5.873
20762TIP3    H262172   9.550   7.195   5.942
20763TIP3   OH262173  10.120   6.732   5.598
20763TIP3    H162174  10.078   6.737   5.687
20763TIP3    H262175  10.080   6.649   5.566
20764TIP3   OH262176   9.775   7.072   6.133
20764TIP3    H162177   9.685   7.037   6.142
20764TIP3    H262178   9.797   7.053   6.040
20765TIP3   OH262179   9.771   6.695   5.561
20765TIP3    H162180   9.800   6.713   5.653
20765TIP3    H262181   9.689   6.746   5.553
20766TIP3   OH262182   9.298   6.744   6.409
20766TIP3    H162183   9.373   6.773   6.465
20766TIP3    H262184   9.343   6.716   6.328
20767TIP3   OH262185   9.283   6.724   5.943
20767TIP3    H162186   9.328   6.764   5.866
20767TIP3    H262187   9.223   6.797   5.966
20768TIP3   OH262188   9.536   6.940   6.211
20768TIP3    H162189   9.446   6.945   6.173
20768TIP3    H262190   9.573   6.856   6.179
20769TIP3   OH262191   9.832   7.000   5.877
20769TIP3    H162192   9.881   6.916   5.875
20769TIP3    H262193   9.768   6.985   5.806
20770TIP3   OH262194   9.637   6.985   5.671
20770TIP3    H162195   9.578   6.937   5.609
20770TIP3    H262196   9.700   7.026   5.608
20771TIP3   OH262197   9.712   6.720   6.150
20771TIP3    H162198   9.710   6.634   6.194
20771TIP3    H262199   9.778   6.707   6.079
20772TIP3   OH262200   9.859   7.545   5.663
20772TIP3    H162201   9.819   7.456   5.668
20772TIP3    H262202   9.884   7.559   5.756
20773TIP3   OH262203  10.352   6.865   5.535
20773TIP3    H162204  10.263   6.830   5.561
20773TIP3    H262205  10.350   6.955   5.572
20774TIP3   OH262206   9.247   7.170   5.652
20774TIP3    H162207   9.298   7.240   5.701
20774TIP3    H262208   9.177   7.156   5.720
20775TIP3   OH262209   9.699   7.689   5.302
20775TIP3    H162210   9.708   7.597   5.270
20775TIP3    H262211   9.675   7.674   5.395
20776TIP3   OH262212   9.643   7.697   5.576
20776TIP3    H162213   9.717   7.644   5.613
20776TIP3    H262214   9.673   7.787   5.592
20777TIP3   OH262215   9.364   7.388   5.763
20777TIP3    H162216   9.313   7.436   5.831
20777TIP3    H262217   9.401   7.462   5.713
20778TIP3   OH262218  10.418   6.780   5.816
20778TIP3    H162219  10.392   6.798   5.725
20778TIP3    H262220  10.386   6.858   5.865
20779TIP3   OH262221  10.275   6.669   6.060
20779TIP3    H162222  10.236   6.756   6.076
20779TIP3    H262223  10.325   6.692   5.979
20780TIP3   OH262224   9.366   7.608   5.573
20780TIP3    H162225   9.433   7.677   5.586
20780TIP3    H262226   9.416   7.548   5.514
20781TIP3   OH262227   9.310   6.878   5.721
20781TIP3    H162228   9.310   6.973   5.705
20781TIP3    H262229   9.241   6.844   5.665
20782TIP3   OH262230   9.728   6.611   6.591
20782TIP3    H162231   9.699   6.578   6.504
20782TIP3    H262232   9.674   6.557   6.652
20783TIP3   OH262233   9.234   7.800   5.981
20783TIP3    H162234   9.166   7.852   6.024
20783TIP3    H262235   9.246   7.853   5.900
20784TIP3   OH262236   9.856   7.897   5.213
20784TIP3    H162237   9.802   7.824   5.251
20784TIP3    H262238   9.934   7.848   5.182
20785TIP3   OH262239   9.503   7.396   5.450
20785TIP3    H162240   9.570   7.375   5.518
20785TIP3    H262241   9.561   7.406   5.371
20786TIP3   OH262242  10.006   7.610   5.240
20786TIP3    H162243   9.990   7.621   5.334
20786TIP3    H262244  10.010   7.512   5.235
20787TIP3   OH262245   9.694   7.312   5.652
20787TIP3    H162246   9.709   7.293   5.746
20787TIP3    H262247   9.742   7.238   5.609
20788TIP3   OH262248   9.809   7.109   5.496
20788TIP3    H162249   9.786   7.111   5.401
20788TIP3    H262250   9.906   7.120   5.491
20789TIP3   OH262251   3.967   2.527  -0.253
20789TIP3    H162252   4.056   2.502  -0.278
20789TIP3    H262253   3.934   2.565  -0.338
20790TIP3   OH262254   9.098   7.568   5.614
20790TIP3    H162255   9.193   7.592   5.604
20790TIP3    H262256   9.099   7.474   5.593
20791TIP3   OH262257   8.986   8.155   6.041
20791TIP3    H162258   8.918   8.095   6.003
20791TIP3    H262259   8.986   8.124   6.132
20792TIP3   OH262260   9.495   6.789   6.592
20792TIP3    H162261   9.551   6.713   6.615
20792TIP3    H262262   9.564   6.849   6.556
20793TIP3   OH262263   9.283   7.040   6.659
20793TIP3    H162264   9.322   7.029   6.570
20793TIP3    H262265   9.318   7.130   6.678
20794TIP3   OH262266   9.299   6.575   6.167
20794TIP3    H162267   9.205   6.581   6.191
20794TIP3    H262268   9.304   6.636   6.090
20795TIP3   OH262269   9.511   6.558   6.757
20795TIP3    H162270   9.433   6.518   6.716
20795TIP3    H262271   9.470   6.620   6.818
20796TIP3   OH262272   9.612   6.506   6.354
20796TIP3    H162273   9.522   6.476   6.338
20796TIP3    H262274   9.662   6.423   6.345
20797TIP3   OH262275   9.401   6.370   5.990
20797TIP3    H162276   9.430   6.424   5.914
20797TIP3    H262277   9.370   6.438   6.053
20798TIP3   OH262278  10.054   6.522   6.224
20798TIP3    H162279  10.086   6.570   6.146
20798TIP3    H262280  10.052   6.592   6.290
20799TIP3   OH262281   9.118   7.934   5.762
20799TIP3    H162282   9.030   7.911   5.728
20799TIP3    H262283   9.118   8.030   5.748
20800TIP3   OH262284   9.509   6.525   5.758
20800TIP3    H162285   9.564   6.472   5.696
20800TIP3    H262286   9.575   6.585   5.795
20801TIP3   OH262287   9.189   7.964   5.407
20801TIP3    H162288   9.189   7.996   5.498
20801TIP3    H262289   9.281   7.929   5.397
20802TIP3   OH262290   1.760   7.566   8.524
20802TIP3    H162291   1.790   7.645   8.574
20802TIP3    H262292   1.781   7.593   8.433
20803TIP3   OH262293   1.249   7.757   8.554
20803TIP3    H162294   1.274   7.665   8.570
20803TIP3    H262295   1.209   7.751   8.466
20804TIP3   OH262296   1.195   7.521   8.181
20804TIP3    H162297   1.283   7.507   8.222
20804TIP3    H262298   1.220   7.528   8.087
20805TIP3   OH262299   1.842   7.769   8.677
20805TIP3    H162300   1.814   7.855   8.646
20805TIP3    H262301   1.893   7.792   8.757
20806TIP3   OH262302   1.424   7.517   8.332
20806TIP3    H162303   1.406   7.480   8.419
20806TIP3    H262304   1.476   7.597   8.353
20807TIP3   OH262305   1.555   7.505   8.705
20807TIP3    H162306   1.469   7.506   8.660
20807TIP3    H262307   1.617   7.521   8.631
20808TIP3   OH262308  10.579   6.510   6.010
20808TIP3    H162309  10.502   6.462   5.976
20808TIP3    H262310  10.550   6.535   6.097
20809TIP3   OH262311   1.659   8.100   8.487
20809TIP3    H162312   1.618   8.176   8.529
20809TIP3    H262313   1.702   8.142   8.409
20810TIP3   OH262314   1.145   7.987   7.908
20810TIP3    H162315   1.078   7.990   7.980
20810TIP3    H262316   1.221   7.945   7.952
20811TIP3   OH262317   1.054   7.792   7.718
20811TIP3    H162318   1.059   7.849   7.796
20811TIP3    H262319   1.008   7.851   7.657
20812TIP3   OH262320   1.496   7.078   7.787
20812TIP3    H162321   1.417   7.099   7.841
20812TIP3    H262322   1.505   7.162   7.737
20813TIP3   OH262323   1.290   8.443   7.327
20813TIP3    H162324   1.301   8.541   7.322
20813TIP3    H262325   1.384   8.415   7.320
20814TIP3   OH262326   1.172   7.316   8.996
20814TIP3    H162327   1.252   7.278   9.039
20814TIP3    H262328   1.102   7.277   9.053
20815TIP3   OH262329   1.037   7.913   7.458
20815TIP3    H162330   1.033   7.849   7.385
20815TIP3    H262331   1.133   7.931   7.464
20816TIP3   OH262332   1.100   7.733   8.317
20816TIP3    H162333   1.016   7.747   8.271
20816TIP3    H262334   1.129   7.650   8.271
20817TIP3   OH262335   1.288   7.487   8.596
20817TIP3    H162336   1.244   7.505   8.683
20817TIP3    H262337   1.220   7.429   8.557
20818TIP3   OH262338   1.543   7.695   7.680
20818TIP3    H162339   1.477   7.648   7.625
20818TIP3    H262340   1.529   7.785   7.644
20819TIP3   OH262341   1.253   8.513   7.603
20819TIP3    H162342   1.208   8.462   7.672
20819TIP3    H262343   1.247   8.457   7.525
20820TIP3   OH262344   1.326   8.717   7.318
20820TIP3    H162345   1.373   8.792   7.274
20820TIP3    H262346   1.246   8.763   7.344
20821TIP3   OH262347   1.137   8.167   7.689
20821TIP3    H162348   1.125   8.106   7.765
20821TIP3    H262349   1.234   8.178   7.693
20822TIP3   OH262350   1.176   7.542   8.838
20822TIP3    H162351   1.185   7.599   8.917
20822TIP3    H262352   1.164   7.455   8.881
20823TIP3   OH262353   1.664   7.711   8.904
20823TIP3    H162354   1.585   7.683   8.951
20823TIP3    H262355   1.675   7.642   8.837
20824TIP3   OH262356   1.316   7.913   8.310
20824TIP3    H162357   1.239   7.852   8.307
20824TIP3    H262358   1.385   7.859   8.353
20825TIP3   OH262359   1.295   7.979   7.356
20825TIP3    H162360   1.272   7.927   7.277
20825TIP3    H262361   1.265   8.067   7.327
20826TIP3   OH262362   1.427   8.162   7.692
20826TIP3    H162363   1.499   8.225   7.670
20826TIP3    H262364   1.464   8.120   7.773
20827TIP3   OH262365   1.554   8.030   7.897
20827TIP3    H162366   1.487   7.982   7.951
20827TIP3    H262367   1.613   8.069   7.964
20828TIP3   OH262368   1.493   7.938   7.543
20828TIP3    H162369   1.419   7.941   7.477
20828TIP3    H262370   1.465   8.012   7.601
20829TIP3   OH262371   1.378   7.600   7.485
20829TIP3    H162372   1.313   7.644   7.429
20829TIP3    H262373   1.342   7.509   7.486
20830TIP3   OH262374   1.374   7.881   8.041
20830TIP3    H162375   1.380   7.783   8.029
20830TIP3    H262376   1.361   7.890   8.137
20831TIP3   OH262377   1.310   7.331   7.491
20831TIP3    H162378   1.392   7.315   7.542
20831TIP3    H262379   1.245   7.329   7.565
20832TIP3   OH262380   1.381   7.610   7.967
20832TIP3    H162381   1.416   7.519   7.968
20832TIP3    H262382   1.372   7.624   7.872
20833TIP3   OH262383   1.528   7.777   8.428
20833TIP3    H162384   1.619   7.800   8.398
20833TIP3    H262385   1.522   7.831   8.508
20834TIP3   OH262386   2.069   7.504   9.242
20834TIP3    H162387   2.105   7.440   9.177
20834TIP3    H262388   2.030   7.570   9.181
20835TIP3   OH262389   1.487   7.350   7.972
20835TIP3    H162390   1.520   7.331   8.062
20835TIP3    H262391   1.414   7.284   7.966
20836TIP3   OH262392   1.934   7.635   9.037
20836TIP3    H162393   1.851   7.654   9.086
20836TIP3    H262394   1.901   7.573   8.970
20837TIP3   OH262395   1.560   7.288   7.608
20837TIP3    H162396   1.599   7.216   7.556
20837TIP3    H262397   1.626   7.360   7.600
20838TIP3   OH262398   1.812   7.418   8.888
20838TIP3    H162399   1.720   7.396   8.865
20838TIP3    H262400   1.851   7.327   8.889
20839TIP3   OH262401   1.068   7.306   8.543
20839TIP3    H162402   1.041   7.224   8.586
20839TIP3    H262403   1.139   7.273   8.484
20840TIP3   OH262404   1.547   7.214   8.437
20840TIP3    H162405   1.586   7.263   8.361
20840TIP3    H262406   1.452   7.229   8.424
20841TIP3   OH262407   1.643   7.305   8.200
20841TIP3    H162408   1.715   7.259   8.152
20841TIP3    H262409   1.669   7.399   8.183
20842TIP3   OH262410   1.274   7.208   8.397
20842TIP3    H162411   1.272   7.180   8.305
20842TIP3    H262412   1.257   7.123   8.446
20843TIP3   OH262413   1.302   7.141   7.973
20843TIP3    H162414   1.229   7.185   7.923
20843TIP3    H262415   1.261   7.059   8.008
20844TIP3   OH262416   1.280   8.784   7.639
20844TIP3    H162417   1.264   8.687   7.631
20844TIP3    H262418   1.206   8.822   7.592
20845TIP3   OH262419   2.756   8.303   7.598
20845TIP3    H162420   2.726   8.393   7.575
20845TIP3    H262421   2.681   8.251   7.565
20846TIP3   OH262422   2.756   8.301   7.981
20846TIP3    H162423   2.786   8.265   8.066
20846TIP3    H262424   2.713   8.224   7.942
20847TIP3   OH262425   2.070   8.214   8.356
20847TIP3    H162426   2.092   8.143   8.419
20847TIP3    H262427   2.154   8.224   8.308
20848TIP3   OH262428   3.003   8.597   7.660
20848TIP3    H162429   2.983   8.530   7.726
20848TIP3    H262430   3.028   8.674   7.715
20849TIP3   OH262431   2.051   8.607   8.091
20849TIP3    H162432   2.025   8.512   8.088
20849TIP3    H262433   2.143   8.599   8.059
20850TIP3   OH262434   1.733   7.814   7.857
20850TIP3    H162435   1.678   7.893   7.868
20850TIP3    H262436   1.665   7.751   7.826
20851TIP3   OH262437   1.797   8.101   8.024
20851TIP3    H162438   1.841   8.023   8.063
20851TIP3    H262439   1.843   8.110   7.939
20852TIP3   OH262440   2.660   9.057   7.695
20852TIP3    H162441   2.701   9.001   7.625
20852TIP3    H262442   2.626   8.987   7.752
20853TIP3   OH262443   2.558   8.526   8.028
20853TIP3    H162444   2.583   8.446   7.980
20853TIP3    H262445   2.647   8.566   8.038
20854TIP3   OH262446   3.566   7.845   8.027
20854TIP3    H162447   3.593   7.928   8.073
20854TIP3    H262448   3.581   7.868   7.934
20855TIP3   OH262449   2.970   8.033   8.059
20855TIP3    H162450   3.007   7.945   8.082
20855TIP3    H262451   2.935   8.014   7.970
20856TIP3   OH262452   2.305   7.688   8.024
20856TIP3    H162453   2.280   7.760   7.962
20856TIP3    H262454   2.257   7.613   7.983
20857TIP3   OH262455   2.997   7.777   7.649
20857TIP3    H162456   3.071   7.760   7.713
20857TIP3    H262457   3.047   7.814   7.574
20858TIP3   OH262458   1.938   7.893   8.132
20858TIP3    H162459   2.019   7.865   8.180
20858TIP3    H262460   1.944   7.834   8.054
20859TIP3   OH262461   2.376   8.087   7.930
20859TIP3    H162462   2.469   8.061   7.941
20859TIP3    H262463   2.336   8.005   7.896
20860TIP3   OH262464   3.639   8.057   8.189
20860TIP3    H162465   3.552   8.102   8.177
20860TIP3    H262466   3.649   8.066   8.285
20861TIP3   OH262467   2.302   7.665   8.451
20861TIP3    H162468   2.238   7.703   8.387
20861TIP3    H262469   2.252   7.681   8.535
20862TIP3   OH262470   2.649   8.523   7.468
20862TIP3    H162471   2.605   8.498   7.386
20862TIP3    H262472   2.603   8.606   7.490
20863TIP3   OH262473   2.406   8.452   8.257
20863TIP3    H162474   2.339   8.507   8.300
20863TIP3    H262475   2.435   8.506   8.181
20864TIP3   OH262476   3.212   7.778   7.819
20864TIP3    H162477   3.193   7.730   7.900
20864TIP3    H262478   3.260   7.857   7.852
20865TIP3   OH262479   2.170   7.786   8.242
20865TIP3    H162480   2.235   7.857   8.267
20865TIP3    H262481   2.219   7.744   8.168
20866TIP3   OH262482   1.635   8.329   7.588
20866TIP3    H162483   1.586   8.354   7.508
20866TIP3    H262484   1.659   8.416   7.626
20867TIP3   OH262485   3.064   8.835   7.829
20867TIP3    H162486   2.971   8.839   7.862
20867TIP3    H262487   3.068   8.918   7.777
20868TIP3   OH262488   3.358   7.750   8.193
20868TIP3    H162489   3.269   7.776   8.165
20868TIP3    H262490   3.415   7.778   8.118
20869TIP3   OH262491   2.659   7.392   8.173
20869TIP3    H162492   2.646   7.297   8.191
20869TIP3    H262493   2.580   7.428   8.220
20870TIP3   OH262494   2.771   8.895   7.503
20870TIP3    H162495   2.819   8.812   7.481
20870TIP3    H262496   2.832   8.960   7.461
20871TIP3   OH262497   2.912   8.678   7.410
20871TIP3    H162498   2.873   8.600   7.368
20871TIP3    H262499   2.948   8.639   7.493
20872TIP3   OH262500   3.294   8.758   8.174
20872TIP3    H162501   3.287   8.679   8.116
20872TIP3    H262502   3.284   8.831   8.108
20873TIP3   OH262503   2.588   8.153   7.429
20873TIP3    H162504   2.505   8.202   7.409
20873TIP3    H262505   2.630   8.149   7.341
20874TIP3   OH262506   2.546   7.937   7.147
20874TIP3    H162507   2.615   7.986   7.194
20874TIP3    H262508   2.601   7.872   7.099
20875TIP3   OH262509   3.491   8.396   8.014
20875TIP3    H162510   3.408   8.448   8.023
20875TIP3    H262511   3.513   8.413   7.920
20876TIP3   OH262512   2.934   8.236   7.402
20876TIP3    H162513   2.877   8.261   7.478
20876TIP3    H262514   3.015   8.207   7.448
20877TIP3   OH262515   3.170   8.274   8.308
20877TIP3    H162516   3.167   8.353   8.365
20877TIP3    H262517   3.082   8.278   8.266
20878TIP3   OH262518   2.166   8.233   7.814
20878TIP3    H162519   2.122   8.175   7.748
20878TIP3    H262520   2.241   8.177   7.843
20879TIP3   OH262521   2.295   8.615   7.963
20879TIP3    H162522   2.279   8.582   7.873
20879TIP3    H262523   2.390   8.595   7.975
20880TIP3   OH262524   2.304   8.203   8.181
20880TIP3    H162525   2.328   8.179   8.089
20880TIP3    H262526   2.344   8.291   8.192
20881TIP3   OH262527   2.818   8.853   7.952
20881TIP3    H162528   2.832   8.909   8.028
20881TIP3    H262529   2.813   8.764   7.993
20882TIP3   OH262530   2.778   8.090   7.227
20882TIP3    H162531   2.834   8.151   7.279
20882TIP3    H262532   2.802   8.115   7.134
20883TIP3   OH262533   2.518   8.773   7.507
20883TIP3    H162534   2.595   8.831   7.515
20883TIP3    H262535   2.453   8.829   7.461
20884TIP3   OH262536   3.290   7.334   7.275
20884TIP3    H162537   3.209   7.352   7.326
20884TIP3    H262538   3.301   7.417   7.225
20885TIP3   OH262539   2.032   8.075   7.623
20885TIP3    H162540   1.967   8.121   7.566
20885TIP3    H262541   1.989   7.990   7.637
20886TIP3   OH262542   3.088   8.702   6.823
20886TIP3    H162543   3.095   8.799   6.809
20886TIP3    H262544   3.181   8.674   6.811
20887TIP3   OH262545   3.540   9.096   8.208
20887TIP3    H162546   3.539   9.000   8.226
20887TIP3    H262547   3.460   9.125   8.254
20888TIP3   OH262548   2.403   9.018   7.302
20888TIP3    H162549   2.353   8.998   7.221
20888TIP3    H262550   2.367   9.105   7.327
20889TIP3   OH262551   1.835   8.876   7.682
20889TIP3    H162552   1.892   8.841   7.754
20889TIP3    H262553   1.774   8.801   7.670
20890TIP3   OH262554   2.601   8.920   6.943
20890TIP3    H162555   2.660   8.850   6.907
20890TIP3    H262556   2.635   8.929   7.035
20891TIP3   OH262557   2.653   8.966   7.213
20891TIP3    H162558   2.563   8.980   7.251
20891TIP3    H262559   2.698   8.923   7.287
20892TIP3   OH262560   3.425   8.237   8.489
20892TIP3    H162561   3.338   8.245   8.445
20892TIP3    H262562   3.439   8.141   8.484
20893TIP3   OH262563   2.419   7.466   8.298
20893TIP3    H162564   2.329   7.433   8.275
20893TIP3    H262565   2.393   7.546   8.347
20894TIP3   OH262566   2.951   7.581   8.495
20894TIP3    H162567   3.019   7.556   8.561
20894TIP3    H262568   2.867   7.561   8.542
20895TIP3   OH262569   3.196   8.013   8.420
20895TIP3    H162570   3.146   8.003   8.504
20895TIP3    H262571   3.161   8.097   8.384
20896TIP3   OH262572   2.853   8.139   6.971
20896TIP3    H162573   2.817   8.114   6.884
20896TIP3    H262574   2.930   8.192   6.945
20897TIP3   OH262575   2.567   7.513   7.273
20897TIP3    H162576   2.532   7.513   7.364
20897TIP3    H262577   2.525   7.432   7.239
20898TIP3   OH262578   2.350   7.977   8.325
20898TIP3    H162579   2.306   8.000   8.409
20898TIP3    H262580   2.335   8.059   8.273
20899TIP3   OH262581   2.232   7.869   7.834
20899TIP3    H162582   2.140   7.842   7.852
20899TIP3    H262583   2.245   7.827   7.746
20900TIP3   OH262584   2.726   7.956   7.563
20900TIP3    H162585   2.670   8.025   7.521
20900TIP3    H262586   2.777   7.924   7.486
20901TIP3   OH262587   2.915   8.227   8.636
20901TIP3    H162588   2.883   8.159   8.701
20901TIP3    H262589   3.007   8.238   8.668
20902TIP3   OH262590   2.884   7.984   7.799
20902TIP3    H162591   2.821   8.011   7.729
20902TIP3    H262592   2.915   7.900   7.759
20903TIP3   OH262593   2.174   8.022   8.538
20903TIP3    H162594   2.200   8.072   8.620
20903TIP3    H262595   2.158   7.934   8.576
20904TIP3   OH262596   2.221   7.488   7.239
20904TIP3    H162597   2.210   7.484   7.336
20904TIP3    H262598   2.141   7.538   7.214
20905TIP3   OH262599   1.761   7.532   8.112
20905TIP3    H162600   1.840   7.560   8.162
20905TIP3    H262601   1.796   7.499   8.028
20906TIP3   OH262602   1.743   7.515   7.628
20906TIP3    H162603   1.784   7.557   7.549
20906TIP3    H262604   1.677   7.583   7.651
20907TIP3   OH262605   2.891   8.231   8.224
20907TIP3    H162606   2.926   8.159   8.167
20907TIP3    H262607   2.866   8.178   8.303
20908TIP3   OH262608   2.561   7.692   7.897
20908TIP3    H162609   2.476   7.688   7.946
20908TIP3    H262610   2.626   7.687   7.968
20909TIP3   OH262611   1.995   7.746   7.902
20909TIP3    H162612   1.900   7.755   7.878
20909TIP3    H262613   2.014   7.653   7.881
20910TIP3   OH262614   2.267   7.742   7.592
20910TIP3    H162615   2.359   7.759   7.567
20910TIP3    H262616   2.217   7.765   7.510
20911TIP3   OH262617   3.052   7.766   8.094
20911TIP3    H162618   3.021   7.776   8.187
20911TIP3    H262619   2.985   7.703   8.061
20912TIP3   OH262620   2.106   7.774   7.374
20912TIP3    H162621   2.031   7.731   7.329
20912TIP3    H262622   2.155   7.808   7.296
20913TIP3   OH262623   2.646   8.021   7.998
20913TIP3    H162624   2.711   7.971   7.947
20913TIP3    H262625   2.649   7.977   8.085
20914TIP3   OH262626   2.172   7.504   7.873
20914TIP3    H162627   2.133   7.426   7.918
20914TIP3    H262628   2.215   7.463   7.796
20915TIP3   OH262629   2.621   7.920   8.275
20915TIP3    H162630   2.531   7.948   8.299
20915TIP3    H262631   2.677   7.972   8.335
20916TIP3   OH262632   2.359   8.305   7.380
20916TIP3    H162633   2.286   8.240   7.368
20916TIP3    H262634   2.341   8.338   7.471
20917TIP3   OH262635   3.258   8.542   8.009
20917TIP3    H162636   3.282   8.589   7.926
20917TIP3    H262637   3.173   8.500   7.985
20918TIP3   OH262638   2.816   7.618   7.238
20918TIP3    H162639   2.720   7.600   7.247
20918TIP3    H262640   2.824   7.713   7.262
20919TIP3   OH262641   2.791   8.624   8.356
20919TIP3    H162642   2.803   8.559   8.428
20919TIP3    H262643   2.697   8.620   8.340
20920TIP3   OH262644   2.885   7.864   7.344
20920TIP3    H162645   2.982   7.871   7.357
20920TIP3    H262646   2.864   7.943   7.290
20921TIP3   OH262647   2.061   8.334   8.053
20921TIP3    H162648   2.088   8.302   7.965
20921TIP3    H262649   2.073   8.256   8.108
20922TIP3   OH262650   2.504   8.456   7.201
20922TIP3    H162651   2.456   8.542   7.207
20922TIP3    H262652   2.447   8.400   7.260
20923TIP3   OH262653   2.674   8.354   8.643
20923TIP3    H162654   2.640   8.310   8.563
20923TIP3    H262655   2.766   8.323   8.644
20924TIP3   OH262656   2.919   8.891   8.280
20924TIP3    H162657   2.884   8.810   8.320
20924TIP3    H262658   2.988   8.918   8.341
20925TIP3   OH262659   3.333   7.954   7.178
20925TIP3    H162660   3.270   7.909   7.117
20925TIP3    H262661   3.328   8.044   7.138
20926TIP3   OH262662   3.543   8.811   8.261
20926TIP3    H162663   3.446   8.802   8.249
20926TIP3    H262664   3.573   8.783   8.171
20927TIP3   OH262665   3.031   8.771   7.088
20927TIP3    H162666   3.000   8.700   7.146
20927TIP3    H262667   3.040   8.728   7.001
20928TIP3   OH262668   3.018   8.404   7.929
20928TIP3    H162669   2.926   8.371   7.940
20928TIP3    H262670   3.058   8.327   7.884
20929TIP3   OH262671   2.154   8.627   7.677
20929TIP3    H162672   2.151   8.708   7.622
20929TIP3    H262673   2.060   8.617   7.698
20930TIP3   OH262674   1.715   7.935   7.383
20930TIP3    H162675   1.759   8.020   7.403
20930TIP3    H262676   1.636   7.940   7.442
20931TIP3   OH262677   2.297   8.397   7.628
20931TIP3    H162678   2.256   8.486   7.640
20931TIP3    H262679   2.252   8.346   7.698
20932TIP3   OH262680   2.073   8.858   7.536
20932TIP3    H162681   1.985   8.879   7.572
20932TIP3    H262682   2.113   8.948   7.528
20933TIP3   OH262683   2.829   8.610   8.083
20933TIP3    H162684   2.831   8.594   8.180
20933TIP3    H262685   2.897   8.547   8.051
20934TIP3   OH262686   2.781   8.499   6.988
20934TIP3    H162687   2.831   8.476   7.069
20934TIP3    H262688   2.691   8.475   7.015
20935TIP3   OH262689   3.072   9.115   8.111
20935TIP3    H162690   2.993   9.114   8.166
20935TIP3    H262691   3.062   9.196   8.057
20936TIP3   OH262692   3.122   8.976   6.810
20936TIP3    H162693   3.162   9.049   6.759
20936TIP3    H262694   3.042   9.023   6.842
20937TIP3   OH262695   2.159   7.738   8.668
20937TIP3    H162696   2.080   7.774   8.713
20937TIP3    H262697   2.189   7.676   8.735
20938TIP3   OH262698   2.940   8.437   7.208
20938TIP3    H162699   2.931   8.370   7.278
20938TIP3    H262700   3.037   8.435   7.193
20939TIP3   OH262701   2.152   8.480   6.987
20939TIP3    H162702   2.162   8.388   6.959
20939TIP3    H262703   2.131   8.470   7.082
20940TIP3   OH262704   2.097   8.486   7.258
20940TIP3    H162705   2.162   8.460   7.324
20940TIP3    H262706   2.098   8.584   7.266
20941TIP3   OH262707   1.833   8.182   7.464
20941TIP3    H162708   1.766   8.225   7.521
20941TIP3    H262709   1.844   8.252   7.396
20942TIP3   OH262710   2.982   7.814   8.354
20942TIP3    H162711   3.055   7.853   8.404
20942TIP3    H262712   2.961   7.734   8.407
20943TIP3   OH262713   2.860   7.568   7.519
20943TIP3    H162714   2.843   7.593   7.426
20943TIP3    H262715   2.897   7.651   7.556
20944TIP3   OH262716   2.362   8.687   7.212
20944TIP3    H162717   2.274   8.712   7.245
20944TIP3    H262718   2.375   8.757   7.146
20945TIP3   OH262719   2.553   7.746   7.623
20945TIP3    H162720   2.616   7.819   7.607
20945TIP3    H262721   2.553   7.740   7.721
20946TIP3   OH262722   2.821   8.067   8.429
20946TIP3    H162723   2.841   8.118   8.510
20946TIP3    H262724   2.869   7.984   8.447
20947TIP3   OH262725   2.695   7.477   7.728
20947TIP3    H162726   2.685   7.555   7.786
20947TIP3    H262727   2.754   7.513   7.658
20948TIP3   OH262728   2.104   8.758   7.276
20948TIP3    H162729   2.074   8.827   7.212
20948TIP3    H262730   2.084   8.801   7.362
20949TIP3   OH262731   2.205   7.471   7.516
20949TIP3    H162732   2.199   7.562   7.552
20949TIP3    H262733   2.301   7.456   7.524
20950TIP3   OH262734   3.460   7.967   8.403
20950TIP3    H162735   3.363   7.970   8.421
20950TIP3    H262736   3.459   7.912   8.324
20951TIP3   OH262737   3.109   8.163   7.800
20951TIP3    H162738   3.031   8.105   7.811
20951TIP3    H262739   3.178   8.113   7.849
20952TIP3   OH262740   1.820   8.391   7.271
20952TIP3    H162741   1.880   8.466   7.278
20952TIP3    H262742   1.866   8.338   7.203
20953TIP3   OH262743   1.767   7.665   7.397
20953TIP3    H162744   1.762   7.763   7.397
20953TIP3    H262745   1.677   7.640   7.375
20954TIP3   OH262746   3.084   9.088   7.724
20954TIP3    H162747   3.040   9.142   7.655
20954TIP3    H262748   3.178   9.117   7.710
20955TIP3   OH262749   2.157   7.385   8.277
20955TIP3    H162750   2.121   7.353   8.191
20955TIP3    H262751   2.143   7.307   8.335
20956TIP3   OH262752   1.695   8.618   7.663
20956TIP3    H162753   1.614   8.635   7.712
20956TIP3    H262754   1.669   8.649   7.573
20957TIP3   OH262755   2.313   8.686   6.902
20957TIP3    H162756   2.255   8.615   6.940
20957TIP3    H262757   2.386   8.633   6.868
20958TIP3   OH262758   2.748   8.727   6.812
20958TIP3    H162759   2.795   8.663   6.869
20958TIP3    H262760   2.804   8.729   6.732
20959TIP3   OH262761   1.956   8.205   7.119
20959TIP3    H162762   2.008   8.169   7.193
20959TIP3    H262763   2.025   8.208   7.050
20960TIP3   OH262764   2.469   8.402   6.930
20960TIP3    H162765   2.466   8.415   7.026
20960TIP3    H262766   2.465   8.304   6.925
20961TIP3   OH262767   3.089   8.630   8.304
20961TIP3    H162768   3.156   8.685   8.258
20961TIP3    H262769   3.007   8.677   8.287
20962TIP3   OH262770   2.170   8.105   7.348
20962TIP3    H162771   2.136   8.063   7.429
20962TIP3    H262772   2.201   8.028   7.296
20963TIP3   OH262773   2.451   8.154   8.560
20963TIP3    H162774   2.377   8.199   8.605
20963TIP3    H262775   2.478   8.214   8.489
20964TIP3   OH262776   2.264   7.898   7.185
20964TIP3    H162777   2.236   7.900   7.091
20964TIP3    H262778   2.361   7.907   7.176
20965TIP3   OH262779   2.965   8.580   8.684
20965TIP3    H162780   3.046   8.542   8.650
20965TIP3    H262781   2.946   8.520   8.758
20966TIP3   OH262782   3.091   8.231   6.846
20966TIP3    H162783   3.066   8.184   6.764
20966TIP3    H262784   3.059   8.321   6.823
20967TIP3   OH262785   2.579   7.943   8.670
20967TIP3    H162786   2.571   7.864   8.614
20967TIP3    H262787   2.532   8.012   8.618
20968TIP3   OH262788   2.561   7.735   8.491
20968TIP3    H162789   2.583   7.776   8.406
20968TIP3    H262790   2.465   7.714   8.479
20969TIP3   OH262791   2.596   8.294   8.374
20969TIP3    H162792   2.665   8.275   8.309
20969TIP3    H262793   2.533   8.350   8.323
20970TIP3   OH262794   3.173   8.243   8.757
20970TIP3    H162795   3.220   8.160   8.774
20970TIP3    H262796   3.247   8.303   8.738
20971TIP3   OH262797   3.214   8.491   8.492
20971TIP3    H162798   3.155   8.544   8.433
20971TIP3    H262799   3.300   8.511   8.449
20972TIP3   OH262800   2.463   8.032   8.896
20972TIP3    H162801   2.381   7.979   8.902
20972TIP3    H262802   2.498   8.002   8.810
20973TIP3   OH262803   2.693   7.506   8.570
20973TIP3    H162804   2.644   7.588   8.547
20973TIP3    H262805   2.622   7.439   8.562
20974TIP3   OH262806   2.818   8.024   8.782
20974TIP3    H162807   2.818   8.001   8.877
20974TIP3    H262808   2.731   7.987   8.755
20975TIP3   OH262809   3.057   7.954   8.643
20975TIP3    H162810   2.981   7.961   8.705
20975TIP3    H262811   3.128   7.923   8.702
20976TIP3   OH262812   3.295   7.897   8.786
20976TIP3    H162813   3.301   7.801   8.805
20976TIP3    H262814   3.285   7.934   8.877
20977TIP3   OH262815   2.270   7.837   8.939
20977TIP3    H162816   2.284   7.743   8.917
20977TIP3    H262817   2.282   7.836   9.036
20978TIP3   OH262818   2.777   7.508   8.833
20978TIP3    H162819   2.850   7.444   8.826
20978TIP3    H262820   2.742   7.506   8.742
20979TIP3   OH262821   2.872   7.745   8.940
20979TIP3    H162822   2.834   7.658   8.914
20979TIP3    H262823   2.794   7.790   8.980
20980TIP3   OH262824   2.071   8.955   7.087
20980TIP3    H162825   2.166   8.962   7.069
20980TIP3    H262826   2.037   9.009   7.013
20981TIP3   OH262827   1.550   8.343   7.305
20981TIP3    H162828   1.645   8.366   7.294
20981TIP3    H262829   1.548   8.254   7.264
20982TIP3   OH262830   3.327   9.203   7.702
20982TIP3    H162831   3.347   9.239   7.791
20982TIP3    H262832   3.385   9.257   7.647
20983TIP3   OH262833   3.364   9.221   7.976
20983TIP3    H162834   3.334   9.128   7.980
20983TIP3    H262835   3.440   9.219   8.035
20984TIP3   OH262836   3.383   8.901   8.540
20984TIP3    H162837   3.293   8.886   8.571
20984TIP3    H262838   3.375   8.985   8.494
20985TIP3   OH262839   3.221   8.418   7.180
20985TIP3    H162840   3.288   8.484   7.150
20985TIP3    H262841   3.266   8.378   7.256
20986TIP3   OH262842   3.348   8.285   7.390
20986TIP3    H162843   3.276   8.233   7.432
20986TIP3    H262844   3.366   8.352   7.457
20987TIP3   OH262845   3.405   8.674   7.817
20987TIP3    H162846   3.453   8.620   7.752
20987TIP3    H262847   3.394   8.758   7.767
20988TIP3   OH262848   3.254   8.959   7.999
20988TIP3    H162849   3.189   9.015   8.047
20988TIP3    H262850   3.197   8.917   7.932
20989TIP3   OH262851   3.288   8.194   7.032
20989TIP3    H162852   3.217   8.194   6.963
20989TIP3    H262853   3.259   8.272   7.084
20990TIP3   OH262854   3.161   7.866   6.987
20990TIP3    H162855   3.117   7.907   6.912
20990TIP3    H262856   3.134   7.772   6.976
20991TIP3   OH262857   3.165   8.139   7.530
20991TIP3    H162858   3.168   8.042   7.524
20991TIP3    H262859   3.150   8.153   7.627
20992TIP3   OH262860   1.797   8.201   8.282
20992TIP3    H162861   1.787   8.190   8.185
20992TIP3    H262862   1.893   8.215   8.291
20993TIP3   OH262863   3.452   8.564   8.381
20993TIP3    H162864   3.524   8.497   8.375
20993TIP3    H262865   3.484   8.634   8.322
20994TIP3   OH262866   3.640   8.374   8.404
20994TIP3    H162867   3.565   8.323   8.442
20994TIP3    H262868   3.713   8.311   8.419
20995TIP3   OH262869   3.103   7.600   6.973
20995TIP3    H162870   3.175   7.568   7.030
20995TIP3    H262871   3.027   7.543   6.997
20996TIP3   OH262872   3.162   7.860   7.428
20996TIP3    H162873   3.200   7.770   7.443
20996TIP3    H262874   3.219   7.890   7.355
20997TIP3   OH262875   3.320   8.031   7.922
20997TIP3    H162876   3.403   8.065   7.881
20997TIP3    H262877   3.330   8.067   8.012
20998TIP3   OH262878   3.388   8.175   8.151
20998TIP3    H162879   3.311   8.206   8.204
20998TIP3    H262880   3.419   8.259   8.111
20999TIP3   OH262881   2.007   7.842   8.874
20999TIP3    H162882   2.098   7.869   8.900
20999TIP3    H262883   1.983   7.785   8.950
21000TIP3   OH262884   3.843   7.767   8.708
21000TIP3    H162885   3.899   7.700   8.665
21000TIP3    H262886   3.816   7.824   8.634
21001TIP3   OH262887   3.268   7.607   7.464
21001TIP3    H162888   3.314   7.590   7.548
21001TIP3    H262889   3.206   7.531   7.461
21002TIP3   OH262890   1.971   7.591   8.280
21002TIP3    H162891   2.035   7.519   8.294
21002TIP3    H262892   2.030   7.669   8.281
21003TIP3   OH262893   1.781   7.861   8.366
21003TIP3    H162894   1.827   7.862   8.280
21003TIP3    H262895   1.773   7.955   8.386
21004TIP3   OH262896   3.715   7.909   8.514
21004TIP3    H162897   3.630   7.946   8.545
21004TIP3    H262898   3.683   7.836   8.458
21005TIP3   OH262899   3.352   7.543   7.098
21005TIP3    H162900   3.389   7.470   7.044
21005TIP3    H262901   3.417   7.614   7.086
21006TIP3   OH262902   1.754   7.374   7.860
21006TIP3    H162903   1.660   7.370   7.887
21006TIP3    H262904   1.749   7.431   7.780
21007TIP3   OH262905   2.921   9.072   7.368
21007TIP3    H162906   2.962   9.053   7.281
21007TIP3    H262907   2.971   9.150   7.395
21008TIP3   OH262908   1.976   7.443   8.664
21008TIP3    H162909   1.926   7.446   8.747
21008TIP3    H262910   1.911   7.483   8.603
21009TIP3   OH262911   3.613   7.670   8.391
21009TIP3    H162912   3.519   7.661   8.364
21009TIP3    H262913   3.642   7.576   8.381
21010TIP3   OH262914   2.747   9.151   8.007
21010TIP3    H162915   2.714   9.129   7.918
21010TIP3    H262916   2.834   9.186   7.982
21011TIP3   OH262917   3.009   9.291   7.894
21011TIP3    H162918   2.999   9.357   7.825
21011TIP3    H262919   3.048   9.219   7.841
21012TIP3   OH262920   1.991   8.778   7.883
21012TIP3    H162921   2.016   8.705   7.943
21012TIP3    H262922   2.019   8.857   7.932
21013TIP3   OH262923   2.269   8.897   7.897
21013TIP3    H162924   2.254   8.801   7.886
21013TIP3    H262925   2.196   8.936   7.847
21014TIP3   OH262926   2.816   7.585   8.012
21014TIP3    H162927   2.772   7.517   8.067
21014TIP3    H262928   2.886   7.533   7.968
21015TIP3   OH262929   3.342   7.464   7.915
21015TIP3    H162930   3.376   7.518   7.840
21015TIP3    H262931   3.246   7.481   7.911
21016TIP3   OH262932   3.437   7.571   7.680
21016TIP3    H162933   3.509   7.518   7.640
21016TIP3    H262934   3.469   7.662   7.663
21017TIP3   OH262935   2.066   7.294   8.028
21017TIP3    H162936   1.974   7.262   8.028
21017TIP3    H262937   2.114   7.208   8.025
21018TIP3   OH262938   1.859   7.162   7.678
21018TIP3    H162939   1.879   7.222   7.604
21018TIP3    H262940   1.820   7.224   7.743
21019TIP3   OH262941   2.510   7.324   7.907
21019TIP3    H162942   2.570   7.377   7.853
21019TIP3    H262943   2.523   7.361   7.995
21020TIP3   OH262944   3.061   7.472   7.892
21020TIP3    H162945   3.050   7.435   7.804
21020TIP3    H262946   3.045   7.392   7.949
21021TIP3   OH262947   3.086   7.394   7.455
21021TIP3    H162948   2.999   7.437   7.466
21021TIP3    H262949   3.070   7.310   7.502
21022TIP3   OH262950   1.572   8.724   7.452
21022TIP3    H162951   1.484   8.693   7.422
21022TIP3    H262952   1.559   8.820   7.444
21023TIP3   OH262953   1.967   7.323   7.439
21023TIP3    H162954   2.017   7.261   7.382
21023TIP3    H262955   2.039   7.377   7.477
21024TIP3   OH262956   2.482   7.497   7.538
21024TIP3    H162957   2.540   7.450   7.601
21024TIP3    H262958   2.502   7.589   7.563
21025TIP3   OH262959   2.342   8.922   7.039
21025TIP3    H162960   2.429   8.946   7.001
21025TIP3    H262961   2.318   8.848   6.979
21026TIP3   OH262962   3.056   9.039   7.131
21026TIP3    H162963   3.050   8.942   7.115
21026TIP3    H262964   3.014   9.074   7.050
21027TIP3   OH262965   2.276   7.558   8.907
21027TIP3    H162966   2.238   7.499   8.973
21027TIP3    H262967   2.369   7.561   8.939
21028TIP3   OH262968   2.521   7.560   9.029
21028TIP3    H162969   2.611   7.549   8.995
21028TIP3    H262970   2.517   7.491   9.098
21029TIP3   OH262971   1.642   8.758   7.093
21029TIP3    H162972   1.635   8.788   7.185
21029TIP3    H262973   1.733   8.719   7.089
21030TIP3   OH262974   3.345   7.628   8.824
21030TIP3    H162975   3.364   7.603   8.918
21030TIP3    H262976   3.435   7.624   8.785
21031TIP3   OH262977   4.551   8.556   7.087
21031TIP3    H162978   4.524   8.648   7.065
21031TIP3    H262979   4.475   8.508   7.050
21032TIP3   OH262980   4.551   8.557   7.465
21032TIP3    H162981   4.581   8.526   7.552
21032TIP3    H262982   4.512   8.478   7.427
21033TIP3   OH262983   3.853   8.444   7.836
21033TIP3    H162984   3.886   8.382   7.904
21033TIP3    H262985   3.920   8.513   7.840
21034TIP3   OH262986   4.796   8.856   7.146
21034TIP3    H162987   4.779   8.790   7.214
21034TIP3    H262988   4.820   8.934   7.199
21035TIP3   OH262989   3.822   8.857   7.556
21035TIP3    H162990   3.812   8.761   7.562
21035TIP3    H262991   3.918   8.867   7.547
21036TIP3   OH262992   3.564   8.103   7.383
21036TIP3    H162993   3.491   8.167   7.369
21036TIP3    H262994   3.519   8.023   7.350
21037TIP3   OH262995   4.441   9.321   7.161
21037TIP3    H162996   4.490   9.249   7.115
21037TIP3    H262997   4.433   9.287   7.250
21038TIP3   OH262998   4.350   8.780   7.514
21038TIP3    H162999   4.390   8.706   7.466
21038TIP3    H263000   4.433   8.827   7.539
21039TIP3   OH263001   5.363   8.104   7.511
21039TIP3    H163002   5.391   8.188   7.551
21039TIP3    H263003   5.386   8.118   7.417
21040TIP3   OH263004   4.761   8.284   7.548
21040TIP3    H163005   4.804   8.199   7.567
21040TIP3    H263006   4.732   8.270   7.456
21041TIP3   OH263007   4.096   7.943   7.516
21041TIP3    H163008   4.078   8.008   7.445
21041TIP3    H263009   4.060   7.862   7.472
21042TIP3   OH263010   4.792   8.036   7.135
21042TIP3    H163011   4.866   8.020   7.199
21042TIP3    H263012   4.843   8.070   7.059
21043TIP3   OH263013   4.176   8.339   7.410
21043TIP3    H163014   4.271   8.320   7.425
21043TIP3    H263015   4.144   8.253   7.380
21044TIP3   OH263016   5.438   8.314   7.681
21044TIP3    H163017   5.355   8.360   7.656
21044TIP3    H263018   5.430   8.316   7.777
21045TIP3   OH263019   4.093   7.931   7.939
21045TIP3    H163020   4.024   7.969   7.884
21045TIP3    H263021   4.051   7.941   8.027
21046TIP3   OH263022   4.444   8.777   6.956
21046TIP3    H163023   4.403   8.758   6.870
21046TIP3    H263024   4.402   8.863   6.978
21047TIP3   OH263025   4.200   8.700   7.741
21047TIP3    H163026   4.138   8.767   7.779
21047TIP3    H263027   4.244   8.752   7.671
21048TIP3   OH263028   5.004   8.037   7.305
21048TIP3    H163029   5.000   7.984   7.386
21048TIP3    H263030   5.060   8.112   7.332
21049TIP3   OH263031   3.937   8.076   7.687
21049TIP3    H163032   4.000   8.132   7.738
21049TIP3    H263033   4.003   8.016   7.644
21050TIP3   OH263034   4.030   8.894   7.838
21050TIP3    H163035   4.006   8.981   7.799
21050TIP3    H263036   3.951   8.882   7.896
21051TIP3   OH263037   3.426   8.585   7.077
21051TIP3    H163038   3.385   8.609   6.992
21051TIP3    H263039   3.453   8.673   7.111
21052TIP3   OH263040   4.868   9.101   7.316
21052TIP3    H163041   4.778   9.093   7.355
21052TIP3    H263042   4.859   9.186   7.270
21053TIP3   OH263043   5.156   8.007   7.680
21053TIP3    H163044   5.068   8.032   7.649
21053TIP3    H263045   5.214   8.035   7.605
21054TIP3   OH263046   4.453   7.646   7.659
21054TIP3    H163047   4.443   7.551   7.678
21054TIP3    H263048   4.375   7.682   7.707
21055TIP3   OH263049   4.570   9.147   6.993
21055TIP3    H163050   4.620   9.066   6.967
21055TIP3    H263051   4.628   9.214   6.950
21056TIP3   OH263052   4.711   8.932   6.894
21056TIP3    H163053   4.672   8.853   6.853
21056TIP3    H263054   4.746   8.897   6.978
21057TIP3   OH263055   5.101   9.014   7.660
21057TIP3    H163056   5.083   8.937   7.601
21057TIP3    H263057   5.076   9.089   7.602
21058TIP3   OH263058   4.383   8.409   6.916
21058TIP3    H163059   4.303   8.460   6.893
21058TIP3    H263060   4.429   8.406   6.830
21059TIP3   OH263061   4.342   8.192   6.635
21059TIP3    H163062   4.411   8.243   6.681
21059TIP3    H263063   4.398   8.128   6.586
21060TIP3   OH263064   5.291   8.657   7.506
21060TIP3    H163065   5.206   8.706   7.510
21060TIP3    H263066   5.317   8.676   7.413
21061TIP3   OH263067   4.729   8.491   6.889
21061TIP3    H163068   4.675   8.517   6.967
21061TIP3    H263069   4.813   8.465   6.932
21062TIP3   OH263070   4.966   8.532   7.797
21062TIP3    H163071   4.961   8.616   7.847
21062TIP3    H263072   4.879   8.534   7.751
21063TIP3   OH263073   3.960   8.487   7.308
21063TIP3    H163074   3.918   8.433   7.238
21063TIP3    H263075   4.041   8.437   7.329
21064TIP3   OH263076   4.088   8.890   7.456
21064TIP3    H163077   4.072   8.860   7.365
21064TIP3    H263078   4.181   8.863   7.471
21065TIP3   OH263079   4.093   8.464   7.651
21065TIP3    H163080   4.134   8.444   7.565
21065TIP3    H263081   4.138   8.546   7.678
21066TIP3   OH263082   4.627   9.097   7.436
21066TIP3    H163083   4.608   9.178   7.487
21066TIP3    H263084   4.610   9.026   7.500
21067TIP3   OH263085   4.235   9.015   7.983
21067TIP3    H163086   4.176   9.079   8.029
21067TIP3    H263087   4.169   8.964   7.933
21068TIP3   OH263088   4.571   8.348   6.714
21068TIP3    H163089   4.630   8.408   6.766
21068TIP3    H263090   4.597   8.373   6.621
21069TIP3   OH263091   3.986   8.575   8.077
21069TIP3    H163092   3.995   8.661   8.123
21069TIP3    H263093   3.892   8.555   8.096
21070TIP3   OH263094   4.313   9.029   6.990
21070TIP3    H163095   4.390   9.086   7.009
21070TIP3    H263096   4.251   9.092   6.950
21071TIP3   OH263097   4.032   9.186   8.072
21071TIP3    H163098   3.995   9.187   7.982
21071TIP3    H263099   3.954   9.161   8.126
21072TIP3   OH263100   5.087   7.591   6.762
21072TIP3    H163101   5.006   7.611   6.812
21072TIP3    H263102   5.099   7.674   6.711
21073TIP3   OH263103   3.823   8.327   7.116
21073TIP3    H163104   3.767   8.384   7.059
21073TIP3    H263105   3.779   8.243   7.104
21074TIP3   OH263106   4.884   8.958   6.309
21074TIP3    H163107   4.893   9.055   6.296
21074TIP3    H263108   4.977   8.929   6.297
21075TIP3   OH263109   3.609   8.714   8.018
21075TIP3    H163110   3.542   8.693   7.950
21075TIP3    H263111   3.644   8.626   8.043
21076TIP3   OH263112   3.466   8.905   7.658
21076TIP3    H163113   3.561   8.912   7.643
21076TIP3    H263114   3.449   8.988   7.704
21077TIP3   OH263115   5.333   9.364   7.709
21077TIP3    H163116   5.326   9.267   7.718
21077TIP3    H263117   5.247   9.391   7.748
21078TIP3   OH263118   4.436   9.144   7.841
21078TIP3    H163119   4.435   9.237   7.872
21078TIP3    H263120   4.363   9.106   7.894
21079TIP3   OH263121   4.197   9.276   6.791
21079TIP3    H163122   4.148   9.260   6.708
21079TIP3    H263123   4.164   9.364   6.818
21080TIP3   OH263124   3.633   9.123   7.172
21080TIP3    H163125   3.681   9.115   7.257
21080TIP3    H263126   3.565   9.055   7.182
21081TIP3   OH263127   4.398   9.177   6.430
21081TIP3    H163128   4.456   9.106   6.395
21081TIP3    H263129   4.430   9.186   6.522
21082TIP3   OH263130   4.447   9.223   6.700
21082TIP3    H163131   4.358   9.235   6.741
21082TIP3    H263132   4.496   9.185   6.774
21083TIP3   OH263133   5.227   8.499   7.972
21083TIP3    H163134   5.142   8.511   7.928
21083TIP3    H263135   5.238   8.402   7.965
21084TIP3   OH263136   3.816   8.897   8.006
21084TIP3    H163137   3.865   8.883   8.089
21084TIP3    H263138   3.742   8.835   8.014
21085TIP3   OH263139   4.212   7.723   7.787
21085TIP3    H163140   4.123   7.691   7.763
21085TIP3    H263141   4.188   7.805   7.834
21086TIP3   OH263142   4.747   7.838   7.983
21086TIP3    H163143   4.815   7.811   8.048
21086TIP3    H263144   4.663   7.817   8.029
21087TIP3   OH263145   4.993   8.270   7.905
21087TIP3    H163146   4.941   8.263   7.989
21087TIP3    H263147   4.963   8.354   7.868
21088TIP3   OH263148   4.647   8.397   6.458
21088TIP3    H163149   4.614   8.370   6.370
21088TIP3    H263150   4.727   8.446   6.433
21089TIP3   OH263151   4.360   7.772   6.759
21089TIP3    H163152   4.327   7.769   6.851
21089TIP3    H263153   4.322   7.688   6.726
21090TIP3   OH263154   4.136   8.236   7.802
21090TIP3    H163155   4.098   8.259   7.889
21090TIP3    H263156   4.125   8.321   7.753
21091TIP3   OH263157   3.995   8.107   7.323
21091TIP3    H163158   3.925   8.053   7.284
21091TIP3    H263159   4.054   8.102   7.244
21092TIP3   OH263160   4.520   8.209   7.048
21092TIP3    H163161   4.467   8.281   7.006
21092TIP3    H263162   4.575   8.180   6.973
21093TIP3   OH263163   4.694   8.489   8.135
21093TIP3    H163164   4.671   8.416   8.197
21093TIP3    H263165   4.788   8.502   8.158
21094TIP3   OH263166   4.677   8.239   7.288
21094TIP3    H163167   4.619   8.269   7.216
21094TIP3    H263168   4.711   8.157   7.246
21095TIP3   OH263169   3.962   8.263   8.020
21095TIP3    H163170   3.991   8.328   8.086
21095TIP3    H263171   3.952   8.183   8.074
21096TIP3   OH263172   4.016   7.744   6.726
21096TIP3    H163173   4.006   7.740   6.823
21096TIP3    H263174   3.936   7.794   6.701
21097TIP3   OH263175   3.561   7.802   7.588
21097TIP3    H163176   3.641   7.811   7.644
21097TIP3    H263177   3.590   7.749   7.512
21098TIP3   OH263178   3.534   7.770   7.117
21098TIP3    H163179   3.576   7.809   7.038
21098TIP3    H263180   3.469   7.841   7.138
21099TIP3   OH263181   4.690   8.485   7.712
21099TIP3    H163182   4.721   8.412   7.653
21099TIP3    H263183   4.660   8.433   7.790
21100TIP3   OH263184   4.355   7.953   7.386
21100TIP3    H163185   4.278   7.939   7.444
21100TIP3    H263186   4.429   7.944   7.448
21101TIP3   OH263187   4.065   8.010   7.079
21101TIP3    H163188   4.159   8.015   7.055
21101TIP3    H263189   4.019   8.026   6.994
21102TIP3   OH263190   4.851   8.022   7.586
21102TIP3    H163191   4.814   8.033   7.676
21102TIP3    H263192   4.787   7.960   7.547
21103TIP3   OH263193   3.902   8.031   6.860
21103TIP3    H163194   3.830   7.986   6.812
21103TIP3    H263195   3.953   8.067   6.785
21104TIP3   OH263196   5.017   9.710   7.802
21104TIP3    H163197   5.013   9.732   7.707
21104TIP3    H263198   5.100   9.754   7.828
21105TIP3   OH263199   3.978   8.818   8.225
21105TIP3    H163200   4.055   8.853   8.272
21105TIP3    H263201   3.913   8.816   8.298
21106TIP3   OH263202   4.439   8.273   7.479
21106TIP3    H163203   4.512   8.235   7.428
21106TIP3    H263204   4.452   8.232   7.566
21107TIP3   OH263205   3.981   7.757   7.358
21107TIP3    H163206   3.936   7.682   7.401
21107TIP3    H263207   4.020   7.715   7.280
21108TIP3   OH263208   4.416   8.170   7.771
21108TIP3    H163209   4.328   8.208   7.785
21108TIP3    H263210   4.475   8.229   7.821
21109TIP3   OH263211   4.155   8.561   6.866
21109TIP3    H163212   4.081   8.498   6.853
21109TIP3    H263213   4.136   8.595   6.956
21110TIP3   OH263214   5.055   8.797   7.496
21110TIP3    H163215   5.079   8.846   7.415
21110TIP3    H263216   4.969   8.756   7.472
21111TIP3   OH263217   4.613   7.873   6.729
21111TIP3    H163218   4.516   7.858   6.734
21111TIP3    H263219   4.622   7.969   6.749
21112TIP3   OH263220   4.553   8.879   7.863
21112TIP3    H163221   4.572   8.859   7.956
21112TIP3    H263222   4.515   8.968   7.868
21113TIP3   OH263223   4.682   8.121   6.831
21113TIP3    H163224   4.778   8.127   6.844
21113TIP3    H263225   4.663   8.200   6.776
21114TIP3   OH263226   3.830   8.554   7.548
21114TIP3    H163227   3.869   8.545   7.458
21114TIP3    H263228   3.903   8.522   7.604
21115TIP3   OH263229   4.299   8.712   6.686
21115TIP3    H163230   4.252   8.798   6.691
21115TIP3    H263231   4.244   8.657   6.745
21116TIP3   OH263232   3.726   8.503   8.155
21116TIP3    H163233   3.749   8.488   8.249
21116TIP3    H263234   3.657   8.436   8.142
21117TIP3   OH263235   4.451   8.618   8.173
21117TIP3    H163236   4.394   8.558   8.123
21117TIP3    H263237   4.540   8.585   8.146
21118TIP3   OH263238   4.716   9.135   7.761
21118TIP3    H163239   4.619   9.136   7.769
21118TIP3    H263240   4.741   9.191   7.838
21119TIP3   OH263241   5.125   8.210   6.666
21119TIP3    H163242   5.062   8.165   6.605
21119TIP3    H263243   5.121   8.299   6.624
21120TIP3   OH263244   5.361   9.074   7.734
21120TIP3    H163245   5.263   9.070   7.746
21120TIP3    H263246   5.365   9.039   7.642
21121TIP3   OH263247   4.826   9.030   6.574
21121TIP3    H163248   4.798   8.960   6.636
21121TIP3    H263249   4.836   8.983   6.490
21122TIP3   OH263250   4.820   8.659   7.416
21122TIP3    H163251   4.726   8.634   7.427
21122TIP3    H263252   4.854   8.580   7.369
21123TIP3   OH263253   3.946   8.886   7.166
21123TIP3    H163254   3.951   8.969   7.113
21123TIP3    H263255   3.851   8.876   7.173
21124TIP3   OH263256   3.512   8.192   6.870
21124TIP3    H163257   3.555   8.278   6.887
21124TIP3    H263258   3.432   8.199   6.928
21125TIP3   OH263259   4.085   8.652   7.113
21125TIP3    H163260   4.052   8.744   7.125
21125TIP3    H263261   4.045   8.608   7.189
21126TIP3   OH263262   4.216   9.230   7.634
21126TIP3    H163263   4.252   9.305   7.583
21126TIP3    H263264   4.294   9.200   7.683
21127TIP3   OH263265   3.870   9.121   7.021
21127TIP3    H163266   3.782   9.134   7.062
21127TIP3    H263267   3.905   9.214   7.023
21128TIP3   OH263268   4.605   8.865   7.594
21128TIP3    H163269   4.596   8.863   7.692
21128TIP3    H263270   4.685   8.813   7.580
21129TIP3   OH263271   4.578   8.757   6.476
21129TIP3    H163272   4.630   8.732   6.555
21129TIP3    H263273   4.489   8.732   6.505
21130TIP3   OH263274   4.854   9.399   7.643
21130TIP3    H163275   4.773   9.345   7.634
21130TIP3    H263276   4.840   9.465   7.571
21131TIP3   OH263277   4.918   9.234   6.296
21131TIP3    H163278   4.957   9.308   6.246
21131TIP3    H263279   4.838   9.279   6.329
21132TIP3   OH263280   3.939   8.008   8.161
21132TIP3    H163281   3.844   8.016   8.181
21132TIP3    H263282   3.969   7.951   8.234
21133TIP3   OH263283   4.737   8.692   6.694
21133TIP3    H163284   4.728   8.625   6.764
21133TIP3    H263285   4.834   8.691   6.680
21134TIP3   OH263286   3.654   9.091   7.795
21134TIP3    H163287   3.712   9.027   7.839
21134TIP3    H263288   3.675   9.173   7.842
21135TIP3   OH263289   3.947   8.738   6.475
21135TIP3    H163290   3.959   8.645   6.446
21135TIP3    H263291   3.927   8.727   6.570
21136TIP3   OH263292   3.893   8.743   6.747
21136TIP3    H163293   3.963   8.720   6.809
21136TIP3    H263294   3.893   8.841   6.752
21137TIP3   OH263295   3.629   8.440   6.953
21137TIP3    H163296   3.562   8.485   7.008
21137TIP3    H263297   3.641   8.508   6.883
21138TIP3   OH263298   4.773   8.074   7.844
21138TIP3    H163299   4.853   8.110   7.886
21138TIP3    H263300   4.757   7.993   7.897
21139TIP3   OH263301   4.651   7.828   7.007
21139TIP3    H163302   4.639   7.849   6.913
21139TIP3    H263303   4.693   7.909   7.042
21140TIP3   OH263304   4.155   8.942   6.696
21140TIP3    H163305   4.068   8.969   6.732
21140TIP3    H263306   4.173   9.016   6.637
21141TIP3   OH263307   4.345   8.004   7.111
21141TIP3    H163308   4.411   8.074   7.091
21141TIP3    H263309   4.353   7.998   7.209
21142TIP3   OH263310   4.613   8.323   7.919
21142TIP3    H163311   4.632   8.377   7.998
21142TIP3    H263312   4.668   8.244   7.934
21143TIP3   OH263313   4.490   7.733   7.213
21143TIP3    H163314   4.490   7.809   7.275
21143TIP3    H263315   4.549   7.768   7.142
21144TIP3   OH263316   3.897   9.015   6.764
21144TIP3    H163317   3.869   9.083   6.699
21144TIP3    H263318   3.882   9.061   6.849
21145TIP3   OH263319   3.999   7.728   7.003
21145TIP3    H163320   3.996   7.819   7.037
21145TIP3    H263321   4.096   7.710   7.010
21146TIP3   OH263322   5.258   8.224   7.891
21146TIP3    H163323   5.161   8.227   7.907
21146TIP3    H263324   5.258   8.173   7.809
21147TIP3   OH263325   4.905   8.418   7.288
21147TIP3    H163326   4.829   8.358   7.298
21147TIP3    H263327   4.976   8.370   7.335
21148TIP3   OH263328   3.616   8.647   6.759
21148TIP3    H163329   3.675   8.723   6.765
21148TIP3    H263330   3.663   8.595   6.690
21149TIP3   OH263331   3.562   7.922   6.892
21149TIP3    H163332   3.559   8.020   6.885
21149TIP3    H263333   3.481   7.897   6.847
21150TIP3   OH263334   4.874   9.371   7.237
21150TIP3    H163335   4.830   9.418   7.163
21150TIP3    H263336   4.968   9.390   7.215
21151TIP3   OH263337   3.944   7.647   7.765
21151TIP3    H163338   3.917   7.609   7.679
21151TIP3    H263339   3.939   7.568   7.824
21152TIP3   OH263340   3.486   8.852   7.147
21152TIP3    H163341   3.414   8.891   7.199
21152TIP3    H263342   3.471   8.897   7.061
21153TIP3   OH263343   3.678   9.364   8.202
21153TIP3    H163344   3.767   9.347   8.238
21153TIP3    H263345   3.650   9.274   8.182
21154TIP3   OH263346   4.161   9.375   8.236
21154TIP3    H163347   4.241   9.322   8.246
21154TIP3    H263348   4.108   9.318   8.178
21155TIP3   OH263349   4.108   8.943   6.388
21155TIP3    H163350   4.051   8.873   6.427
21155TIP3    H263351   4.183   8.889   6.356
21156TIP3   OH263352   4.764   9.275   7.995
21156TIP3    H163353   4.757   9.203   8.062
21156TIP3    H263354   4.845   9.322   8.023
21157TIP3   OH263355   4.545   8.983   6.299
21157TIP3    H163356   4.589   8.919   6.358
21157TIP3    H263357   4.603   8.984   6.221
21158TIP3   OH263358   3.777   8.787   8.410
21158TIP3    H163359   3.794   8.691   8.407
21158TIP3    H263360   3.688   8.795   8.369
21159TIP3   OH263361   3.752   8.460   6.608
21159TIP3    H163362   3.808   8.428   6.680
21159TIP3    H263363   3.819   8.465   6.536
21160TIP3   OH263364   4.388   8.894   8.187
21160TIP3    H163365   4.341   8.909   8.102
21160TIP3    H263366   4.416   8.800   8.180
21161TIP3   OH263367   4.263   8.658   6.416
21161TIP3    H163368   4.263   8.672   6.512
21161TIP3    H263369   4.261   8.560   6.412
21162TIP3   OH263370   4.878   8.900   7.795
21162TIP3    H163371   4.949   8.948   7.751
21162TIP3    H263372   4.804   8.964   7.785
21163TIP3   OH263373   3.897   8.534   8.396
21163TIP3    H163374   3.970   8.473   8.383
21163TIP3    H263375   3.921   8.572   8.483
21164TIP3   OH263376   3.964   8.361   6.833
21164TIP3    H163377   3.935   8.314   6.912
21164TIP3    H263378   3.999   8.288   6.777
21165TIP3   OH263379   4.226   8.423   8.053
21165TIP3    H163380   4.153   8.487   8.062
21165TIP3    H263381   4.277   8.460   7.978
21166TIP3   OH263382   4.061   8.155   6.673
21166TIP3    H163383   4.033   8.157   6.579
21166TIP3    H263384   4.158   8.163   6.664
21167TIP3   OH263385   4.746   8.828   8.194
21167TIP3    H163386   4.826   8.804   8.146
21167TIP3    H263387   4.743   8.761   8.265
21168TIP3   OH263388   4.884   8.488   6.334
21168TIP3    H163389   4.862   8.441   6.251
21168TIP3    H263390   4.853   8.578   6.309
21169TIP3   OH263391   4.353   8.215   8.186
21169TIP3    H163392   4.353   8.134   8.132
21169TIP3    H263393   4.309   8.280   8.127
21170TIP3   OH263394   4.354   8.000   7.992
21170TIP3    H163395   4.383   8.041   7.908
21170TIP3    H263396   4.260   7.979   7.971
21171TIP3   OH263397   4.382   8.536   7.863
21171TIP3    H163398   4.467   8.546   7.817
21171TIP3    H263399   4.328   8.605   7.821
21172TIP3   OH263400   4.964   8.505   8.246
21172TIP3    H163401   5.011   8.422   8.264
21172TIP3    H263402   5.035   8.563   8.216
21173TIP3   OH263403   5.008   8.757   7.983
21173TIP3    H163404   4.948   8.810   7.924
21173TIP3    H263405   5.094   8.777   7.941
21174TIP3   OH263406   4.228   8.330   8.411
21174TIP3    H163407   4.160   8.262   8.430
21174TIP3    H263408   4.265   8.298   8.327
21175TIP3   OH263409   4.488   7.766   8.057
21175TIP3    H163410   4.438   7.848   8.037
21175TIP3    H263411   4.418   7.698   8.048
21176TIP3   OH263412   4.614   8.271   8.276
21176TIP3    H163413   4.603   8.259   8.372
21176TIP3    H263414   4.523   8.246   8.247
21177TIP3   OH263415   4.853   8.217   8.130
21177TIP3    H163416   4.776   8.220   8.191
21177TIP3    H263417   4.925   8.186   8.189
21178TIP3   OH263418   5.089   8.159   8.281
21178TIP3    H163419   5.096   8.064   8.301
21178TIP3    H263420   5.078   8.200   8.370
21179TIP3   OH263421   4.072   8.108   8.466
21179TIP3    H163422   4.077   8.016   8.435
21179TIP3    H263423   4.106   8.098   8.557
21180TIP3   OH263424   4.585   7.777   8.315
21180TIP3    H163425   4.651   7.705   8.311
21180TIP3    H263426   4.543   7.768   8.227
21181TIP3   OH263427   4.649   7.992   8.474
21181TIP3    H163428   4.625   7.920   8.411
21181TIP3    H263429   4.570   8.049   8.470
21182TIP3   OH263430   3.867   9.211   6.572
21182TIP3    H163431   3.963   9.216   6.555
21182TIP3    H263432   3.835   9.267   6.499
21183TIP3   OH263433   3.349   8.597   6.798
21183TIP3    H163434   3.443   8.621   6.781
21183TIP3    H263435   3.343   8.511   6.752
21184TIP3   OH263436   3.257   9.211   7.207
21184TIP3    H163437   3.192   9.149   7.170
21184TIP3    H263438   3.304   9.154   7.271
21185TIP3   OH263439   3.401   9.064   7.389
21185TIP3    H163440   3.386   8.993   7.453
21185TIP3    H263441   3.449   9.128   7.444
21186TIP3   OH263442   5.129   9.458   7.192
21186TIP3    H163443   5.150   9.499   7.277
21186TIP3    H263444   5.178   9.513   7.130
21187TIP3   OH263445   5.153   9.486   7.474
21187TIP3    H163446   5.111   9.397   7.468
21187TIP3    H263447   5.228   9.465   7.530
21188TIP3   OH263448   5.196   9.154   8.045
21188TIP3    H163449   5.122   9.164   8.109
21188TIP3    H263450   5.241   9.241   8.054
21189TIP3   OH263451   5.018   8.675   6.668
21189TIP3    H163452   5.086   8.739   6.640
21189TIP3    H263453   5.061   8.635   6.746
21190TIP3   OH263454   5.145   8.543   6.871
21190TIP3    H163455   5.080   8.500   6.930
21190TIP3    H263456   5.209   8.582   6.935
21191TIP3   OH263457   5.204   8.935   7.309
21191TIP3    H163458   5.252   8.870   7.254
21191TIP3    H263459   5.192   9.010   7.247
21192TIP3   OH263460   5.032   9.232   7.503
21192TIP3    H163461   4.960   9.278   7.550
21192TIP3    H263462   4.982   9.186   7.431
21193TIP3   OH263463   5.083   8.450   6.519
21193TIP3    H163464   5.012   8.452   6.451
21193TIP3    H263465   5.057   8.527   6.573
21194TIP3   OH263466   4.954   8.124   6.475
21194TIP3    H163467   4.914   8.162   6.396
21194TIP3    H263468   4.928   8.029   6.464
21195TIP3   OH263469   4.960   8.398   7.018
21195TIP3    H163470   4.968   8.301   7.012
21195TIP3    H263471   4.947   8.412   7.114
21196TIP3   OH263472   3.599   8.459   7.746
21196TIP3    H163473   3.620   8.490   7.657
21196TIP3    H263474   3.690   8.459   7.785
21197TIP3   OH263475   5.252   8.822   7.875
21197TIP3    H163476   5.326   8.760   7.862
21197TIP3    H263477   5.269   8.890   7.808
21198TIP3   OH263478   5.449   8.635   7.896
21198TIP3    H163479   5.368   8.591   7.929
21198TIP3    H263480   5.513   8.562   7.913
21199TIP3   OH263481   4.898   7.858   6.462
21199TIP3    H163482   4.974   7.826   6.514
21199TIP3    H263483   4.826   7.797   6.485
21200TIP3   OH263484   4.956   8.115   6.914
21200TIP3    H163485   4.997   8.026   6.929
21200TIP3    H263486   5.014   8.147   6.843
21201TIP3   OH263487   5.119   8.290   7.408
21201TIP3    H163488   5.205   8.316   7.368
21201TIP3    H263489   5.132   8.326   7.497
21202TIP3   OH263490   5.187   8.434   7.640
21202TIP3    H163491   5.108   8.466   7.689
21202TIP3    H263492   5.218   8.516   7.596
21203TIP3   OH263493   3.805   8.161   8.437
21203TIP3    H163494   3.903   8.153   8.443
21203TIP3    H263495   3.778   8.077   8.480
21204TIP3   OH263496   5.649   8.027   8.197
21204TIP3    H163497   5.699   7.956   8.151
21204TIP3    H263498   5.615   8.079   8.122
21205TIP3   OH263499   5.064   7.864   6.952
21205TIP3    H163500   5.113   7.847   7.035
21205TIP3    H263501   5.004   7.787   6.949
21206TIP3   OH263502   3.767   7.862   7.766
21206TIP3    H163503   3.820   7.780   7.780
21206TIP3    H263504   3.836   7.929   7.761
21207TIP3   OH263505   3.562   8.130   7.834
21207TIP3    H163506   3.636   8.079   7.799
21207TIP3    H263507   3.604   8.210   7.868
21208TIP3   OH263508   5.511   8.164   8.005
21208TIP3    H163509   5.423   8.201   8.027
21208TIP3    H263510   5.483   8.093   7.944
21209TIP3   OH263511   5.147   7.800   6.583
21209TIP3    H163512   5.186   7.727   6.530
21209TIP3    H263513   5.214   7.870   6.574
21210TIP3   OH263514   3.549   7.638   7.353
21210TIP3    H163515   3.453   7.626   7.369
21210TIP3    H263516   3.549   7.689   7.269
21211TIP3   OH263517   4.713   9.326   6.851
21211TIP3    H163518   4.763   9.315   6.768
21211TIP3    H263519   4.759   9.400   6.893
21212TIP3   OH263520   3.771   7.709   8.158
21212TIP3    H163521   3.724   7.699   8.243
21212TIP3    H263522   3.700   7.745   8.102
21213TIP3   OH263523   3.818   9.123   8.244
21213TIP3    H163524   3.727   9.095   8.224
21213TIP3    H263525   3.819   9.106   8.340
21214TIP3   OH263526   3.990   9.164   7.784
21214TIP3    H163527   3.939   9.239   7.747
21214TIP3    H263528   4.074   9.181   7.737
21215TIP3   OH263529   4.437   9.408   7.923
21215TIP3    H163530   4.479   9.414   8.011
21215TIP3    H263531   4.500   9.460   7.869
21216TIP3   OH263532   4.612   9.560   7.781
21216TIP3    H163533   4.684   9.514   7.737
21216TIP3    H263534   4.662   9.622   7.838
21217TIP3   OH263535   5.407   7.926   7.881
21217TIP3    H163536   5.316   7.919   7.847
21217TIP3    H263537   5.438   7.833   7.868
21218TIP3   OH263538   3.672   9.396   7.792
21218TIP3    H163539   3.579   9.422   7.771
21218TIP3    H263540   3.681   9.452   7.872
21219TIP3   OH263541   3.909   9.401   7.660
21219TIP3    H163542   3.821   9.407   7.705
21219TIP3    H263543   3.887   9.438   7.572
21220TIP3   OH263544   4.329   9.431   7.463
21220TIP3    H163545   4.259   9.450   7.397
21220TIP3    H263546   4.341   9.520   7.502
21221TIP3   OH263547   4.596   9.372   7.513
21221TIP3    H163548   4.501   9.388   7.495
21221TIP3    H263549   4.637   9.448   7.469
21222TIP3   OH263550   4.807   9.564   7.429
21222TIP3    H163551   4.790   9.649   7.383
21222TIP3    H263552   4.829   9.505   7.354
21223TIP3   OH263553   3.573   9.217   7.549
21223TIP3    H163554   3.601   9.198   7.641
21223TIP3    H263555   3.648   9.176   7.500
21224TIP3   OH263556   3.769   9.090   7.408
21224TIP3    H163557   3.787   9.007   7.456
21224TIP3    H263558   3.858   9.130   7.403
21225TIP3   OH263559   4.032   9.184   7.411
21225TIP3    H163560   4.069   9.096   7.398
21225TIP3    H263561   4.075   9.210   7.494
21226TIP3   OH263562   4.606   7.840   7.493
21226TIP3    H163563   4.568   7.771   7.550
21226TIP3    H263564   4.682   7.793   7.452
21227TIP3   OH263565   5.136   7.725   7.408
21227TIP3    H163566   5.173   7.774   7.331
21227TIP3    H263567   5.040   7.740   7.397
21228TIP3   OH263568   5.231   7.822   7.170
21228TIP3    H163569   5.303   7.770   7.128
21228TIP3    H263570   5.264   7.913   7.153
21229TIP3   OH263571   3.861   7.551   7.517
21229TIP3    H163572   3.769   7.515   7.516
21229TIP3    H263573   3.912   7.467   7.513
21230TIP3   OH263574   3.649   7.418   7.163
21230TIP3    H163575   3.678   7.476   7.089
21230TIP3    H263576   3.618   7.483   7.228
21231TIP3   OH263577   4.303   7.585   7.395
21231TIP3    H163578   4.365   7.632   7.337
21231TIP3    H263579   4.330   7.616   7.482
21232TIP3   OH263580   4.852   7.729   7.380
21232TIP3    H163581   4.850   7.693   7.291
21232TIP3    H263582   4.839   7.648   7.434
21233TIP3   OH263583   4.882   7.651   6.942
21233TIP3    H163584   4.794   7.691   6.950
21233TIP3    H263585   4.867   7.565   6.988
21234TIP3   OH263586   3.364   8.990   6.948
21234TIP3    H163587   3.280   8.958   6.911
21234TIP3    H263588   3.356   9.085   6.925
21235TIP3   OH263589   3.764   7.579   6.927
21235TIP3    H163590   3.812   7.516   6.870
21235TIP3    H263591   3.837   7.632   6.963
21236TIP3   OH263592   4.275   7.755   7.026
21236TIP3    H163593   4.335   7.705   7.084
21236TIP3    H263594   4.300   7.846   7.051
21237TIP3   OH263595   4.138   9.178   6.526
21237TIP3    H163596   4.225   9.202   6.488
21237TIP3    H263597   4.114   9.104   6.466
21238TIP3   OH263598   4.857   9.297   6.617
21238TIP3    H163599   4.847   9.200   6.603
21238TIP3    H263600   4.810   9.331   6.537
21239TIP3   OH263601   4.070   7.833   8.405
21239TIP3    H163602   4.035   7.763   8.463
21239TIP3    H263603   4.164   7.832   8.433
21240TIP3   OH263604   4.318   7.827   8.525
21240TIP3    H163605   4.403   7.798   8.489
21240TIP3    H263606   4.302   7.759   8.593
21241TIP3   OH263607   3.438   9.012   6.581
21241TIP3    H163608   3.439   9.051   6.670
21241TIP3    H263609   3.529   8.975   6.573
21242TIP3   OH263610   5.141   7.888   8.314
21242TIP3    H163611   5.161   7.858   8.405
21242TIP3    H263612   5.230   7.882   8.272
21243TIP3   OH263613   5.086   9.443   7.800
21243TIP3    H163614   5.006   9.410   7.755
21243TIP3    H263615   5.063   9.538   7.806
21244TIP3   OH263616   6.348   8.811   6.574
21244TIP3    H163617   6.321   8.904   6.554
21244TIP3    H263618   6.271   8.764   6.537
21245TIP3   OH263619   6.332   8.818   6.944
21245TIP3    H163620   6.358   8.790   7.035
21245TIP3    H263621   6.301   8.733   6.908
21246TIP3   OH263622   5.655   8.721   7.325
21246TIP3    H163623   5.681   8.650   7.387
21246TIP3    H263624   5.739   8.739   7.279
21247TIP3   OH263625   6.585   9.112   6.630
21247TIP3    H163626   6.583   9.045   6.699
21247TIP3    H263627   6.617   9.190   6.681
21248TIP3   OH263628   5.628   9.117   7.063
21248TIP3    H163629   5.615   9.020   7.054
21248TIP3    H263630   5.720   9.125   7.033
21249TIP3   OH263631   5.323   8.324   6.831
21249TIP3    H163632   5.273   8.407   6.841
21249TIP3    H263633   5.255   8.267   6.791
21250TIP3   OH263634   5.386   8.611   7.000
21250TIP3    H163635   5.434   8.533   7.035
21250TIP3    H263636   5.440   8.633   6.923
21251TIP3   OH263637   6.242   9.578   6.651
21251TIP3    H163638   6.286   9.508   6.598
21251TIP3    H263639   6.235   9.536   6.737
21252TIP3   OH263640   6.144   9.036   7.005
21252TIP3    H163641   6.183   8.960   6.958
21252TIP3    H263642   6.227   9.083   7.027
21253TIP3   OH263643   7.162   8.353   6.989
21253TIP3    H163644   7.186   8.436   7.034
21253TIP3    H263645   7.182   8.376   6.896
21254TIP3   OH263646   6.553   8.544   7.034
21254TIP3    H163647   6.602   8.463   7.057
21254TIP3    H263648   6.528   8.525   6.942
21255TIP3   OH263649   5.892   8.200   7.001
21255TIP3    H163650   5.875   8.272   6.936
21255TIP3    H263651   5.847   8.126   6.955
21256TIP3   OH263652   6.589   8.291   6.622
21256TIP3    H163653   6.662   8.275   6.686
21256TIP3    H263654   6.640   8.327   6.547
21257TIP3   OH263655   5.530   8.402   7.107
21257TIP3    H163656   5.613   8.379   7.152
21257TIP3    H263657   5.540   8.347   7.026
21258TIP3   OH263658   5.968   8.599   6.907
21258TIP3    H163659   6.063   8.576   6.915
21258TIP3    H263660   5.931   8.516   6.870
21259TIP3   OH263661   7.215   8.556   7.168
21259TIP3    H163662   7.132   8.597   7.136
21259TIP3    H263663   7.193   8.545   7.262
21260TIP3   OH263664   5.892   8.184   7.434
21260TIP3    H163665   5.833   8.219   7.364
21260TIP3    H263666   5.839   8.203   7.514
21261TIP3   OH263667   6.237   9.032   6.444
21261TIP3    H163668   6.200   9.013   6.357
21261TIP3    H263669   6.195   9.118   6.465
21262TIP3   OH263670   5.996   8.960   7.231
21262TIP3    H163671   5.937   9.030   7.265
21262TIP3    H263672   6.044   9.006   7.159
21263TIP3   OH263673   6.800   8.293   6.792
21263TIP3    H163674   6.796   8.244   6.875
21263TIP3    H263675   6.853   8.371   6.817
21264TIP3   OH263676   5.763   8.298   7.219
21264TIP3    H163677   5.827   8.370   7.239
21264TIP3    H263678   5.809   8.256   7.142
21265TIP3   OH263679   5.810   9.151   7.341
21265TIP3    H163680   5.799   9.237   7.296
21265TIP3    H263681   5.722   9.112   7.332
21266TIP3   OH263682   5.223   8.842   6.562
21266TIP3    H163683   5.181   8.867   6.478
21266TIP3    H263684   5.251   8.929   6.598
21267TIP3   OH263685   6.643   9.331   6.784
21267TIP3    H163686   6.559   9.338   6.833
21267TIP3    H263687   6.657   9.424   6.759
21268TIP3   OH263688   6.952   8.279   7.163
21268TIP3    H163689   6.862   8.299   7.130
21268TIP3    H263690   7.008   8.298   7.085
21269TIP3   OH263691   6.247   7.904   7.140
21269TIP3    H163692   6.241   7.809   7.162
21269TIP3    H263693   6.169   7.938   7.190
21270TIP3   OH263694   6.359   9.407   6.470
21270TIP3    H163695   6.411   9.325   6.453
21270TIP3    H263696   6.422   9.473   6.433
21271TIP3   OH263697   6.503   9.191   6.381
21271TIP3    H163698   6.474   9.109   6.340
21271TIP3    H263699   6.539   9.158   6.467
21272TIP3   OH263700   6.178   8.666   6.401
21272TIP3    H163701   6.098   8.717   6.377
21272TIP3    H263702   6.227   8.662   6.317
21273TIP3   OH263703   6.137   8.450   6.121
21273TIP3    H163704   6.206   8.499   6.169
21273TIP3    H263705   6.193   8.385   6.072
21274TIP3   OH263706   7.080   8.890   6.983
21274TIP3    H163707   7.003   8.951   6.988
21274TIP3    H263708   7.121   8.923   6.900
21275TIP3   OH263709   6.525   8.747   6.375
21275TIP3    H163710   6.472   8.773   6.454
21275TIP3    H263711   6.609   8.721   6.418
21276TIP3   OH263712   6.676   8.788   7.270
21276TIP3    H163713   6.741   8.852   7.302
21276TIP3    H263714   6.637   8.834   7.195
21277TIP3   OH263715   5.758   8.746   6.792
21277TIP3    H163716   5.716   8.689   6.725
21277TIP3    H263717   5.834   8.692   6.820
21278TIP3   OH263718   5.882   9.146   6.944
21278TIP3    H163719   5.867   9.114   6.854
21278TIP3    H263720   5.975   9.118   6.960
21279TIP3   OH263721   5.886   8.719   7.150
21279TIP3    H163722   5.921   8.692   7.062
21279TIP3    H263723   5.936   8.802   7.167
21280TIP3   OH263724   6.409   9.358   6.923
21280TIP3    H163725   6.408   9.435   6.982
21280TIP3    H263726   6.402   9.282   6.984
21281TIP3   OH263727   6.032   9.277   7.462
21281TIP3    H163728   5.971   9.337   7.509
21281TIP3    H263729   5.968   9.216   7.420
21282TIP3   OH263730   6.367   8.606   6.201
21282TIP3    H163731   6.426   8.664   6.253
21282TIP3    H263732   6.393   8.631   6.109
21283TIP3   OH263733   6.107   9.289   6.480
21283TIP3    H163734   6.190   9.338   6.491
21283TIP3    H263735   6.049   9.353   6.437
21284TIP3   OH263736   5.828   9.436   7.559
21284TIP3    H163737   5.803   9.448   7.465
21284TIP3    H263738   5.743   9.421   7.602
21285TIP3   OH263739   6.883   7.847   6.248
21285TIP3    H163740   6.802   7.866   6.300
21285TIP3    H263741   6.895   7.931   6.199
21286TIP3   OH263742   5.622   8.590   6.601
21286TIP3    H163743   5.559   8.634   6.540
21286TIP3    H263744   5.585   8.501   6.605
21287TIP3   OH263745   6.681   9.215   5.798
21287TIP3    H163746   6.689   9.311   5.782
21287TIP3    H263747   6.773   9.185   5.784
21288TIP3   OH263748   5.423   8.980   7.494
21288TIP3    H163749   5.353   8.962   7.428
21288TIP3    H263750   5.451   8.889   7.518
21289TIP3   OH263751   5.258   9.162   7.143
21289TIP3    H163752   5.352   9.166   7.122
21289TIP3    H263753   5.242   9.249   7.185
21290TIP3   OH263754   6.214   9.418   7.315
21290TIP3    H163755   6.229   9.489   7.380
21290TIP3    H263756   6.154   9.360   7.367
21291TIP3   OH263757   5.990   9.531   6.278
21291TIP3    H163758   5.945   9.512   6.194
21291TIP3    H263759   5.958   9.621   6.300
21292TIP3   OH263760   5.428   9.381   6.660
21292TIP3    H163761   5.476   9.371   6.745
21292TIP3    H263762   5.368   9.305   6.665
21293TIP3   OH263763   6.192   9.432   5.919
21293TIP3    H163764   6.251   9.362   5.881
21293TIP3    H263765   6.228   9.440   6.010
21294TIP3   OH263766   6.243   9.481   6.190
21294TIP3    H163767   6.155   9.489   6.232
21294TIP3    H263768   6.294   9.439   6.261
21295TIP3   OH263769   6.935   8.754   7.379
21295TIP3    H163770   6.997   8.828   7.378
21295TIP3    H263771   6.998   8.681   7.391
21296TIP3   OH263772   6.009   7.977   7.275
21296TIP3    H163773   5.920   7.947   7.250
21296TIP3    H263774   5.987   8.062   7.318
21297TIP3   OH263775   6.545   8.098   7.471
21297TIP3    H163776   6.616   8.065   7.530
21297TIP3    H263777   6.463   8.072   7.518
21298TIP3   OH263778   6.774   8.512   7.381
21298TIP3    H163779   6.727   8.521   7.466
21298TIP3    H263780   6.771   8.604   7.348
21299TIP3   OH263781   6.442   8.654   5.944
21299TIP3    H163782   6.410   8.627   5.856
21299TIP3    H263783   6.524   8.702   5.920
21300TIP3   OH263784   6.155   8.029   6.246
21300TIP3    H163785   6.124   8.027   6.338
21300TIP3    H263786   6.118   7.945   6.213
21301TIP3   OH263787   5.940   8.494   7.293
21301TIP3    H163788   5.895   8.518   7.376
21301TIP3    H263789   5.926   8.574   7.239
21302TIP3   OH263790   5.825   8.381   6.808
21302TIP3    H163791   5.733   8.353   6.824
21302TIP3    H263792   5.841   8.341   6.720
21303TIP3   OH263793   6.316   8.466   6.534
21303TIP3    H163794   6.263   8.538   6.493
21303TIP3    H263795   6.371   8.437   6.459
21304TIP3   OH263796   6.491   8.752   7.624
21304TIP3    H163797   6.461   8.671   7.671
21304TIP3    H263798   6.579   8.726   7.595
21305TIP3   OH263799   6.472   8.494   6.775
21305TIP3    H163800   6.415   8.525   6.702
21305TIP3    H263801   6.506   8.412   6.733
21306TIP3   OH263802   5.755   8.526   7.506
21306TIP3    H163803   5.800   8.571   7.578
21306TIP3    H263804   5.741   8.437   7.544
21307TIP3   OH263805   5.811   8.000   6.213
21307TIP3    H163806   5.804   7.997   6.310
21307TIP3    H263807   5.731   8.051   6.189
21308TIP3   OH263808   5.353   8.047   7.085
21308TIP3    H163809   5.432   8.077   7.136
21308TIP3    H263810   5.390   8.013   7.002
21309TIP3   OH263811   5.329   8.026   6.603
21309TIP3    H163812   5.373   8.065   6.525
21309TIP3    H263813   5.267   8.099   6.625
21310TIP3   OH263814   6.417   8.727   7.184
21310TIP3    H163815   6.473   8.664   7.132
21310TIP3    H263816   6.460   8.715   7.270
21311TIP3   OH263817   6.151   8.205   6.870
21311TIP3    H163818   6.072   8.201   6.926
21311TIP3    H263819   6.223   8.201   6.935
21312TIP3   OH263820   5.587   8.257   6.880
21312TIP3    H163821   5.493   8.263   6.851
21312TIP3    H263822   5.612   8.167   6.854
21313TIP3   OH263823   5.857   8.256   6.566
21313TIP3    H163824   5.952   8.269   6.546
21313TIP3    H263825   5.813   8.279   6.481
21314TIP3   OH263826   6.646   8.280   7.073
21314TIP3    H163827   6.607   8.291   7.162
21314TIP3    H263828   6.583   8.218   7.033
21315TIP3   OH263829   5.696   8.290   6.344
21315TIP3    H163830   5.625   8.244   6.295
21315TIP3    H263831   5.749   8.325   6.270
21316TIP3   OH263832   6.235   8.528   6.962
21316TIP3    H163833   6.309   8.493   6.910
21316TIP3    H263834   6.254   8.493   7.051
21317TIP3   OH263835   5.760   8.019   6.843
21317TIP3    H163836   5.729   7.938   6.888
21317TIP3    H263837   5.814   7.983   6.772
21318TIP3   OH263838   6.212   8.418   7.261
21318TIP3    H163839   6.126   8.462   7.271
21318TIP3    H263840   6.273   8.478   7.310
21319TIP3   OH263841   5.948   8.820   6.350
21319TIP3    H163842   5.876   8.753   6.340
21319TIP3    H263843   5.932   8.852   6.442
21320TIP3   OH263844   6.850   9.039   6.987
21320TIP3    H163845   6.878   9.092   6.908
21320TIP3    H263846   6.763   9.005   6.957
21321TIP3   OH263847   6.408   8.131   6.213
21321TIP3    H163848   6.311   8.116   6.221
21321TIP3    H263849   6.419   8.226   6.236
21322TIP3   OH263850   6.322   9.122   7.359
21322TIP3    H163851   6.377   9.101   7.437
21322TIP3    H263852   6.327   9.218   7.356
21323TIP3   OH263853   6.478   8.377   6.316
21323TIP3    H163854   6.574   8.383   6.332
21323TIP3    H263855   6.461   8.457   6.262
21324TIP3   OH263856   5.642   8.842   7.026
21324TIP3    H163857   5.676   8.817   6.937
21324TIP3    H263858   5.684   8.775   7.081
21325TIP3   OH263859   6.095   8.968   6.171
21325TIP3    H163860   6.048   9.054   6.179
21325TIP3    H263861   6.041   8.912   6.231
21326TIP3   OH263862   5.506   8.771   7.654
21326TIP3    H163863   5.519   8.731   7.741
21326TIP3    H263864   5.448   8.705   7.611
21327TIP3   OH263865   6.239   8.850   7.667
21327TIP3    H163866   6.195   8.816   7.588
21327TIP3    H263867   6.332   8.838   7.641
21328TIP3   OH263868   6.479   9.372   7.269
21328TIP3    H163869   6.384   9.385   7.249
21328TIP3    H263870   6.487   9.420   7.352
21329TIP3   OH263871   6.921   8.466   6.153
21329TIP3    H163872   6.858   8.421   6.092
21329TIP3    H263873   6.917   8.555   6.112
21330TIP3   OH263874   6.617   9.287   6.060
21330TIP3    H163875   6.597   9.214   6.122
21330TIP3    H263876   6.632   9.241   5.976
21331TIP3   OH263877   6.606   8.911   6.910
21331TIP3    H163878   6.512   8.885   6.908
21331TIP3    H263879   6.647   8.837   6.860
21332TIP3   OH263880   5.742   9.145   6.659
21332TIP3    H163881   5.748   9.225   6.603
21332TIP3    H263882   5.647   9.128   6.655
21333TIP3   OH263883   5.305   8.448   6.355
21333TIP3    H163884   5.352   8.532   6.375
21333TIP3    H263885   5.228   8.455   6.415
21334TIP3   OH263886   5.880   8.910   6.598
21334TIP3    H163887   5.848   9.000   6.617
21334TIP3    H263888   5.844   8.860   6.673
21335TIP3   OH263889   6.008   9.484   7.123
21335TIP3    H163890   6.044   9.562   7.077
21335TIP3    H263891   6.087   9.454   7.172
21336TIP3   OH263892   5.664   9.381   6.506
21336TIP3    H163893   5.577   9.391   6.550
21336TIP3    H263894   5.696   9.474   6.508
21337TIP3   OH263895   6.398   9.123   7.080
21337TIP3    H163896   6.396   9.107   7.176
21337TIP3    H263897   6.478   9.075   7.054
21338TIP3   OH263898   6.373   9.013   5.964
21338TIP3    H163899   6.428   8.989   6.042
21338TIP3    H263900   6.285   8.987   5.995
21339TIP3   OH263901   6.716   9.490   5.784
21339TIP3    H163902   6.757   9.563   5.734
21339TIP3    H263903   6.635   9.536   5.814
21340TIP3   OH263904   5.731   8.271   7.652
21340TIP3    H163905   5.634   8.271   7.660
21340TIP3    H263906   5.756   8.201   7.714
21341TIP3   OH263907   6.534   8.950   6.182
21341TIP3    H163908   6.525   8.882   6.252
21341TIP3    H263909   6.631   8.947   6.168
21342TIP3   OH263910   5.442   9.360   7.276
21342TIP3    H163911   5.496   9.283   7.296
21342TIP3    H263912   5.478   9.429   7.332
21343TIP3   OH263913   5.739   8.996   5.962
21343TIP3    H163914   5.756   8.905   5.932
21343TIP3    H263915   5.721   8.982   6.057
21344TIP3   OH263916   5.686   9.000   6.236
21344TIP3    H163917   5.760   8.972   6.292
21344TIP3    H263918   5.691   9.098   6.242
21345TIP3   OH263919   5.423   8.694   6.437
21345TIP3    H163920   5.357   8.739   6.494
21345TIP3    H263921   5.438   8.763   6.370
21346TIP3   OH263922   6.562   8.335   7.330
21346TIP3    H163923   6.648   8.375   7.354
21346TIP3    H263924   6.558   8.254   7.385
21347TIP3   OH263925   6.448   8.084   6.493
21347TIP3    H163926   6.437   8.107   6.399
21347TIP3    H263927   6.490   8.165   6.530
21348TIP3   OH263928   5.951   9.197   6.184
21348TIP3    H163929   5.865   9.227   6.219
21348TIP3    H263930   5.970   9.267   6.120
21349TIP3   OH263931   6.139   8.261   6.597
21349TIP3    H163932   6.205   8.331   6.578
21349TIP3    H263933   6.146   8.253   6.694
21350TIP3   OH263934   6.392   8.563   7.419
21350TIP3    H163935   6.430   8.624   7.484
21350TIP3    H263936   6.462   8.496   7.408
21351TIP3   OH263937   6.286   7.989   6.699
21351TIP3    H163938   6.285   8.063   6.762
21351TIP3    H263939   6.346   8.025   6.630
21352TIP3   OH263940   5.693   9.273   6.250
21352TIP3    H163941   5.664   9.343   6.187
21352TIP3    H263942   5.679   9.318   6.336
21353TIP3   OH263943   5.796   7.985   6.489
21353TIP3    H163944   5.794   8.076   6.525
21353TIP3    H263945   5.892   7.966   6.497
21354TIP3   OH263946   7.041   8.468   7.367
21354TIP3    H163947   6.947   8.481   7.392
21354TIP3    H263948   7.026   8.405   7.294
21355TIP3   OH263949   6.699   8.676   6.774
21355TIP3    H163950   6.625   8.615   6.787
21355TIP3    H263951   6.773   8.629   6.819
21356TIP3   OH263952   5.413   8.905   6.244
21356TIP3    H163953   5.479   8.975   6.253
21356TIP3    H263954   5.458   8.850   6.177
21357TIP3   OH263955   5.358   8.178   6.378
21357TIP3    H163956   5.357   8.276   6.372
21357TIP3    H263957   5.277   8.154   6.333
21358TIP3   OH263958   6.656   9.604   6.711
21358TIP3    H163959   6.615   9.672   6.654
21358TIP3    H263960   6.746   9.599   6.674
21359TIP3   OH263961   5.743   7.899   7.253
21359TIP3    H163962   5.714   7.866   7.165
21359TIP3    H263963   5.734   7.819   7.308
21360TIP3   OH263964   5.286   9.118   6.634
21360TIP3    H163965   5.211   9.150   6.686
21360TIP3    H263966   5.265   9.157   6.546
21361TIP3   OH263967   5.440   9.648   7.685
21361TIP3    H163968   5.512   9.661   7.749
21361TIP3    H263969   5.408   9.558   7.706
21362TIP3   OH263970   5.904   9.200   5.877
21362TIP3    H163971   5.849   9.127   5.914
21362TIP3    H263972   5.980   9.148   5.842
21363TIP3   OH263973   6.340   9.241   5.786
21363TIP3    H163974   6.387   9.179   5.844
21363TIP3    H263975   6.395   9.242   5.706
21364TIP3   OH263976   5.548   8.717   6.096
21364TIP3    H163977   5.603   8.682   6.168
21364TIP3    H263978   5.615   8.721   6.024
21365TIP3   OH263979   6.164   9.137   7.671
21365TIP3    H163980   6.153   9.170   7.580
21365TIP3    H263981   6.231   9.067   7.659
21366TIP3   OH263982   6.054   8.913   5.903
21366TIP3    H163983   6.059   8.927   5.999
21366TIP3    H263984   6.056   8.815   5.898
21367TIP3   OH263985   6.628   9.132   7.281
21367TIP3    H163986   6.713   9.165   7.244
21367TIP3    H263987   6.574   9.212   7.276
21368TIP3   OH263988   5.709   8.830   7.866
21368TIP3    H163989   5.752   8.745   7.851
21368TIP3    H263990   5.687   8.825   7.960
21369TIP3   OH263991   5.757   8.619   6.318
21369TIP3    H163992   5.733   8.574   6.401
21369TIP3    H263993   5.793   8.544   6.265
21370TIP3   OH263994   6.020   8.675   7.538
21370TIP3    H163995   5.981   8.761   7.557
21370TIP3    H263996   6.080   8.699   7.463
21371TIP3   OH263997   5.857   8.413   6.160
21371TIP3    H163998   5.831   8.413   6.065
21371TIP3    H263999   5.955   8.419   6.151
21372TIP3   OH264000   6.679   8.745   5.821
21372TIP3    H164001   6.658   8.697   5.738
21372TIP3    H264002   6.648   8.835   5.796
21373TIP3   OH264003   6.138   8.467   7.680
21373TIP3    H164004   6.150   8.387   7.625
21373TIP3    H264005   6.106   8.531   7.614
21374TIP3   OH264006   6.150   8.260   7.485
21374TIP3    H164007   6.182   8.299   7.401
21374TIP3    H264008   6.058   8.235   7.462
21375TIP3   OH264009   6.183   8.794   7.360
21375TIP3    H164010   6.260   8.777   7.303
21375TIP3    H264011   6.138   8.866   7.311
21376TIP3   OH264012   6.005   8.590   7.893
21376TIP3    H164013   5.952   8.508   7.903
21376TIP3    H264014   6.053   8.569   7.810
21377TIP3   OH264015   6.284   8.024   7.548
21377TIP3    H164016   6.236   8.106   7.524
21377TIP3    H264017   6.216   7.955   7.532
21378TIP3   OH264018   6.398   8.538   7.758
21378TIP3    H164019   6.412   8.515   7.852
21378TIP3    H264020   6.307   8.503   7.743
21379TIP3   OH264021   6.629   8.505   7.607
21379TIP3    H164022   6.550   8.483   7.661
21379TIP3    H264023   6.695   8.445   7.650
21380TIP3   OH264024   6.800   8.355   7.744
21380TIP3    H164025   6.856   8.278   7.769
21380TIP3    H264026   6.832   8.425   7.802
21381TIP3   OH264027   5.869   8.364   7.957
21381TIP3    H164028   5.871   8.276   7.913
21381TIP3    H264029   5.908   8.339   8.044
21382TIP3   OH264030   6.375   8.028   7.806
21382TIP3    H164031   6.447   7.961   7.800
21382TIP3    H264032   6.340   8.022   7.714
21383TIP3   OH264033   6.427   8.236   7.973
21383TIP3    H164034   6.416   8.165   7.905
21383TIP3    H264035   6.356   8.298   7.950
21384TIP3   OH264036   5.664   9.475   6.062
21384TIP3    H164037   5.760   9.471   6.044
21384TIP3    H264038   5.635   9.524   5.984
21385TIP3   OH264039   5.145   8.856   6.281
21385TIP3    H164040   5.239   8.879   6.267
21385TIP3    H264041   5.140   8.768   6.239
21386TIP3   OH264042   5.059   9.469   6.690
21386TIP3    H164043   4.990   9.408   6.656
21386TIP3    H264044   5.103   9.412   6.757
21387TIP3   OH264045   5.195   9.322   6.877
21387TIP3    H164046   5.178   9.250   6.939
21387TIP3    H264047   5.245   9.384   6.934
21388TIP3   OH264048   6.813   8.933   6.154
21388TIP3    H164049   6.883   8.995   6.127
21388TIP3    H264050   6.854   8.891   6.233
21389TIP3   OH264051   6.937   8.798   6.355
21389TIP3    H164052   6.875   8.757   6.418
21389TIP3    H264053   7.006   8.835   6.414
21390TIP3   OH264054   6.961   9.171   6.779
21390TIP3    H164055   7.048   9.141   6.750
21390TIP3    H264056   6.960   9.263   6.752
21391TIP3   OH264057   6.880   8.706   6.005
21391TIP3    H164058   6.808   8.710   5.938
21391TIP3    H264059   6.854   8.782   6.061
21392TIP3   OH264060   6.750   8.380   5.961
21392TIP3    H164061   6.710   8.419   5.882
21392TIP3    H264062   6.724   8.285   5.950
21393TIP3   OH264063   6.754   8.654   6.505
21393TIP3    H164064   6.765   8.557   6.502
21393TIP3    H264065   6.742   8.671   6.601
21394TIP3   OH264066   5.386   8.725   7.254
21394TIP3    H164067   5.383   8.697   7.159
21394TIP3    H264068   5.483   8.734   7.267
21395TIP3   OH264069   6.695   8.113   5.946
21395TIP3    H164070   6.770   8.083   6.000
21395TIP3    H264071   6.622   8.054   5.973
21396TIP3   OH264072   6.751   8.370   6.400
21396TIP3    H164073   6.792   8.281   6.415
21396TIP3    H264074   6.810   8.404   6.331
21397TIP3   OH264075   6.913   8.540   6.884
21397TIP3    H164076   7.000   8.567   6.847
21397TIP3    H264077   6.922   8.579   6.973
21398TIP3   OH264078   6.977   8.675   7.113
21398TIP3    H164079   6.929   8.710   7.190
21398TIP3    H264080   7.008   8.758   7.069
21399TIP3   OH264081   5.606   8.422   7.945
21399TIP3    H164082   5.700   8.401   7.930
21399TIP3    H264083   5.573   8.334   7.973
21400TIP3   OH264084   6.861   8.120   6.438
21400TIP3    H164085   6.909   8.104   6.521
21400TIP3    H264086   6.801   8.043   6.436
21401TIP3   OH264087   5.560   8.108   7.262
21401TIP3    H164088   5.622   8.032   7.268
21401TIP3    H264089   5.624   8.182   7.252
21402TIP3   OH264090   5.365   8.383   7.332
21402TIP3    H164091   5.412   8.369   7.248
21402TIP3    H264092   5.394   8.472   7.354
21403TIP3   OH264093   7.288   8.407   7.454
21403TIP3    H164094   7.196   8.436   7.436
21403TIP3    H264095   7.280   8.315   7.423
21404TIP3   OH264096   6.942   8.057   6.069
21404TIP3    H164097   6.983   7.984   6.018
21404TIP3    H264098   7.010   8.127   6.062
21405TIP3   OH264099   5.346   7.890   6.836
21405TIP3    H164100   5.251   7.884   6.856
21405TIP3    H264101   5.346   7.944   6.754
21406TIP3   OH264102   6.507   9.592   6.340
21406TIP3    H164103   6.551   9.570   6.255
21406TIP3    H264104   6.572   9.652   6.378
21407TIP3   OH264105   5.568   7.972   7.650
21407TIP3    H164106   5.514   7.960   7.730
21407TIP3    H264107   5.501   8.005   7.587
21408TIP3   OH264108   5.600   9.293   7.731
21408TIP3    H164109   5.513   9.336   7.712
21408TIP3    H264110   5.617   9.332   7.820
21409TIP3   OH264111   5.784   9.423   7.276
21409TIP3    H164112   5.735   9.497   7.233
21409TIP3    H264113   5.869   9.436   7.228
21410TIP3   OH264114   7.196   8.165   7.364
21410TIP3    H164115   7.103   8.147   7.338
21410TIP3    H264116   7.233   8.074   7.353
21411TIP3   OH264117   5.460   9.678   7.302
21411TIP3    H164118   5.373   9.711   7.268
21411TIP3    H264119   5.459   9.718   7.389
21412TIP3   OH264120   5.689   9.648   7.149
21412TIP3    H164121   5.605   9.669   7.195
21412TIP3    H264122   5.674   9.688   7.061
21413TIP3   OH264123   6.124   9.695   6.953
21413TIP3    H164124   6.058   9.708   6.882
21413TIP3    H264125   6.100   9.767   7.013
21414TIP3   OH264126   6.395   9.643   6.988
21414TIP3    H164127   6.299   9.653   6.977
21414TIP3    H264128   6.429   9.665   6.900
21415TIP3   OH264129   5.372   9.477   7.034
21415TIP3    H164130   5.395   9.452   7.126
21415TIP3    H264131   5.446   9.435   6.985
21416TIP3   OH264132   5.567   9.346   6.896
21416TIP3    H164133   5.587   9.262   6.942
21416TIP3    H264134   5.656   9.386   6.889
21417TIP3   OH264135   5.830   9.443   6.897
21417TIP3    H164136   5.867   9.355   6.878
21417TIP3    H264137   5.875   9.463   6.981
21418TIP3   OH264138   6.404   8.096   6.979
21418TIP3    H164139   6.364   8.026   7.033
21418TIP3    H264140   6.481   8.050   6.939
21419TIP3   OH264141   6.932   7.980   6.891
21419TIP3    H164142   6.968   8.031   6.815
21419TIP3    H264143   6.837   7.997   6.884
21420TIP3   OH264144   7.027   8.079   6.654
21420TIP3    H164145   7.101   8.027   6.614
21420TIP3    H264146   7.061   8.171   6.639
21421TIP3   OH264147   5.658   7.807   7.005
21421TIP3    H164148   5.566   7.773   7.002
21421TIP3    H264149   5.707   7.722   7.000
21422TIP3   OH264150   5.444   7.675   6.650
21422TIP3    H164151   5.475   7.731   6.577
21422TIP3    H264152   5.415   7.741   6.716
21423TIP3   OH264153   6.098   7.843   6.884
21423TIP3    H164154   6.157   7.889   6.823
21423TIP3    H264155   6.130   7.874   6.969
21424TIP3   OH264156   6.646   7.984   6.869
21424TIP3    H164157   6.648   7.946   6.780
21424TIP3    H264158   6.634   7.903   6.924
21425TIP3   OH264159   6.678   7.907   6.428
21425TIP3    H164160   6.591   7.948   6.438
21425TIP3    H264161   6.664   7.822   6.476
21426TIP3   OH264162   5.162   9.245   6.431
21426TIP3    H164163   5.076   9.212   6.396
21426TIP3    H264164   5.149   9.340   6.416
21427TIP3   OH264165   5.560   7.836   6.414
21427TIP3    H164166   5.609   7.773   6.357
21427TIP3    H264167   5.634   7.889   6.450
21428TIP3   OH264168   6.073   8.010   6.512
21428TIP3    H164169   6.134   7.964   6.572
21428TIP3    H264170   6.095   8.103   6.537
21429TIP3   OH264171   5.933   9.437   6.011
21429TIP3    H164172   6.022   9.458   5.976
21429TIP3    H264173   5.911   9.361   5.953
21430TIP3   OH264174   6.648   9.552   6.105
21430TIP3    H164175   6.641   9.455   6.090
21430TIP3    H264176   6.608   9.586   6.023
21431TIP3   OH264177   5.864   8.093   7.897
21431TIP3    H164178   5.833   8.018   7.950
21431TIP3    H264179   5.960   8.090   7.917
21432TIP3   OH264180   6.116   8.090   8.013
21432TIP3    H164181   6.197   8.065   7.965
21432TIP3    H264182   6.112   8.022   8.083
21433TIP3   OH264183   5.237   9.274   6.069
21433TIP3    H164184   5.236   9.299   6.162
21433TIP3    H264185   5.325   9.232   6.058
21434TIP3   OH264186   6.940   8.124   7.795
21434TIP3    H164187   6.957   8.082   7.882
21434TIP3    H264188   7.028   8.125   7.752
21435TIP3   OH264189   7.121   8.578   6.316
21435TIP3    H164190   7.075   8.663   6.330
21435TIP3    H264191   7.049   8.525   6.278
21436TIP3   OH264192   7.174   8.862   6.475
21436TIP3    H164193   7.223   8.790   6.520
21436TIP3    H264194   7.244   8.905   6.425
21437TIP3   OH264195   7.693   8.460   6.487
21437TIP3    H164196   7.670   8.529   6.421
21437TIP3    H264197   7.645   8.384   6.448
21438TIP3   OH264198   8.351   8.529   6.096
21438TIP3    H164199   8.398   8.540   6.180
21438TIP3    H264200   8.395   8.596   6.042
21439TIP3   OH264201   7.320   8.662   6.590
21439TIP3    H164202   7.402   8.640   6.638
21439TIP3    H264203   7.331   8.606   6.511
21440TIP3   OH264204   7.748   8.856   6.382
21440TIP3    H164205   7.844   8.842   6.387
21440TIP3    H264206   7.715   8.768   6.352
21441TIP3   OH264207   7.670   8.430   6.899
21441TIP3    H164208   7.623   8.476   6.827
21441TIP3    H264209   7.620   8.464   6.975
21442TIP3   OH264210   7.556   8.573   6.698
21442TIP3    H164211   7.606   8.653   6.721
21442TIP3    H264212   7.610   8.533   6.626
21443TIP3   OH264213   7.019   9.098   6.048
21443TIP3    H164214   6.977   9.124   5.965
21443TIP3    H264215   7.049   9.185   6.084
21444TIP3   OH264216   8.044   8.165   6.622
21444TIP3    H164217   8.041   8.071   6.648
21444TIP3    H264218   7.970   8.199   6.676
21445TIP3   OH264219   7.958   8.899   5.867
21445TIP3    H164220   7.890   8.968   5.856
21445TIP3    H264221   8.024   8.923   5.800
21446TIP3   OH264222   7.931   8.705   5.603
21446TIP3    H164223   7.990   8.750   5.667
21446TIP3    H264224   7.994   8.645   5.558
21447TIP3   OH264225   7.565   9.017   6.266
21447TIP3    H164226   7.514   8.956   6.208
21447TIP3    H264227   7.631   8.955   6.305
21448TIP3   OH264228   8.180   8.872   5.689
21448TIP3    H164229   8.241   8.936   5.727
21448TIP3    H264230   8.193   8.888   5.593
21449TIP3   OH264231   8.676   8.107   5.730
21449TIP3    H164232   8.595   8.125   5.783
21449TIP3    H264233   8.685   8.189   5.678
21450TIP3   OH264234   7.420   8.850   6.087
21450TIP3    H164235   7.354   8.892   6.028
21450TIP3    H264236   7.382   8.763   6.100
21451TIP3   OH264237   7.218   9.636   6.163
21451TIP3    H164238   7.232   9.649   6.258
21451TIP3    H264239   7.152   9.565   6.164
21452TIP3   OH264240   7.995   9.690   5.411
21452TIP3    H164241   8.047   9.622   5.362
21452TIP3    H264242   8.028   9.677   5.500
21453TIP3   OH264243   7.811   8.236   6.761
21453TIP3    H164244   7.722   8.202   6.737
21453TIP3    H264245   7.783   8.317   6.808
21454TIP3   OH264246   8.239   8.917   5.431
21454TIP3    H164247   8.204   8.887   5.345
21454TIP3    H264248   8.325   8.954   5.402
21455TIP3   OH264249   7.953   8.285   5.733
21455TIP3    H164250   7.921   8.282   5.825
21455TIP3    H264251   7.914   8.201   5.700
21456TIP3   OH264252   7.619   8.632   6.292
21456TIP3    H164253   7.526   8.606   6.310
21456TIP3    H264254   7.632   8.592   6.203
21457TIP3   OH264255   8.098   8.710   6.008
21457TIP3    H164256   8.045   8.783   5.967
21457TIP3    H264257   8.150   8.678   5.932
21458TIP3   OH264258   7.608   8.257   5.700
21458TIP3    H164259   7.599   8.254   5.797
21458TIP3    H264260   7.528   8.308   5.675
21459TIP3   OH264261   7.150   8.303   6.569
21459TIP3    H164262   7.227   8.334   6.622
21459TIP3    H264263   7.191   8.269   6.488
21460TIP3   OH264264   7.125   8.283   6.089
21460TIP3    H164265   7.169   8.323   6.011
21460TIP3    H264266   7.064   8.356   6.112
21461TIP3   OH264267   7.947   8.454   6.357
21461TIP3    H164268   7.863   8.453   6.408
21461TIP3    H264269   8.012   8.470   6.427
21462TIP3   OH264270   7.383   8.514   6.364
21462TIP3    H164271   7.288   8.521   6.338
21462TIP3    H264272   7.405   8.422   6.342
21463TIP3   OH264273   7.652   8.509   6.051
21463TIP3    H164274   7.746   8.524   6.032
21463TIP3    H264275   7.607   8.535   5.967
21464TIP3   OH264276   7.492   8.546   5.831
21464TIP3    H164277   7.421   8.500   5.783
21464TIP3    H264278   7.544   8.581   5.756
21465TIP3   OH264279   7.558   8.275   6.333
21465TIP3    H164280   7.523   8.195   6.378
21465TIP3    H264281   7.607   8.238   6.259
21466TIP3   OH264282   7.744   9.081   5.836
21466TIP3    H164283   7.675   9.011   5.827
21466TIP3    H264284   7.732   9.109   5.930
21467TIP3   OH264285   8.202   8.389   5.695
21467TIP3    H164286   8.106   8.373   5.705
21467TIP3    H264287   8.213   8.483   5.722
21468TIP3   OH264288   8.268   8.634   5.798
21468TIP3    H164289   8.366   8.632   5.808
21468TIP3    H264290   8.254   8.715   5.745
21469TIP3   OH264291   7.421   9.030   6.502
21469TIP3    H164292   7.465   9.052   6.418
21469TIP3    H264293   7.493   8.989   6.552
21470TIP3   OH264294   7.879   9.223   5.639
21470TIP3    H164295   7.852   9.312   5.670
21470TIP3    H264296   7.841   9.168   5.711
21471TIP3   OH264297   8.717   8.712   5.626
21471TIP3    H164298   8.649   8.665   5.572
21471TIP3    H264299   8.713   8.797   5.577
21472TIP3   OH264300   7.539   9.390   6.156
21472TIP3    H164301   7.574   9.470   6.111
21472TIP3    H264302   7.444   9.395   6.134
21473TIP3   OH264303   7.102   8.705   5.842
21473TIP3    H164304   7.149   8.789   5.863
21473TIP3    H264305   7.025   8.711   5.902
21474TIP3   OH264306   7.705   9.175   6.093
21474TIP3    H164307   7.652   9.256   6.106
21474TIP3    H264308   7.655   9.112   6.150
21475TIP3   OH264309   7.396   9.669   5.957
21475TIP3    H164310   7.326   9.660   6.025
21475TIP3    H264311   7.477   9.668   6.010
21476TIP3   OH264312   8.162   9.273   5.446
21476TIP3    H164313   8.207   9.246   5.527
21476TIP3    H264314   8.071   9.245   5.466
21477TIP3   OH264315   7.474   8.508   7.098
21477TIP3    H164316   7.379   8.521   7.121
21477TIP3    H264317   7.502   8.441   7.161
21478TIP3   OH264318   7.538   9.252   5.450
21478TIP3    H164319   7.549   9.161   5.416
21478TIP3    H264320   7.517   9.236   5.544
21479TIP3   OH264321   7.482   9.257   5.723
21479TIP3    H164322   7.560   9.227   5.772
21479TIP3    H264323   7.488   9.355   5.731
21480TIP3   OH264324   7.220   8.951   5.925
21480TIP3    H164325   7.153   8.994   5.982
21480TIP3    H264326   7.232   9.020   5.857
21481TIP3   OH264327   8.240   8.320   5.968
21481TIP3    H164328   8.225   8.348   5.875
21481TIP3    H264329   8.276   8.403   6.008
21482TIP3   OH264330   7.748   9.468   5.687
21482TIP3    H164331   7.654   9.490   5.702
21482TIP3    H264332   7.768   9.526   5.612
21483TIP3   OH264333   7.931   8.508   6.085
21483TIP3    H164334   7.994   8.580   6.062
21483TIP3    H264335   7.938   8.506   6.183
21484TIP3   OH264336   8.080   8.245   6.189
21484TIP3    H164337   8.065   8.326   6.241
21484TIP3    H264338   8.140   8.278   6.119
21485TIP3   OH264339   7.487   9.534   5.736
21485TIP3    H164340   7.463   9.598   5.666
21485TIP3    H264341   7.446   9.580   5.813
21486TIP3   OH264342   7.591   8.242   5.976
21486TIP3    H164343   7.589   8.333   6.012
21486TIP3    H264344   7.687   8.223   5.984
21487TIP3   OH264345   7.209   9.160   5.732
21487TIP3    H164346   7.274   9.232   5.738
21487TIP3    H264347   7.253   9.106   5.663
21488TIP3   OH264348   7.155   8.435   5.863
21488TIP3    H164349   7.154   8.533   5.859
21488TIP3    H264350   7.071   8.412   5.822
21489TIP3   OH264351   7.544   8.155   6.737
21489TIP3    H164352   7.511   8.122   6.651
21489TIP3    H264353   7.534   8.076   6.795
21490TIP3   OH264354   7.082   9.369   6.118
21490TIP3    H164355   7.013   9.400   6.178
21490TIP3    H264356   7.055   9.412   6.034
21491TIP3   OH264357   7.705   9.452   5.365
21491TIP3    H164358   7.645   9.382   5.401
21491TIP3    H264359   7.774   9.398   5.325
21492TIP3   OH264360   8.136   9.502   5.277
21492TIP3    H164361   8.173   9.427   5.327
21492TIP3    H264362   8.182   9.496   5.190
21493TIP3   OH264363   7.345   8.974   5.582
21493TIP3    H164364   7.399   8.938   5.654
21493TIP3    H264365   7.411   8.978   5.510
21494TIP3   OH264366   7.853   9.167   5.378
21494TIP3    H164367   7.849   9.183   5.475
21494TIP3    H264368   7.852   9.069   5.377
21495TIP3   OH264369   7.557   8.876   5.808
21495TIP3    H164370   7.527   8.831   5.888
21495TIP3    H264371   7.591   8.801   5.754
21496TIP3   OH264372   7.652   8.669   5.646
21496TIP3    H164373   7.625   8.671   5.552
21496TIP3    H264374   7.750   8.677   5.637
21497TIP3   OH264375   8.470   9.001   5.304
21497TIP3    H164376   8.450   8.955   5.221
21497TIP3    H264377   8.445   9.093   5.278
21498TIP3   OH264378   7.464   9.738   5.553
21498TIP3    H164379   7.560   9.732   5.533
21498TIP3    H264380   7.433   9.778   5.469
21499TIP3   OH264381   6.940   9.113   5.767
21499TIP3    H164382   7.035   9.135   5.753
21499TIP3    H264383   6.935   9.025   5.725
21500TIP3   OH264384   6.847   9.726   6.179
21500TIP3    H164385   6.781   9.661   6.146
21500TIP3    H264386   6.898   9.671   6.243
21501TIP3   OH264387   6.998   9.585   6.360
21501TIP3    H164388   6.974   9.519   6.426
21501TIP3    H264389   6.990   9.665   6.416
21502TIP3   OH264390   8.668   8.936   5.482
21502TIP3    H164391   8.598   8.957   5.416
21502TIP3    H264392   8.678   9.023   5.524
21503TIP3   OH264393   8.536   8.634   5.442
21503TIP3    H164394   8.499   8.674   5.362
21503TIP3    H264395   8.509   8.540   5.430
21504TIP3   OH264396   7.182   8.970   6.742
21504TIP3    H164397   7.181   8.951   6.646
21504TIP3    H264398   7.259   9.031   6.750
21505TIP3   OH264399   8.480   8.370   5.424
21505TIP3    H164400   8.559   8.341   5.474
21505TIP3    H264401   8.410   8.310   5.454
21506TIP3   OH264402   8.539   8.619   5.842
21506TIP3    H164403   8.578   8.537   5.878
21506TIP3    H264404   8.615   8.656   5.793
21507TIP3   OH264405   8.645   8.385   5.959
21507TIP3    H164406   8.729   8.346   5.986
21507TIP3    H264407   8.590   8.306   5.941
21508TIP3   OH264408   7.359   8.364   6.740
21508TIP3    H164409   7.425   8.292   6.752
21508TIP3    H264410   7.416   8.442   6.741
21509TIP3   OH264411   7.162   8.635   6.819
21509TIP3    H164412   7.210   8.636   6.734
21509TIP3    H264413   7.174   8.727   6.847
21510TIP3   OH264414   8.722   8.310   5.538
21510TIP3    H164415   8.764   8.234   5.493
21510TIP3    H264416   8.798   8.368   5.554
21511TIP3   OH264417   7.143   8.141   6.318
21511TIP3    H164418   7.049   8.139   6.344
21511TIP3    H264419   7.141   8.199   6.239
21512TIP3   OH264420   7.358   8.213   7.135
21512TIP3    H164421   7.298   8.201   7.211
21512TIP3    H264422   7.296   8.252   7.070
21513TIP3   OH264423   8.199   8.360   6.483
21513TIP3    H164424   8.139   8.290   6.515
21513TIP3    H264425   8.258   8.310   6.422
21514TIP3   OH264426   7.454   8.063   6.488
21514TIP3    H164427   7.362   8.029   6.489
21514TIP3    H264428   7.504   7.978   6.486
21515TIP3   OH264429   7.239   7.932   6.136
21515TIP3    H164430   7.269   7.990   6.064
21515TIP3    H264431   7.210   7.997   6.203
21516TIP3   OH264432   7.895   8.095   6.368
21516TIP3    H164433   7.955   8.147   6.311
21516TIP3    H264434   7.915   8.131   6.456
21517TIP3   OH264435   8.393   8.230   6.343
21517TIP3    H164436   8.430   8.203   6.257
21517TIP3    H264437   8.418   8.155   6.399
21518TIP3   OH264438   8.475   8.166   5.915
21518TIP3    H164439   8.386   8.206   5.923
21518TIP3    H264440   8.460   8.081   5.961
21519TIP3   OH264441   6.958   9.505   5.920
21519TIP3    H164442   6.874   9.471   5.883
21519TIP3    H264443   6.948   9.599   5.898
21520TIP3   OH264444   7.356   8.093   5.900
21520TIP3    H164445   7.405   8.030   5.844
21520TIP3    H264446   7.429   8.147   5.937
21521TIP3   OH264447   7.868   8.260   5.997
21521TIP3    H164448   7.928   8.213   6.058
21521TIP3    H264449   7.887   8.353   6.024
21522TIP3   OH264450   7.726   9.693   5.489
21522TIP3    H164451   7.815   9.719   5.457
21522TIP3    H264452   7.709   9.615   5.432
21523TIP3   OH264453   7.035   9.529   5.556
21523TIP3    H164454   7.033   9.557   5.649
21523TIP3    H264455   7.124   9.488   5.548
21524TIP3   OH264456   9.410   8.541   5.187
21524TIP3    H164457   9.391   8.495   5.269
21524TIP3    H264458   9.325   8.579   5.162
21525TIP3   OH264459   8.950   8.565   5.585
21525TIP3    H164460   8.970   8.597   5.495
21525TIP3    H264461   8.871   8.619   5.604
21526TIP3   OH264462   8.943   8.690   5.348
21526TIP3    H164463   8.952   8.785   5.349
21526TIP3    H264464   8.859   8.674   5.304
21527TIP3   OH264465   8.910   8.358   5.747
21527TIP3    H164466   8.852   8.399   5.812
21527TIP3    H264467   8.943   8.437   5.699
21528TIP3   OH264468   9.040   8.169   5.604
21528TIP3    H164469   9.066   8.230   5.533
21528TIP3    H264470   8.995   8.229   5.667
21529TIP3   OH264471   9.141   8.343   5.381
21529TIP3    H164472   9.193   8.280   5.326
21529TIP3    H264473   9.210   8.387   5.433
21530TIP3   OH264474   1.191   9.098   7.241
21530TIP3    H164475   1.235   9.023   7.196
21530TIP3    H264476   1.250   9.172   7.224
21531TIP3   OH264477   3.270   9.669   7.669
21531TIP3    H164478   3.180   9.708   7.659
21531TIP3    H264479   3.303   9.681   7.577
21532TIP3   OH264480   2.635   9.562   7.279
21532TIP3    H164481   2.700   9.570   7.352
21532TIP3    H264482   2.659   9.639   7.226
21533TIP3   OH264483   2.844   9.594   7.453
21533TIP3    H164484   2.851   9.535   7.529
21533TIP3    H264485   2.928   9.642   7.456
21534TIP3   OH264486   2.194   9.722   6.819
21534TIP3    H164487   2.251   9.796   6.841
21534TIP3    H264488   2.242   9.683   6.744
21535TIP3   OH264489   2.927   9.148   6.912
21535TIP3    H164490   2.846   9.168   6.963
21535TIP3    H264491   2.941   9.232   6.864
21536TIP3   OH264492   2.202   9.328   6.907
21536TIP3    H164493   2.176   9.323   7.001
21536TIP3    H264494   2.162   9.245   6.875
21537TIP3   OH264495   2.370   9.748   7.135
21537TIP3    H164496   2.327   9.818   7.091
21537TIP3    H264497   2.443   9.725   7.063
21538TIP3   OH264498   1.859   9.303   6.871
21538TIP3    H164499   1.857   9.288   6.968
21538TIP3    H264500   1.776   9.351   6.858
21539TIP3   OH264501   1.933   9.506   7.153
21539TIP3    H164502   2.013   9.555   7.128
21539TIP3    H264503   1.864   9.544   7.096
21540TIP3   OH264504   1.720   9.576   7.000
21540TIP3    H164505   1.662   9.547   6.927
21540TIP3    H264506   1.769   9.650   6.958
21541TIP3   OH264507   1.748   9.255   7.423
21541TIP3    H164508   1.742   9.256   7.520
21541TIP3    H264509   1.839   9.283   7.408
21542TIP3   OH264510   2.452   9.437   6.874
21542TIP3    H164511   2.356   9.422   6.886
21542TIP3    H264512   2.463   9.534   6.889
21543TIP3   OH264513   2.547   9.696   6.932
21543TIP3    H164514   2.634   9.682   6.973
21543TIP3    H264515   2.559   9.779   6.886
21544TIP3   OH264516   2.955   9.759   6.833
21544TIP3    H164517   2.896   9.717   6.766
21544TIP3    H264518   2.988   9.832   6.780
21545TIP3   OH264519   2.496   9.370   7.150
21545TIP3    H164520   2.478   9.403   7.059
21545TIP3    H264521   2.539   9.448   7.192
21546TIP3   OH264522   2.205   9.559   7.247
21546TIP3    H164523   2.268   9.618   7.205
21546TIP3    H264524   2.200   9.601   7.334
21547TIP3   OH264525   2.334   9.287   7.365
21547TIP3    H164526   2.355   9.348   7.440
21547TIP3    H264527   2.384   9.331   7.292
21548TIP3   OH264528   1.846   9.246   7.136
21548TIP3    H164529   1.839   9.338   7.169
21548TIP3    H264530   1.941   9.231   7.154
21549TIP3   OH264531   1.917   9.715   6.867
21549TIP3    H164532   1.885   9.661   6.792
21549TIP3    H264533   2.014   9.715   6.854
21550TIP3   OH264534   2.789   9.685   6.625
21550TIP3    H164535   2.778   9.711   6.533
21550TIP3    H264536   2.765   9.590   6.620
21551TIP3   OH264537   2.818   9.936   7.178
21551TIP3    H164538   2.822   9.839   7.170
21551TIP3    H264539   2.820   9.949   7.273
21552TIP3   OH264540   2.737   9.419   6.612
21552TIP3    H164541   2.813   9.384   6.663
21552TIP3    H264542   2.664   9.358   6.635
21553TIP3   OH264543   2.797   9.673   7.055
21553TIP3    H164544   2.832   9.583   7.076
21553TIP3    H264545   2.860   9.700   6.985
21554TIP3   OH264546   2.908   9.422   7.100
21554TIP3    H164547   2.954   9.405   7.184
21554TIP3    H264548   2.843   9.348   7.099
21555TIP3   OH264549   2.983   9.354   6.727
21555TIP3    H164550   3.022   9.276   6.681
21555TIP3    H264551   3.052   9.420   6.715
21556TIP3   OH264552   2.439   9.370   7.617
21556TIP3    H164553   2.440   9.329   7.703
21556TIP3    H264554   2.533   9.373   7.593
21557TIP3   OH264555   2.980   9.289   7.568
21557TIP3    H164556   3.018   9.332   7.488
21557TIP3    H264557   2.884   9.294   7.550
21558TIP3   OH264558   3.072   9.377   7.324
21558TIP3    H164559   3.142   9.323   7.281
21558TIP3    H264560   3.107   9.467   7.304
21559TIP3   OH264561   1.483   8.952   7.284
21559TIP3    H164562   1.514   9.011   7.213
21559TIP3    H264563   1.467   9.019   7.355
21560TIP3   OH264564   2.171   9.112   7.524
21560TIP3    H164565   2.219   9.178   7.472
21560TIP3    H264566   2.129   9.167   7.592
21561TIP3   OH264567   2.705   9.285   7.534
21561TIP3    H164568   2.678   9.266   7.443
21561TIP3    H264569   2.681   9.202   7.581
21562TIP3   OH264570   2.723   9.209   7.092
21562TIP3    H164571   2.636   9.254   7.103
21562TIP3    H264572   2.705   9.124   7.137
21563TIP3   OH264573   1.598   9.128   7.076
21563TIP3    H164574   1.648   9.067   7.018
21563TIP3    H264575   1.673   9.177   7.117
21564TIP3   OH264576   2.131   9.292   7.174
21564TIP3    H164577   2.192   9.266   7.245
21564TIP3    H264578   2.124   9.388   7.195
21565TIP3   OH264579   3.164   9.891   6.981
21565TIP3    H164580   3.114   9.967   7.014
21565TIP3    H264581   3.094   9.832   6.950
21566TIP3   OH264582   5.001   9.914   7.148
21566TIP3    H164583   5.027   9.997   7.192
21566TIP3    H264584   5.016   9.937   7.055
21567TIP3   OH264585   4.402  10.095   7.175
21567TIP3    H164586   4.442  10.009   7.195
21567TIP3    H264587   4.363  10.077   7.087
21568TIP3   OH264588   3.738   9.759   7.154
21568TIP3    H164589   3.714   9.830   7.090
21568TIP3    H264590   3.701   9.681   7.105
21569TIP3   OH264591   4.431   9.844   6.776
21569TIP3    H164592   4.506   9.830   6.838
21569TIP3    H264593   4.478   9.883   6.700
21570TIP3   OH264594   3.374   9.956   7.256
21570TIP3    H164595   3.458   9.928   7.298
21570TIP3    H264596   3.377   9.908   7.172
21571TIP3   OH264597   3.818  10.160   7.050
21571TIP3    H164598   3.906  10.121   7.067
21571TIP3    H264599   3.769  10.084   7.012
21572TIP3   OH264600   5.080  10.115   7.322
21572TIP3    H164601   5.001  10.166   7.292
21572TIP3    H264602   5.102  10.161   7.404
21573TIP3   OH264603   3.732   9.741   7.587
21573TIP3    H164604   3.670   9.776   7.520
21573TIP3    H264605   3.678   9.741   7.668
21574TIP3   OH264606   4.646   9.850   6.942
21574TIP3    H164607   4.629   9.806   7.027
21574TIP3    H264608   4.693   9.931   6.970
21575TIP3   OH264609   3.607   9.855   7.371
21575TIP3    H164610   3.669   9.929   7.387
21575TIP3    H264611   3.652   9.812   7.294
21576TIP3   OH264612   4.793   9.815   7.314
21576TIP3    H164613   4.705   9.845   7.286
21576TIP3    H264614   4.851   9.848   7.242
21577TIP3   OH264615   4.098   9.464   7.305
21577TIP3    H164616   4.077   9.370   7.307
21577TIP3    H264617   4.016   9.502   7.345
21578TIP3   OH264618   3.989   9.973   6.302
21578TIP3    H164619   4.036  10.049   6.338
21578TIP3    H264620   4.048   9.944   6.230
21579TIP3   OH264621   4.628  10.327   7.418
21579TIP3    H164622   4.638  10.422   7.407
21579TIP3    H264623   4.530  10.320   7.405
21580TIP3   OH264624   4.723   9.405   6.398
21580TIP3    H164625   4.642   9.423   6.450
21580TIP3    H264626   4.734   9.489   6.351
21581TIP3   OH264627   4.852  10.305   7.600
21581TIP3    H164628   4.766  10.300   7.556
21581TIP3    H264629   4.872  10.211   7.614
21582TIP3   OH264630   3.853   9.535   7.424
21582TIP3    H164631   3.762   9.506   7.400
21582TIP3    H264632   3.832   9.622   7.462
21583TIP3   OH264633   4.384   9.653   7.621
21583TIP3    H164634   4.450   9.625   7.688
21583TIP3    H264635   4.298   9.632   7.665
21584TIP3   OH264636   4.631  10.070   7.540
21584TIP3    H164637   4.579  10.072   7.624
21584TIP3    H264638   4.606  10.154   7.498
21585TIP3   OH264639   4.004   9.582   6.390
21585TIP3    H164640   3.975   9.583   6.483
21585TIP3    H264641   3.959   9.500   6.361
21586TIP3   OH264642   3.780  10.063   7.437
21586TIP3    H164643   3.744  10.099   7.520
21586TIP3    H264644   3.774  10.139   7.377
21587TIP3   OH264645   3.663   9.939   6.967
21587TIP3    H164646   3.571   9.905   6.973
21587TIP3    H264647   3.686   9.910   6.876
21588TIP3   OH264648   4.174  10.030   6.688
21588TIP3    H164649   4.090  10.079   6.668
21588TIP3    H264650   4.208  10.010   6.599
21589TIP3   OH264651   4.306  10.042   6.927
21589TIP3    H164652   4.248  10.061   6.850
21589TIP3    H264653   4.348   9.962   6.889
21590TIP3   OH264654   3.653   9.558   6.381
21590TIP3    H164655   3.658   9.575   6.476
21590TIP3    H264656   3.576   9.610   6.355
21591TIP3   OH264657   3.196   9.598   7.234
21591TIP3    H164658   3.265   9.637   7.290
21591TIP3    H264659   3.243   9.583   7.151
21592TIP3   OH264660   4.359  10.279   7.364
21592TIP3    H164661   4.370  10.213   7.292
21592TIP3    H264662   4.293  10.232   7.418
21593TIP3   OH264663   3.994   9.747   7.021
21593TIP3    H164664   3.907   9.753   7.064
21593TIP3    H264665   4.051   9.780   7.092
21594TIP3   OH264666   3.421   9.808   7.020
21594TIP3    H164667   3.328   9.829   6.997
21594TIP3    H264668   3.439   9.738   6.953
21595TIP3   OH264669   3.726   9.851   6.721
21595TIP3    H164670   3.814   9.850   6.680
21595TIP3    H264671   3.666   9.841   6.647
21596TIP3   OH264672   4.485   9.833   7.220
21596TIP3    H164673   4.451   9.846   7.311
21596TIP3    H264674   4.418   9.771   7.185
21597TIP3   OH264675   4.070  10.056   7.104
21597TIP3    H164676   4.156  10.046   7.062
21597TIP3    H264677   4.091  10.056   7.199
21598TIP3   OH264678   3.639   9.563   6.995
21598TIP3    H164679   3.579   9.494   7.027
21598TIP3    H264680   3.606   9.577   6.905
21599TIP3   OH264681   4.046   9.963   7.405
21599TIP3    H164682   3.963  10.014   7.408
21599TIP3    H264683   4.109  10.023   7.450
21600TIP3   OH264684   4.246   9.701   6.357
21600TIP3    H164685   4.151   9.678   6.370
21600TIP3    H264686   4.251   9.795   6.383
21601TIP3   OH264687   4.318   9.956   6.449
21601TIP3    H164688   4.409   9.944   6.482
21601TIP3    H264689   4.322  10.044   6.408
21602TIP3   OH264690   4.762  10.017   6.305
21602TIP3    H164691   4.697   9.977   6.243
21602TIP3    H264692   4.758  10.109   6.277
21603TIP3   OH264693   4.416   9.888   7.481
21603TIP3    H164694   4.499   9.921   7.519
21603TIP3    H264695   4.400   9.806   7.532
21604TIP3   OH264696   4.301   9.635   6.639
21604TIP3    H164697   4.275   9.665   6.551
21604TIP3    H264698   4.333   9.718   6.681
21605TIP3   OH264699   4.010   9.810   6.747
21605TIP3    H164700   4.067   9.888   6.736
21605TIP3    H264701   3.992   9.811   6.843
21606TIP3   OH264702   4.235  10.105   7.540
21606TIP3    H164703   4.265  10.169   7.609
21606TIP3    H264704   4.303  10.036   7.543
21607TIP3   OH264705   4.133   9.548   6.859
21607TIP3    H164706   4.104   9.628   6.907
21607TIP3    H264707   4.184   9.588   6.785
21608TIP3   OH264708   4.896  10.029   7.542
21608TIP3    H164709   4.798  10.028   7.545
21608TIP3    H264710   4.910  10.010   7.448
21609TIP3   OH264711   4.535  10.213   6.903
21609TIP3    H164712   4.462  10.160   6.939
21609TIP3    H264713   4.608  10.192   6.964
21610TIP3   OH264714   3.166   9.751   6.473
21610TIP3    H164715   3.233   9.810   6.509
21610TIP3    H264716   3.149   9.692   6.546
21611TIP3   OH264717   3.588   9.458   7.403
21611TIP3    H164718   3.556   9.427   7.315
21611TIP3    H264719   3.574   9.379   7.458
21612TIP3   OH264720   3.712   9.984   6.355
21612TIP3    H164721   3.670   9.922   6.292
21612TIP3    H264722   3.807   9.972   6.336
21613TIP3   OH264723   4.003   9.972   7.841
21613TIP3    H164724   3.992   9.907   7.769
21613TIP3    H264725   3.980  10.056   7.797
21614TIP3   OH264726   3.994   9.802   7.622
21614TIP3    H164727   4.018   9.849   7.539
21614TIP3    H264728   3.898   9.786   7.607
21615TIP3   OH264729   4.127   9.578   7.703
21615TIP3    H164730   4.079   9.660   7.674
21615TIP3    H264731   4.057   9.511   7.688
21616TIP3   OH264732   4.496  10.031   7.771
21616TIP3    H164733   4.419  10.013   7.826
21616TIP3    H264734   4.570  10.010   7.831
21617TIP3   OH264735   4.727   9.980   7.939
21617TIP3    H164736   4.731   9.883   7.946
21617TIP3    H264737   4.717  10.009   8.031
21618TIP3   OH264738   4.226   9.587   7.957
21618TIP3    H164739   4.284   9.508   7.948
21618TIP3    H264740   4.179   9.585   7.871
21619TIP3   OH264741   4.396   9.798   8.013
21619TIP3    H164742   4.352   9.715   7.983
21619TIP3    H264743   4.317   9.847   8.041
21620TIP3   OH264744   4.593   9.939   6.105
21620TIP3    H164745   4.559   9.968   6.019
21620TIP3    H264746   4.568   9.844   6.104
21621TIP3   OH264747   4.629  10.191   6.652
21621TIP3    H164748   4.624  10.096   6.664
21621TIP3    H264749   4.605  10.221   6.743
21622TIP3   OH264750   5.045  10.475   7.520
21622TIP3    H164751   4.974  10.422   7.562
21622TIP3    H264752   5.121  10.417   7.538
21623TIP3   OH264753   4.536   9.673   6.094
21623TIP3    H164754   4.610   9.641   6.150
21623TIP3    H264755   4.461   9.617   6.121
21624TIP3   OH264756   4.583   9.918   6.550
21624TIP3    H164757   4.627   9.831   6.563
21624TIP3    H264758   4.645   9.959   6.486
21625TIP3   OH264759   4.755  10.097   7.038
21625TIP3    H164760   4.838  10.128   6.996
21625TIP3    H264761   4.769  10.137   7.126
21626TIP3   OH264762   4.836  10.233   7.265
21626TIP3    H164763   4.758  10.262   7.315
21626TIP3    H264764   4.879  10.319   7.244
21627TIP3   OH264765   5.273   9.815   7.830
21627TIP3    H164766   5.330   9.768   7.765
21627TIP3    H264767   5.247   9.894   7.779
21628TIP3   OH264768   4.706   9.675   6.586
21628TIP3    H164769   4.750   9.661   6.672
21628TIP3    H264770   4.642   9.601   6.586
21629TIP3   OH264771   3.401   9.664   7.411
21629TIP3    H164772   3.467   9.591   7.411
21629TIP3    H264773   3.460   9.741   7.399
21630TIP3   OH264774   3.268   9.945   7.514
21630TIP3    H164775   3.284   9.929   7.419
21630TIP3    H264776   3.238  10.037   7.511
21631TIP3   OH264777   5.132   9.975   7.659
21631TIP3    H164778   5.041  10.010   7.647
21631TIP3    H264779   5.126   9.903   7.593
21632TIP3   OH264780   4.783   9.616   6.218
21632TIP3    H164781   4.824   9.542   6.169
21632TIP3    H264782   4.852   9.685   6.213
21633TIP3   OH264783   3.182   9.436   6.957
21633TIP3    H164784   3.094   9.453   6.992
21633TIP3    H264785   3.208   9.520   6.914
21634TIP3   OH264786   3.414   9.478   7.792
21634TIP3    H164787   3.371   9.477   7.878
21634TIP3    H264788   3.365   9.549   7.744
21635TIP3   OH264789   5.045   9.741   7.518
21635TIP3    H164790   4.955   9.743   7.481
21635TIP3    H264791   5.070   9.647   7.501
21636TIP3   OH264792   4.266   9.659   7.151
21636TIP3    H164793   4.206   9.594   7.193
21636TIP3    H264794   4.312   9.605   7.086
21637TIP3   OH264795   4.778   9.534   7.042
21637TIP3    H164796   4.811   9.588   6.968
21637TIP3    H264797   4.681   9.551   7.036
21638TIP3   OH264798   4.870   9.635   6.805
21638TIP3    H164799   4.943   9.586   6.763
21638TIP3    H264800   4.901   9.728   6.791
21639TIP3   OH264801   3.494   9.363   7.162
21639TIP3    H164802   3.403   9.328   7.156
21639TIP3    H264803   3.546   9.281   7.149
21640TIP3   OH264804   3.286   9.228   6.800
21640TIP3    H164805   3.316   9.284   6.726
21640TIP3    H264806   3.255   9.297   6.863
21641TIP3   OH264807   3.956   9.384   7.035
21641TIP3    H164808   4.003   9.445   6.976
21641TIP3    H264809   3.940   9.441   7.111
21642TIP3   OH264810   4.502   9.540   7.014
21642TIP3    H164811   4.477   9.511   6.926
21642TIP3    H264812   4.479   9.462   7.069
21643TIP3   OH264813   4.520   9.465   6.578
21643TIP3    H164814   4.435   9.513   6.592
21643TIP3    H264815   4.501   9.381   6.625
21644TIP3   OH264816   3.373   9.382   6.566
21644TIP3    H164817   3.456   9.354   6.524
21644TIP3    H264818   3.401   9.459   6.622
21645TIP3   OH264819   3.928   9.568   6.649
21645TIP3    H164820   3.961   9.518   6.725
21645TIP3    H264821   3.940   9.659   6.682
21646TIP3   OH264822   3.654   9.556   8.004
21646TIP3    H164823   3.665   9.503   8.085
21646TIP3    H264824   3.712   9.633   8.022
21647TIP3   OH264825   3.966   9.571   8.116
21647TIP3    H164826   4.053   9.547   8.081
21647TIP3    H264827   3.977   9.553   8.210
21648TIP3   OH264828   4.779   9.708   7.945
21648TIP3    H164829   4.801   9.674   8.034
21648TIP3    H264830   4.866   9.703   7.900
21649TIP3   OH264831   4.963  10.149   6.466
21649TIP3    H164832   4.921  10.225   6.509
21649TIP3    H264833   4.888  10.091   6.450
21650TIP3   OH264834   6.142  10.358   6.671
21650TIP3    H164835   6.209  10.292   6.693
21650TIP3    H264836   6.143  10.355   6.573
21651TIP3   OH264837   5.533  10.014   6.636
21651TIP3    H164838   5.514  10.088   6.574
21651TIP3    H264839   5.483   9.942   6.592
21652TIP3   OH264840   6.229  10.101   6.261
21652TIP3    H164841   6.301  10.090   6.326
21652TIP3    H264842   6.278  10.137   6.185
21653TIP3   OH264843   5.157  10.197   6.754
21653TIP3    H164844   5.247  10.193   6.792
21653TIP3    H264845   5.173  10.165   6.663
21654TIP3   OH264846   5.624  10.417   6.517
21654TIP3    H164847   5.706  10.374   6.549
21654TIP3    H264848   5.568  10.341   6.491
21655TIP3   OH264849   5.526   9.997   7.076
21655TIP3    H164850   5.470  10.034   7.004
21655TIP3    H264851   5.473  10.022   7.154
21656TIP3   OH264852   6.446  10.114   6.433
21656TIP3    H164853   6.432  10.036   6.489
21656TIP3    H264854   6.532  10.144   6.464
21657TIP3   OH264855   5.404  10.110   6.857
21657TIP3    H164856   5.461  10.189   6.875
21657TIP3    H264857   5.452  10.071   6.781
21658TIP3   OH264858   5.890   9.718   6.784
21658TIP3    H164859   5.873   9.623   6.799
21658TIP3    H264860   5.813   9.757   6.832
21659TIP3   OH264861   5.781  10.230   5.790
21659TIP3    H164862   5.829  10.305   5.825
21659TIP3    H264863   5.839  10.200   5.718
21660TIP3   OH264864   6.520   9.663   5.885
21660TIP3    H164865   6.439   9.681   5.936
21660TIP3    H264866   6.531   9.745   5.834
21661TIP3   OH264867   5.649   9.791   6.915
21661TIP3    H164868   5.558   9.764   6.889
21661TIP3    H264869   5.628   9.876   6.957
21662TIP3   OH264870   5.793   9.842   5.881
21662TIP3    H164871   5.763   9.843   5.974
21662TIP3    H264872   5.757   9.756   5.853
21663TIP3   OH264873   5.577  10.317   6.922
21663TIP3    H164874   5.530  10.328   7.008
21663TIP3    H264875   5.567  10.405   6.885
21664TIP3   OH264876   5.465  10.194   6.445
21664TIP3    H164877   5.372  10.169   6.461
21664TIP3    H264878   5.478  10.157   6.355
21665TIP3   OH264879   5.963  10.281   6.170
21665TIP3    H164880   5.882  10.332   6.148
21665TIP3    H264881   6.004  10.265   6.083
21666TIP3   OH264882   6.102  10.310   6.402
21666TIP3    H164883   6.045  10.318   6.323
21666TIP3    H264884   6.151  10.230   6.375
21667TIP3   OH264885   5.432  10.331   7.154
21667TIP3    H164886   5.413  10.399   7.219
21667TIP3    H264887   5.392  10.251   7.193
21668TIP3   OH264888   5.443   9.813   5.852
21668TIP3    H164889   5.449   9.806   5.950
21668TIP3    H264890   5.369   9.874   5.845
21669TIP3   OH264891   4.991   9.860   6.717
21669TIP3    H164892   5.063   9.895   6.774
21669TIP3    H264893   5.038   9.826   6.640
21670TIP3   OH264894   4.967   9.839   6.235
21670TIP3    H164895   5.016   9.879   6.161
21670TIP3    H264896   4.908   9.912   6.261
21671TIP3   OH264897   5.789  10.005   6.506
21671TIP3    H164898   5.705  10.011   6.555
21671TIP3    H264899   5.851  10.039   6.572
21672TIP3   OH264900   5.225  10.078   6.509
21672TIP3    H164901   5.129  10.082   6.486
21672TIP3    H264902   5.248   9.985   6.491
21673TIP3   OH264903   5.499  10.067   6.202
21673TIP3    H164904   5.591  10.092   6.181
21673TIP3    H264905   5.450  10.095   6.122
21674TIP3   OH264906   6.263  10.089   6.707
21674TIP3    H164907   6.226  10.075   6.795
21674TIP3    H264908   6.206  10.029   6.656
21675TIP3   OH264909   5.327  10.074   5.978
21675TIP3    H164910   5.250  10.063   5.921
21675TIP3    H264911   5.376  10.146   5.933
21676TIP3   OH264912   5.867  10.309   6.593
21676TIP3    H164913   5.949  10.309   6.542
21676TIP3    H264914   5.901  10.330   6.681
21677TIP3   OH264915   5.396   9.834   6.482
21677TIP3    H164916   5.364   9.752   6.526
21677TIP3    H264917   5.447   9.799   6.408
21678TIP3   OH264918   5.846  10.240   6.920
21678TIP3    H164919   5.752  10.262   6.902
21678TIP3    H264920   5.887  10.327   6.915
21679TIP3   OH264921   6.043   9.954   5.852
21679TIP3    H164922   5.946   9.935   5.860
21679TIP3    H264923   6.049  10.050   5.871
21680TIP3   OH264924   6.117  10.212   5.937
21680TIP3    H164925   6.209  10.201   5.967
21680TIP3    H264926   6.121  10.296   5.889
21681TIP3   OH264927   6.535  10.260   5.803
21681TIP3    H164928   6.477  10.231   5.729
21681TIP3    H264929   6.565  10.346   5.769
21682TIP3   OH264930   5.370  10.082   7.294
21682TIP3    H164931   5.273  10.084   7.302
21682TIP3    H264932   5.395  10.019   7.363
21683TIP3   OH264933   6.086   9.896   6.130
21683TIP3    H164934   6.073   9.921   6.036
21683TIP3    H264935   6.126   9.976   6.168
21684TIP3   OH264936   5.784  10.073   6.235
21684TIP3    H164937   5.851  10.143   6.219
21684TIP3    H264938   5.784  10.067   6.332
21685TIP3   OH264939   5.922   9.803   6.339
21685TIP3    H164940   5.905   9.881   6.396
21685TIP3    H264941   5.982   9.842   6.271
21686TIP3   OH264942   5.436   9.799   6.128
21686TIP3    H164943   5.430   9.892   6.157
21686TIP3    H264944   5.532   9.784   6.139
21687TIP3   OH264945   4.993   9.997   6.000
21687TIP3    H164946   5.000  10.093   6.009
21687TIP3    H264947   4.899   9.982   5.988
21688TIP3   OH264948   5.385   9.713   6.887
21688TIP3    H164949   5.351   9.683   6.800
21688TIP3    H264950   5.371   9.634   6.943
21689TIP3   OH264951   5.500  10.224   5.831
21689TIP3    H164952   5.471  10.172   5.754
21689TIP3    H264953   5.598  10.226   5.821
21690TIP3   OH264954   5.793  10.047   7.110
21690TIP3    H164955   5.814  10.115   7.042
21690TIP3    H264956   5.696  10.043   7.103
21691TIP3   OH264957   5.926   9.814   7.133
21691TIP3    H164958   5.876   9.899   7.124
21691TIP3    H264959   5.852   9.753   7.149
21692TIP3   OH264960   6.374  10.202   5.588
21692TIP3    H164961   6.361  10.217   5.494
21692TIP3    H264962   6.356  10.105   5.594
21693TIP3   OH264963   6.380  10.457   6.143
21693TIP3    H164964   6.393  10.361   6.129
21693TIP3    H264965   6.394  10.466   6.237
21694TIP3   OH264966   6.328   9.936   5.590
21694TIP3    H164967   6.408   9.901   5.634
21694TIP3    H264968   6.260   9.870   5.610
21695TIP3   OH264969   6.389  10.184   6.040
21695TIP3    H164970   6.428  10.095   6.054
21695TIP3    H264971   6.443  10.213   5.963
21696TIP3   OH264972   5.232  10.208   7.547
21696TIP3    H164973   5.320  10.204   7.584
21696TIP3    H264974   5.187  10.139   7.601
21697TIP3   OH264975   6.490   9.933   6.076
21697TIP3    H164976   6.543   9.912   6.156
21697TIP3    H264977   6.431   9.854   6.073
21698TIP3   OH264978   5.197   9.917   6.895
21698TIP3    H164979   5.266   9.849   6.904
21698TIP3    H264980   5.251   9.998   6.887
21699TIP3   OH264981   5.001  10.202   6.977
21699TIP3    H164982   5.050  10.192   6.891
21699TIP3    H264983   5.015  10.296   6.994
21700TIP3   OH264984   6.577   9.872   5.702
21700TIP3    H164985   6.618   9.797   5.653
21700TIP3    H264986   6.646   9.941   5.697
21701TIP3   OH264987   4.983   9.695   6.465
21701TIP3    H164988   4.891   9.696   6.496
21701TIP3    H264989   4.980   9.755   6.388
21702TIP3   OH264990   5.203   9.776   7.283
21702TIP3    H164991   5.151   9.776   7.365
21702TIP3    H264992   5.140   9.818   7.221
21703TIP3   OH264993   6.057   9.912   6.631
21703TIP3    H164994   6.002   9.844   6.674
21703TIP3    H264995   6.116   9.859   6.575
21704TIP3   OH264996   6.551   9.813   6.551
21704TIP3    H164997   6.601   9.841   6.471
21704TIP3    H264998   6.459   9.810   6.519
21705TIP3   OH264999   6.651   9.882   6.299
21705TIP3    H165000   6.727   9.827   6.272
21705TIP3    H265001   6.684   9.969   6.267
21706TIP3   OH265002   5.295   9.621   6.640
21706TIP3    H165003   5.203   9.587   6.640
21706TIP3    H265004   5.344   9.536   6.636
21707TIP3   OH265005   5.079   9.490   6.287
21707TIP3    H165006   5.109   9.549   6.216
21707TIP3    H265007   5.049   9.553   6.355
21708TIP3   OH265008   5.738   9.652   6.519
21708TIP3    H165009   5.796   9.704   6.461
21708TIP3    H265010   5.755   9.694   6.605
21709TIP3   OH265011   6.278   9.796   6.493
21709TIP3    H165012   6.275   9.753   6.406
21709TIP3    H265013   6.267   9.719   6.553
21710TIP3   OH265014   6.313   9.720   6.064
21710TIP3    H165015   6.226   9.761   6.076
21710TIP3    H265016   6.300   9.635   6.112
21711TIP3   OH265017   5.198   9.654   6.049
21711TIP3    H165018   5.249   9.590   5.995
21711TIP3    H265019   5.271   9.708   6.087
21712TIP3   OH265020   5.712   9.825   6.148
21712TIP3    H165021   5.772   9.780   6.210
21712TIP3    H265022   5.730   9.918   6.173
21713TIP3   OH265023   5.499   9.897   7.537
21713TIP3    H165024   5.488   9.820   7.595
21713TIP3    H265025   5.595   9.901   7.527
21714TIP3   OH265026   6.757  10.408   5.906
21714TIP3    H165027   6.745  10.475   5.976
21714TIP3    H265028   6.698  10.338   5.933
21715TIP3   OH265029   7.611  10.083   5.356
21715TIP3    H165030   7.575  10.113   5.439
21715TIP3    H265031   7.556  10.005   5.336
21716TIP3   OH265032   7.251  10.074   5.334
21716TIP3    H165033   7.237  10.068   5.431
21716TIP3    H265034   7.170  10.120   5.307
21717TIP3   OH265035   6.755  10.086   6.159
21717TIP3    H165036   6.838  10.131   6.183
21717TIP3    H265037   6.785  10.037   6.080
21718TIP3   OH265038   6.762  10.097   5.724
21718TIP3    H165039   6.806  10.139   5.647
21718TIP3    H265040   6.709  10.172   5.755
21719TIP3   OH265041   7.130  10.318   5.482
21719TIP3    H165042   7.062  10.301   5.416
21719TIP3    H265043   7.181  10.389   5.440
21720TIP3   OH265044   7.220  10.043   5.606
21720TIP3    H165045   7.189  10.119   5.657
21720TIP3    H265046   7.299  10.016   5.654
21721TIP3   OH265047   6.789  10.253   5.502
21721TIP3    H165048   6.799  10.349   5.493
21721TIP3    H265049   6.708  10.233   5.455
21722TIP3   OH265050   7.306  10.471   5.336
21722TIP3    H165051   7.262  10.430   5.260
21722TIP3    H265052   7.389  10.500   5.296
21723TIP3   OH265053   6.771   9.933   5.934
21723TIP3    H165054   6.677   9.939   5.959
21723TIP3    H265055   6.778   9.998   5.861
21724TIP3   OH265056   7.073   9.860   6.069
21724TIP3    H165057   6.982   9.830   6.086
21724TIP3    H265058   7.124   9.779   6.086
21725TIP3   OH265059   6.876   9.738   5.766
21725TIP3    H165060   6.908   9.798   5.696
21725TIP3    H265061   6.846   9.802   5.835
21726TIP3   OH265062   6.988   9.901   5.535
21726TIP3    H165063   7.034   9.838   5.477
21726TIP3    H265064   7.063   9.955   5.567
21727TIP3   OH265065   6.778   2.150   9.531
21727TIP3    H165066   6.791   2.245   9.510
21727TIP3    H265067   6.870   2.116   9.515
21728TIP3   OH265068   6.260   2.365   9.632
21728TIP3    H165069   6.328   2.297   9.618
21728TIP3    H265070   6.269   2.382   9.726
21729TIP3   OH265071   6.553   1.612   9.675
21729TIP3    H165072   6.515   1.564   9.600
21729TIP3    H265073   6.643   1.631   9.642
21730TIP3   OH265074   6.760   2.202   9.796
21730TIP3    H165075   6.691   2.144   9.829
21730TIP3    H265076   6.760   2.179   9.701
21731TIP3   OH265077   6.814   2.421   9.517
21731TIP3    H165078   6.861   2.494   9.472
21731TIP3    H265079   6.732   2.469   9.541
21732TIP3   OH265080   5.986   2.106   9.593
21732TIP3    H165081   5.941   2.054   9.662
21732TIP3    H265082   6.073   2.062   9.591
21733TIP3   OH265083   6.436   2.162   9.506
21733TIP3    H165084   6.486   2.179   9.588
21733TIP3    H265085   6.501   2.174   9.435
21734TIP3   OH265086   6.790   1.681   9.554
21734TIP3    H165087   6.768   1.628   9.475
21734TIP3    H265088   6.757   1.769   9.527
21735TIP3   OH265089   6.812   2.501   9.799
21735TIP3    H165090   6.822   2.409   9.769
21735TIP3    H265091   6.746   2.536   9.736
21736TIP3   OH265092   7.593   2.164   9.208
21736TIP3    H165093   7.653   2.100   9.166
21736TIP3    H265094   7.643   2.190   9.286
21737TIP3   OH265095   7.536   2.443   9.445
21737TIP3    H165096   7.539   2.516   9.381
21737TIP3    H265097   7.582   2.481   9.522
21738TIP3   OH265098   7.305   2.104   9.449
21738TIP3    H165099   7.332   2.179   9.504
21738TIP3    H265100   7.360   2.113   9.371
21739TIP3   OH265101   7.776   2.365   9.073
21739TIP3    H165102   7.730   2.346   9.160
21739TIP3    H265103   7.865   2.353   9.096
21740TIP3   OH265104   7.578   2.659   9.285
21740TIP3    H165105   7.658   2.711   9.288
21740TIP3    H265106   7.535   2.700   9.207
21741TIP3   OH265107   7.031   2.052   9.488
21741TIP3    H165108   7.126   2.070   9.499
21741TIP3    H265109   7.033   1.960   9.455
21742TIP3   OH265110   7.003   2.655   9.914
21742TIP3    H165111   6.927   2.609   9.871
21742TIP3    H265112   7.015   2.600   9.994
21743TIP3   OH265113   7.064   2.418   9.651
21743TIP3    H165114   6.979   2.397   9.609
21743TIP3    H265115   7.050   2.511   9.675
21744TIP3   OH265116   7.908   2.586   9.137
21744TIP3    H165117   7.862   2.647   9.214
21744TIP3    H265118   7.856   2.521   9.131
21745TIP3   OH265119   7.131   2.461   9.302
21745TIP3    H165120   7.128   2.482   9.397
21745TIP3    H265121   7.220   2.421   9.292
21746TIP3   OH265122   4.617   3.709   9.625
21746TIP3    H165123   4.609   3.806   9.615
21746TIP3    H265124   4.712   3.693   9.606
21747TIP3   OH265125   4.618   3.988   9.655
21747TIP3    H165126   4.669   4.048   9.597
21747TIP3    H265127   4.546   4.048   9.680
21748TIP3   OH265128   7.836   5.421   0.542
21748TIP3    H165129   7.841   5.508   0.495
21748TIP3    H265130   7.825   5.364   0.463
21749TIP3   OH265131   6.309   3.839  10.016
21749TIP3    H165132   6.315   3.792  10.101
21749TIP3    H265133   6.334   3.929  10.043
21750TIP3   OH265134   5.967   4.308  10.035
21750TIP3    H165135   6.024   4.247   9.982
21750TIP3    H265136   6.010   4.308  10.120
21751TIP3   OH265137   5.954   3.763   9.833
21751TIP3    H165138   5.941   3.754   9.737
21751TIP3    H265139   5.930   3.858   9.845
21752TIP3   OH265140   6.110   4.150   9.868
21752TIP3    H165141   6.151   4.067   9.834
21752TIP3    H265142   6.164   4.216   9.819
21753TIP3   OH265143   6.230   3.928   9.760
21753TIP3    H165144   6.228   3.853   9.698
21753TIP3    H265145   6.269   3.888   9.840
21754TIP3   OH265146   5.907   3.399   9.747
21754TIP3    H165147   5.821   3.437   9.721
21754TIP3    H265148   5.957   3.401   9.663
21755TIP3   OH265149   5.878   3.189   9.503
21755TIP3    H165150   5.951   3.238   9.544
21755TIP3    H265151   5.929   3.126   9.450
21756TIP3   OH265152   6.261   3.488   9.757
21756TIP3    H165153   6.227   3.507   9.847
21756TIP3    H265154   6.351   3.459   9.782
21757TIP3   OH265155   6.110   3.348   9.572
21757TIP3    H165156   6.167   3.407   9.626
21757TIP3    H265157   6.136   3.374   9.480
21758TIP3   OH265158   5.858   4.018   9.853
21758TIP3    H165159   5.923   4.086   9.874
21758TIP3    H265160   5.782   4.070   9.824
21759TIP3   OH265161   6.619   2.590   9.623
21759TIP3    H165162   6.532   2.606   9.666
21759TIP3    H265163   6.630   2.672   9.571
21760TIP3   OH265164   6.418   3.960   9.177
21760TIP3    H165165   6.426   4.056   9.161
21760TIP3    H265166   6.511   3.930   9.164
21761TIP3   OH265167   5.732   4.279   9.654
21761TIP3    H165168   5.679   4.258   9.575
21761TIP3    H265169   5.690   4.360   9.688
21762TIP3   OH265170   5.930   4.178   9.296
21762TIP3    H165171   5.989   4.107   9.261
21762TIP3    H265172   5.963   4.187   9.388
21763TIP3   OH265173   5.980   4.224   9.565
21763TIP3    H165174   5.892   4.237   9.606
21763TIP3    H265175   6.031   4.186   9.638
21764TIP3   OH265176   6.183   3.403   9.321
21764TIP3    H165177   6.147   3.374   9.235
21764TIP3    H265178   6.265   3.447   9.292
21765TIP3   OH265179   5.882   2.801   9.609
21765TIP3    H165180   5.899   2.801   9.704
21765TIP3    H265181   5.890   2.705   9.592
21766TIP3   OH265182   6.071   3.214   9.877
21766TIP3    H165183   6.022   3.274   9.818
21766TIP3    H265184   6.126   3.166   9.812
21767TIP3   OH265185   5.534   2.743   9.605
21767TIP3    H165186   5.548   2.799   9.683
21767TIP3    H265187   5.464   2.793   9.559
21768TIP3   OH265188   5.434   3.009   9.698
21768TIP3    H165189   5.363   2.980   9.637
21768TIP3    H265190   5.479   3.076   9.643
21769TIP3   OH265191   5.674   3.559   9.725
21769TIP3    H165192   5.605   3.496   9.698
21769TIP3    H265193   5.666   3.552   9.821
21770TIP3   OH265194   6.143   2.880   9.577
21770TIP3    H165195   6.045   2.881   9.578
21770TIP3    H265196   6.168   2.970   9.607
21771TIP3   OH265197   6.232   3.118   9.676
21771TIP3    H165198   6.325   3.126   9.704
21771TIP3    H265199   6.218   3.198   9.622
21772TIP3   OH265200   5.837   3.713   9.560
21772TIP3    H165201   5.791   3.801   9.562
21772TIP3    H265202   5.775   3.660   9.614
21773TIP3   OH265203   6.657   3.209   9.531
21773TIP3    H165204   6.594   3.166   9.467
21773TIP3    H265205   6.656   3.299   9.490
21774TIP3   OH265206   6.357   4.031   9.440
21774TIP3    H165207   6.333   3.956   9.496
21774TIP3    H265208   6.370   3.989   9.352
21775TIP3   OH265209   5.421   4.094   9.861
21775TIP3    H165210   5.333   4.118   9.893
21775TIP3    H265211   5.470   4.176   9.879
21776TIP3   OH265212   6.112   3.758   9.343
21776TIP3    H165213   6.160   3.735   9.425
21776TIP3    H265214   6.022   3.731   9.366
21777TIP3   OH265215   6.451   4.234   9.162
21777TIP3    H165216   6.490   4.306   9.110
21777TIP3    H265217   6.371   4.281   9.195
21778TIP3   OH265218   6.272   3.703   9.573
21778TIP3    H165219   6.262   3.627   9.633
21778TIP3    H265220   6.367   3.696   9.550
21779TIP3   OH265221   5.482   3.737   9.342
21779TIP3    H165222   5.490   3.646   9.310
21779TIP3    H265223   5.459   3.723   9.436
21780TIP3   OH265224   5.430   3.737   9.615
21780TIP3    H165225   5.509   3.724   9.669
21780TIP3    H265226   5.425   3.836   9.613
21781TIP3   OH265227   6.108   2.851   9.847
21781TIP3    H165228   6.128   2.838   9.753
21781TIP3    H265229   6.196   2.880   9.881
21782TIP3   OH265230   5.693   3.942   9.564
21782TIP3    H165231   5.602   3.966   9.590
21782TIP3    H265232   5.709   4.013   9.499
21783TIP3   OH265233   5.431   4.008   9.606
21783TIP3    H165234   5.399   4.083   9.552
21783TIP3    H265235   5.422   4.045   9.697
21784TIP3   OH265236   5.146   3.641   9.606
21784TIP3    H165237   5.202   3.719   9.621
21784TIP3    H265238   5.202   3.587   9.548
21785TIP3   OH265239   6.409   4.371  10.083
21785TIP3    H165240   6.359   4.427  10.021
21785TIP3    H265241   6.499   4.410  10.073
21786TIP3   OH265242   5.642   3.944   9.256
21786TIP3    H165243   5.585   3.873   9.294
21786TIP3    H265244   5.716   3.891   9.220
21787TIP3   OH265245   6.078   3.985   9.166
21787TIP3    H165246   6.125   3.922   9.223
21787TIP3    H265247   6.133   3.986   9.085
21788TIP3   OH265248   5.290   3.456   9.467
21788TIP3    H165249   5.337   3.423   9.545
21788TIP3    H265250   5.363   3.460   9.402
21789TIP3   OH265251   5.800   3.660   9.284
21789TIP3    H165252   5.795   3.673   9.381
21789TIP3    H265253   5.797   3.562   9.278
21790TIP3   OH265254   5.479   3.366   9.673
21790TIP3    H165255   5.475   3.327   9.762
21790TIP3    H265256   5.518   3.291   9.623
21791TIP3   OH265257   5.599   3.155   9.539
21791TIP3    H165258   5.569   3.156   9.446
21791TIP3    H265259   5.696   3.164   9.528
21792TIP3   OH265260   6.418   3.490   9.200
21792TIP3    H165261   6.397   3.442   9.118
21792TIP3    H265262   6.387   3.580   9.175
21793TIP3   OH265263   5.401   4.225   9.440
21793TIP3    H165264   5.497   4.221   9.421
21793TIP3    H265265   5.370   4.271   9.361
21794TIP3   OH265266   4.872   3.622   9.594
21794TIP3    H165267   4.963   3.641   9.628
21794TIP3    H265268   4.878   3.525   9.582
21795TIP3   OH265269   6.665   4.474  10.067
21795TIP3    H165270   6.701   4.545  10.121
21795TIP3    H265271   6.702   4.497   9.981
21796TIP3   OH265272   6.548   3.678   9.534
21796TIP3    H165273   6.617   3.741   9.504
21796TIP3    H265274   6.593   3.637   9.612
21797TIP3   OH265275   6.676   3.546   9.735
21797TIP3    H165276   6.615   3.503   9.798
21797TIP3    H265277   6.746   3.581   9.794
21798TIP3   OH265278   6.715   3.928  10.091
21798TIP3    H165279   6.796   3.873  10.084
21798TIP3    H265280   6.744   4.012  10.051
21799TIP3   OH265281   6.616   3.451   9.386
21799TIP3    H165282   6.545   3.454   9.318
21799TIP3    H265283   6.590   3.528   9.440
21800TIP3   OH265284   6.486   3.125   9.339
21800TIP3    H165285   6.447   3.163   9.260
21800TIP3    H265286   6.460   3.031   9.329
21801TIP3   OH265287   6.492   3.397   9.881
21801TIP3    H165288   6.499   3.302   9.858
21801TIP3    H265289   6.473   3.395   9.975
21802TIP3   OH265290   6.431   2.859   9.328
21802TIP3    H165291   6.506   2.826   9.381
21802TIP3    H265292   6.358   2.800   9.349
21803TIP3   OH265293   6.507   3.139   9.759
21803TIP3    H165294   6.538   3.049   9.778
21803TIP3    H265295   6.565   3.162   9.683
21804TIP3   OH265296   6.597   2.868   9.816
21804TIP3    H165297   6.648   2.862   9.900
21804TIP3    H265298   6.556   2.780   9.809
21805TIP3   OH265299   6.680   2.800   9.451
21805TIP3    H165300   6.721   2.729   9.398
21805TIP3    H265301   6.745   2.872   9.443
21806TIP3   OH265302   6.239   4.325   9.713
21806TIP3    H165303   6.297   4.319   9.635
21806TIP3    H265304   6.281   4.397   9.765
21807TIP3   OH265305   6.405   2.648   9.787
21807TIP3    H165306   6.318   2.690   9.785
21807TIP3    H265307   6.409   2.617   9.880
21808TIP3   OH265308   4.887   4.010   9.735
21808TIP3    H165309   4.811   3.954   9.752
21808TIP3    H265310   4.846   4.096   9.707
21809TIP3   OH265311   5.669   4.181   9.390
21809TIP3    H165312   5.758   4.203   9.354
21809TIP3    H265313   5.647   4.105   9.331
21810TIP3   OH265314   6.390   4.299   9.483
21810TIP3    H165315   6.380   4.201   9.470
21810TIP3    H265316   6.344   4.332   9.403
21811TIP3   OH265317   4.976   4.022   9.453
21811TIP3    H165318   4.967   4.022   9.550
21811TIP3    H265319   5.063   3.978   9.441
21812TIP3   OH265320   7.872   3.819   9.454
21812TIP3    H165321   7.846   3.908   9.422
21812TIP3    H265322   7.805   3.765   9.409
21813TIP3   OH265323   7.798   3.813   9.803
21813TIP3    H165324   7.874   3.798   9.861
21813TIP3    H265325   7.834   3.794   9.716
21814TIP3   OH265326   7.189   3.734  10.189
21814TIP3    H165327   7.198   3.672  10.263
21814TIP3    H265328   7.277   3.732  10.147
21815TIP3   OH265329   8.156   4.095   9.514
21815TIP3    H165330   8.098   4.052   9.577
21815TIP3    H265331   8.161   4.186   9.545
21816TIP3   OH265332   7.150   4.122   9.920
21816TIP3    H165333   7.142   4.024   9.916
21816TIP3    H265334   7.245   4.132   9.898
21817TIP3   OH265335   6.859   3.328   9.691
21817TIP3    H165336   6.809   3.411   9.704
21817TIP3    H265337   6.788   3.269   9.661
21818TIP3   OH265338   6.916   3.605   9.858
21818TIP3    H165339   6.963   3.531   9.904
21818TIP3    H265340   6.980   3.627   9.789
21819TIP3   OH265341   7.775   4.576   9.511
21819TIP3    H165342   7.822   4.504   9.465
21819TIP3    H265343   7.765   4.541   9.600
21820TIP3   OH265344   7.656   4.040   9.874
21820TIP3    H165345   7.687   3.953   9.839
21820TIP3    H265346   7.737   4.092   9.867
21821TIP3   OH265347   7.403   3.211   9.875
21821TIP3    H165348   7.379   3.281   9.811
21821TIP3    H265349   7.368   3.132   9.829
21822TIP3   OH265350   7.062   3.409   9.973
21822TIP3    H165351   7.136   3.382  10.031
21822TIP3    H265352   7.076   3.349   9.897
21823TIP3   OH265353   7.492   3.597   9.765
21823TIP3    H165354   7.584   3.568   9.761
21823TIP3    H265355   7.445   3.518   9.731
21824TIP3   OH265356   7.769   4.034   9.318
21824TIP3    H165357   7.745   4.017   9.226
21824TIP3    H265358   7.722   4.119   9.334
21825TIP3   OH265359   7.521   3.961  10.104
21825TIP3    H165360   7.459   4.030  10.126
21825TIP3    H265361   7.573   4.002  10.033
21826TIP3   OH265362   7.289   3.323  10.098
21826TIP3    H165363   7.362   3.386  10.107
21826TIP3    H265364   7.329   3.260  10.034
21827TIP3   OH265365   6.754   3.843   9.429
21827TIP3    H165366   6.715   3.869   9.343
21827TIP3    H265367   6.784   3.929   9.464
21828TIP3   OH265368   8.180   4.349   9.660
21828TIP3    H165369   8.096   4.345   9.711
21828TIP3    H265370   8.176   4.440   9.624
21829TIP3   OH265371   7.906   4.398   9.344
21829TIP3    H165372   7.967   4.324   9.327
21829TIP3    H265373   7.955   4.471   9.299
21830TIP3   OH265374   7.715   3.675   9.269
21830TIP3    H165375   7.633   3.723   9.246
21830TIP3    H265376   7.759   3.669   9.182
21831TIP3   OH265377   7.672   3.449   8.989
21831TIP3    H165378   7.740   3.501   9.035
21831TIP3    H265379   7.728   3.388   8.937
21832TIP3   OH265380   8.046   3.742   9.252
21832TIP3    H165381   7.992   3.779   9.325
21832TIP3    H265382   8.124   3.713   9.301
21833TIP3   OH265383   7.289   3.749   9.653
21833TIP3    H165384   7.247   3.689   9.587
21833TIP3    H265385   7.365   3.694   9.684
21834TIP3   OH265386   7.408   4.155   9.805
21834TIP3    H165387   7.392   4.115   9.718
21834TIP3    H265388   7.497   4.121   9.828
21835TIP3   OH265389   7.418   3.718  10.021
21835TIP3    H165390   7.453   3.693   9.933
21835TIP3    H265391   7.470   3.798  10.043
21836TIP3   OH265392   7.957   4.351   9.825
21836TIP3    H165393   7.932   4.446   9.827
21836TIP3    H265394   7.898   4.313   9.891
21837TIP3   OH265395   7.900   3.602   9.067
21837TIP3    H165396   7.957   3.663   9.119
21837TIP3    H265397   7.926   3.628   8.974
21838TIP3   OH265398   7.643   4.290   9.347
21838TIP3    H165399   7.723   4.345   9.357
21838TIP3    H265400   7.581   4.350   9.302
21839TIP3   OH265401   7.157   3.589   9.462
21839TIP3    H165402   7.092   3.634   9.404
21839TIP3    H265403   7.115   3.503   9.476
21840TIP3   OH265404   8.213   4.217   8.644
21840TIP3    H165405   8.220   4.314   8.648
21840TIP3    H265406   8.306   4.189   8.653
21841TIP3   OH265407   6.799   4.178   9.996
21841TIP3    H165408   6.895   4.173   9.983
21841TIP3    H265409   6.790   4.258  10.051
21842TIP3   OH265410   7.523   4.531   9.145
21842TIP3    H165411   7.480   4.510   9.061
21842TIP3    H265412   7.491   4.621   9.164
21843TIP3   OH265413   6.961   4.383   9.527
21843TIP3    H165414   7.010   4.372   9.611
21843TIP3    H265415   6.903   4.305   9.530
21844TIP3   OH265416   7.726   4.433   8.784
21844TIP3    H165417   7.785   4.363   8.747
21844TIP3    H265418   7.760   4.441   8.875
21845TIP3   OH265419   7.776   4.483   9.053
21845TIP3    H165420   7.688   4.490   9.097
21845TIP3    H265421   7.827   4.435   9.120
21846TIP3   OH265422   7.972   3.651   8.810
21846TIP3    H165423   7.944   3.627   8.720
21846TIP3    H265424   8.049   3.708   8.792
21847TIP3   OH265425   7.697   3.026   9.109
21847TIP3    H165426   7.665   3.036   9.200
21847TIP3    H265427   7.646   2.948   9.080
21848TIP3   OH265428   7.349   3.386   9.669
21848TIP3    H165429   7.257   3.356   9.686
21848TIP3    H265430   7.367   3.341   9.584
21849TIP3   OH265431   7.846   3.463   9.392
21849TIP3    H165432   7.794   3.539   9.356
21849TIP3    H265433   7.901   3.439   9.315
21850TIP3   OH265434   7.347   3.002   9.081
21850TIP3    H165435   7.334   3.000   9.178
21850TIP3    H265436   7.268   3.051   9.053
21851TIP3   OH265437   6.910   3.074   9.918
21851TIP3    H165438   6.997   3.089   9.958
21851TIP3    H265439   6.929   3.011   9.846
21852TIP3   OH265440   6.862   3.027   9.470
21852TIP3    H165441   6.906   3.066   9.391
21852TIP3    H265442   6.801   3.101   9.492
21853TIP3   OH265443   7.630   3.260   9.716
21853TIP3    H165444   7.551   3.224   9.761
21853TIP3    H265445   7.697   3.232   9.781
21854TIP3   OH265446   7.119   3.260   9.745
21854TIP3    H165447   7.023   3.268   9.720
21854TIP3    H265448   7.141   3.169   9.720
21855TIP3   OH265449   7.387   3.253   9.431
21855TIP3    H165450   7.482   3.269   9.412
21855TIP3    H265451   7.342   3.280   9.348
21856TIP3   OH265452   7.230   3.288   9.210
21856TIP3    H165453   7.159   3.244   9.160
21856TIP3    H265454   7.282   3.325   9.136
21857TIP3   OH265455   7.297   3.026   9.702
21857TIP3    H165456   7.263   2.945   9.747
21857TIP3    H265457   7.327   2.990   9.618
21858TIP3   OH265458   7.481   3.820   9.218
21858TIP3    H165459   7.409   3.755   9.207
21858TIP3    H265460   7.464   3.853   9.309
21859TIP3   OH265461   7.942   3.141   9.066
21859TIP3    H165462   7.845   3.129   9.077
21859TIP3    H265463   7.960   3.230   9.100
21860TIP3   OH265464   8.029   3.381   9.176
21860TIP3    H165465   8.126   3.387   9.170
21860TIP3    H265466   8.000   3.458   9.124
21861TIP3   OH265467   7.181   3.850   9.888
21861TIP3    H165468   7.217   3.817   9.803
21861TIP3    H265469   7.212   3.783   9.950
21862TIP3   OH265470   7.628   3.969   9.039
21862TIP3    H165471   7.582   4.056   9.047
21862TIP3    H265472   7.574   3.914   9.099
21863TIP3   OH265473   8.472   3.431   8.924
21863TIP3    H165474   8.379   3.402   8.912
21863TIP3    H265475   8.460   3.526   8.905
21864TIP3   OH265476   7.276   4.144   9.520
21864TIP3    H165477   7.279   4.226   9.467
21864TIP3    H265478   7.181   4.129   9.525
21865TIP3   OH265479   6.839   3.449   9.222
21865TIP3    H165480   6.886   3.533   9.242
21865TIP3    H265481   6.762   3.456   9.282
21866TIP3   OH265482   7.417   3.912   9.466
21866TIP3    H165483   7.381   4.001   9.482
21866TIP3    H265484   7.376   3.861   9.538
21867TIP3   OH265485   7.550   4.481   9.965
21867TIP3    H165486   7.593   4.561   9.932
21867TIP3    H265487   7.610   4.450  10.034
21868TIP3   OH265488   7.196   4.383   9.372
21868TIP3    H165489   7.109   4.391   9.417
21868TIP3    H265490   7.227   4.476   9.374
21869TIP3   OH265491   7.900   4.014   8.823
21869TIP3    H165492   7.956   3.982   8.897
21869TIP3    H265493   7.812   3.991   8.858
21870TIP3   OH265494   8.252   4.493   8.653
21870TIP3    H165495   8.283   4.562   8.592
21870TIP3    H265496   8.171   4.536   8.685
21871TIP3   OH265497   8.053   3.926   9.032
21871TIP3    H165498   8.055   3.877   9.116
21871TIP3    H265499   8.116   3.998   9.048
21872TIP3   OH265500   6.987   4.372  10.131
21872TIP3    H165501   7.031   4.287  10.136
21872TIP3    H265502   7.017   4.411  10.215
21873TIP3   OH265503   7.273   3.998   8.829
21873TIP3    H165504   7.287   3.908   8.796
21873TIP3    H265505   7.254   3.981   8.924
21874TIP3   OH265506   7.219   4.001   9.104
21874TIP3    H165507   7.293   3.974   9.159
21874TIP3    H265508   7.224   4.099   9.108
21875TIP3   OH265509   6.955   3.695   9.304
21875TIP3    H165510   6.890   3.740   9.361
21875TIP3    H265511   6.971   3.764   9.237
21876TIP3   OH265512   7.915   3.076   9.340
21876TIP3    H165513   7.922   3.099   9.246
21876TIP3    H265514   8.004   3.101   9.369
21877TIP3   OH265515   7.486   4.200   9.054
21877TIP3    H165516   7.398   4.229   9.085
21877TIP3    H265517   7.501   4.262   8.981
21878TIP3   OH265518   7.663   3.261   9.447
21878TIP3    H165519   7.737   3.323   9.429
21878TIP3    H265520   7.655   3.268   9.544
21879TIP3   OH265521   7.227   4.274   9.116
21879TIP3    H165522   7.198   4.344   9.053
21879TIP3    H265523   7.211   4.318   9.202
21880TIP3   OH265524   7.331   2.987   9.360
21880TIP3    H165525   7.325   3.080   9.390
21880TIP3    H265526   7.428   2.973   9.368
21881TIP3   OH265527   6.946   3.906   9.111
21881TIP3    H165528   7.012   3.977   9.119
21881TIP3    H265529   6.990   3.851   9.043
21882TIP3   OH265530   6.891   3.179   9.244
21882TIP3    H165531   6.891   3.277   9.239
21882TIP3    H265532   6.810   3.156   9.199
21883TIP3   OH265533   8.208   4.623   9.589
21883TIP3    H165534   8.166   4.677   9.518
21883TIP3    H265535   8.302   4.633   9.568
21884TIP3   OH265536   6.820   4.120   9.500
21884TIP3    H165537   6.745   4.151   9.552
21884TIP3    H265538   6.797   4.159   9.412
21885TIP3   OH265539   7.439   4.203   8.748
21885TIP3    H165540   7.384   4.127   8.780
21885TIP3    H265541   7.512   4.155   8.704
21886TIP3   OH265542   7.879   4.245   8.653
21886TIP3    H165543   7.921   4.179   8.712
21886TIP3    H265544   7.935   4.243   8.574
21887TIP3   OH265545   7.080   3.718   8.962
21887TIP3    H165546   7.137   3.684   9.033
21887TIP3    H265547   7.145   3.722   8.888
21888TIP3   OH265548   7.586   3.912   8.770
21888TIP3    H165549   7.591   3.926   8.867
21888TIP3    H265550   7.586   3.814   8.766
21889TIP3   OH265551   7.291   3.620   9.186
21889TIP3    H165552   7.264   3.576   9.268
21889TIP3    H265553   7.326   3.544   9.133
21890TIP3   OH265554   7.391   3.412   9.026
21890TIP3    H165555   7.363   3.416   8.932
21890TIP3    H265556   7.488   3.422   9.017
21891TIP3   OH265557   8.217   3.746   8.683
21891TIP3    H165558   8.189   3.700   8.601
21891TIP3    H265559   8.183   3.836   8.663
21892TIP3   OH265560   7.198   4.478   8.930
21892TIP3    H165561   7.293   4.474   8.910
21892TIP3    H265562   7.167   4.525   8.850
21893TIP3   OH265563   6.678   3.857   9.148
21893TIP3    H165564   6.772   3.880   9.133
21893TIP3    H265565   6.673   3.769   9.105
21894TIP3   OH265566   6.592   4.471   9.557
21894TIP3    H165567   6.524   4.410   9.523
21894TIP3    H265568   6.635   4.414   9.625
21895TIP3   OH265569   6.725   4.324   9.745
21895TIP3    H165570   6.717   4.250   9.808
21895TIP3    H265571   6.783   4.384   9.796
21896TIP3   OH265572   8.473   4.727   9.545
21896TIP3    H165573   8.457   4.758   9.636
21896TIP3    H265574   8.457   4.805   9.491
21897TIP3   OH265575   8.367   3.917   9.011
21897TIP3    H165576   8.388   4.011   9.007
21897TIP3    H265577   8.330   3.907   9.100
21898TIP3   OH265578   8.344   3.821   9.270
21898TIP3    H165579   8.351   3.735   9.227
21898TIP3    H265580   8.437   3.850   9.266
21899TIP3   OH265581   8.416   3.695   8.861
21899TIP3    H165582   8.342   3.704   8.796
21899TIP3    H265583   8.395   3.771   8.919
21900TIP3   OH265584   8.223   3.383   8.828
21900TIP3    H165585   8.220   3.428   8.744
21900TIP3    H265586   8.218   3.289   8.802
21901TIP3   OH265587   6.935   3.774  10.080
21901TIP3    H165588   6.929   3.718  10.000
21901TIP3    H265589   7.025   3.752  10.112
21902TIP3   OH265590   8.224   3.112   8.806
21902TIP3    H165591   8.298   3.066   8.846
21902TIP3    H265592   8.146   3.055   8.823
21903TIP3   OH265593   6.877   2.891   9.701
21903TIP3    H165594   6.781   2.884   9.717
21903TIP3    H265595   6.880   2.944   9.619
21904TIP3   OH265596   8.032   4.589   9.204
21904TIP3    H165597   8.087   4.535   9.145
21904TIP3    H265598   8.094   4.656   9.234
21905TIP3   OH265599   7.222   4.641  10.002
21905TIP3    H165600   7.155   4.680  10.059
21905TIP3    H265601   7.216   4.694   9.921
21906TIP3   OH265602   7.658   4.705   9.816
21906TIP3    H165603   7.587   4.705   9.749
21906TIP3    H265604   7.650   4.794   9.851
21907TIP3   OH265605   7.920   4.617   9.851
21907TIP3    H165606   7.832   4.657   9.836
21907TIP3    H265607   7.979   4.693   9.830
21908TIP3   OH265608   8.099   4.817   9.781
21908TIP3    H165609   8.111   4.909   9.750
21908TIP3    H265610   8.148   4.765   9.715
21909TIP3   OH265611   6.903   4.478   9.894
21909TIP3    H165612   6.930   4.457   9.987
21909TIP3    H265613   6.980   4.438   9.847
21910TIP3   OH265614   7.100   4.347   9.759
21910TIP3    H165615   7.118   4.265   9.810
21910TIP3    H265616   7.190   4.388   9.758
21911TIP3   OH265617   7.364   4.446   9.760
21911TIP3    H165618   7.396   4.355   9.752
21911TIP3    H265619   7.401   4.468   9.848
21912TIP3   OH265620   7.210   2.808   9.833
21912TIP3    H165621   7.125   2.762   9.850
21912TIP3    H265622   7.254   2.797   9.918
21913TIP3   OH265623   6.964   2.677   9.505
21913TIP3    H165624   7.003   2.735   9.438
21913TIP3    H265625   6.949   2.738   9.579
21914TIP3   OH265626   6.694   4.246   9.297
21914TIP3    H165627   6.609   4.214   9.262
21914TIP3    H265628   6.683   4.341   9.280
21915TIP3   OH265629   7.093   2.838   9.281
21915TIP3    H165630   7.141   2.775   9.224
21915TIP3    H265631   7.166   2.892   9.317
21916TIP3   OH265632   7.613   3.002   9.380
21916TIP3    H165633   7.700   2.969   9.403
21916TIP3    H265634   7.627   3.097   9.405
21917TIP3   OH265635   7.466   4.440   8.878
21917TIP3    H165636   7.555   4.460   8.841
21917TIP3    H265637   7.444   4.363   8.820
21918TIP3   OH265638   8.202   4.565   8.958
21918TIP3    H165639   8.190   4.470   8.983
21918TIP3    H265640   8.139   4.577   8.884
21919TIP3   OH265641   6.771   4.274   8.935
21919TIP3    H165642   6.772   4.299   9.029
21919TIP3    H265643   6.859   4.232   8.924
21920TIP3   OH265644   8.550   4.124   8.939
21920TIP3    H165645   8.514   4.071   8.863
21920TIP3    H265646   8.562   4.209   8.894
21921TIP3   OH265647   9.307   4.775   8.628
21921TIP3    H165648   9.260   4.761   8.543
21921TIP3    H265649   9.272   4.861   8.658
21922TIP3   OH265650   8.758   4.638   9.010
21922TIP3    H165651   8.807   4.610   9.088
21922TIP3    H265652   8.677   4.586   9.018
21923TIP3   OH265653   9.519   4.683   8.257
21923TIP3    H165654   9.581   4.612   8.230
21923TIP3    H265655   9.550   4.703   8.348
21924TIP3   OH265656   9.552   4.739   8.524
21924TIP3    H165657   9.467   4.761   8.569
21924TIP3    H265658   9.568   4.650   8.559
21925TIP3   OH265659   9.333   4.199   8.535
21925TIP3    H165660   9.304   4.293   8.542
21925TIP3    H265661   9.392   4.190   8.611
21926TIP3   OH265662   9.009   4.459   9.043
21926TIP3    H165663   9.052   4.496   8.964
21926TIP3    H265664   8.983   4.372   9.012
21927TIP3   OH265665   8.640   3.708   8.704
21927TIP3    H165666   8.682   3.792   8.731
21927TIP3    H265667   8.563   3.704   8.766
21928TIP3   OH265668   8.989   4.648   8.840
21928TIP3    H165669   8.907   4.650   8.893
21928TIP3    H265670   9.021   4.740   8.852
21929TIP3   OH265671   9.955   4.723   8.075
21929TIP3    H165672  10.034   4.774   8.056
21929TIP3    H265673   9.916   4.776   8.146
21930TIP3   OH265674   9.074   4.252   8.316
21930TIP3    H165675   9.079   4.160   8.283
21930TIP3    H265676   9.055   4.237   8.411
21931TIP3   OH265677   9.017   4.261   8.590
21931TIP3    H165678   9.068   4.244   8.670
21931TIP3    H265679   9.015   4.359   8.588
21932TIP3   OH265680   8.753   3.950   8.773
21932TIP3    H165681   8.717   3.983   8.855
21932TIP3    H265682   8.759   4.029   8.717
21933TIP3   OH265683   9.280   4.462   8.548
21933TIP3    H165684   9.190   4.491   8.577
21933TIP3    H265685   9.296   4.529   8.480
21934TIP3   OH265686   9.020   4.530   8.599
21934TIP3    H165687   8.991   4.599   8.534
21934TIP3    H265688   9.005   4.578   8.684
21935TIP3   OH265689   8.744   4.168   8.599
21935TIP3    H165690   8.806   4.242   8.595
21935TIP3    H265691   8.785   4.110   8.530
21936TIP3   OH265692   8.662   3.424   8.674
21936TIP3    H165693   8.692   3.512   8.703
21936TIP3    H265694   8.612   3.399   8.753
21937TIP3   OH265695   8.595   4.378   9.014
21937TIP3    H165696   8.515   4.431   9.034
21937TIP3    H265697   8.612   4.412   8.924
21938TIP3   OH265698   9.236   4.456   8.232
21938TIP3    H165699   9.179   4.384   8.266
21938TIP3    H265700   9.307   4.404   8.189
21939TIP3   OH265701   9.679   4.485   8.145
21939TIP3    H165702   9.757   4.438   8.176
21939TIP3    H265703   9.708   4.507   8.054
21940TIP3   OH265704   8.872   3.984   8.440
21940TIP3    H165705   8.908   3.921   8.503
21940TIP3    H265706   8.943   3.985   8.372
21941TIP3   OH265707   9.380   4.171   8.257
21941TIP3    H165708   9.354   4.175   8.351
21941TIP3    H265709   9.374   4.076   8.241
21942TIP3   OH265710   8.994   4.733   8.416
21942TIP3    H165711   9.088   4.733   8.392
21942TIP3    H265712   8.957   4.780   8.339
21943TIP3   OH265713   8.481   4.105   8.654
21943TIP3    H165714   8.571   4.131   8.625
21943TIP3    H265715   8.467   4.024   8.601
21944TIP3   OH265716   8.396   4.726   9.049
21944TIP3    H165717   8.325   4.673   9.005
21944TIP3    H265718   8.432   4.660   9.110
21945TIP3   OH265719   8.537   4.562   9.231
21945TIP3    H165720   8.465   4.531   9.289
21945TIP3    H265721   8.583   4.627   9.287
21946TIP3   OH265722   8.735   4.724   9.361
21946TIP3    H165723   8.744   4.718   9.458
21946TIP3    H265724   8.829   4.719   9.334
21947TIP3   OH265725   8.494   4.503   8.797
21947TIP3    H165726   8.410   4.467   8.761
21947TIP3    H265727   8.482   4.595   8.769
21948TIP3   OH265728   9.261   4.694   8.362
21948TIP3    H165729   9.347   4.719   8.321
21948TIP3    H265730   9.239   4.617   8.305
21949TIP3   OH265731   8.567   4.532   8.421
21949TIP3    H165732   8.562   4.563   8.513
21949TIP3    H265733   8.656   4.491   8.416
21950TIP3   OH265734   4.153   5.459   9.875
21950TIP3    H165735   4.065   5.429   9.849
21950TIP3    H265736   4.137   5.491   9.964
21951TIP3   OH265737   3.729   4.757   9.629
21951TIP3    H165738   3.796   4.813   9.676
21951TIP3    H265739   3.788   4.689   9.592
21952TIP3   OH265740   3.931   4.901   9.734
21952TIP3    H165741   4.000   4.905   9.803
21952TIP3    H265742   3.977   4.937   9.655
21953TIP3   OH265743   4.258   5.516   9.324
21953TIP3    H165744   4.265   5.613   9.314
21953TIP3    H265745   4.352   5.489   9.313
21954TIP3   OH265746   3.594   5.854   9.797
21954TIP3    H165747   3.539   5.826   9.721
21954TIP3    H265748   3.562   5.945   9.814
21955TIP3   OH265749   3.770   5.731   9.446
21955TIP3    H165750   3.829   5.663   9.409
21955TIP3    H265751   3.808   5.742   9.536
21956TIP3   OH265752   3.833   5.772   9.712
21956TIP3    H165753   3.747   5.791   9.756
21956TIP3    H265754   3.885   5.735   9.784
21957TIP3   OH265755   4.014   4.964   9.474
21957TIP3    H165756   4.006   4.956   9.379
21957TIP3    H265757   4.101   5.009   9.478
21958TIP3   OH265758   3.672   5.264   9.688
21958TIP3    H165759   3.630   5.351   9.702
21958TIP3    H265760   3.620   5.209   9.748
21959TIP3   OH265761   4.513   4.768   9.663
21959TIP3    H165762   4.440   4.727   9.611
21959TIP3    H265763   4.500   4.861   9.635
21960TIP3   OH265764   4.189   5.587   9.590
21960TIP3    H165765   4.188   5.520   9.660
21960TIP3    H265766   4.209   5.537   9.509
21961TIP3   OH265767   3.947   5.310   9.488
21961TIP3    H165768   4.004   5.282   9.562
21961TIP3    H265769   3.860   5.291   9.526
21962TIP3   OH265770   4.292   5.793   9.314
21962TIP3    H165771   4.331   5.867   9.264
21962TIP3    H265772   4.212   5.839   9.346
21963TIP3   OH265773   4.107   5.229   9.692
21963TIP3    H165774   4.086   5.210   9.785
21963TIP3    H265775   4.204   5.241   9.695
21964TIP3   OH265776   3.326   5.298   9.493
21964TIP3    H165777   3.344   5.217   9.443
21964TIP3    H265778   3.300   5.260   9.578
21965TIP3   OH265779   3.525   5.497   9.697
21965TIP3    H165780   3.429   5.516   9.690
21965TIP3    H265781   3.561   5.559   9.632
21966TIP3   OH265782   3.261   5.561   9.731
21966TIP3    H165783   3.230   5.625   9.663
21966TIP3    H265784   3.269   5.624   9.805
21967TIP3   OH265785   3.484   5.504   9.402
21967TIP3    H165786   3.430   5.432   9.442
21967TIP3    H265787   3.558   5.454   9.364
21968TIP3   OH265788   3.918   5.542   9.314
21968TIP3    H165789   3.967   5.484   9.375
21968TIP3    H265790   3.977   5.546   9.236
21969TIP3   OH265791   3.160   5.069   9.606
21969TIP3    H165792   3.167   4.982   9.651
21969TIP3    H265793   3.216   5.052   9.528
21970TIP3   OH265794   3.630   5.213   9.424
21970TIP3    H165795   3.638   5.228   9.521
21970TIP3    H265796   3.622   5.115   9.422
21971TIP3   OH265797   3.434   4.789   9.676
21971TIP3    H165798   3.375   4.765   9.602
21971TIP3    H265799   3.520   4.764   9.641
21972TIP3   OH265800   4.254   5.039   9.339
21972TIP3    H165801   4.289   5.007   9.256
21972TIP3    H265802   4.221   5.129   9.315
21973TIP3   OH265803   3.236   5.772   9.570
21973TIP3    H165804   3.333   5.782   9.564
21973TIP3    H265805   3.209   5.831   9.498
21974TIP3   OH265806   4.389   5.242   9.676
21974TIP3    H165807   4.459   5.304   9.650
21974TIP3    H265808   4.430   5.199   9.754
21975TIP3   OH265809   4.517   5.112   9.873
21975TIP3    H165810   4.454   5.070   9.936
21975TIP3    H265811   4.587   5.141   9.933
21976TIP3   OH265812   4.456   5.014   9.531
21976TIP3    H165813   4.378   5.012   9.471
21976TIP3    H265814   4.431   5.090   9.588
21977TIP3   OH265815   4.322   4.690   9.487
21977TIP3    H165816   4.311   4.718   9.396
21977TIP3    H265817   4.300   4.594   9.482
21978TIP3   OH265818   4.267   4.425   9.470
21978TIP3    H165819   4.351   4.397   9.514
21978TIP3    H265820   4.202   4.365   9.509
21979TIP3   OH265821   4.513   4.375   9.578
21979TIP3    H165822   4.558   4.294   9.550
21979TIP3    H265823   4.587   4.431   9.605
21980TIP3   OH265824   4.083   5.895   9.867
21980TIP3    H165825   4.133   5.883   9.784
21980TIP3    H265826   4.134   5.966   9.911
21981TIP3   OH265827   3.511   5.744   9.540
21981TIP3    H165828   3.601   5.764   9.505
21981TIP3    H265829   3.486   5.672   9.478
21982TIP3   OH265830   4.222   5.856   9.634
21982TIP3    H165831   4.213   5.759   9.618
21982TIP3    H265832   4.183   5.892   9.552
21983TIP3   OH265833   2.838   5.607   9.609
21983TIP3    H165834   2.860   5.668   9.683
21983TIP3    H265835   2.922   5.559   9.595
21984TIP3   OH265836   5.723   5.372   9.590
21984TIP3    H165837   5.695   5.464   9.570
21984TIP3    H265838   5.646   5.323   9.556
21985TIP3   OH265839   5.712   5.376   9.956
21985TIP3    H165840   5.734   5.346  10.046
21985TIP3    H265841   5.675   5.295   9.917
21986TIP3   OH265842   5.961   5.678   9.648
21986TIP3    H165843   5.955   5.609   9.714
21986TIP3    H265844   5.995   5.753   9.701
21987TIP3   OH265845   5.010   5.669  10.090
21987TIP3    H165846   4.999   5.575  10.066
21987TIP3    H265847   5.101   5.686  10.056
21988TIP3   OH265848   4.707   4.908   9.852
21988TIP3    H165849   4.630   4.966   9.839
21988TIP3    H265850   4.665   4.821   9.850
21989TIP3   OH265851   4.816   5.169   9.954
21989TIP3    H165852   4.791   5.077   9.970
21989TIP3    H265853   4.843   5.166   9.862
21990TIP3   OH265854   5.611   6.135   9.665
21990TIP3    H165855   5.660   6.064   9.618
21990TIP3    H265856   5.610   6.101   9.756
21991TIP3   OH265857   5.519   5.593   9.998
21991TIP3    H165858   5.563   5.515   9.961
21991TIP3    H265859   5.596   5.646  10.024
21992TIP3   OH265860   6.543   4.932  10.020
21992TIP3    H165861   6.532   5.020  10.057
21992TIP3    H265862   6.559   4.952   9.926
21993TIP3   OH265863   5.942   5.105  10.056
21993TIP3    H165864   5.974   5.012  10.066
21993TIP3    H265865   5.909   5.098   9.964
21994TIP3   OH265866   5.284   4.756   9.992
21994TIP3    H165867   5.250   4.832   9.940
21994TIP3    H265868   5.233   4.683   9.949
21995TIP3   OH265869   5.966   4.851   9.643
21995TIP3    H165870   6.038   4.833   9.709
21995TIP3    H265871   6.019   4.885   9.568
21996TIP3   OH265872   5.337   5.157   9.927
21996TIP3    H165873   5.433   5.139   9.921
21996TIP3    H265874   5.299   5.078   9.882
21997TIP3   OH265875   5.617   5.594   9.458
21997TIP3    H165876   5.570   5.570   9.378
21997TIP3    H265877   5.573   5.679   9.480
21998TIP3   OH265878   6.176   4.849   9.819
21998TIP3    H165879   6.188   4.810   9.908
21998TIP3    H265880   6.229   4.929   9.831
21999TIP3   OH265881   4.598   5.402   9.578
21999TIP3    H165882   4.555   5.431   9.495
21999TIP3    H265883   4.625   5.489   9.616
22000TIP3   OH265884   6.030   5.910   9.809
22000TIP3    H165885   5.940   5.910   9.849
22000TIP3    H265886   6.033   6.001   9.773
22001TIP3   OH265887   6.298   4.797  10.067
22001TIP3    H165888   6.272   4.819  10.157
22001TIP3    H265889   6.387   4.837  10.059
22002TIP3   OH265890   5.737   5.964   9.491
22002TIP3    H165891   5.789   5.883   9.472
22002TIP3    H265892   5.797   6.031   9.450
22003TIP3   OH265893   5.881   5.749   9.395
22003TIP3    H165894   5.839   5.669   9.362
22003TIP3    H265895   5.916   5.718   9.482
22004TIP3   OH265896   5.553   5.225   9.419
22004TIP3    H165897   5.472   5.274   9.395
22004TIP3    H265898   5.600   5.220   9.334
22005TIP3   OH265899   5.511   5.011   9.135
22005TIP3    H165900   5.581   5.058   9.184
22005TIP3    H265901   5.565   4.945   9.088
22006TIP3   OH265902   6.454   5.456   9.996
22006TIP3    H165903   6.376   5.513  10.011
22006TIP3    H265904   6.488   5.495   9.913
22007TIP3   OH265905   5.900   5.307   9.391
22007TIP3    H165906   5.846   5.332   9.470
22007TIP3    H265907   5.983   5.280   9.435
22008TIP3   OH265908   5.129   5.307   9.808
22008TIP3    H165909   5.085   5.249   9.742
22008TIP3    H265910   5.205   5.252   9.835
22009TIP3   OH265911   5.252   5.704   9.956
22009TIP3    H165912   5.249   5.668   9.867
22009TIP3    H265913   5.343   5.679   9.984
22010TIP3   OH265914   5.239   5.232  10.168
22010TIP3    H165915   5.281   5.231  10.078
22010TIP3    H265916   5.301   5.293  10.215
22011TIP3   OH265917   5.789   5.921   9.929
22011TIP3    H165918   5.776   6.004   9.980
22011TIP3    H265919   5.774   5.850   9.994
22012TIP3   OH265920   5.741   5.165   9.218
22012TIP3    H165921   5.801   5.223   9.271
22012TIP3    H265922   5.767   5.191   9.126
22013TIP3   OH265923   5.484   5.844   9.488
22013TIP3    H165924   5.563   5.897   9.511
22013TIP3    H265925   5.421   5.912   9.460
22014TIP3   OH265926   6.257   4.407   9.265
22014TIP3    H165927   6.175   4.425   9.316
22014TIP3    H265928   6.268   4.490   9.216
22015TIP3   OH265929   4.993   5.150   9.621
22015TIP3    H165930   4.928   5.189   9.559
22015TIP3    H265931   4.963   5.058   9.626
22016TIP3   OH265932   6.054   5.774   8.810
22016TIP3    H165933   6.065   5.871   8.800
22016TIP3    H265934   6.146   5.743   8.799
22017TIP3   OH265935   5.364   6.093   9.293
22017TIP3    H165936   5.314   6.075   9.211
22017TIP3    H265937   5.332   6.181   9.319
22018TIP3   OH265938   4.804   5.940   9.676
22018TIP3    H165939   4.851   5.929   9.762
22018TIP3    H265940   4.726   5.884   9.693
22019TIP3   OH265941   5.566   5.987   8.936
22019TIP3    H165942   5.628   5.919   8.902
22019TIP3    H265943   5.600   6.000   9.027
22020TIP3   OH265944   5.616   6.038   9.204
22020TIP3    H165945   5.529   6.048   9.249
22020TIP3    H265946   5.670   6.000   9.276
22021TIP3   OH265947   5.816   5.218   8.962
22021TIP3    H165948   5.786   5.185   8.875
22021TIP3    H265949   5.900   5.262   8.938
22022TIP3   OH265950   5.531   4.588   9.263
22022TIP3    H165951   5.499   4.585   9.355
22022TIP3    H265952   5.492   4.505   9.229
22023TIP3   OH265953   5.197   4.950   9.818
22023TIP3    H165954   5.107   4.914   9.836
22023TIP3    H265955   5.213   4.907   9.731
22024TIP3   OH265956   5.693   5.028   9.553
22024TIP3    H165957   5.638   5.098   9.511
22024TIP3    H265958   5.746   4.996   9.477
22025TIP3   OH265959   5.851   5.057   9.793
22025TIP3    H165960   5.791   5.083   9.719
22025TIP3    H265961   5.885   4.973   9.754
22026TIP3   OH265962   5.186   4.561   9.229
22026TIP3    H165963   5.179   4.555   9.326
22026TIP3    H265964   5.104   4.608   9.207
22027TIP3   OH265965   4.722   4.598   9.609
22027TIP3    H165966   4.762   4.643   9.531
22027TIP3    H265967   4.655   4.665   9.636
22028TIP3   OH265968   5.806   5.290  10.199
22028TIP3    H165969   5.867   5.228  10.152
22028TIP3    H265970   5.863   5.322  10.272
22029TIP3   OH265971   5.537   4.770   9.877
22029TIP3    H165972   5.452   4.763   9.926
22029TIP3    H265973   5.603   4.751   9.946
22030TIP3   OH265974   4.973   4.817   9.882
22030TIP3    H165975   4.876   4.826   9.886
22030TIP3    H265976   4.982   4.720   9.890
22031TIP3   OH265977   5.234   4.818   9.582
22031TIP3    H165978   5.328   4.827   9.558
22031TIP3    H265979   5.186   4.837   9.498
22032TIP3   OH265980   5.993   4.845  10.076
22032TIP3    H165981   5.971   4.821  10.168
22032TIP3    H265982   5.963   4.766  10.028
22033TIP3   OH265983   5.069   4.851   9.363
22033TIP3    H165984   4.995   4.805   9.321
22033TIP3    H265985   5.119   4.881   9.285
22034TIP3   OH265986   5.607   5.100   9.952
22034TIP3    H165987   5.680   5.051   9.911
22034TIP3    H265988   5.608   5.068  10.044
22035TIP3   OH265989   5.153   4.563   9.859
22035TIP3    H165990   5.148   4.476   9.904
22035TIP3    H265991   5.193   4.538   9.776
22036TIP3   OH265992   5.324   5.379   9.367
22036TIP3    H165993   5.252   5.312   9.357
22036TIP3    H265994   5.307   5.411   9.459
22037TIP3   OH265995   6.224   5.602  10.008
22037TIP3    H165996   6.253   5.665   9.938
22037TIP3    H265997   6.137   5.574   9.973
22038TIP3   OH265998   5.781   4.692   9.226
22038TIP3    H165999   5.685   4.673   9.238
22038TIP3    H266000   5.790   4.786   9.254
22039TIP3   OH266001   5.851   4.936   9.334
22039TIP3    H166002   5.948   4.941   9.350
22039TIP3    H266003   5.834   5.016   9.280
22040TIP3   OH266004   5.024   5.396  10.057
22040TIP3    H166005   5.025   5.378   9.961
22040TIP3    H266006   5.087   5.330  10.087
22041TIP3   OH266007   5.465   5.526   9.181
22041TIP3    H166008   5.420   5.612   9.193
22041TIP3    H266009   5.415   5.470   9.244
22042TIP3   OH266010   6.295   5.025   9.169
22042TIP3    H166011   6.232   4.980   9.109
22042TIP3    H266012   6.292   5.114   9.128
22043TIP3   OH266013   5.986   5.846   9.075
22043TIP3    H166014   5.970   5.778   9.142
22043TIP3    H266015   6.006   5.795   8.995
22044TIP3   OH266016   5.978   5.472   9.929
22044TIP3    H166017   5.885   5.443   9.922
22044TIP3    H266018   6.023   5.399   9.881
22045TIP3   OH266019   5.114   5.699   9.664
22045TIP3    H166020   5.118   5.784   9.616
22045TIP3    H266021   5.019   5.692   9.680
22046TIP3   OH266022   4.674   5.011   9.366
22046TIP3    H166023   4.725   5.091   9.391
22046TIP3    H266024   4.600   5.016   9.431
22047TIP3   OH266025   5.257   5.468   9.614
22047TIP3    H166026   5.220   5.558   9.630
22047TIP3    H266027   5.219   5.419   9.689
22048TIP3   OH266028   5.388   6.044  10.110
22048TIP3    H166029   5.433   6.122  10.072
22048TIP3    H266030   5.443   6.022  10.185
22049TIP3   OH266031   5.036   5.941   9.520
22049TIP3    H166032   4.950   5.945   9.567
22049TIP3    H266033   5.065   6.034   9.526
22050TIP3   OH266034   5.775   5.692  10.088
22050TIP3    H166035   5.768   5.677  10.183
22050TIP3    H266036   5.846   5.632  10.059
22051TIP3   OH266037   5.747   5.577   8.980
22051TIP3    H166038   5.802   5.551   9.058
22051TIP3    H266039   5.660   5.545   9.011
22052TIP3   OH266040   6.088   6.049   8.800
22052TIP3    H166041   6.130   6.120   8.750
22052TIP3    H266042   6.009   6.097   8.832
22053TIP3   OH266043   5.908   5.506   9.193
22053TIP3    H166044   5.898   5.441   9.266
22053TIP3    H266045   6.005   5.505   9.184
22054TIP3   OH266046   5.111   5.553   8.978
22054TIP3    H166047   5.128   5.461   8.951
22054TIP3    H266048   5.096   5.542   9.074
22055TIP3   OH266049   5.062   5.559   9.249
22055TIP3    H166050   5.128   5.529   9.312
22055TIP3    H266051   5.066   5.657   9.260
22056TIP3   OH266052   4.796   5.252   9.454
22056TIP3    H166053   4.731   5.297   9.512
22056TIP3    H266054   4.811   5.323   9.388
22057TIP3   OH266055   5.829   4.644   9.507
22057TIP3    H166056   5.813   4.668   9.414
22057TIP3    H266057   5.867   4.727   9.544
22058TIP3   OH266058   5.324   5.757   9.196
22058TIP3    H166059   5.239   5.783   9.236
22058TIP3    H266060   5.346   5.837   9.146
22059TIP3   OH266061   5.517   4.821   9.608
22059TIP3    H166062   5.582   4.892   9.592
22059TIP3    H266063   5.522   4.813   9.706
22060TIP3   OH266064   5.669   4.562   9.716
22060TIP3    H166065   5.661   4.643   9.769
22060TIP3    H266066   5.729   4.591   9.644
22061TIP3   OH266067   5.069   5.833   9.267
22061TIP3    H166068   5.037   5.904   9.207
22061TIP3    H266069   5.052   5.874   9.355
22062TIP3   OH266070   5.171   4.544   9.504
22062TIP3    H166071   5.166   4.633   9.544
22062TIP3    H266072   5.267   4.526   9.514
22063TIP3   OH266073   6.073   5.237   9.791
22063TIP3    H166074   6.001   5.173   9.800
22063TIP3    H266075   6.147   5.190   9.836
22064TIP3   OH266076   4.786   5.464   9.260
22064TIP3    H166077   4.851   5.536   9.272
22064TIP3    H266078   4.835   5.410   9.194
22065TIP3   OH266079   4.743   4.745   9.376
22065TIP3    H166080   4.728   4.841   9.380
22065TIP3    H266081   4.655   4.710   9.361
22066TIP3   OH266082   6.045   6.181   9.736
22066TIP3    H166083   6.004   6.232   9.663
22066TIP3    H266084   6.140   6.202   9.720
22067TIP3   OH266085   4.652   5.665   9.650
22067TIP3    H166086   4.589   5.710   9.707
22067TIP3    H266087   4.637   5.712   9.565
22068TIP3   OH266088   5.276   5.753   8.893
22068TIP3    H166089   5.216   5.688   8.936
22068TIP3    H266090   5.354   5.697   8.883
22069TIP3   OH266091   5.718   5.794   8.799
22069TIP3    H166092   5.748   5.732   8.868
22069TIP3    H266093   5.799   5.811   8.750
22070TIP3   OH266094   4.923   5.276   9.111
22070TIP3    H166095   4.975   5.239   9.185
22070TIP3    H266096   4.993   5.279   9.042
22071TIP3   OH266097   5.429   5.482   8.908
22071TIP3    H166098   5.434   5.494   9.005
22071TIP3    H266099   5.431   5.384   8.904
22072TIP3   OH266100   5.132   5.178   9.336
22072TIP3    H166101   5.105   5.134   9.418
22072TIP3    H266102   5.167   5.102   9.284
22073TIP3   OH266103   5.231   4.973   9.175
22073TIP3    H166104   5.205   4.971   9.081
22073TIP3    H266105   5.329   4.979   9.167
22074TIP3   OH266106   6.052   5.306   8.837
22074TIP3    H166107   6.032   5.256   8.755
22074TIP3    H266108   6.020   5.395   8.810
22075TIP3   OH266109   5.039   6.040   9.080
22075TIP3    H166110   5.134   6.032   9.059
22075TIP3    H266111   5.006   6.083   8.999
22076TIP3   OH266112   4.518   5.416   9.293
22076TIP3    H166113   4.613   5.438   9.284
22076TIP3    H266114   4.515   5.326   9.255
22077TIP3   OH266115   4.461   5.998   9.671
22077TIP3    H166116   4.370   5.965   9.665
22077TIP3    H266117   4.485   5.969   9.761
22078TIP3   OH266118   4.573   5.884   9.897
22078TIP3    H166119   4.541   5.825   9.965
22078TIP3    H266120   4.614   5.954   9.952
22079TIP3   OH266121   6.297   6.282   9.695
22079TIP3    H166122   6.320   6.334   9.773
22079TIP3    H266123   6.354   6.322   9.628
22080TIP3   OH266124   6.188   5.492   9.171
22080TIP3    H166125   6.258   5.554   9.144
22080TIP3    H266126   6.229   5.451   9.250
22081TIP3   OH266127   6.314   5.358   9.374
22081TIP3    H166128   6.250   5.316   9.434
22081TIP3    H266129   6.379   5.398   9.437
22082TIP3   OH266130   6.344   5.737   9.799
22082TIP3    H166131   6.419   5.685   9.765
22082TIP3    H266132   6.348   5.817   9.744
22083TIP3   OH266133   6.208   6.037  10.002
22083TIP3    H166134   6.137   6.093  10.033
22083TIP3    H266135   6.164   5.979   9.938
22084TIP3   OH266136   6.253   5.266   9.022
22084TIP3    H166137   6.181   5.269   8.955
22084TIP3    H266138   6.228   5.342   9.078
22085TIP3   OH266139   6.123   4.939   8.977
22085TIP3    H166140   6.084   4.975   8.897
22085TIP3    H266141   6.099   4.844   8.969
22086TIP3   OH266142   6.129   5.213   9.521
22086TIP3    H166143   6.138   5.117   9.518
22086TIP3    H266144   6.117   5.230   9.617
22087TIP3   OH266145   6.068   4.673   8.964
22087TIP3    H166146   6.144   4.642   9.017
22087TIP3    H266147   5.996   4.614   8.989
22088TIP3   OH266148   6.125   4.930   9.417
22088TIP3    H166149   6.165   4.841   9.432
22088TIP3    H266150   6.184   4.963   9.347
22089TIP3   OH266151   6.289   5.108   9.901
22089TIP3    H166152   6.378   5.132   9.867
22089TIP3    H266153   6.298   5.142   9.992
22090TIP3   OH266154   6.339   5.242  10.135
22090TIP3    H166155   6.287   5.283  10.204
22090TIP3    H266156   6.387   5.318  10.095
22091TIP3   OH266157   6.233   4.680   9.452
22091TIP3    H166158   6.283   4.665   9.535
22091TIP3    H266159   6.173   4.603   9.452
22092TIP3   OH266160   6.317   4.616   9.086
22092TIP3    H166161   6.356   4.543   9.035
22092TIP3    H266162   6.385   4.686   9.079
22093TIP3   OH266163   4.704   4.432   9.817
22093TIP3    H166164   4.715   4.484   9.900
22093TIP3    H266165   4.724   4.501   9.751
22094TIP3   OH266166   5.875   6.148   9.350
22094TIP3    H166167   5.933   6.133   9.272
22094TIP3    H266168   5.928   6.210   9.404
22095TIP3   OH266169   5.065   6.198  10.148
22095TIP3    H166170   5.010   6.235  10.218
22095TIP3    H266171   5.049   6.256  10.072
22096TIP3   OH266172   5.496   6.263   9.965
22096TIP3    H166173   5.425   6.265   9.898
22096TIP3    H266174   5.490   6.352  10.002
22097TIP3   OH266175   5.759   6.180  10.020
22097TIP3    H166176   5.674   6.216   9.989
22097TIP3    H266177   5.822   6.250   9.992
22098TIP3   OH266178   5.941   6.371   9.926
22098TIP3    H166179   5.953   6.461   9.889
22098TIP3    H266180   5.989   6.316   9.862
22099TIP3   OH266181   4.750   6.045  10.042
22099TIP3    H166182   4.747   6.018  10.135
22099TIP3    H266183   4.826   5.993  10.007
22100TIP3   OH266184   4.945   5.899   9.910
22100TIP3    H166185   4.964   5.822   9.967
22100TIP3    H266186   5.032   5.945   9.909
22101TIP3   OH266187   5.204   6.003   9.909
22101TIP3    H166188   5.241   5.913   9.904
22101TIP3    H266189   5.239   6.028   9.997
22102TIP3   OH266190   5.771   4.653   9.996
22102TIP3    H166191   5.761   4.583  10.061
22102TIP3    H266192   5.848   4.619   9.944
22103TIP3   OH266193   6.299   4.529   9.886
22103TIP3    H166194   6.340   4.589   9.820
22103TIP3    H266195   6.220   4.580   9.911
22104TIP3   OH266196   6.405   4.644   9.663
22104TIP3    H166197   6.478   4.591   9.625
22104TIP3    H266198   6.438   4.736   9.649
22105TIP3   OH266199   4.790   4.242   9.645
22105TIP3    H166200   4.839   4.301   9.585
22105TIP3    H266201   4.761   4.304   9.715
22106TIP3   OH266202   5.522   4.389   9.879
22106TIP3    H166203   5.567   4.467   9.844
22106TIP3    H266204   5.465   4.423   9.949
22107TIP3   OH266205   6.001   4.544   9.889
22107TIP3    H166206   6.021   4.517   9.798
22107TIP3    H266207   5.997   4.458   9.935
22108TIP3   OH266208   6.052   4.466   9.445
22108TIP3    H166209   5.965   4.508   9.456
22108TIP3    H266210   6.037   4.381   9.491
22109TIP3   OH266211   4.541   5.800   9.441
22109TIP3    H166212   4.453   5.776   9.407
22109TIP3    H266213   4.526   5.894   9.461
22110TIP3   OH266214   4.934   4.399   9.424
22110TIP3    H166215   4.984   4.332   9.373
22110TIP3    H266216   5.006   4.450   9.466
22111TIP3   OH266217   5.448   4.568   9.529
22111TIP3    H166218   5.500   4.517   9.592
22111TIP3    H266219   5.474   4.659   9.555
22112TIP3   OH266220   5.305   5.996   9.024
22112TIP3    H166221   5.395   6.016   8.992
22112TIP3    H266222   5.286   5.917   8.968
22113TIP3   OH266223   6.026   6.112   9.120
22113TIP3    H166224   6.015   6.015   9.107
22113TIP3    H266225   5.982   6.146   9.040
22114TIP3   OH266226   4.611   5.837   9.087
22114TIP3    H166227   4.600   5.859   9.181
22114TIP3    H266228   4.699   5.795   9.085
22115TIP3   OH266229   7.518   5.628   9.076
22115TIP3    H166230   7.490   5.720   9.056
22115TIP3    H266231   7.442   5.579   9.041
22116TIP3   OH266232   7.511   5.629   9.455
22116TIP3    H166233   7.540   5.604   9.544
22116TIP3    H266234   7.472   5.546   9.422
22117TIP3   OH266235   6.822   5.532   9.816
22117TIP3    H166236   6.844   5.495   9.902
22117TIP3    H266237   6.905   5.572   9.787
22118TIP3   OH266238   7.754   5.926   9.138
22118TIP3    H166239   7.752   5.854   9.203
22118TIP3    H266240   7.790   5.999   9.190
22119TIP3   OH266241   6.792   5.935   9.553
22119TIP3    H166242   6.781   5.837   9.552
22119TIP3    H266243   6.887   5.941   9.536
22120TIP3   OH266244   6.495   5.141   9.333
22120TIP3    H166245   6.444   5.223   9.346
22120TIP3    H266246   6.426   5.083   9.297
22121TIP3   OH266247   6.556   5.425   9.500
22121TIP3    H166248   6.604   5.349   9.539
22121TIP3    H266249   6.613   5.449   9.426
22122TIP3   OH266250   7.378   6.377   9.138
22122TIP3    H166251   7.437   6.323   9.082
22122TIP3    H266252   7.408   6.348   9.225
22123TIP3   OH266253   7.305   5.846   9.500
22123TIP3    H166254   7.345   5.771   9.455
22123TIP3    H266255   7.386   5.900   9.515
22124TIP3   OH266256   8.306   5.173   9.496
22124TIP3    H166257   8.350   5.250   9.534
22124TIP3    H266258   8.330   5.182   9.402
22125TIP3   OH266259   7.728   5.355   9.540
22125TIP3    H166260   7.771   5.268   9.554
22125TIP3    H266261   7.698   5.345   9.447
22126TIP3   OH266262   7.065   5.016   9.503
22126TIP3    H166263   7.044   5.088   9.439
22126TIP3    H266264   7.018   4.942   9.459
22127TIP3   OH266265   7.759   5.108   9.126
22127TIP3    H166266   7.833   5.090   9.189
22127TIP3    H266267   7.809   5.142   9.050
22128TIP3   OH266268   6.700   5.220   9.609
22128TIP3    H166269   6.783   5.195   9.656
22128TIP3    H266270   6.708   5.163   9.530
22129TIP3   OH266271   7.140   5.416   9.403
22129TIP3    H166272   7.234   5.391   9.413
22129TIP3    H266273   7.101   5.332   9.369
22130TIP3   OH266274   7.065   4.997   9.938
22130TIP3    H166275   7.004   5.033   9.871
22130TIP3    H266276   7.005   4.984  10.014
22131TIP3   OH266277   7.407   5.849   8.948
22131TIP3    H166278   7.370   5.828   8.862
22131TIP3    H266279   7.366   5.936   8.966
22132TIP3   OH266280   7.141   5.776   9.732
22132TIP3    H166281   7.113   5.854   9.779
22132TIP3    H266282   7.211   5.810   9.674
22133TIP3   OH266283   7.973   5.101   9.295
22133TIP3    H166284   7.959   5.052   9.376
22133TIP3    H266285   8.015   5.183   9.327
22134TIP3   OH266286   6.934   5.112   9.722
22134TIP3    H166287   6.999   5.184   9.739
22134TIP3    H266288   6.978   5.069   9.645
22135TIP3   OH266289   6.394   5.658   9.066
22135TIP3    H166290   6.353   5.685   8.982
22135TIP3    H266291   6.424   5.744   9.103
22136TIP3   OH266292   8.107   5.081   9.670
22136TIP3    H166293   8.023   5.096   9.625
22136TIP3    H266294   8.174   5.107   9.603
22137TIP3   OH266295   7.423   4.716   9.654
22137TIP3    H166296   7.406   4.621   9.671
22137TIP3    H266297   7.343   4.754   9.698
22138TIP3   OH266298   7.545   6.228   8.990
22138TIP3    H166299   7.589   6.144   8.962
22138TIP3    H266300   7.596   6.292   8.935
22139TIP3   OH266301   7.671   6.007   8.887
22139TIP3    H166302   7.642   5.928   8.839
22139TIP3    H266303   7.704   5.968   8.971
22140TIP3   OH266304   7.349   5.481   8.905
22140TIP3    H166305   7.268   5.532   8.882
22140TIP3    H266306   7.396   5.478   8.820
22141TIP3   OH266307   7.308   5.265   8.624
22141TIP3    H166308   7.377   5.315   8.672
22141TIP3    H266309   7.363   5.201   8.576
22142TIP3   OH266310   7.695   5.563   8.878
22142TIP3    H166311   7.642   5.588   8.957
22142TIP3    H266312   7.779   5.537   8.921
22143TIP3   OH266313   6.928   5.561   9.295
22143TIP3    H166314   6.886   5.504   9.227
22143TIP3    H266315   7.005   5.508   9.322
22144TIP3   OH266316   7.056   5.972   9.444
22144TIP3    H166317   7.035   5.933   9.358
22144TIP3    H266318   7.143   5.932   9.464
22145TIP3   OH266319   7.066   5.527   9.651
22145TIP3    H166320   7.096   5.511   9.559
22145TIP3    H266321   7.101   5.618   9.669
22146TIP3   OH266322   7.537   5.421   8.704
22146TIP3    H166323   7.597   5.480   8.756
22146TIP3    H266324   7.563   5.445   8.612
22147TIP3   OH266325   7.279   6.102   8.975
22147TIP3    H166326   7.346   6.163   9.009
22147TIP3    H266327   7.214   6.162   8.936
22148TIP3   OH266328   8.048   4.660   8.747
22148TIP3    H166329   7.969   4.681   8.801
22148TIP3    H266330   8.062   4.744   8.700
22149TIP3   OH266331   6.794   5.404   9.102
22149TIP3    H166332   6.730   5.449   9.043
22149TIP3    H266333   6.754   5.317   9.111
22150TIP3   OH266334   7.850   6.030   8.301
22150TIP3    H166335   7.857   6.126   8.285
22150TIP3    H266336   7.942   6.001   8.287
22151TIP3   OH266337   6.428   5.980   9.637
22151TIP3    H166338   6.524   5.979   9.629
22151TIP3    H266339   6.411   6.056   9.694
22152TIP3   OH266340   7.158   6.345   8.783
22152TIP3    H166341   7.116   6.329   8.697
22152TIP3    H266342   7.129   6.435   8.805
22153TIP3   OH266343   6.597   6.197   9.163
22153TIP3    H166344   6.647   6.188   9.248
22153TIP3    H266345   6.539   6.120   9.169
22154TIP3   OH266346   7.362   6.248   8.420
22154TIP3    H166347   7.421   6.178   8.384
22154TIP3    H266348   7.396   6.257   8.511
22155TIP3   OH266349   7.409   6.297   8.688
22155TIP3    H166350   7.323   6.305   8.734
22155TIP3    H266351   7.465   6.258   8.758
22156TIP3   OH266352   7.183   4.800   9.773
22156TIP3    H166353   7.094   4.765   9.751
22156TIP3    H266354   7.157   4.880   9.822
22157TIP3   OH266355   7.613   5.469   8.448
22157TIP3    H166356   7.580   5.443   8.360
22157TIP3    H266357   7.693   5.519   8.423
22158TIP3   OH266358   7.326   4.844   8.749
22158TIP3    H166359   7.293   4.842   8.841
22158TIP3    H266360   7.289   4.760   8.716
22159TIP3   OH266361   7.117   5.305   9.793
22159TIP3    H166362   7.088   5.337   9.879
22159TIP3    H266363   7.101   5.384   9.736
22160TIP3   OH266364   6.996   5.196   9.311
22160TIP3    H166365   6.903   5.169   9.328
22160TIP3    H266366   7.010   5.156   9.222
22161TIP3   OH266367   7.486   5.282   9.039
22161TIP3    H166368   7.433   5.353   8.997
22161TIP3    H266369   7.541   5.252   8.964
22162TIP3   OH266370   7.643   5.312   9.279
22162TIP3    H166371   7.583   5.341   9.207
22162TIP3    H266372   7.676   5.230   9.236
22163TIP3   OH266373   6.981   4.817   8.716
22163TIP3    H166374   6.974   4.813   8.813
22163TIP3    H266375   6.901   4.867   8.693
22164TIP3   OH266376   6.525   4.870   9.580
22164TIP3    H166377   6.601   4.896   9.637
22164TIP3    H266378   6.567   4.829   9.503
22165TIP3   OH266379   6.499   4.842   9.106
22165TIP3    H166380   6.544   4.881   9.028
22165TIP3    H266381   6.438   4.915   9.129
22166TIP3   OH266382   7.655   5.555   9.706
22166TIP3    H166383   7.687   5.484   9.645
22166TIP3    H266384   7.599   5.505   9.767
22167TIP3   OH266385   7.323   5.019   9.374
22167TIP3    H166386   7.240   5.015   9.425
22167TIP3    H266387   7.390   5.018   9.445
22168TIP3   OH266388   6.758   5.073   9.382
22168TIP3    H166389   6.663   5.080   9.355
22168TIP3    H266390   6.781   4.982   9.358
22169TIP3   OH266391   7.028   5.072   9.069
22169TIP3    H166392   7.122   5.085   9.047
22169TIP3    H266393   6.982   5.094   8.985
22170TIP3   OH266394   7.819   5.093   9.570
22170TIP3    H166395   7.792   5.100   9.664
22170TIP3    H266396   7.753   5.031   9.536
22171TIP3   OH266397   6.867   5.104   8.848
22171TIP3    H166398   6.795   5.059   8.800
22171TIP3    H266399   6.919   5.140   8.773
22172TIP3   OH266400   7.407   5.347   9.468
22172TIP3    H166401   7.478   5.305   9.417
22172TIP3    H266402   7.414   5.303   9.555
22173TIP3   OH266403   6.932   4.834   9.348
22173TIP3    H166404   6.898   4.754   9.393
22173TIP3    H266405   6.982   4.796   9.275
22174TIP3   OH266406   7.384   5.245   9.740
22174TIP3    H166407   7.290   5.264   9.757
22174TIP3    H266408   7.427   5.277   9.820
22175TIP3   OH266409   7.119   5.634   8.854
22175TIP3    H166410   7.047   5.569   8.844
22175TIP3    H266411   7.102   5.668   8.946
22176TIP3   OH266412   7.579   4.946   8.719
22176TIP3    H166413   7.482   4.930   8.725
22176TIP3    H266414   7.588   5.041   8.740
22177TIP3   OH266415   7.648   5.194   8.821
22177TIP3    H166416   7.744   5.199   8.835
22177TIP3    H266417   7.629   5.272   8.766
22178TIP3   OH266418   6.815   5.658   9.530
22178TIP3    H166419   6.850   5.630   9.443
22178TIP3    H266420   6.847   5.586   9.587
22179TIP3   OH266421   7.266   5.783   8.676
22179TIP3    H166422   7.219   5.870   8.683
22179TIP3    H266423   7.211   5.728   8.736
22180TIP3   OH266424   8.091   5.282   8.656
22180TIP3    H166425   8.028   5.237   8.594
22180TIP3    H266426   8.086   5.371   8.614
22181TIP3   OH266427   7.786   6.103   8.563
22181TIP3    H166428   7.767   6.031   8.624
22181TIP3    H266429   7.802   6.058   8.478
22182TIP3   OH266430   7.771   5.731   9.399
22182TIP3    H166431   7.681   5.696   9.413
22182TIP3    H266432   7.815   5.656   9.356
22183TIP3   OH266433   6.912   5.959   9.158
22183TIP3    H166434   6.917   6.041   9.105
22183TIP3    H266435   6.817   5.945   9.163
22184TIP3   OH266436   6.475   5.264   8.858
22184TIP3    H166437   6.523   5.347   8.879
22184TIP3    H266438   6.399   5.270   8.919
22185TIP3   OH266439   7.053   5.726   9.102
22185TIP3    H166440   7.018   5.815   9.119
22185TIP3    H266441   7.015   5.676   9.177
22186TIP3   OH266442   6.834   6.198   9.010
22186TIP3    H166443   6.747   6.207   9.054
22186TIP3    H266444   6.866   6.291   9.013
22187TIP3   OH266445   7.546   5.963   9.556
22187TIP3    H166446   7.563   5.959   9.651
22187TIP3    H266447   7.624   5.917   9.523
22188TIP3   OH266448   7.544   5.827   8.467
22188TIP3    H166449   7.597   5.804   8.547
22188TIP3    H266450   7.455   5.803   8.498
22189TIP3   OH266451   7.882   6.305   8.284
22189TIP3    H166452   7.927   6.377   8.237
22189TIP3    H266453   7.803   6.352   8.316
22190TIP3   OH266454   7.704   5.767   8.687
22190TIP3    H166455   7.695   5.698   8.755
22190TIP3    H266456   7.801   5.764   8.671
22191TIP3   OH266457   6.619   6.180   9.781
22191TIP3    H166458   6.664   6.096   9.797
22191TIP3    H266459   6.639   6.230   9.861
22192TIP3   OH266460   6.911   5.811   8.466
22192TIP3    H166461   6.926   5.719   8.436
22192TIP3    H266462   6.892   5.797   8.561
22193TIP3   OH266463   6.856   5.815   8.740
22193TIP3    H166464   6.929   5.789   8.797
22193TIP3    H266465   6.860   5.913   8.745
22194TIP3   OH266466   6.593   5.509   8.941
22194TIP3    H166467   6.527   5.554   8.998
22194TIP3    H266468   6.609   5.578   8.875
22195TIP3   OH266469   7.752   5.135   9.835
22195TIP3    H166470   7.804   5.192   9.894
22195TIP3    H266471   7.694   5.091   9.899
22196TIP3   OH266472   7.617   4.900   8.998
22196TIP3    H166473   7.605   4.921   8.903
22196TIP3    H266474   7.658   4.982   9.032
22197TIP3   OH266475   7.121   6.013   8.688
22197TIP3    H166476   7.035   6.043   8.722
22197TIP3    H266477   7.141   6.083   8.624
22198TIP3   OH266478   7.311   5.076   9.100
22198TIP3    H166479   7.376   5.147   9.081
22198TIP3    H266480   7.316   5.071   9.198
22199TIP3   OH266481   7.457   4.806   9.205
22199TIP3    H166482   7.446   4.885   9.261
22199TIP3    H266483   7.516   4.841   9.135
22200TIP3   OH266484   6.863   6.088   8.754
22200TIP3    H166485   6.835   6.158   8.690
22200TIP3    H266486   6.849   6.133   8.840
22201TIP3   OH266487   6.966   4.801   8.993
22201TIP3    H166488   6.964   4.892   9.028
22201TIP3    H266489   7.062   4.782   9.001
22202TIP3   OH266490   7.863   5.491   9.274
22202TIP3    H166491   7.785   5.433   9.282
22202TIP3    H266492   7.931   5.440   9.324
22203TIP3   OH266493   6.582   5.721   8.747
22203TIP3    H166494   6.648   5.792   8.756
22203TIP3    H266495   6.628   5.666   8.680
22204TIP3   OH266496   6.529   4.994   8.881
22204TIP3    H166497   6.527   5.092   8.875
22204TIP3    H266498   6.447   4.969   8.838
22205TIP3   OH266499   6.918   4.718   9.754
22205TIP3    H166500   6.886   4.684   9.667
22205TIP3    H266501   6.905   4.639   9.811
22206TIP3   OH266502   6.456   5.932   9.137
22206TIP3    H166503   6.384   5.964   9.192
22206TIP3    H266504   6.433   5.973   9.050
22207TIP3   OH266505   7.075   6.015   8.380
22207TIP3    H166506   7.020   5.943   8.418
22207TIP3    H266507   7.150   5.965   8.344
22208TIP3   OH266508   7.510   6.056   8.288
22208TIP3    H166509   7.560   5.996   8.345
22208TIP3    H266510   7.565   6.060   8.207
22209TIP3   OH266511   6.718   5.532   8.599
22209TIP3    H166512   6.773   5.498   8.671
22209TIP3    H266513   6.785   5.537   8.527
22210TIP3   OH266514   7.225   5.728   8.407
22210TIP3    H166515   7.230   5.743   8.503
22210TIP3    H266516   7.226   5.630   8.403
22211TIP3   OH266517   6.927   5.434   8.822
22211TIP3    H166518   6.902   5.391   8.905
22211TIP3    H266519   6.963   5.360   8.770
22212TIP3   OH266520   7.027   5.228   8.663
22212TIP3    H166521   7.001   5.229   8.569
22212TIP3    H266522   7.125   5.235   8.655
22213TIP3   OH266523   7.851   5.560   8.324
22213TIP3    H166524   7.828   5.513   8.242
22213TIP3    H266525   7.820   5.650   8.300
22214TIP3   OH266526   7.331   5.075   9.972
22214TIP3    H166527   7.345   5.093   9.879
22214TIP3    H266528   7.239   5.042   9.973
22215TIP3   OH266529   6.834   6.289   8.566
22215TIP3    H166530   6.930   6.287   8.548
22215TIP3    H266531   6.804   6.339   8.487
22216TIP3   OH266532   6.314   5.672   8.783
22216TIP3    H166533   6.408   5.696   8.770
22216TIP3    H266534   6.310   5.584   8.742
22217TIP3   OH266535   6.228   6.285   9.197
22217TIP3    H166536   6.161   6.222   9.162
22217TIP3    H266537   6.273   6.228   9.264
22218TIP3   OH266538   6.364   6.137   9.383
22218TIP3    H166539   6.353   6.063   9.445
22218TIP3    H266540   6.417   6.198   9.438
22219TIP3   OH266541   7.983   5.749   8.657
22219TIP3    H166542   8.052   5.812   8.629
22219TIP3    H266543   8.026   5.707   8.735
22220TIP3   OH266544   8.108   5.614   8.857
22220TIP3    H166545   8.046   5.572   8.921
22220TIP3    H266546   8.178   5.651   8.915
22221TIP3   OH266547   8.050   5.521   8.510
22221TIP3    H166548   7.978   5.525   8.442
22221TIP3    H266549   8.024   5.598   8.564
22222TIP3   OH266550   7.921   5.195   8.464
22222TIP3    H166551   7.879   5.235   8.387
22222TIP3    H266552   7.895   5.100   8.452
22223TIP3   OH266553   7.925   5.469   9.007
22223TIP3    H166554   7.934   5.372   9.003
22223TIP3    H266555   7.911   5.485   9.103
22224TIP3   OH266556   6.553   5.546   9.752
22224TIP3    H166557   6.549   5.517   9.658
22224TIP3    H266558   6.650   5.549   9.766
22225TIP3   OH266559   7.865   4.929   8.451
22225TIP3    H166560   7.938   4.897   8.506
22225TIP3    H266561   7.791   4.870   8.474
22226TIP3   OH266562   7.922   5.186   8.905
22226TIP3    H166563   7.964   5.097   8.920
22226TIP3    H266564   7.980   5.220   8.834
22227TIP3   OH266565   8.056   5.349   9.406
22227TIP3    H166566   8.144   5.368   9.365
22227TIP3    H266567   8.072   5.379   9.496
22228TIP3   OH266568   8.032   4.935   8.943
22228TIP3    H166569   8.077   4.917   9.027
22228TIP3    H266570   7.970   4.859   8.938
22229TIP3   OH266571   6.731   4.922   9.756
22229TIP3    H166572   6.792   4.847   9.770
22229TIP3    H266573   6.794   4.996   9.752
22230TIP3   OH266574   6.542   5.193   9.840
22230TIP3    H166575   6.588   5.193   9.753
22230TIP3    H266576   6.547   5.286   9.865
22231TIP3   OH266577   8.114   4.872   8.575
22231TIP3    H166578   8.152   4.800   8.520
22231TIP3    H266579   8.180   4.943   8.564
22232TIP3   OH266580   6.517   4.702   9.336
22232TIP3    H166581   6.423   4.698   9.361
22232TIP3    H266582   6.515   4.759   9.256
22233TIP3   OH266583   7.664   6.411   8.828
22233TIP3    H166584   7.713   6.391   8.745
22233TIP3    H266585   7.740   6.416   8.889
22234TIP3   OH266586   6.738   4.760  10.123
22234TIP3    H166587   6.704   4.742  10.212
22234TIP3    H266588   6.669   4.820  10.087
22235TIP3   OH266589   6.853   6.434   9.626
22235TIP3    H166590   6.837   6.492   9.701
22235TIP3    H266591   6.851   6.496   9.551
22236TIP3   OH266592   6.542   6.291   9.539
22236TIP3    H166593   6.569   6.266   9.630
22236TIP3    H266594   6.617   6.252   9.489
22237TIP3   OH266595   6.735   6.161   9.395
22237TIP3    H166596   6.754   6.079   9.446
22237TIP3    H266597   6.825   6.200   9.389
22238TIP3   OH266598   6.999   6.259   9.392
22238TIP3    H166599   7.037   6.169   9.395
22238TIP3    H266600   7.005   6.287   9.484
22239TIP3   OH266601   7.581   4.913   9.493
22239TIP3    H166602   7.536   4.841   9.541
22239TIP3    H266603   7.649   4.865   9.442
22240TIP3   OH266604   8.111   4.794   9.399
22240TIP3    H166605   8.141   4.846   9.321
22240TIP3    H266606   8.015   4.807   9.394
22241TIP3   OH266607   8.201   4.892   9.161
22241TIP3    H166608   8.273   4.843   9.115
22241TIP3    H266609   8.227   4.985   9.141
22242TIP3   OH266610   6.828   4.623   9.506
22242TIP3    H166611   6.736   4.588   9.506
22242TIP3    H266612   6.878   4.538   9.503
22243TIP3   OH266613   6.613   4.491   9.153
22243TIP3    H166614   6.644   4.548   9.081
22243TIP3    H266615   6.584   4.556   9.220
22244TIP3   OH266616   7.269   4.656   9.385
22244TIP3    H166617   7.330   4.704   9.327
22244TIP3    H266618   7.291   4.691   9.472
22245TIP3   OH266619   7.825   4.801   9.370
22245TIP3    H166620   7.823   4.766   9.280
22245TIP3    H266621   7.808   4.720   9.423
22246TIP3   OH266622   7.849   4.724   8.932
22246TIP3    H166623   7.760   4.763   8.939
22246TIP3    H266624   7.835   4.639   8.979
22247TIP3   OH266625   6.331   6.061   8.935
22247TIP3    H166626   6.246   6.029   8.899
22247TIP3    H266627   6.321   6.156   8.920
22248TIP3   OH266628   6.730   4.652   8.917
22248TIP3    H166629   6.779   4.588   8.861
22248TIP3    H266630   6.804   4.705   8.953
22249TIP3   OH266631   7.243   4.826   9.015
22249TIP3    H166632   7.302   4.777   9.074
22249TIP3    H266633   7.266   4.918   9.041
22250TIP3   OH266634   7.103   6.252   8.516
22250TIP3    H166635   7.191   6.275   8.479
22250TIP3    H266636   7.081   6.177   8.456
22251TIP3   OH266637   7.821   6.371   8.607
22251TIP3    H166638   7.816   6.274   8.591
22251TIP3    H266639   7.785   6.406   8.524
22252TIP3   OH266640   6.406   6.086   8.573
22252TIP3    H166641   6.411   6.115   8.665
22252TIP3    H266642   6.495   6.045   8.560
22253TIP3   OH266643   8.287   5.391   8.820
22253TIP3    H166644   8.244   5.477   8.834
22253TIP3    H266645   8.214   5.342   8.778
22254TIP3   OH266646   8.351   5.675   8.964
22254TIP3    H166647   8.410   5.607   9.002
22254TIP3    H266648   8.409   5.725   8.906
22255TIP3   OH266649   8.887   5.239   8.965
22255TIP3    H166650   8.882   5.325   8.920
22255TIP3    H266651   8.808   5.195   8.928
22256TIP3   OH266652   8.467   5.445   9.096
22256TIP3    H166653   8.562   5.444   9.114
22256TIP3    H266654   8.468   5.398   9.010
22257TIP3   OH266655   8.186   5.914   8.553
22257TIP3    H166656   8.144   5.944   8.471
22257TIP3    H266657   8.215   6.001   8.592
22258TIP3   OH266658   9.103   5.520   8.109
22258TIP3    H166659   9.165   5.568   8.164
22258TIP3    H266660   9.163   5.459   8.061
22259TIP3   OH266661   9.847   4.921   8.237
22259TIP3    H166662   9.766   4.935   8.291
22259TIP3    H266663   9.841   4.995   8.175
22260TIP3   OH266664   8.584   5.634   8.554
22260TIP3    H166665   8.516   5.693   8.517
22260TIP3    H266666   8.533   5.573   8.606
22261TIP3   OH266667   9.413   5.724   7.924
22261TIP3    H166668   9.382   5.691   7.837
22261TIP3    H266669   9.460   5.804   7.899
22262TIP3   OH266670   9.130   5.098   8.234
22262TIP3    H166671   9.095   5.097   8.325
22262TIP3    H266672   9.087   5.018   8.199
22263TIP3   OH266673   8.789   5.429   8.778
22263TIP3    H166674   8.697   5.415   8.807
22263TIP3    H266675   8.786   5.392   8.688
22264TIP3   OH266676   8.780   5.076   8.203
22264TIP3    H166677   8.768   5.068   8.300
22264TIP3    H266678   8.700   5.124   8.178
22265TIP3   OH266679   8.307   5.120   9.065
22265TIP3    H166680   8.384   5.144   9.121
22265TIP3    H266681   8.348   5.088   8.983
22266TIP3   OH266682   8.296   5.099   8.593
22266TIP3    H166683   8.340   5.139   8.515
22266TIP3    H266684   8.234   5.172   8.616
22267TIP3   OH266685   8.547   5.320   8.862
22267TIP3    H166686   8.455   5.327   8.829
22267TIP3    H266687   8.577   5.232   8.834
22268TIP3   OH266688   8.809   5.306   8.537
22268TIP3    H166689   8.897   5.340   8.514
22268TIP3    H266690   8.753   5.340   8.464
22269TIP3   OH266691   8.654   5.360   8.327
22269TIP3    H166692   8.583   5.316   8.278
22269TIP3    H266693   8.708   5.395   8.254
22270TIP3   OH266694   8.705   5.087   8.821
22270TIP3    H166695   8.683   5.007   8.873
22270TIP3    H266696   8.763   5.054   8.752
22271TIP3   OH266697   8.880   5.891   8.340
22271TIP3    H166698   8.827   5.808   8.337
22271TIP3    H266699   8.887   5.904   8.436
22272TIP3   OH266700   9.372   5.223   8.214
22272TIP3    H166701   9.278   5.194   8.210
22272TIP3    H266702   9.369   5.312   8.175
22273TIP3   OH266703   8.272   5.520   8.346
22273TIP3    H166704   8.318   5.603   8.366
22273TIP3    H266705   8.194   5.527   8.406
22274TIP3   OH266706   8.706   6.065   7.952
22274TIP3    H166707   8.720   5.974   7.918
22274TIP3    H266708   8.681   6.047   8.045
22275TIP3   OH266709   8.641   6.061   8.222
22275TIP3    H166710   8.687   6.000   8.283
22275TIP3    H266711   8.661   6.147   8.263
22276TIP3   OH266712   8.381   5.767   8.427
22276TIP3    H166713   8.317   5.813   8.486
22276TIP3    H266714   8.394   5.837   8.360
22277TIP3   OH266715   9.427   5.131   8.467
22277TIP3    H166716   9.410   5.167   8.377
22277TIP3    H266717   9.431   5.214   8.519
22278TIP3   OH266718   9.081   5.354   8.567
22278TIP3    H166719   9.174   5.376   8.559
22278TIP3    H266720   9.052   5.404   8.645
22279TIP3   OH266721   9.246   5.035   8.692
22279TIP3    H166722   9.278   5.096   8.761
22279TIP3    H266723   9.303   5.066   8.619
22280TIP3   OH266724   8.762   5.046   8.478
22280TIP3    H166725   8.758   5.139   8.509
22280TIP3    H266726   8.859   5.031   8.485
22281TIP3   OH266727   8.372   5.973   8.232
22281TIP3    H166728   8.430   6.050   8.236
22281TIP3    H266729   8.422   5.918   8.167
22282TIP3   OH266730   8.325   5.250   8.365
22282TIP3    H166731   8.325   5.348   8.363
22282TIP3    H266732   8.240   5.228   8.327
22283TIP3   OH266733   8.696   4.972   9.254
22283TIP3    H166734   8.689   4.953   9.158
22283TIP3    H266735   8.713   4.882   9.289
22284TIP3   OH266736   8.242   6.172   8.629
22284TIP3    H166737   8.185   6.226   8.685
22284TIP3    H266738   8.242   6.226   8.548
22285TIP3   OH266739   8.852   6.272   7.849
22285TIP3    H166740   8.801   6.198   7.889
22285TIP3    H266741   8.939   6.259   7.890
22286TIP3   OH266742   8.517   5.788   8.086
22286TIP3    H166743   8.568   5.750   8.160
22286TIP3    H266744   8.585   5.791   8.016
22287TIP3   OH266745   9.019   5.986   7.890
22287TIP3    H166746   9.011   5.998   7.986
22287TIP3    H266747   9.022   5.889   7.884
22288TIP3   OH266748   8.709   5.683   8.309
22288TIP3    H166749   8.680   5.651   8.398
22288TIP3    H266750   8.743   5.601   8.268
22289TIP3   OH266751   8.823   5.479   8.149
22289TIP3    H166752   8.794   5.485   8.055
22289TIP3    H266753   8.920   5.491   8.138
22290TIP3   OH266754   8.106   5.928   8.268
22290TIP3    H166755   8.202   5.950   8.257
22290TIP3    H266756   8.103   5.839   8.227
22291TIP3   OH266757   9.658   5.465   7.940
22291TIP3    H166758   9.656   5.484   7.846
22291TIP3    H266759   9.641   5.369   7.938
22292TIP3   OH266760   9.624   5.200   7.930
22292TIP3    H166761   9.714   5.171   7.957
22292TIP3    H266762   9.567   5.125   7.953
22293TIP3   OH266763   8.504   5.160   9.252
22293TIP3    H166764   8.567   5.084   9.258
22293TIP3    H266765   8.567   5.228   9.219
22294TIP3   OH266766   8.302   5.412   9.319
22294TIP3    H166767   8.335   5.402   9.227
22294TIP3    H266768   8.331   5.505   9.334
22295TIP3   OH266769   9.880   5.148   8.006
22295TIP3    H166770   9.930   5.075   7.963
22295TIP3    H266771   9.948   5.179   8.069
22296TIP3   OH266772   8.313   4.958   8.823
22296TIP3    H166773   8.218   4.954   8.846
22296TIP3    H266774   8.313   5.015   8.743
22297TIP3   OH266775   8.629   4.881   8.996
22297TIP3    H166776   8.536   4.850   8.995
22297TIP3    H266777   8.676   4.796   8.988
22298TIP3   OH266778   8.423   4.747   8.644
22298TIP3    H166779   8.443   4.805   8.568
22298TIP3    H266780   8.382   4.810   8.706
22299TIP3   OH266781   9.067   4.905   8.878
22299TIP3    H166782   9.124   4.952   8.815
22299TIP3    H266783   9.046   4.974   8.943
22300TIP3   OH266784   9.631   4.968   8.389
22300TIP3    H166785   9.552   5.023   8.406
22300TIP3    H266786   9.612   4.889   8.443
22301TIP3   OH266787   8.137   6.301   8.406
22301TIP3    H166788   8.049   6.275   8.374
22301TIP3    H266789   8.122   6.395   8.422
22302TIP3   OH266790   8.525   4.907   8.405
22302TIP3    H166791   8.574   4.846   8.347
22302TIP3    H266792   8.597   4.961   8.442
22303TIP3   OH266793   9.042   5.084   8.500
22303TIP3    H166794   9.100   5.044   8.567
22303TIP3    H266795   9.046   5.178   8.525
22304TIP3   OH266796   8.208   6.343   8.060
22304TIP3    H166797   8.191   6.367   8.153
22304TIP3    H266798   8.296   6.301   8.063
22305TIP3   OH266799   2.098   7.080   9.476
22305TIP3    H166800   2.106   7.175   9.451
22305TIP3    H266801   2.189   7.047   9.455
22306TIP3   OH266802   1.862   6.526   9.611
22306TIP3    H166803   1.840   6.470   9.534
22306TIP3    H266804   1.948   6.562   9.583
22307TIP3   OH266805   2.145   7.125   9.743
22307TIP3    H166806   2.059   7.101   9.782
22307TIP3    H266807   2.130   7.102   9.649
22308TIP3   OH266808   1.812   6.854   9.619
22308TIP3    H166809   1.860   6.813   9.693
22308TIP3    H266810   1.724   6.864   9.659
22309TIP3   OH266811   2.127   7.356   9.460
22309TIP3    H166812   2.137   7.406   9.377
22309TIP3    H266813   2.040   7.389   9.486
22310TIP3   OH266814   1.757   7.088   9.469
22310TIP3    H166815   1.819   7.018   9.491
22310TIP3    H266816   1.792   7.120   9.384
22311TIP3   OH266817   1.449   6.771   9.586
22311TIP3    H166818   1.445   6.784   9.682
22311TIP3    H266819   1.503   6.689   9.577
22312TIP3   OH266820   2.097   6.610   9.505
22312TIP3    H166821   2.084   6.557   9.424
22312TIP3    H266822   2.071   6.698   9.469
22313TIP3   OH266823   2.311   6.576   9.673
22313TIP3    H166824   2.230   6.588   9.619
22313TIP3    H266825   2.288   6.618   9.758
22314TIP3   OH266826   2.166   6.241   9.654
22314TIP3    H166827   2.137   6.298   9.582
22314TIP3    H266828   2.143   6.154   9.622
22315TIP3   OH266829   3.563   6.934   9.740
22315TIP3    H166830   3.536   7.025   9.718
22315TIP3    H266831   3.486   6.884   9.708
22316TIP3   OH266832   3.802   7.233   9.799
22316TIP3    H166833   3.801   7.161   9.863
22316TIP3    H266834   3.838   7.307   9.853
22317TIP3   OH266835   3.468   7.702   9.812
22317TIP3    H166836   3.500   7.615   9.782
22317TIP3    H266837   3.400   7.682   9.878
22318TIP3   OH266838   4.364   6.452  10.152
22318TIP3    H166839   4.377   6.533  10.202
22318TIP3    H266840   4.414   6.474  10.071
22319TIP3   OH266841   3.807   6.399   9.792
22319TIP3    H166842   3.881   6.383   9.855
22319TIP3    H266843   3.856   6.439   9.718
22320TIP3   OH266844   3.460   7.155   9.605
22320TIP3    H166845   3.411   7.132   9.525
22320TIP3    H266846   3.415   7.239   9.630
22321TIP3   OH266847   4.024   6.398   9.968
22321TIP3    H166848   4.017   6.398  10.065
22321TIP3    H266849   4.082   6.475   9.956
22322TIP3   OH266850   2.439   6.932   9.719
22322TIP3    H166851   2.382   6.971   9.650
22322TIP3    H266852   2.460   7.010   9.774
22323TIP3   OH266853   3.876   7.453   9.971
22323TIP3    H166854   3.786   7.454  10.010
22323TIP3    H266855   3.876   7.538   9.922
22324TIP3   OH266856   3.581   7.512   9.643
22324TIP3    H166857   3.636   7.434   9.619
22324TIP3    H266858   3.639   7.582   9.606
22325TIP3   OH266859   3.728   7.301   9.543
22325TIP3    H166860   3.674   7.225   9.516
22325TIP3    H266861   3.761   7.271   9.631
22326TIP3   OH266862   3.392   6.784   9.568
22326TIP3    H166863   3.312   6.834   9.544
22326TIP3    H266864   3.440   6.781   9.483
22327TIP3   OH266865   3.353   6.568   9.285
22327TIP3    H166866   3.421   6.616   9.336
22327TIP3    H266867   3.409   6.503   9.239
22328TIP3   OH266868   4.302   7.008  10.128
22328TIP3    H166869   4.227   7.058  10.164
22328TIP3    H266870   4.325   7.061  10.050
22329TIP3   OH266871   3.740   6.864   9.543
22329TIP3    H166872   3.687   6.890   9.622
22329TIP3    H266873   3.824   6.836   9.587
22330TIP3   OH266874   2.953   6.850   9.958
22330TIP3    H166875   2.918   6.797   9.883
22330TIP3    H266876   3.040   6.810   9.973
22331TIP3   OH266877   3.095   7.293  10.060
22331TIP3    H166878   3.093   7.207  10.018
22331TIP3    H266879   3.190   7.299  10.087
22332TIP3   OH266880   3.626   7.461  10.089
22332TIP3    H166881   3.539   7.498  10.073
22332TIP3    H266882   3.595   7.376  10.126
22333TIP3   OH266883   3.583   6.722   9.369
22333TIP3    H166884   3.642   6.780   9.422
22333TIP3    H266885   3.609   6.748   9.277
22334TIP3   OH266886   3.325   7.403   9.637
22334TIP3    H166887   3.405   7.454   9.658
22334TIP3    H266888   3.263   7.473   9.610
22335TIP3   OH266889   4.099   5.966   9.413
22335TIP3    H166890   4.017   5.982   9.463
22335TIP3    H266891   4.110   6.051   9.365
22336TIP3   OH266892   2.843   6.699   9.755
22336TIP3    H166893   2.775   6.744   9.700
22336TIP3    H266894   2.789   6.631   9.798
22337TIP3   OH266895   3.894   7.332   8.959
22337TIP3    H166896   3.902   7.429   8.951
22337TIP3    H266897   3.987   7.303   8.949
22338TIP3   OH266898   3.203   7.655   9.443
22338TIP3    H166899   3.157   7.626   9.361
22338TIP3    H266900   3.141   7.722   9.476
22339TIP3   OH266901   3.416   7.556   9.079
22339TIP3    H166902   3.472   7.482   9.049
22339TIP3    H266903   3.441   7.562   9.174
22340TIP3   OH266904   3.457   7.598   9.353
22340TIP3    H166905   3.367   7.613   9.391
22340TIP3    H266906   3.503   7.560   9.429
22341TIP3   OH266907   3.656   6.769   9.110
22341TIP3    H166908   3.626   6.743   9.021
22341TIP3    H266909   3.735   6.821   9.089
22342TIP3   OH266910   3.374   6.145   9.412
22342TIP3    H166911   3.342   6.143   9.504
22342TIP3    H266912   3.331   6.064   9.378
22343TIP3   OH266913   3.529   6.584   9.698
22343TIP3    H166914   3.478   6.657   9.657
22343TIP3    H266915   3.589   6.558   9.625
22344TIP3   OH266916   3.703   6.622   9.930
22344TIP3    H166917   3.631   6.643   9.868
22344TIP3    H266918   3.727   6.533   9.898
22345TIP3   OH266919   3.027   6.118   9.383
22345TIP3    H166920   3.016   6.109   9.480
22345TIP3    H266921   2.944   6.164   9.361
22346TIP3   OH266922   2.547   6.154   9.768
22346TIP3    H166923   2.590   6.194   9.691
22346TIP3    H266924   2.529   6.229   9.826
22347TIP3   OH266925   3.083   6.357   9.719
22347TIP3    H166926   3.168   6.399   9.698
22347TIP3    H266927   3.022   6.394   9.652
22348TIP3   OH266928   2.908   6.411   9.514
22348TIP3    H166929   2.833   6.364   9.472
22348TIP3    H266930   2.959   6.439   9.435
22349TIP3   OH266931   3.163   6.937   9.518
22349TIP3    H166932   3.093   6.869   9.508
22349TIP3    H266933   3.151   6.963   9.613
22350TIP3   OH266934   4.062   7.165  10.166
22350TIP3    H166935   4.098   7.221  10.094
22350TIP3    H266936   3.983   7.126  10.121
22351TIP3   OH266937   3.623   6.251   9.372
22351TIP3    H166938   3.527   6.234   9.387
22351TIP3    H266939   3.636   6.343   9.404
22352TIP3   OH266940   3.695   6.492   9.482
22352TIP3    H166941   3.791   6.498   9.501
22352TIP3    H266942   3.678   6.573   9.431
22353TIP3   OH266943   3.303   7.091   9.338
22353TIP3    H166944   3.253   7.175   9.346
22353TIP3    H266945   3.252   7.033   9.398
22354TIP3   OH266946   4.135   6.582   9.317
22354TIP3    H166947   4.075   6.535   9.255
22354TIP3    H266948   4.133   6.671   9.277
22355TIP3   OH266949   3.839   7.404   9.229
22355TIP3    H166950   3.808   7.340   9.295
22355TIP3    H266951   3.844   7.351   9.147
22356TIP3   OH266952   3.838   7.033  10.065
22356TIP3    H166953   3.745   7.010  10.067
22356TIP3    H266954   3.876   6.954  10.021
22357TIP3   OH266955   2.962   7.229   9.773
22357TIP3    H166956   2.969   7.323   9.745
22357TIP3    H266957   2.881   7.234   9.827
22358TIP3   OH266958   2.526   6.568   9.514
22358TIP3    H166959   2.576   6.649   9.539
22358TIP3    H266960   2.450   6.574   9.576
22359TIP3   OH266961   3.114   7.008   9.778
22359TIP3    H166962   3.076   7.099   9.770
22359TIP3    H266963   3.054   6.970   9.844
22360TIP3   OH266964   2.909   7.484   9.702
22360TIP3    H166965   2.830   7.479   9.647
22360TIP3    H266966   2.953   7.551   9.646
22361TIP3   OH266967   3.589   7.130   9.129
22361TIP3    H166968   3.642   7.104   9.208
22361TIP3    H266969   3.501   7.106   9.159
22362TIP3   OH266970   3.930   7.608   8.949
22362TIP3    H166971   3.968   7.684   8.903
22362TIP3    H266972   3.849   7.651   8.984
22363TIP3   OH266973   3.748   7.058   9.342
22363TIP3    H166974   3.739   6.996   9.417
22363TIP3    H266975   3.845   7.062   9.335
22364TIP3   OH266976   2.957   7.108   9.130
22364TIP3    H166977   2.970   7.015   9.102
22364TIP3    H266978   2.935   7.098   9.224
22365TIP3   OH266979   2.904   7.121   9.404
22365TIP3    H166980   2.968   7.079   9.464
22365TIP3    H266981   2.932   7.214   9.407
22366TIP3   OH266982   2.645   6.808   9.598
22366TIP3    H166983   2.574   6.842   9.657
22366TIP3    H266984   2.653   6.883   9.536
22367TIP3   OH266985   3.672   6.196   9.657
22367TIP3    H166986   3.657   6.225   9.565
22367TIP3    H266987   3.714   6.276   9.696
22368TIP3   OH266988   3.145   7.318   9.353
22368TIP3    H166989   3.091   7.378   9.407
22368TIP3    H266990   3.174   7.382   9.285
22369TIP3   OH266991   3.374   6.366   9.745
22369TIP3    H166992   3.435   6.440   9.726
22369TIP3    H266993   3.347   6.388   9.837
22370TIP3   OH266994   3.509   6.105   9.857
22370TIP3    H166995   3.507   6.174   9.924
22370TIP3    H266996   3.564   6.149   9.787
22371TIP3   OH266997   3.023   6.097   9.663
22371TIP3    H166998   3.016   6.190   9.694
22371TIP3    H266999   3.121   6.088   9.667
22372TIP3   OH267000   3.913   6.798   9.941
22372TIP3    H167001   3.839   6.734   9.952
22372TIP3    H267002   3.986   6.750   9.987
22373TIP3   OH267003   2.625   7.022   9.412
22373TIP3    H167004   2.688   7.096   9.417
22373TIP3    H267005   2.670   6.967   9.344
22374TIP3   OH267006   2.582   6.300   9.532
22374TIP3    H167007   2.573   6.397   9.531
22374TIP3    H267008   2.492   6.270   9.517
22375TIP3   OH267009   3.891   7.700   9.862
22375TIP3    H167010   3.846   7.760   9.799
22375TIP3    H267011   3.984   7.727   9.851
22376TIP3   OH267012   2.503   7.174   9.822
22376TIP3    H167013   2.441   7.241   9.853
22376TIP3    H267014   2.519   7.201   9.731
22377TIP3   OH267015   3.115   7.311   9.035
22377TIP3    H167016   3.059   7.244   9.079
22377TIP3    H267017   3.192   7.257   9.012
22378TIP3   OH267018   3.557   7.355   8.953
22378TIP3    H167019   3.598   7.290   9.013
22378TIP3    H267020   3.618   7.355   8.877
22379TIP3   OH267021   2.763   6.835   9.261
22379TIP3    H167022   2.813   6.798   9.335
22379TIP3    H267023   2.832   6.838   9.192
22380TIP3   OH267024   3.274   7.031   9.068
22380TIP3    H167025   3.273   7.046   9.165
22380TIP3    H267026   3.271   6.933   9.065
22381TIP3   OH267027   2.977   6.735   9.489
22381TIP3    H167028   2.940   6.695   9.569
22381TIP3    H267029   3.007   6.656   9.439
22382TIP3   OH267030   3.072   6.528   9.325
22382TIP3    H167031   3.045   6.531   9.231
22382TIP3    H267032   3.169   6.537   9.317
22383TIP3   OH267033   3.896   6.863   8.985
22383TIP3    H167034   3.871   6.814   8.904
22383TIP3    H267035   3.863   6.952   8.961
22384TIP3   OH267036   2.351   6.977   9.437
22384TIP3    H167037   2.447   6.999   9.435
22384TIP3    H267038   2.353   6.886   9.400
22385TIP3   OH267039   4.132   7.835   9.849
22385TIP3    H167040   4.181   7.882   9.917
22385TIP3    H267041   4.148   7.893   9.772
22386TIP3   OH267042   4.030   7.048   9.322
22386TIP3    H167043   4.100   7.112   9.299
22386TIP3    H267044   4.068   7.007   9.402
22387TIP3   OH267045   4.154   6.918   9.527
22387TIP3    H167046   4.088   6.872   9.585
22387TIP3    H267047   4.217   6.954   9.592
22388TIP3   OH267048   4.186   7.294   9.955
22388TIP3    H167049   4.261   7.241   9.921
22388TIP3    H267050   4.184   7.369   9.894
22389TIP3   OH267051   4.048   7.622  10.129
22389TIP3    H167052   3.974   7.638  10.188
22389TIP3    H267053   4.012   7.551  10.071
22390TIP3   OH267054   4.096   6.827   9.168
22390TIP3    H167055   4.022   6.829   9.104
22390TIP3    H267056   4.068   6.899   9.228
22391TIP3   OH267057   3.965   6.496   9.121
22391TIP3    H167058   3.917   6.533   9.047
22391TIP3    H267059   3.941   6.401   9.113
22392TIP3   OH267060   3.970   6.772   9.672
22392TIP3    H167061   3.979   6.676   9.665
22392TIP3    H267062   3.956   6.785   9.768
22393TIP3   OH267063   3.913   6.227   9.106
22393TIP3    H167064   3.989   6.204   9.164
22393TIP3    H267065   3.840   6.175   9.143
22394TIP3   OH267066   3.964   6.496   9.565
22394TIP3    H167067   3.997   6.406   9.590
22394TIP3    H267068   4.035   6.521   9.503
22395TIP3   OH267069   4.127   6.670  10.053
22395TIP3    H167070   4.217   6.692  10.019
22395TIP3    H267071   4.136   6.697  10.145
22396TIP3   OH267072   4.043   6.248   9.633
22396TIP3    H167073   4.140   6.262   9.631
22396TIP3    H267074   4.031   6.153   9.620
22397TIP3   OH267075   4.153   6.174   9.235
22397TIP3    H167076   4.204   6.105   9.188
22397TIP3    H267077   4.219   6.247   9.240
22398TIP3   OH267078   3.731   7.690   9.505
22398TIP3    H167079   3.781   7.681   9.422
22398TIP3    H267080   3.762   7.775   9.538
22399TIP3   OH267081   4.158   6.115  10.024
22399TIP3    H167082   4.198   6.190   9.979
22399TIP3    H267083   4.064   6.139  10.023
22400TIP3   OH267084   3.879   6.102   9.995
22400TIP3    H167085   3.869   6.102   9.899
22400TIP3    H267086   3.898   6.009  10.015
22401TIP3   OH267087   3.891   6.010   9.585
22401TIP3    H167088   3.812   6.064   9.603
22401TIP3    H267089   3.872   5.928   9.635
22402TIP3   OH267090   2.374   7.321   9.592
22402TIP3    H167091   2.290   7.305   9.546
22402TIP3    H267092   2.392   7.413   9.561
22403TIP3   OH267093   2.778   5.980   9.547
22403TIP3    H167094   2.822   5.895   9.533
22403TIP3    H267095   2.825   6.012   9.625
22404TIP3   OH267096   3.298   6.117   9.679
22404TIP3    H167097   3.368   6.090   9.741
22404TIP3    H267098   3.304   6.214   9.694
22405TIP3   OH267099   3.162   7.541   9.190
22405TIP3    H167100   3.240   7.570   9.139
22405TIP3    H267101   3.117   7.485   9.124
22406TIP3   OH267102   3.872   7.671   9.267
22406TIP3    H167103   3.861   7.574   9.256
22406TIP3    H267104   3.822   7.704   9.190
22407TIP3   OH267105   2.448   7.380   9.240
22407TIP3    H167106   2.460   7.454   9.302
22407TIP3    H267107   2.540   7.346   9.230
22408TIP3   OH267108   5.360   7.186   9.224
22408TIP3    H167109   5.335   7.279   9.207
22408TIP3    H267110   5.279   7.140   9.198
22409TIP3   OH267111   5.352   7.187   9.605
22409TIP3    H167112   5.383   7.165   9.696
22409TIP3    H267113   5.312   7.103   9.578
22410TIP3   OH267114   4.661   7.081   9.963
22410TIP3    H167115   4.659   7.054  10.056
22410TIP3    H267116   4.739   7.138   9.958
22411TIP3   OH267117   5.597   7.484   9.283
22411TIP3    H167118   5.593   7.417   9.353
22411TIP3    H267119   5.629   7.561   9.334
22412TIP3   OH267120   4.631   7.495   9.704
22412TIP3    H167121   4.621   7.397   9.704
22412TIP3    H267122   4.727   7.502   9.687
22413TIP3   OH267123   4.347   6.713   9.482
22413TIP3    H167124   4.275   6.778   9.488
22413TIP3    H267125   4.298   6.629   9.487
22414TIP3   OH267126   4.398   6.986   9.653
22414TIP3    H167127   4.442   6.908   9.693
22414TIP3    H267128   4.447   6.995   9.571
22415TIP3   OH267129   5.255   7.953   9.304
22415TIP3    H167130   5.300   7.881   9.256
22415TIP3    H267131   5.237   7.912   9.390
22416TIP3   OH267132   5.158   7.410   9.655
22416TIP3    H167133   5.195   7.332   9.611
22416TIP3    H267134   5.241   7.456   9.678
22417TIP3   OH267135   6.171   6.745   9.654
22417TIP3    H167136   6.161   6.838   9.677
22417TIP3    H267137   6.195   6.752   9.560
22418TIP3   OH267138   5.572   6.916   9.689
22418TIP3    H167139   5.614   6.829   9.705
22418TIP3    H267140   5.539   6.903   9.598
22419TIP3   OH267141   4.908   6.574   9.650
22419TIP3    H167142   4.875   6.647   9.595
22419TIP3    H267143   4.861   6.498   9.609
22420TIP3   OH267144   5.600   6.663   9.275
22420TIP3    H167145   5.672   6.647   9.341
22420TIP3    H267146   5.654   6.700   9.202
22421TIP3   OH267147   4.540   6.778   9.759
22421TIP3    H167148   4.622   6.751   9.805
22421TIP3    H267149   4.532   6.707   9.693
22422TIP3   OH267150   4.983   6.975   9.543
22422TIP3    H167151   5.075   6.949   9.563
22422TIP3    H267152   4.943   6.889   9.519
22423TIP3   OH267153   4.905   6.557  10.089
22423TIP3    H167154   4.838   6.588  10.025
22423TIP3    H267155   4.852   6.548  10.170
22424TIP3   OH267156   5.256   7.411   9.092
22424TIP3    H167157   5.207   7.386   9.013
22424TIP3    H267158   5.210   7.494   9.117
22425TIP3   OH267159   4.988   7.332   9.881
22425TIP3    H167160   4.942   7.406   9.920
22425TIP3    H267161   5.052   7.375   9.821
22426TIP3   OH267162   5.811   6.666   9.447
22426TIP3    H167163   5.803   6.620   9.531
22426TIP3    H267164   5.864   6.744   9.472
22427TIP3   OH267165   4.776   6.672   9.867
22427TIP3    H167166   4.841   6.743   9.889
22427TIP3    H267167   4.826   6.625   9.796
22428TIP3   OH267168   4.239   7.216   9.215
22428TIP3    H167169   4.188   7.243   9.137
22428TIP3    H267170   4.264   7.302   9.254
22429TIP3   OH267171   5.666   7.703   9.431
22429TIP3    H167172   5.586   7.703   9.488
22429TIP3    H267173   5.664   7.796   9.401
22430TIP3   OH267174   5.957   6.621   9.802
22430TIP3    H167175   5.875   6.668   9.779
22430TIP3    H267176   6.023   6.665   9.745
22431TIP3   OH267177   5.262   6.275   9.804
22431TIP3    H167178   5.247   6.180   9.823
22431TIP3    H267179   5.183   6.314   9.848
22432TIP3   OH267180   5.374   7.780   9.127
22432TIP3    H167181   5.425   7.698   9.110
22432TIP3    H267182   5.435   7.845   9.087
22433TIP3   OH267183   5.520   7.564   9.033
22433TIP3    H167184   5.472   7.486   9.003
22433TIP3    H267185   5.555   7.532   9.119
22434TIP3   OH267186   5.187   7.034   9.055
22434TIP3    H167187   5.109   7.090   9.033
22434TIP3    H267188   5.237   7.036   8.971
22435TIP3   OH267189   5.153   6.797   8.796
22435TIP3    H167190   5.216   6.860   8.835
22435TIP3    H267191   5.211   6.751   8.732
22436TIP3   OH267192   6.092   7.261   9.632
22436TIP3    H167193   6.016   7.321   9.645
22436TIP3    H267194   6.130   7.300   9.550
22437TIP3   OH267195   5.537   7.120   9.027
22437TIP3    H167196   5.482   7.146   9.106
22437TIP3    H267197   5.620   7.094   9.072
22438TIP3   OH267198   4.770   7.115   9.440
22438TIP3    H167199   4.735   7.054   9.373
22438TIP3    H267200   4.849   7.067   9.473
22439TIP3   OH267201   4.896   7.526   9.594
22439TIP3    H167202   4.879   7.482   9.509
22439TIP3    H267203   4.987   7.497   9.614
22440TIP3   OH267204   4.920   7.083   9.799
22440TIP3    H167205   4.945   7.075   9.705
22440TIP3    H267206   4.950   7.174   9.821
22441TIP3   OH267207   5.440   7.721   9.576
22441TIP3    H167208   5.402   7.801   9.617
22441TIP3    H267209   5.415   7.650   9.639
22442TIP3   OH267210   5.378   6.978   8.854
22442TIP3    H167211   5.437   7.036   8.907
22442TIP3    H267212   5.403   7.004   8.762
22443TIP3   OH267213   5.121   7.657   9.127
22443TIP3    H167214   5.199   7.713   9.147
22443TIP3    H267215   5.057   7.721   9.094
22444TIP3   OH267216   5.893   6.220   8.901
22444TIP3    H167217   5.813   6.241   8.954
22444TIP3    H267218   5.906   6.304   8.852
22445TIP3   OH267219   4.640   6.942   9.226
22445TIP3    H167220   4.570   6.998   9.184
22445TIP3    H267221   4.586   6.884   9.280
22446TIP3   OH267222   5.692   7.588   8.448
22446TIP3    H167223   5.701   7.685   8.437
22446TIP3    H267224   5.784   7.557   8.435
22447TIP3   OH267225   4.265   7.540   9.781
22447TIP3    H167226   4.361   7.531   9.778
22447TIP3    H267227   4.250   7.613   9.843
22448TIP3   OH267228   5.005   7.909   8.929
22448TIP3    H167229   4.953   7.888   8.849
22448TIP3    H267230   4.969   7.995   8.956
22449TIP3   OH267231   4.441   7.754   9.313
22449TIP3    H167232   4.488   7.746   9.399
22449TIP3    H267233   4.378   7.681   9.320
22450TIP3   OH267234   5.205   7.807   8.572
22450TIP3    H167235   5.263   7.736   8.537
22450TIP3    H267236   5.237   7.814   8.665
22451TIP3   OH267237   5.255   7.853   8.843
22451TIP3    H167238   5.166   7.865   8.882
22451TIP3    H267239   5.301   7.809   8.917
22452TIP3   OH267240   5.022   6.361   9.921
22452TIP3    H167241   4.933   6.325   9.900
22452TIP3    H267242   4.996   6.440   9.972
22453TIP3   OH267243   5.451   7.027   8.597
22453TIP3    H167244   5.422   7.000   8.508
22453TIP3    H267245   5.534   7.074   8.575
22454TIP3   OH267246   5.148   6.415   8.901
22454TIP3    H167247   5.140   6.399   8.998
22454TIP3    H267248   5.126   6.326   8.868
22455TIP3   OH267249   4.958   6.864   9.946
22455TIP3    H167250   4.914   6.890  10.028
22455TIP3    H267251   4.943   6.943   9.890
22456TIP3   OH267252   4.829   6.752   9.455
22456TIP3    H167253   4.737   6.728   9.482
22456TIP3    H267254   4.849   6.680   9.396
22457TIP3   OH267255   5.322   6.833   9.186
22457TIP3    H167256   5.273   6.908   9.146
22457TIP3    H267257   5.382   6.809   9.113
22458TIP3   OH267258   5.485   6.868   9.430
22458TIP3    H167259   5.427   6.900   9.359
22458TIP3    H267260   5.518   6.786   9.388
22459TIP3   OH267261   4.832   6.426   8.884
22459TIP3    H167262   4.816   6.372   8.965
22459TIP3    H267263   4.745   6.431   8.844
22460TIP3   OH267264   4.337   6.379   9.232
22460TIP3    H167265   4.382   6.446   9.178
22460TIP3    H267266   4.302   6.433   9.306
22461TIP3   OH267267   5.472   7.118   9.841
22461TIP3    H167268   5.521   7.048   9.792
22461TIP3    H267269   5.498   7.102   9.932
22462TIP3   OH267270   5.159   6.579   9.523
22462TIP3    H167271   5.079   6.573   9.579
22462TIP3    H267272   5.230   6.575   9.590
22463TIP3   OH267273   4.601   6.622   9.519
22463TIP3    H167274   4.505   6.642   9.504
22463TIP3    H267275   4.596   6.526   9.529
22464TIP3   OH267276   4.895   6.651   9.123
22464TIP3    H167277   4.977   6.647   9.177
22464TIP3    H267278   4.845   6.719   9.170
22465TIP3   OH267279   5.653   6.654   9.716
22465TIP3    H167280   5.625   6.657   9.810
22465TIP3    H267281   5.592   6.587   9.681
22466TIP3   OH267282   5.246   6.903   9.617
22466TIP3    H167283   5.322   6.864   9.571
22466TIP3    H267284   5.254   6.864   9.706
22467TIP3   OH267285   4.789   6.384   9.491
22467TIP3    H167286   4.735   6.323   9.547
22467TIP3    H267287   4.842   6.320   9.443
22468TIP3   OH267288   5.222   6.796   9.893
22468TIP3    H167289   5.129   6.821   9.911
22468TIP3    H267290   5.270   6.843   9.962
22469TIP3   OH267291   4.966   7.196   9.006
22469TIP3    H167292   4.898   7.126   8.998
22469TIP3    H267293   4.947   7.230   9.097
22470TIP3   OH267294   5.861   7.412   9.643
22470TIP3    H167295   5.890   7.467   9.567
22470TIP3    H267296   5.775   7.378   9.611
22471TIP3   OH267297   5.414   6.506   8.863
22471TIP3    H167298   5.317   6.499   8.873
22471TIP3    H267299   5.433   6.599   8.888
22472TIP3   OH267300   5.490   6.748   8.967
22472TIP3    H167301   5.586   6.755   8.986
22472TIP3    H267302   5.473   6.829   8.915
22473TIP3   OH267303   4.663   7.220   9.684
22473TIP3    H167304   4.694   7.184   9.599
22473TIP3    H267305   4.677   7.146   9.744
22474TIP3   OH267306   5.106   7.343   8.823
22474TIP3    H167307   5.059   7.429   8.831
22474TIP3    H267308   5.053   7.287   8.884
22475TIP3   OH267309   5.930   6.840   8.809
22475TIP3    H167310   5.867   6.794   8.748
22475TIP3    H267311   5.930   6.927   8.765
22476TIP3   OH267312   5.636   7.660   8.716
22476TIP3    H167313   5.606   7.594   8.781
22476TIP3    H267314   5.641   7.608   8.634
22477TIP3   OH267315   5.617   7.291   9.551
22477TIP3    H167316   5.526   7.258   9.563
22477TIP3    H267317   5.659   7.214   9.510
22478TIP3   OH267318   4.751   7.514   9.301
22478TIP3    H167319   4.752   7.599   9.252
22478TIP3    H267320   4.657   7.504   9.320
22479TIP3   OH267321   4.317   6.826   9.010
22479TIP3    H167322   4.359   6.911   9.032
22479TIP3    H267323   4.238   6.828   9.070
22480TIP3   OH267324   4.894   7.284   9.251
22480TIP3    H167325   4.857   7.373   9.267
22480TIP3    H267326   4.857   7.235   9.327
22481TIP3   OH267327   5.027   7.851   9.758
22481TIP3    H167328   5.056   7.934   9.718
22481TIP3    H267329   5.085   7.841   9.833
22482TIP3   OH267330   4.674   7.755   9.158
22482TIP3    H167331   4.588   7.761   9.204
22482TIP3    H267332   4.704   7.848   9.162
22483TIP3   OH267333   5.416   7.497   9.739
22483TIP3    H167334   5.433   7.483   9.833
22483TIP3    H267335   5.487   7.444   9.698
22484TIP3   OH267336   5.385   7.389   8.616
22484TIP3    H167337   5.439   7.362   8.694
22484TIP3    H267338   5.297   7.362   8.646
22485TIP3   OH267339   5.734   7.867   8.439
22485TIP3    H167340   5.751   7.933   8.370
22485TIP3    H267341   5.652   7.906   8.476
22486TIP3   OH267342   5.545   7.318   8.830
22486TIP3    H167343   5.534   7.255   8.903
22486TIP3    H267344   5.642   7.319   8.821
22487TIP3   OH267345   4.468   7.746   9.950
22487TIP3    H167346   4.481   7.652   9.939
22487TIP3    H267347   4.533   7.765  10.018
22488TIP3   OH267348   4.753   7.369   8.615
22488TIP3    H167349   4.766   7.277   8.586
22488TIP3    H267350   4.736   7.358   8.711
22489TIP3   OH267351   4.702   7.372   8.887
22489TIP3    H167352   4.767   7.348   8.954
22489TIP3    H267353   4.702   7.470   8.894
22490TIP3   OH267354   4.439   7.073   9.091
22490TIP3    H167355   4.370   7.112   9.150
22490TIP3    H267356   4.445   7.144   9.025
22491TIP3   OH267357   5.586   6.687   9.979
22491TIP3    H167358   5.649   6.743  10.027
22491TIP3    H267359   5.540   6.642  10.050
22492TIP3   OH267360   5.458   6.460   9.146
22492TIP3    H167361   5.452   6.485   9.052
22492TIP3    H267362   5.503   6.538   9.186
22493TIP3   OH267363   4.963   7.573   8.836
22493TIP3    H167364   4.876   7.598   8.873
22493TIP3    H267365   4.978   7.647   8.776
22494TIP3   OH267366   5.134   6.640   9.255
22494TIP3    H167367   5.206   6.705   9.235
22494TIP3    H267368   5.151   6.626   9.352
22495TIP3   OH267369   5.297   6.365   9.354
22495TIP3    H167370   5.302   6.435   9.422
22495TIP3    H267371   5.359   6.401   9.286
22496TIP3   OH267372   4.706   7.645   8.904
22496TIP3    H167373   4.675   7.715   8.842
22496TIP3    H267374   4.688   7.688   8.991
22497TIP3   OH267375   4.813   6.346   9.139
22497TIP3    H167376   4.797   6.421   9.197
22497TIP3    H267377   4.908   6.328   9.157
22498TIP3   OH267378   5.712   7.048   9.426
22498TIP3    H167379   5.637   6.988   9.442
22498TIP3    H267380   5.785   7.002   9.473
22499TIP3   OH267381   4.423   7.278   8.900
22499TIP3    H167382   4.483   7.355   8.909
22499TIP3    H267383   4.468   7.230   8.828
22500TIP3   OH267384   4.378   6.558   9.015
22500TIP3    H167385   4.363   6.654   9.020
22500TIP3    H267386   4.288   6.522   9.015
22501TIP3   OH267387   5.649   7.971   9.361
22501TIP3    H167388   5.617   8.033   9.293
22501TIP3    H267389   5.736   8.009   9.382
22502TIP3   OH267390   4.760   6.279   9.898
22502TIP3    H167391   4.724   6.247   9.813
22502TIP3    H267392   4.746   6.201   9.956
22503TIP3   OH267393   4.295   7.489   9.286
22503TIP3    H167394   4.226   7.520   9.346
22503TIP3    H267395   4.268   7.531   9.201
22504TIP3   OH267396   4.916   7.573   8.528
22504TIP3    H167397   4.858   7.504   8.568
22504TIP3    H267398   4.990   7.518   8.499
22505TIP3   OH267399   5.353   7.615   8.442
22505TIP3    H167400   5.394   7.547   8.499
22505TIP3    H267401   5.409   7.612   8.361
22506TIP3   OH267402   4.556   7.097   8.741
22506TIP3    H167403   4.608   7.070   8.818
22506TIP3    H267404   4.625   7.097   8.671
22507TIP3   OH267405   5.069   7.289   8.555
22507TIP3    H167406   5.071   7.303   8.652
22507TIP3    H267407   5.067   7.191   8.551
22508TIP3   OH267408   4.783   6.989   8.987
22508TIP3    H167409   4.735   6.969   9.070
22508TIP3    H267410   4.755   6.920   8.927
22509TIP3   OH267411   5.689   7.117   8.472
22509TIP3    H167412   5.669   7.068   8.391
22509TIP3    H267413   5.657   7.207   8.447
22510TIP3   OH267414   5.174   6.619  10.130
22510TIP3    H167415   5.189   6.651  10.040
22510TIP3    H267416   5.078   6.598  10.127
22511TIP3   OH267417   4.675   7.848   8.716
22511TIP3    H167418   4.771   7.846   8.696
22511TIP3    H267419   4.643   7.897   8.638
22512TIP3   OH267420   4.153   7.232   8.929
22512TIP3    H167421   4.249   7.252   8.921
22512TIP3    H267422   4.149   7.142   8.890
22513TIP3   OH267423   4.072   7.843   9.346
22513TIP3    H167424   4.003   7.782   9.311
22513TIP3    H267425   4.114   7.786   9.414
22514TIP3   OH267426   4.207   7.694   9.533
22514TIP3    H167427   4.193   7.621   9.596
22514TIP3    H267428   4.259   7.755   9.589
22515TIP3   OH267429   5.825   7.306   8.808
22515TIP3    H167430   5.898   7.366   8.783
22515TIP3    H267431   5.864   7.264   8.888
22516TIP3   OH267432   5.949   7.174   9.011
22516TIP3    H167433   5.886   7.130   9.072
22516TIP3    H267434   6.016   7.211   9.072
22517TIP3   OH267435   5.976   7.546   9.439
22517TIP3    H167436   6.055   7.506   9.401
22517TIP3    H267437   5.971   7.633   9.397
22518TIP3   OH267438   5.891   7.081   8.658
22518TIP3    H167439   5.818   7.083   8.592
22518TIP3    H267440   5.864   7.155   8.715
22519TIP3   OH267441   5.755   6.756   8.618
22519TIP3    H167442   5.725   6.791   8.534
22519TIP3    H267443   5.734   6.660   8.608
22520TIP3   OH267444   5.766   7.028   9.158
22520TIP3    H167445   5.777   6.931   9.156
22520TIP3    H267446   5.753   7.045   9.254
22521TIP3   OH267447   4.396   7.121   9.893
22521TIP3    H167448   4.390   7.080   9.804
22521TIP3    H267449   4.491   7.107   9.913
22522TIP3   OH267450   5.704   6.489   8.604
22522TIP3    H167451   5.785   6.460   8.650
22522TIP3    H267452   5.638   6.425   8.631
22523TIP3   OH267453   5.761   6.743   9.053
22523TIP3    H167454   5.803   6.655   9.069
22523TIP3    H267455   5.821   6.777   8.984
22524TIP3   OH267456   5.925   6.913   9.539
22524TIP3    H167457   6.012   6.941   9.504
22524TIP3    H267458   5.929   6.956   9.627
22525TIP3   OH267459   5.972   7.056   9.766
22525TIP3    H167460   5.939   7.095   9.847
22525TIP3    H267461   6.018   7.132   9.724
22526TIP3   OH267462   5.870   6.494   9.092
22526TIP3    H167463   5.921   6.479   9.174
22526TIP3    H267464   5.812   6.416   9.091
22527TIP3   OH267465   4.583   6.490   9.961
22527TIP3    H167466   4.628   6.408   9.935
22527TIP3    H267467   4.637   6.558   9.919
22528TIP3   OH267468   4.375   6.752   9.988
22528TIP3    H167469   4.429   6.756   9.908
22528TIP3    H267470   4.386   6.840  10.028
22529TIP3   OH267471   5.953   6.431   8.721
22529TIP3    H167472   5.996   6.358   8.673
22529TIP3    H267473   6.021   6.501   8.717
22530TIP3   OH267474   5.522   7.962   8.992
22530TIP3    H167475   5.568   7.942   8.908
22530TIP3    H267476   5.579   8.029   9.031
22531TIP3   OH267477   4.694   8.006   9.790
22531TIP3    H167478   4.639   8.057   9.850
22531TIP3    H267479   4.693   8.060   9.709
22532TIP3   OH267480   5.115   8.070   9.606
22532TIP3    H167481   5.048   8.080   9.536
22532TIP3    H267482   5.105   8.155   9.654
22533TIP3   OH267483   5.360   7.965   9.661
22533TIP3    H167484   5.268   7.992   9.639
22533TIP3    H267485   5.403   8.051   9.665
22534TIP3   OH267486   4.386   7.844   9.691
22534TIP3    H167487   4.413   7.825   9.783
22534TIP3    H267488   4.461   7.806   9.641
22535TIP3   OH267489   4.579   7.718   9.545
22535TIP3    H167490   4.596   7.637   9.598
22535TIP3    H267491   4.668   7.760   9.546
22536TIP3   OH267492   4.843   7.815   9.546
22536TIP3    H167493   4.877   7.724   9.541
22536TIP3    H267494   4.876   7.839   9.635
22537TIP3   OH267495   5.413   6.466   9.630
22537TIP3    H167496   5.375   6.398   9.689
22537TIP3    H267497   5.492   6.420   9.595
22538TIP3   OH267498   5.945   6.344   9.538
22538TIP3    H167499   5.981   6.401   9.467
22538TIP3    H267500   5.852   6.373   9.543
22539TIP3   OH267501   6.039   6.455   9.306
22539TIP3    H167502   6.112   6.402   9.268
22539TIP3    H267503   6.073   6.546   9.292
22540TIP3   OH267504   4.677   6.188   9.649
22540TIP3    H167505   4.581   6.171   9.650
22540TIP3    H267506   4.713   6.097   9.649
22541TIP3   OH267507   4.446   6.053   9.293
22541TIP3    H167508   4.471   6.120   9.227
22541TIP3    H267509   4.419   6.109   9.367
22542TIP3   OH267510   5.108   6.215   9.530
22542TIP3    H167511   5.176   6.266   9.483
22542TIP3    H267512   5.120   6.246   9.621
22543TIP3   OH267513   5.654   6.359   9.522
22543TIP3    H167514   5.663   6.320   9.434
22543TIP3    H267515   5.645   6.278   9.578
22544TIP3   OH267516   5.688   6.280   9.081
22544TIP3    H167517   5.601   6.321   9.095
22544TIP3    H267518   5.677   6.195   9.130
22545TIP3   OH267519   4.175   7.617   9.081
22545TIP3    H167520   4.089   7.585   9.049
22545TIP3    H267521   4.161   7.713   9.073
22546TIP3   OH267522   4.572   6.214   9.055
22546TIP3    H167523   4.621   6.142   9.010
22546TIP3    H267524   4.642   6.258   9.107
22547TIP3   OH267525   5.089   6.386   9.167
22547TIP3    H167526   5.145   6.335   9.229
22547TIP3    H267527   5.112   6.476   9.198
22548TIP3   OH267528   4.944   7.810   8.664
22548TIP3    H167529   5.032   7.832   8.628
22548TIP3    H267530   4.922   7.734   8.606
22549TIP3   OH267531   5.662   7.926   8.754
22549TIP3    H167532   5.654   7.828   8.743
22549TIP3    H267533   5.612   7.958   8.676
22550TIP3   OH267534   4.248   7.649   8.723
22550TIP3    H167535   4.241   7.672   8.817
22550TIP3    H267536   4.336   7.608   8.718
22551TIP3   OH267537   6.131   6.955   8.970
22551TIP3    H167538   6.080   7.037   8.983
22551TIP3    H267539   6.061   6.897   8.933
22552TIP3   OH267540   6.189   7.240   9.131
22552TIP3    H167541   6.234   7.163   9.174
22552TIP3    H267542   6.251   7.262   9.061
22553TIP3   OH267543   6.690   6.831   9.144
22553TIP3    H167544   6.679   6.901   9.075
22553TIP3    H267545   6.648   6.755   9.098
22554TIP3   OH267546   7.394   6.872   8.743
22554TIP3    H167547   7.393   6.893   8.838
22554TIP3    H267548   7.398   6.961   8.705
22555TIP3   OH267549   6.330   7.037   9.242
22555TIP3    H167550   6.413   7.016   9.291
22555TIP3    H267551   6.342   6.978   9.165
22556TIP3   OH267552   6.763   7.228   9.031
22556TIP3    H167553   6.855   7.205   9.050
22556TIP3    H267554   6.726   7.141   9.004
22557TIP3   OH267555   6.704   6.809   9.536
22557TIP3    H167556   6.635   6.859   9.489
22557TIP3    H267557   6.689   6.833   9.629
22558TIP3   OH267558   6.563   6.952   9.352
22558TIP3    H167559   6.622   7.027   9.373
22558TIP3    H267560   6.616   6.906   9.282
22559TIP3   OH267561   6.032   7.470   8.702
22559TIP3    H167562   5.987   7.495   8.620
22559TIP3    H267563   6.057   7.556   8.740
22560TIP3   OH267564   7.055   6.539   9.270
22560TIP3    H167565   7.057   6.446   9.298
22560TIP3    H267566   6.981   6.572   9.326
22561TIP3   OH267567   6.974   7.287   8.526
22561TIP3    H167568   6.901   7.347   8.504
22561TIP3    H267569   7.033   7.294   8.449
22562TIP3   OH267570   6.944   7.075   8.264
22562TIP3    H167571   7.010   7.122   8.316
22562TIP3    H267572   7.000   7.013   8.213
22563TIP3   OH267573   6.575   7.387   8.920
22563TIP3    H167574   6.524   7.326   8.862
22563TIP3    H267575   6.644   7.326   8.957
22564TIP3   OH267576   7.181   7.245   8.341
22564TIP3    H167577   7.247   7.302   8.380
22564TIP3    H267578   7.196   7.262   8.245
22565TIP3   OH267579   7.690   6.478   8.386
22565TIP3    H167580   7.609   6.497   8.438
22565TIP3    H267581   7.698   6.558   8.331
22566TIP3   OH267582   6.427   7.225   8.748
22566TIP3    H167583   6.363   7.261   8.683
22566TIP3    H267584   6.400   7.133   8.753
22567TIP3   OH267585   6.249   7.966   8.796
22567TIP3    H167586   6.248   8.004   8.887
22567TIP3    H267587   6.188   7.890   8.809
22568TIP3   OH267588   6.984   8.022   8.049
22568TIP3    H167589   7.033   7.947   8.010
22568TIP3    H267590   7.040   8.042   8.125
22569TIP3   OH267591   6.823   6.606   9.410
22569TIP3    H167592   6.736   6.570   9.382
22569TIP3    H267593   6.790   6.687   9.455
22570TIP3   OH267594   7.256   7.303   8.090
22570TIP3    H167595   7.212   7.268   8.010
22570TIP3    H267596   7.344   7.325   8.053
22571TIP3   OH267597   6.963   6.660   8.387
22571TIP3    H167598   6.933   6.655   8.480
22571TIP3    H267599   6.926   6.576   8.353
22572TIP3   OH267600   6.628   7.008   8.946
22572TIP3    H167601   6.537   6.977   8.965
22572TIP3    H267602   6.644   6.966   8.858
22573TIP3   OH267603   7.102   7.079   8.653
22573TIP3    H167604   7.053   7.155   8.615
22573TIP3    H267605   7.156   7.049   8.577
22574TIP3   OH267606   6.620   6.631   8.352
22574TIP3    H167607   6.609   6.629   8.449
22574TIP3    H267608   6.540   6.680   8.326
22575TIP3   OH267609   6.163   6.679   9.221
22575TIP3    H167610   6.238   6.708   9.276
22575TIP3    H267611   6.205   6.641   9.143
22576TIP3   OH267612   6.134   6.655   8.746
22576TIP3    H167613   6.179   6.694   8.667
22576TIP3    H267614   6.074   6.729   8.767
22577TIP3   OH267615   6.954   6.835   9.016
22577TIP3    H167616   6.874   6.832   9.072
22577TIP3    H267617   7.020   6.852   9.085
22578TIP3   OH267618   6.393   6.887   9.018
22578TIP3    H167619   6.299   6.892   8.990
22578TIP3    H267620   6.419   6.795   8.996
22579TIP3   OH267621   6.660   6.885   8.706
22579TIP3    H167622   6.757   6.894   8.690
22579TIP3    H267623   6.620   6.909   8.619
22580TIP3   OH267624   6.501   6.926   8.483
22580TIP3    H167625   6.435   6.873   8.434
22580TIP3    H267626   6.555   6.957   8.409
22581TIP3   OH267627   6.565   6.648   8.982
22581TIP3    H167628   6.535   6.568   9.029
22581TIP3    H267629   6.623   6.612   8.914
22582TIP3   OH267630   6.747   7.459   8.487
22582TIP3    H167631   6.683   7.385   8.480
22582TIP3    H267632   6.742   7.481   8.582
22583TIP3   OH267633   7.214   6.762   8.352
22583TIP3    H167634   7.117   6.745   8.358
22583TIP3    H267635   7.222   6.856   8.375
22584TIP3   OH267636   7.283   7.010   8.455
22584TIP3    H167637   7.380   7.002   8.465
22584TIP3    H267638   7.274   7.079   8.387
22585TIP3   OH267639   6.451   7.428   9.161
22585TIP3    H167640   6.486   7.425   9.070
22585TIP3    H267641   6.493   7.353   9.203
22586TIP3   OH267642   6.889   7.599   8.292
22586TIP3    H167643   6.879   7.687   8.334
22586TIP3    H267644   6.851   7.542   8.361
22587TIP3   OH267645   7.713   7.076   8.272
22587TIP3    H167646   7.641   7.040   8.215
22587TIP3    H267647   7.717   7.165   8.231
22588TIP3   OH267648   6.552   7.764   8.810
22588TIP3    H167649   6.581   7.845   8.764
22588TIP3    H267650   6.456   7.766   8.797
22589TIP3   OH267651   6.109   7.080   8.488
22589TIP3    H167652   6.160   7.159   8.514
22589TIP3    H267653   6.036   7.082   8.554
22590TIP3   OH267654   6.717   7.546   8.749
22590TIP3    H167655   6.665   7.627   8.762
22590TIP3    H267656   6.666   7.483   8.805
22591TIP3   OH267657   6.378   8.053   8.587
22591TIP3    H167658   6.345   8.025   8.676
22591TIP3    H267659   6.475   8.046   8.606
22592TIP3   OH267660   7.167   7.649   8.097
22592TIP3    H167661   7.205   7.602   8.173
22592TIP3    H267662   7.075   7.619   8.101
22593TIP3   OH267663   6.539   7.622   8.107
22593TIP3    H167664   6.564   7.536   8.067
22593TIP3    H267665   6.521   7.594   8.199
22594TIP3   OH267666   6.488   7.625   8.391
22594TIP3    H167667   6.573   7.592   8.425
22594TIP3    H267668   6.502   7.722   8.386
22595TIP3   OH267669   6.231   7.322   8.577
22595TIP3    H167670   6.165   7.366   8.634
22595TIP3    H267671   6.250   7.392   8.512
22596TIP3   OH267672   7.239   6.690   8.622
22596TIP3    H167673   7.231   6.718   8.528
22596TIP3    H267674   7.296   6.761   8.659
22597TIP3   OH267675   6.763   7.856   8.332
22597TIP3    H167676   6.668   7.873   8.344
22597TIP3    H267677   6.768   7.846   8.236
22598TIP3   OH267678   6.936   6.882   8.742
22598TIP3    H167679   7.002   6.951   8.717
22598TIP3    H267680   6.948   6.878   8.840
22599TIP3   OH267681   7.087   6.617   8.844
22599TIP3    H167682   7.085   6.694   8.903
22599TIP3    H267683   7.145   6.650   8.772
22600TIP3   OH267684   6.496   7.900   8.375
22600TIP3    H167685   6.469   7.965   8.306
22600TIP3    H267686   6.475   7.952   8.455
22601TIP3   OH267687   6.602   6.615   8.629
22601TIP3    H167688   6.600   6.705   8.667
22601TIP3    H267689   6.698   6.596   8.637
22602TIP3   OH267690   6.222   7.539   8.381
22602TIP3    H167691   6.302   7.594   8.392
22602TIP3    H267692   6.259   7.476   8.314
22603TIP3   OH267693   6.165   6.811   8.527
22603TIP3    H167694   6.162   6.907   8.511
22603TIP3    H267695   6.100   6.776   8.465
22604TIP3   OH267696   6.553   6.529   9.391
22604TIP3    H167697   6.521   6.495   9.304
22604TIP3    H267698   6.543   6.450   9.448
22605TIP3   OH267699   6.077   7.747   8.775
22605TIP3    H167700   6.002   7.773   8.831
22605TIP3    H267701   6.053   7.787   8.689
22606TIP3   OH267702   6.717   7.821   8.038
22606TIP3    H167703   6.664   7.739   8.053
22606TIP3    H267704   6.799   7.785   7.997
22607TIP3   OH267705   7.195   7.887   7.934
22607TIP3    H167706   7.151   7.803   7.955
22607TIP3    H267707   7.210   7.879   7.838
22608TIP3   OH267708   6.353   7.348   8.237
22608TIP3    H167709   6.408   7.306   8.306
22608TIP3    H267710   6.419   7.350   8.164
22609TIP3   OH267711   6.832   7.530   8.035
22609TIP3    H167712   6.847   7.551   8.130
22609TIP3    H267713   6.851   7.434   8.035
22610TIP3   OH267714   6.568   7.248   8.462
22610TIP3    H167715   6.542   7.196   8.540
22610TIP3    H267716   6.604   7.177   8.404
22611TIP3   OH267717   6.665   7.046   8.300
22611TIP3    H167718   6.638   7.044   8.206
22611TIP3    H267719   6.762   7.048   8.291
22612TIP3   OH267720   7.484   7.366   7.954
22612TIP3    H167721   7.458   7.325   7.870
22612TIP3    H267722   7.463   7.460   7.936
22613TIP3   OH267723   6.459   8.121   8.220
22613TIP3    H167724   6.553   8.111   8.193
22613TIP3    H267725   6.426   8.154   8.134
22614TIP3   OH267726   5.953   7.491   8.419
22614TIP3    H167727   6.049   7.509   8.406
22614TIP3    H267728   5.946   7.400   8.381
22615TIP3   OH267729   5.859   8.101   8.820
22615TIP3    H167730   5.786   8.044   8.787
22615TIP3    H267731   5.895   8.042   8.890
22616TIP3   OH267732   5.945   7.937   9.019
22616TIP3    H167733   5.959   7.860   9.076
22616TIP3    H267734   5.904   7.999   9.084
22617TIP3   OH267735   7.671   7.307   8.141
22617TIP3    H167736   7.604   7.318   8.069
22617TIP3    H267737   7.689   7.399   8.160
22618TIP3   OH267738   7.529   7.017   8.086
22618TIP3    H167739   7.497   7.035   7.997
22618TIP3    H267740   7.509   6.921   8.093
22619TIP3   OH267741   6.188   7.353   9.390
22619TIP3    H167742   6.192   7.326   9.296
22619TIP3    H267743   6.270   7.406   9.400
22620TIP3   OH267744   7.481   6.757   8.108
22620TIP3    H167745   7.566   6.715   8.134
22620TIP3    H267746   7.420   6.682   8.103
22621TIP3   OH267747   7.553   6.997   8.498
22621TIP3    H167748   7.587   6.910   8.528
22621TIP3    H267749   7.626   7.028   8.443
22622TIP3   OH267750   7.666   6.758   8.591
22622TIP3    H167751   7.738   6.721   8.645
22622TIP3    H267752   7.604   6.682   8.585
22623TIP3   OH267753   6.371   6.739   9.394
22623TIP3    H167754   6.435   6.665   9.405
22623TIP3    H267755   6.431   6.815   9.389
22624TIP3   OH267756   6.176   7.007   9.477
22624TIP3    H167757   6.223   7.008   9.392
22624TIP3    H267758   6.185   7.098   9.506
22625TIP3   OH267759   7.731   6.673   8.188
22625TIP3    H167760   7.768   6.604   8.128
22625TIP3    H267761   7.803   6.739   8.190
22626TIP3   OH267762   6.154   6.513   8.973
22626TIP3    H167763   6.060   6.513   8.998
22626TIP3    H267764   6.154   6.571   8.894
22627TIP3   OH267765   6.360   6.587   9.790
22627TIP3    H167766   6.314   6.587   9.874
22627TIP3    H267767   6.298   6.635   9.733
22628TIP3   OH267768   7.208   6.734   9.129
22628TIP3    H167769   7.150   6.665   9.167
22628TIP3    H267770   7.271   6.683   9.074
22629TIP3   OH267771   6.464   6.436   9.143
22629TIP3    H167772   6.373   6.402   9.143
22629TIP3    H267773   6.515   6.352   9.140
22630TIP3   OH267774   6.246   6.305   8.787
22630TIP3    H167775   6.282   6.362   8.717
22630TIP3    H267776   6.222   6.371   8.855
22631TIP3   OH267777   6.905   6.471   9.024
22631TIP3    H167778   6.964   6.520   8.964
22631TIP3    H267779   6.934   6.504   9.110
22632TIP3   OH267780   7.403   6.608   8.993
22632TIP3    H167781   7.450   6.585   8.912
22632TIP3    H267782   7.405   6.523   9.041
22633TIP3   OH267783   7.486   6.541   8.569
22633TIP3    H167784   7.395   6.575   8.573
22633TIP3    H267785   7.475   6.455   8.616
22634TIP3   OH267786   5.994   7.896   8.561
22634TIP3    H167787   5.920   7.840   8.528
22634TIP3    H267788   5.944   7.979   8.565
22635TIP3   OH267789   6.368   6.461   8.558
22635TIP3    H167790   6.418   6.401   8.498
22635TIP3    H267791   6.440   6.518   8.592
22636TIP3   OH267792   6.878   6.634   8.652
22636TIP3    H167793   6.940   6.587   8.711
22636TIP3    H267794   6.898   6.726   8.679
22637TIP3   OH267795   6.706   8.079   8.113
22637TIP3    H167796   6.793   8.102   8.078
22637TIP3    H267797   6.698   7.988   8.076
22638TIP3   OH267798   6.062   7.919   8.222
22638TIP3    H167799   6.027   7.888   8.306
22638TIP3    H267800   6.140   7.862   8.206
22639TIP3   OH267801   8.380   6.849   7.818
22639TIP3    H167802   8.394   6.906   7.895
22639TIP3    H267803   8.308   6.896   7.772
22640TIP3   OH267804   7.909   6.894   8.204
22640TIP3    H167805   7.959   6.938   8.132
22640TIP3    H267806   7.838   6.960   8.219
22641TIP3   OH267807   7.975   7.070   8.001
22641TIP3    H167808   7.960   7.166   7.994
22641TIP3    H267809   7.902   7.032   7.951
22642TIP3   OH267810   7.907   6.710   8.414
22642TIP3    H167811   7.833   6.749   8.463
22642TIP3    H267812   7.944   6.786   8.366
22643TIP3   OH267813   8.051   6.540   8.257
22643TIP3    H167814   8.067   6.594   8.177
22643TIP3    H267815   7.990   6.597   8.309
22644TIP3   OH267816   8.139   6.696   8.041
22644TIP3    H167817   8.206   6.653   7.984
22644TIP3    H267818   8.182   6.778   8.071
22645TIP3   OH267819   2.967   8.390   8.885
22645TIP3    H167820   3.016   8.414   8.965
22645TIP3    H267821   3.020   8.314   8.854
22646TIP3   OH267822   3.733   7.778   9.051
22646TIP3    H167823   3.652   7.794   9.104
22646TIP3    H267824   3.744   7.865   9.007
22647TIP3   OH267825   3.323   8.563   8.734
22647TIP3    H167826   3.278   8.537   8.652
22647TIP3    H267827   3.397   8.616   8.700
22648TIP3   OH267828   3.012   7.969   8.996
22648TIP3    H167829   2.996   7.964   9.093
22648TIP3    H267830   2.972   7.882   8.971
22649TIP3   OH267831   2.681   7.922   9.026
22649TIP3    H167832   2.658   7.913   9.120
22649TIP3    H267833   2.595   7.951   8.990
22650TIP3   OH267834   3.268   8.038   9.013
22650TIP3    H167835   3.170   8.033   9.009
22650TIP3    H267836   3.287   8.134   9.026
22651TIP3   OH267837   3.367   8.280   9.068
22651TIP3    H167838   3.454   8.279   9.113
22651TIP3    H267839   3.361   8.372   9.041
22652TIP3   OH267840   3.774   8.388   8.950
22652TIP3    H167841   3.706   8.345   8.894
22652TIP3    H267842   3.776   8.476   8.908
22653TIP3   OH267843   3.317   8.037   9.291
22653TIP3    H167844   3.284   8.026   9.200
22653TIP3    H267845   3.367   8.119   9.287
22654TIP3   OH267846   3.538   8.682   8.608
22654TIP3    H167847   3.515   8.628   8.530
22654TIP3    H267848   3.502   8.769   8.579
22655TIP3   OH267849   3.718   8.638   8.803
22655TIP3    H167850   3.665   8.631   8.721
22655TIP3    H267851   3.655   8.684   8.859
22656TIP3   OH267852   3.599   8.313   8.755
22656TIP3    H167853   3.545   8.341   8.680
22656TIP3    H267854   3.579   8.217   8.755
22657TIP3   OH267855   3.547   8.045   8.747
22657TIP3    H167856   3.621   8.016   8.804
22657TIP3    H267857   3.474   7.988   8.775
22658TIP3   OH267858   3.604   8.302   9.192
22658TIP3    H167859   3.642   8.219   9.227
22658TIP3    H267860   3.685   8.344   9.160
22659TIP3   OH267861   3.714   8.050   9.241
22659TIP3    H167862   3.761   8.035   9.326
22659TIP3    H267863   3.652   7.975   9.241
22660TIP3   OH267864   3.793   7.991   8.868
22660TIP3    H167865   3.836   7.915   8.824
22660TIP3    H267866   3.864   8.058   8.869
22661TIP3   OH267867   3.803   7.916   9.708
22661TIP3    H167868   3.836   7.962   9.628
22661TIP3    H267869   3.706   7.917   9.690
22662TIP3   OH267870   3.880   8.009   9.460
22662TIP3    H167871   3.953   7.958   9.420
22662TIP3    H267872   3.912   8.101   9.443
22663TIP3   OH267873   3.541   7.899   9.644
22663TIP3    H167874   3.481   7.876   9.573
22663TIP3    H267875   3.512   7.835   9.713
22664TIP3   OH267876   3.531   7.837   9.233
22664TIP3    H167877   3.444   7.878   9.244
22664TIP3    H267878   3.516   7.751   9.279
22665TIP3   OH267879   2.437   7.681   9.271
22665TIP3    H167880   2.468   7.661   9.182
22665TIP3    H267881   2.434   7.778   9.268
22666TIP3   OH267882   2.981   7.945   9.258
22666TIP3    H167883   2.967   7.879   9.328
22666TIP3    H267884   2.946   8.026   9.298
22667TIP3   OH267885   4.990   9.010   8.862
22667TIP3    H167886   4.945   9.094   8.840
22667TIP3    H267887   4.919   8.946   8.841
22668TIP3   OH267888   3.984   8.506   9.115
22668TIP3    H167889   3.921   8.571   9.153
22668TIP3    H267890   3.928   8.427   9.113
22669TIP3   OH267891   4.556   8.387   9.274
22669TIP3    H167892   4.528   8.457   9.212
22669TIP3    H267893   4.501   8.312   9.240
22670TIP3   OH267894   5.234   8.477   8.914
22670TIP3    H167895   5.307   8.467   8.979
22670TIP3    H267896   5.284   8.492   8.832
22671TIP3   OH267897   4.635   8.784   9.151
22671TIP3    H167898   4.722   8.748   9.176
22671TIP3    H267899   4.583   8.701   9.138
22672TIP3   OH267900   4.853   9.217   8.746
22672TIP3    H167901   4.844   9.190   8.654
22672TIP3    H267902   4.915   9.292   8.737
22673TIP3   OH267903   5.450   8.475   9.080
22673TIP3    H167904   5.438   8.418   9.157
22673TIP3    H267905   5.523   8.533   9.107
22674TIP3   OH267906   4.437   8.471   9.507
22674TIP3    H167907   4.473   8.560   9.500
22674TIP3    H267908   4.478   8.424   9.431
22675TIP3   OH267909   4.899   8.088   9.434
22675TIP3    H167910   4.882   7.993   9.453
22675TIP3    H267911   4.820   8.127   9.479
22676TIP3   OH267912   5.075   9.359   8.680
22676TIP3    H167913   5.120   9.306   8.612
22676TIP3    H267914   5.148   9.373   8.744
22677TIP3   OH267915   4.827   8.854   8.691
22677TIP3    H167916   4.745   8.903   8.670
22677TIP3    H267917   4.870   8.849   8.603
22678TIP3   OH267918   4.784   8.638   8.409
22678TIP3    H167919   4.853   8.686   8.458
22678TIP3    H267920   4.839   8.572   8.363
22679TIP3   OH267921   5.164   8.934   8.666
22679TIP3    H167922   5.099   8.965   8.733
22679TIP3    H267923   5.237   8.912   8.727
22680TIP3   OH267924   4.423   8.929   9.036
22680TIP3    H167925   4.369   8.867   8.982
22680TIP3    H267926   4.492   8.870   9.073
22681TIP3   OH267927   5.012   8.794   8.486
22681TIP3    H167928   5.070   8.853   8.540
22681TIP3    H267929   5.040   8.818   8.395
22682TIP3   OH267930   5.529   8.033   8.537
22682TIP3    H167931   5.447   8.049   8.589
22682TIP3    H267932   5.540   8.120   8.493
22683TIP3   OH267933   4.272   8.762   8.865
22683TIP3    H167934   4.197   8.808   8.821
22683TIP3    H267935   4.228   8.685   8.903
22684TIP3   OH267936   5.339   9.383   8.080
22684TIP3    H167937   5.323   9.480   8.066
22684TIP3    H267938   5.433   9.378   8.056
22685TIP3   OH267939   4.849   9.617   8.194
22685TIP3    H167940   4.905   9.546   8.154
22685TIP3    H267941   4.876   9.610   8.288
22686TIP3   OH267942   4.881   9.632   8.464
22686TIP3    H167943   4.835   9.672   8.540
22686TIP3    H267944   4.955   9.592   8.512
22687TIP3   OH267945   4.669   8.164   9.554
22687TIP3    H167946   4.571   8.147   9.546
22687TIP3    H267947   4.672   8.252   9.596
22688TIP3   OH267948   5.096   8.839   8.233
22688TIP3    H167949   5.060   8.814   8.145
22688TIP3    H267950   5.164   8.903   8.209
22689TIP3   OH267951   4.806   8.215   8.536
22689TIP3    H167952   4.774   8.215   8.629
22689TIP3    H267953   4.765   8.132   8.505
22690TIP3   OH267954   4.480   8.568   9.087
22690TIP3    H167955   4.387   8.543   9.111
22690TIP3    H267956   4.487   8.521   9.000
22691TIP3   OH267957   4.963   8.656   8.821
22691TIP3    H167958   4.907   8.725   8.780
22691TIP3    H267959   5.013   8.623   8.745
22692TIP3   OH267960   5.096   8.672   9.078
22692TIP3    H167961   5.057   8.713   8.999
22692TIP3    H267962   5.140   8.596   9.036
22693TIP3   OH267963   4.460   8.189   8.503
22693TIP3    H167964   4.454   8.185   8.601
22693TIP3    H267965   4.379   8.239   8.482
22694TIP3   OH267966   4.003   8.224   9.355
22694TIP3    H167967   4.071   8.259   9.418
22694TIP3    H267968   4.058   8.185   9.286
22695TIP3   OH267969   3.979   8.213   8.890
22695TIP3    H167970   4.027   8.256   8.816
22695TIP3    H267971   3.917   8.285   8.915
22696TIP3   OH267972   4.807   8.380   9.155
22696TIP3    H167973   4.719   8.381   9.200
22696TIP3    H267974   4.865   8.403   9.229
22697TIP3   OH267975   4.251   8.451   9.154
22697TIP3    H167976   4.153   8.462   9.148
22697TIP3    H267977   4.262   8.354   9.154
22698TIP3   OH267978   4.509   8.436   8.851
22698TIP3    H167979   4.601   8.459   8.830
22698TIP3    H267980   4.459   8.464   8.771
22699TIP3   OH267981   5.288   8.441   9.371
22699TIP3    H167982   5.231   8.476   9.440
22699TIP3    H267983   5.223   8.387   9.321
22700TIP3   OH267984   4.344   8.476   8.635
22700TIP3    H167985   4.269   8.433   8.590
22700TIP3    H267986   4.395   8.510   8.558
22701TIP3   OH267987   4.880   8.700   9.260
22701TIP3    H167988   4.959   8.695   9.202
22701TIP3    H267989   4.914   8.669   9.344
22702TIP3   OH267990   4.412   8.200   9.137
22702TIP3    H167991   4.373   8.125   9.186
22702TIP3    H267992   4.458   8.156   9.064
22703TIP3   OH267993   4.880   8.611   9.572
22703TIP3    H167994   4.802   8.663   9.543
22703TIP3    H267995   4.927   8.675   9.628
22704TIP3   OH267996   4.599   9.006   8.640
22704TIP3    H167997   4.528   8.938   8.632
22704TIP3    H267998   4.583   9.042   8.730
22705TIP3   OH267999   5.052   8.320   8.496
22705TIP3    H168000   4.957   8.299   8.510
22705TIP3    H268001   5.059   8.413   8.527
22706TIP3   OH268002   5.111   8.562   8.603
22706TIP3    H168003   5.208   8.550   8.611
22706TIP3    H268004   5.103   8.644   8.550
22707TIP3   OH268005   4.738   9.161   8.463
22707TIP3    H168006   4.689   9.244   8.477
22707TIP3    H268007   4.688   9.100   8.521
22708TIP3   OH268008   5.585   8.646   8.391
22708TIP3    H168009   5.513   8.601   8.339
22708TIP3    H268010   5.534   8.724   8.419
22709TIP3   OH268011   5.231   9.462   8.320
22709TIP3    H168012   5.271   9.422   8.400
22709TIP3    H268013   5.279   9.420   8.248
22710TIP3   OH268014   3.952   8.636   8.645
22710TIP3    H168015   3.999   8.719   8.665
22710TIP3    H268016   3.875   8.643   8.705
22711TIP3   OH268017   4.534   9.119   8.877
22711TIP3    H168018   4.494   9.200   8.910
22711TIP3    H268019   4.495   9.051   8.937
22712TIP3   OH268020   5.018   9.193   8.250
22712TIP3    H168021   5.069   9.182   8.333
22712TIP3    H268022   4.929   9.172   8.281
22713TIP3   OH268023   5.323   9.649   8.042
22713TIP3    H168024   5.317   9.714   7.969
22713TIP3    H268025   5.283   9.701   8.115
22714TIP3   OH268026   5.162   9.143   8.478
22714TIP3    H168027   5.171   9.070   8.542
22714TIP3    H268028   5.255   9.158   8.450
22715TIP3   OH268029   4.388   9.182   8.247
22715TIP3    H168030   4.401   9.090   8.219
22715TIP3    H268031   4.378   9.172   8.344
22716TIP3   OH268032   4.356   9.188   8.518
22716TIP3    H168033   4.390   9.133   8.590
22716TIP3    H268034   4.333   9.270   8.563
22717TIP3   OH268035   4.059   8.885   8.733
22717TIP3    H168036   4.021   8.944   8.800
22717TIP3    H268037   4.074   8.950   8.661
22718TIP3   OH268038   5.103   8.267   8.781
22718TIP3    H168039   5.084   8.295   8.690
22718TIP3    H268040   5.135   8.350   8.822
22719TIP3   OH268041   4.592   9.403   8.485
22719TIP3    H168042   4.506   9.443   8.469
22719TIP3    H268043   4.644   9.442   8.413
22720TIP3   OH268044   4.794   8.447   8.886
22720TIP3    H168045   4.856   8.522   8.872
22720TIP3    H268046   4.795   8.441   8.984
22721TIP3   OH268047   4.937   8.179   8.995
22721TIP3    H168048   4.914   8.259   9.048
22721TIP3    H268049   4.995   8.218   8.926
22722TIP3   OH268050   4.446   8.171   8.778
22722TIP3    H168051   4.441   8.261   8.817
22722TIP3    H268052   4.542   8.155   8.789
22723TIP3   OH268053   4.064   9.086   8.548
22723TIP3    H168054   4.091   9.179   8.545
22723TIP3    H268055   4.114   9.048   8.472
22724TIP3   OH268056   4.011   8.366   8.660
22724TIP3    H168057   4.006   8.463   8.659
22724TIP3    H268058   3.921   8.341   8.637
22725TIP3   OH268059   4.405   8.082   9.544
22725TIP3    H168060   4.363   8.059   9.459
22725TIP3    H268061   4.384   8.005   9.600
22726TIP3   OH268062   4.558   9.384   8.173
22726TIP3    H168063   4.498   9.311   8.202
22726TIP3    H268064   4.628   9.332   8.128
22727TIP3   OH268065   4.992   9.422   8.071
22727TIP3    H168066   5.042   9.371   8.137
22727TIP3    H268067   5.051   9.425   7.994
22728TIP3   OH268068   4.199   8.905   8.382
22728TIP3    H168069   4.249   8.869   8.457
22728TIP3    H268070   4.268   8.908   8.313
22729TIP3   OH268071   4.707   9.100   8.194
22729TIP3    H168072   4.707   9.114   8.290
22729TIP3    H268073   4.704   9.002   8.189
22730TIP3   OH268074   4.409   8.808   8.614
22730TIP3    H168075   4.373   8.769   8.696
22730TIP3    H268076   4.439   8.728   8.566
22731TIP3   OH268077   4.504   8.600   8.449
22731TIP3    H168078   4.477   8.602   8.355
22731TIP3    H268079   4.602   8.608   8.442
22732TIP3   OH268080   5.345   8.939   8.104
22732TIP3    H168081   5.313   8.887   8.027
22732TIP3    H268082   5.300   9.025   8.084
22733TIP3   OH268083   4.754   8.393   9.697
22733TIP3    H168084   4.813   8.460   9.658
22733TIP3    H268085   4.741   8.427   9.786
22734TIP3   OH268086   4.334   9.676   8.348
22734TIP3    H168087   4.423   9.667   8.307
22734TIP3    H268088   4.279   9.703   8.273
22735TIP3   OH268089   3.791   9.046   8.503
22735TIP3    H168090   3.875   9.065   8.549
22735TIP3    H268091   3.794   8.948   8.494
22736TIP3   OH268092   5.428   9.147   8.387
22736TIP3    H168093   5.492   9.217   8.376
22736TIP3    H268094   5.459   9.109   8.472
22737TIP3   OH268095   5.532   8.897   8.298
22737TIP3    H168096   5.455   8.910   8.237
22737TIP3    H268097   5.509   8.962   8.368
22738TIP3   OH268098   5.385   8.565   8.238
22738TIP3    H168099   5.335   8.599   8.163
22738TIP3    H268100   5.363   8.469   8.234
22739TIP3   OH268101   5.470   8.737   8.757
22739TIP3    H168102   5.383   8.707   8.784
22739TIP3    H268103   5.460   8.834   8.766
22740TIP3   OH268104   5.341   8.298   8.233
22740TIP3    H168105   5.414   8.270   8.292
22740TIP3    H268106   5.265   8.243   8.261
22741TIP3   OH268107   5.372   8.507   8.664
22741TIP3    H168108   5.428   8.427   8.677
22741TIP3    H268109   5.440   8.577   8.665
22742TIP3   OH268110   5.518   8.286   8.724
22742TIP3    H168111   5.558   8.277   8.813
22742TIP3    H268112   5.450   8.216   8.727
22743TIP3   OH268113   4.209   8.284   9.516
22743TIP3    H168114   4.277   8.223   9.553
22743TIP3    H268115   4.229   8.366   9.564
22744TIP3   OH268116   5.588   8.244   8.356
22744TIP3    H168117   5.623   8.169   8.305
22744TIP3    H268118   5.662   8.307   8.355
22745TIP3   OH268119   3.994   8.059   9.112
22745TIP3    H168120   3.905   8.068   9.152
22745TIP3    H268121   3.991   8.125   9.040
22746TIP3   OH268122   5.068   8.284   9.291
22746TIP3    H168123   5.009   8.218   9.333
22746TIP3    H268124   5.120   8.230   9.229
22747TIP3   OH268125   5.572   8.183   9.202
22747TIP3    H168126   5.611   8.220   9.119
22747TIP3    H268127   5.476   8.184   9.180
22748TIP3   OH268128   5.672   8.257   8.955
22748TIP3    H168129   5.746   8.206   8.917
22748TIP3    H268130   5.693   8.346   8.920
22749TIP3   OH268131   4.306   7.994   9.289
22749TIP3    H168132   4.214   7.960   9.295
22749TIP3    H268133   4.356   7.910   9.290
22750TIP3   OH268134   4.088   7.863   8.937
22750TIP3    H168135   4.118   7.925   8.870
22750TIP3    H268136   4.058   7.924   9.008
22751TIP3   OH268137   4.750   8.025   9.170
22751TIP3    H168138   4.811   8.082   9.121
22751TIP3    H268139   4.756   8.062   9.259
22752TIP3   OH268140   5.300   8.169   9.150
22752TIP3    H168141   5.281   8.132   9.063
22752TIP3    H268142   5.283   8.092   9.209
22753TIP3   OH268143   5.325   8.092   8.719
22753TIP3    H168144   5.239   8.137   8.731
22753TIP3    H268145   5.308   8.008   8.767
22754TIP3   OH268146   4.208   8.029   8.699
22754TIP3    H168147   4.258   7.963   8.648
22754TIP3    H268148   4.280   8.080   8.741
22755TIP3   OH268149   4.725   8.197   8.801
22755TIP3    H168150   4.779   8.150   8.866
22755TIP3    H268151   4.742   8.290   8.828
22756TIP3   OH268152   4.594   9.628   8.283
22756TIP3    H168153   4.684   9.639   8.246
22756TIP3    H268154   4.570   9.544   8.237
22757TIP3   OH268155   5.777   8.784   8.526
22757TIP3    H168156   5.734   8.862   8.569
22757TIP3    H268157   5.752   8.716   8.591
22758TIP3   OH268158   6.564   8.482   7.981
22758TIP3    H168159   6.612   8.488   8.066
22758TIP3    H268160   6.542   8.387   7.978
22759TIP3   OH268161   6.244   8.438   7.987
22759TIP3    H168162   6.231   8.428   8.083
22759TIP3    H268163   6.167   8.490   7.961
22760TIP3   OH268164   5.766   8.463   8.805
22760TIP3    H168165   5.825   8.511   8.866
22760TIP3    H268166   5.829   8.426   8.743
22761TIP3   OH268167   5.790   8.466   8.386
22761TIP3    H168168   5.822   8.502   8.302
22761TIP3    H268169   5.715   8.526   8.403
22762TIP3   OH268170   6.124   8.698   8.114
22762TIP3    H168171   6.076   8.670   8.034
22762TIP3    H268172   6.184   8.764   8.077
22763TIP3   OH268173   5.762   8.907   8.172
22763TIP3    H168174   5.800   8.993   8.150
22763TIP3    H268175   5.668   8.930   8.192
22764TIP3   OH268176   6.238   8.409   8.268
22764TIP3    H168177   6.235   8.498   8.306
22764TIP3    H268178   6.333   8.392   8.262
22765TIP3   OH268179   5.781   8.629   8.169
22765TIP3    H168180   5.842   8.670   8.106
22765TIP3    H268181   5.730   8.569   8.113
22766TIP3   OH268182   5.969   9.152   7.853
22766TIP3    H168183   6.032   9.145   7.926
22766TIP3    H268184   6.031   9.140   7.777
22767TIP3   OH268185   6.307   8.843   7.936
22767TIP3    H168186   6.256   8.832   7.852
22767TIP3    H268187   6.393   8.865   7.898
22768TIP3   OH268188   5.606   9.311   8.016
22768TIP3    H168189   5.664   9.347   8.085
22768TIP3    H268190   5.579   9.226   8.051
22769TIP3   OH268191   5.787   8.292   8.588
22769TIP3    H168192   5.701   8.305   8.632
22769TIP3    H268193   5.790   8.367   8.524
22770TIP3   OH268194   6.094   8.176   8.672
22770TIP3    H168195   6.001   8.191   8.694
22770TIP3    H268196   6.133   8.199   8.758
22771TIP3   OH268197   5.923   8.125   8.427
22771TIP3    H168198   5.923   8.178   8.345
22771TIP3    H268199   5.869   8.181   8.487
22772TIP3   OH268200   6.003   8.281   8.185
22772TIP3    H168201   6.046   8.212   8.130
22772TIP3    H268202   6.081   8.324   8.225
22773TIP3   OH268203   4.984  10.105   7.902
22773TIP3    H168204   5.045  10.035   7.876
22773TIP3    H268205   4.896  10.063   7.895
22774TIP3   OH268206   4.959   9.878   8.332
22774TIP3    H168207   4.889   9.938   8.301
22774TIP3    H268208   4.904   9.801   8.359
   9.80000   9.23953   8.00167   0.00000   0.00000  -3.26667   0.00000  -3.26667  -4.61976
