* GENERATED BY CHARMM-GUI (HTTP://WWW.CHARMM-GUI.ORG) V3.7 ON JUN, 13. 2026. JOB
* READ PDB, MANIPULATE STRUCTURE IF NEEDED, AND GENERATE TOPOLOGY FILE
*  DATE:     6/13/26      6:32: 6      CREATED BY USER: charmm-gui
*
       153  EXT
         1         1  GLY       N              -2.5160000000       12.9870000000       17.4900000000  PROA      1              96.0200000000
         2         1  GLY       HT1            -2.8325832190       13.9549569089       17.7007948956  PROA      1               0.0000000000
         3         1  GLY       HT2            -1.6169509773       13.0221696641       16.9683932653  PROA      1               0.0000000000
         4         1  GLY       HT3            -2.3800527246       12.4653162326       18.3793615807  PROA      1               0.0000000000
         5         1  GLY       CA             -3.5200000000       12.3130000000       16.6810000000  PROA      1              97.0200000000
         6         1  GLY       HA1            -3.7656342863       12.9658265355       15.8565092201  PROA      1               0.0000000000
         7         1  GLY       HA2            -4.3865994481       12.1521486504       17.3050480544  PROA      1               0.0000000000
         8         1  GLY       C              -3.0480000000       10.9790000000       16.1340000000  PROA      1              97.4000000000
         9         1  GLY       O              -1.8440000000       10.7230000000       16.0610000000  PROA      1              96.7300000000
        10         2  ASP       N              -3.8650000000       10.0840000000       15.8760000000  PROA      2              97.4700000000
        11         2  ASP       HN             -4.8372483522       10.2122568233       16.0519856696  PROA      2               0.0000000000
        12         2  ASP       CA             -3.5090000000        8.7880000000       15.3060000000  PROA      2              97.6400000000
        13         2  ASP       HA             -2.6267463889        8.4291630112       15.8149499630  PROA      2               0.0000000000
        14         2  ASP       CB             -4.6600000000        7.7940000000       15.4720000000  PROA      2              96.8400000000
        15         2  ASP       HB1            -4.4023825701        6.8534868468       14.9402614213  PROA      2               0.0000000000
        16         2  ASP       HB2            -5.5778084958        8.2281618199       15.0216571010  PROA      2               0.0000000000
        17         2  ASP       CG             -4.9500000000        7.4600000000       16.9250000000  PROA      2              91.3100000000
        18         2  ASP       OD1            -4.0630000000        7.6550000000       17.7840000000  PROA      2              84.1100000000
        19         2  ASP       OD2            -6.0730000000        6.9940000000       17.2120000000  PROA      2              90.5000000000
        20         2  ASP       C              -3.1390000000        8.9200000000       13.8300000000  PROA      2              97.7500000000
        21         2  ASP       O              -3.6640000000        9.7860000000       13.1280000000  PROA      2              97.3000000000
        22         3  SER       N              -2.2650000000        8.1190000000       13.3840000000  PROA      3              97.6400000000
        23         3  SER       HN             -1.7447790191        7.5050377526       13.9725715540  PROA      3               0.0000000000
        24         3  SER       CA             -1.9770000000        8.0610000000       11.9550000000  PROA      3              97.5300000000
        25         3  SER       HA             -1.5687885783        9.0151771021       11.6565454729  PROA      3               0.0000000000
        26         3  SER       CB             -0.9820000000        6.9390000000       11.6530000000  PROA      3              96.9100000000
        27         3  SER       HB1            -0.7163645149        6.9565013535       10.5744078482  PROA      3               0.0000000000
        28         3  SER       HB2            -1.4382043122        5.9580453698       11.9056562436  PROA      3               0.0000000000
        29         3  SER       OG              0.2020000000        7.0990000000       12.4150000000  PROA      3              89.6900000000
        30         3  SER       HG1             0.7727044676        6.3655298992       12.1743383662  PROA      3               0.0000000000
        31         3  SER       C              -3.2500000000        7.8550000000       11.1420000000  PROA      3              97.7100000000
        32         3  SER       O              -4.2190000000        7.2720000000       11.6330000000  PROA      3              97.4000000000
        33         4  GLY       N              -3.2580000000        8.4950000000        9.9640000000  PROA      4              97.1900000000
        34         4  GLY       HN             -2.5482991044        9.1290168958        9.6673854938  PROA      4               0.0000000000
        35         4  GLY       CA             -4.3740000000        8.2460000000        9.0650000000  PROA      4              97.0900000000
        36         4  GLY       HA1            -4.2323689731        8.8573018495        8.1860583542  PROA      4               0.0000000000
        37         4  GLY       HA2            -5.2804380688        8.5337327731        9.5767300014  PROA      4               0.0000000000
        38         4  GLY       C              -4.4870000000        6.7940000000        8.6420000000  PROA      4              97.4800000000
        39         4  GLY       O              -3.5530000000        6.0120000000        8.8310000000  PROA      4              97.1600000000
        40         5  SER       N              -5.5060000000        6.5250000000        8.0450000000  PROA      5              97.5700000000
        41         5  SER       HN             -6.2581760933        7.1681410728        7.9243735868  PROA      5               0.0000000000
        42         5  SER       CA             -5.6590000000        5.1950000000        7.4650000000  PROA      5              97.5900000000
        43         5  SER       HA             -5.4031278393        4.4680531739        8.2214688000  PROA      5               0.0000000000
        44         5  SER       CB             -7.0960000000        4.9810000000        6.9860000000  PROA      5              97.1100000000
        45         5  SER       HB1            -7.2242055019        3.9300017861        6.6495564938  PROA      5               0.0000000000
        46         5  SER       HB2            -7.3137305092        5.6689092630        6.1412500959  PROA      5               0.0000000000
        47         5  SER       OG             -8.0180000000        5.2390000000        8.0310000000  PROA      5              93.4700000000
        48         5  SER       HG1            -7.8010152946        4.6219335300        8.7336710534  PROA      5               0.0000000000
        49         5  SER       C              -4.6910000000        4.9830000000        6.3050000000  PROA      5              97.9700000000
        50         5  SER       O              -4.2690000000        5.9440000000        5.6590000000  PROA      5              97.8500000000
        51         6  GLY       N              -4.0990000000        3.7780000000        6.3020000000  PROA      6              97.1700000000
        52         6  GLY       HN             -4.1876751926        3.0921104323        7.0190603873  PROA      6               0.0000000000
        53         6  GLY       CA             -3.2710000000        3.4900000000        5.1420000000  PROA      6              97.0700000000
        54         6  GLY       HA1            -2.8924327510        2.4841490322        5.2480360425  PROA      6               0.0000000000
        55         6  GLY       HA2            -2.4543305343        4.1966136341        5.1355867581  PROA      6               0.0000000000
        56         6  GLY       C              -4.0260000000        3.5970000000        3.8300000000  PROA      6              97.5500000000
        57         6  GLY       O              -5.2500000000        3.7370000000        3.8210000000  PROA      6              97.3000000000
        58         7  PRO       N              -3.4060000000        3.5560000000        2.8330000000  PROA      7              98.1800000000
        59         7  PRO       CD             -1.9200000000        3.3140000000        2.8070000000  PROA      7              96.4100000000
        60         7  PRO       HD1            -1.6540140506        2.4664854794        3.4724248444  PROA      7               0.0000000000
        61         7  PRO       HD2            -1.3733045571        4.2281709795        3.1188254709  PROA      7               0.0000000000
        62         7  PRO       CA             -4.0210000000        3.4980000000        1.5050000000  PROA      7              98.2200000000
        63         7  PRO       HA             -4.7189513243        4.3099761286        1.3781926128  PROA      7               0.0000000000
        64         7  PRO       CB             -2.8190000000        3.5340000000        0.5580000000  PROA      7              98.0400000000
        65         7  PRO       HB1            -2.6053566276        4.5741076817        0.2314922964  PROA      7               0.0000000000
        66         7  PRO       HB2            -3.0056100951        2.9070943962       -0.3399091251  PROA      7               0.0000000000
        67         7  PRO       CG             -1.6830000000        2.9860000000        1.3610000000  PROA      7              96.9200000000
        68         7  PRO       HG1            -1.6234416824        1.8845643765        1.2283805737  PROA      7               0.0000000000
        69         7  PRO       HG2            -0.7273529813        3.4402694947        1.0223651818  PROA      7               0.0000000000
        70         7  PRO       C              -4.8450000000        2.2300000000        1.2920000000  PROA      7              98.4700000000
        71         7  PRO       O              -4.6600000000        1.2410000000        2.0060000000  PROA      7              98.4300000000
        72         8  GLY       N              -5.7180000000        2.3320000000        0.3110000000  PROA      8              97.7600000000
        73         8  GLY       HN             -5.8570168438        3.1627227066       -0.2223090645  PROA      8               0.0000000000
        74         8  GLY       CA             -6.5300000000        1.1710000000       -0.0200000000  PROA      8              97.7200000000
        75         8  GLY       HA1            -7.3077778165        1.4941588863       -0.6959576832  PROA      8               0.0000000000
        76         8  GLY       HA2            -6.9637500476        0.7995116577        0.8965948368  PROA      8               0.0000000000
        77         8  GLY       C              -5.7380000000        0.0570000000       -0.6770000000  PROA      8              98.1200000000
        78         8  GLY       O              -4.6060000000        0.2680000000       -1.1170000000  PROA      8              98.0200000000
        79         9  ASP       N              -6.3600000000       -1.1490000000       -0.7370000000  PROA      9              98.1000000000
        80         9  ASP       HN             -7.2400584348       -1.3055621791       -0.2960727206  PROA      9               0.0000000000
        81         9  ASP       CA             -5.7950000000       -2.2950000000       -1.4430000000  PROA      9              98.1200000000
        82         9  ASP       HA             -4.7979076575       -2.4633084526       -1.0639994784  PROA      9               0.0000000000
        83         9  ASP       CB             -6.6610000000       -3.5380000000       -1.2310000000  PROA      9              97.9000000000
        84         9  ASP       HB1            -6.2922128410       -4.3503294277       -1.8926619916  PROA      9               0.0000000000
        85         9  ASP       HB2            -7.7106324356       -3.2953721856       -1.5013389588  PROA      9               0.0000000000
        86         9  ASP       CG             -6.6380000000       -4.0390000000        0.2030000000  PROA      9              96.2900000000
        87         9  ASP       OD1            -5.6810000000       -3.7250000000        0.9430000000  PROA      9              95.6900000000
        88         9  ASP       OD2            -7.5840000000       -4.7560000000        0.5950000000  PROA      9              94.8200000000
        89         9  ASP       C              -5.6510000000       -2.0040000000       -2.9360000000  PROA      9              98.4000000000
        90         9  ASP       O              -6.4380000000       -1.2450000000       -3.5040000000  PROA      9              98.3300000000
        91        10  PRO       N              -4.7660000000       -2.6680000000       -3.5380000000  PROA      10             98.1800000000
        92        10  PRO       CD             -3.7820000000       -3.4100000000       -2.9660000000  PROA      10             95.3200000000
        93        10  PRO       HD1            -4.2008584183       -4.3699667266       -2.5971677745  PROA      10              0.0000000000
        94        10  PRO       HD2            -3.3272600243       -2.8467052866       -2.1240223747  PROA      10              0.0000000000
        95        10  PRO       CA             -4.6980000000       -2.5160000000       -4.9940000000  PROA      10             98.1500000000
        96        10  PRO       HA             -4.6656483702       -1.4721260118       -5.2619872659  PROA      10              0.0000000000
        97        10  PRO       CB             -3.4470000000       -3.3130000000       -5.3730000000  PROA      10             97.9900000000
        98        10  PRO       HB1            -2.7727813447       -2.7067377853       -6.0148345213  PROA      10              0.0000000000
        99        10  PRO       HB2            -3.7212011446       -4.2418584972       -5.9171615984  PROA      10              0.0000000000
       100        10  PRO       CG             -2.7900000000       -3.6360000000       -4.0700000000  PROA      10             96.4600000000
       101        10  PRO       HG1            -2.4574504875       -4.6960457019       -4.0674912712  PROA      10              0.0000000000
       102        10  PRO       HG2            -1.9043761005       -2.9818659394       -3.9214358675  PROA      10              0.0000000000
       103        10  PRO       C              -5.9320000000       -3.0690000000       -5.7030000000  PROA      10             98.3600000000
       104        10  PRO       O              -6.6440000000       -3.9090000000       -5.1470000000  PROA      10             98.2800000000
       105        11  GLY       N              -6.3300000000       -2.3160000000       -6.8230000000  PROA      11             97.0800000000
       106        11  GLY       HN             -5.8787975697       -1.4757347307       -7.1132298510  PROA      11              0.0000000000
       107        11  GLY       CA             -7.4620000000       -2.7810000000       -7.6080000000  PROA      11             97.0600000000
       108        11  GLY       HA1            -7.5225713428       -2.1678441797       -8.4949378877  PROA      11              0.0000000000
       109        11  GLY       HA2            -8.3519097522       -2.6580058722       -7.0086496503  PROA      11              0.0000000000
       110        11  GLY       C              -7.3440000000       -4.2360000000       -8.0220000000  PROA      11             97.5500000000
       111        11  GLY       O              -6.2600000000       -4.8200000000       -7.9530000000  PROA      11             97.4100000000
       112        12  SER       N              -8.3790000000       -4.7970000000       -8.5600000000  PROA      12             97.6500000000
       113        12  SER       HN             -9.2580935899       -4.3301506801       -8.6114395007  PROA      12              0.0000000000
       114        12  SER       CA             -8.3450000000       -6.1410000000       -9.1280000000  PROA      12             97.6400000000
       115        12  SER       HA             -7.7442362680       -6.7631147049       -8.4812971236  PROA      12              0.0000000000
       116        12  SER       CB             -9.7600000000       -6.7080000000       -9.2470000000  PROA      12             96.9500000000
       117        12  SER       HB1            -9.7096786043       -7.7723942886       -9.5612558976  PROA      12              0.0000000000
       118        12  SER       HB2           -10.3322470537       -6.1264245936      -10.0010076723  PROA      12              0.0000000000
       119        12  SER       OG            -10.4390000000       -6.6330000000       -8.0050000000  PROA      12             88.9800000000
       120        12  SER       HG1            -9.9186790489       -7.1518496329       -7.3872126852  PROA      12              0.0000000000
       121        12  SER       C              -7.6700000000       -6.1460000000      -10.4950000000  PROA      12             98.0700000000
       122        12  SER       O              -7.7080000000       -5.1470000000      -11.2160000000  PROA      12             97.9700000000
       123        13  GLY       N              -6.8750000000       -7.1670000000      -10.9310000000  PROA      13             96.4200000000
       124        13  GLY       HN             -6.6888730109       -7.9218149039      -10.3116256008  PROA      13              0.0000000000
       125        13  GLY       CA             -6.2260000000       -7.3320000000      -12.2220000000  PROA      13             96.6000000000
       126        13  GLY       HA1            -5.6310484510       -8.2322796005      -12.1793981235  PROA      13              0.0000000000
       127        13  GLY       HA2            -5.5913254093       -6.4734215918      -12.3842248604  PROA      13              0.0000000000
       128        13  GLY       C              -7.2070000000       -7.4440000000      -13.3740000000  PROA      13             97.3600000000
       129        13  GLY       O              -8.3810000000       -7.7600000000      -13.1670000000  PROA      13             97.3400000000
       130        14  ASP       N              -7.1190000000       -7.1230000000      -14.4590000000  PROA      14             97.3600000000
       131        14  ASP       HN             -6.2983866113       -6.6191320859      -14.6712484703  PROA      14              0.0000000000
       132        14  ASP       CA             -7.9120000000       -7.2520000000      -15.6780000000  PROA      14             97.4100000000
       133        14  ASP       HA             -8.8304444607       -6.7009597758      -15.5402244492  PROA      14              0.0000000000
       134        14  ASP       CB             -7.1390000000       -6.7060000000      -16.8810000000  PROA      14             96.6700000000
       135        14  ASP       HB1            -7.7105360210       -6.9290563576      -17.8068863352  PROA      14              0.0000000000
       136        14  ASP       HB2            -6.1505293483       -7.2099829074      -16.9319908557  PROA      14              0.0000000000
       137        14  ASP       CG             -6.9100000000       -5.2070000000      -16.8080000000  PROA      14             92.4000000000
       138        14  ASP       OD1            -7.6480000000       -4.5120000000      -16.0760000000  PROA      14             91.5800000000
       139        14  ASP       OD2            -5.9860000000       -4.7150000000      -17.4900000000  PROA      14             91.0700000000
       140        14  ASP       C              -8.3070000000       -8.7070000000      -15.9240000000  PROA      14             97.8000000000
       141        14  ASP       O              -7.5250000000       -9.6220000000      -15.6570000000  PROA      14             97.6700000000
       142        15  SER       N              -9.6860000000       -9.0230000000      -16.0700000000  PROA      15             96.6700000000
       143        15  SER       HN            -10.3831210785       -8.3118054566      -16.0364904963  PROA      15              0.0000000000
       144        15  SER       CA            -10.1920000000      -10.3760000000      -16.2760000000  PROA      15             96.3100000000
       145        15  SER       HA             -9.8129091214      -11.0003628842      -15.4806199604  PROA      15              0.0000000000
       146        15  SER       CB            -11.7210000000      -10.3820000000      -16.2740000000  PROA      15             94.8000000000
       147        15  SER       HB1           -12.0938356936      -10.0189619186      -15.2924588878  PROA      15              0.0000000000
       148        15  SER       HB2           -12.0898727058      -11.4149319891      -16.4506649107  PROA      15              0.0000000000
       149        15  SER       OG            -12.2290000000       -9.5380000000      -17.2930000000  PROA      15             82.7300000000
       150        15  SER       HG1           -11.6626039418       -9.6740336627      -18.0560795161  PROA      15              0.0000000000
       151        15  SER       C              -9.6740000000      -10.9660000000      -17.5830000000  PROA      15             96.6100000000
       152        15  SER       OT1            -8.9123699660      -10.2554401952      -18.2919601224  PROA      15              0.0000000000
       153        15  SER       OT2           -10.0336924148      -12.1343652012      -17.8881952218  PROA      15              0.0000000000
