Title
44469
    1GLY      N    1   4.256   6.021   4.272  0.4645 -0.5953  0.5050
    1GLY    HT1    2   4.166   5.970   4.257  0.1173  0.8167 -3.3003
    1GLY    HT2    3   4.245   6.114   4.226  1.0506 -0.9740 -0.4244
    1GLY    HT3    4   4.274   6.020   4.375 -1.1196 -1.8257  0.8175
    1GLY     CA    5   4.369   5.941   4.209 -0.2494 -0.4012  0.2872
    1GLY    HA1    6   4.466   5.983   4.235  0.3691 -1.0997 -0.8065
    1GLY    HA2    7   4.353   5.956   4.103 -0.5947  0.0555  0.4001
    1GLY      C    8   4.387   5.791   4.245  0.4727  0.0856  0.1707
    1GLY      O    9   4.391   5.763   4.365  0.1478 -0.1776 -0.6092
    2PRO      N   10   4.390   5.690   4.156 -0.4532  0.2799 -0.2536
    2PRO     CD   11   4.399   5.708   4.008  0.3790  0.1630 -0.3971
    2PRO    HD1   12   4.484   5.772   3.977 -1.1096  2.2941 -0.2691
    2PRO    HD2   13   4.307   5.753   3.965  1.6055  2.2334 -1.0000
    2PRO     CA   14   4.371   5.550   4.192 -0.1717  0.0232 -0.5517
    2PRO     HA   15   4.286   5.534   4.257 -2.6408 -0.3731 -3.6568
    2PRO     CB   16   4.345   5.481   4.057 -0.4835 -0.2435 -0.1543
    2PRO    HB1   17   4.234   5.478   4.046 -0.5953 -0.3397  0.9203
    2PRO    HB2   18   4.371   5.373   4.047  0.0838 -0.0665 -0.6594
    2PRO     CG   19   4.412   5.570   3.952 -0.0135 -0.1065  0.8298
    2PRO    HG1   20   4.516   5.553   3.918 -0.3081 -0.2757 -0.0297
    2PRO    HG2   21   4.348   5.558   3.862  2.4824 -3.0732 -0.7291
    2PRO      C   22   4.501   5.491   4.252 -0.3976 -0.3618 -0.2240
    2PRO      O   23   4.493   5.405   4.334 -1.0652  0.5865 -1.0350
    3GLY      N   24   4.620   5.545   4.222  0.2818 -0.1830  0.5806
    3GLY     HN   25   4.622   5.627   4.165 -0.0083 -0.0266  0.7917
    3GLY     CA   26   4.747   5.492   4.262 -0.8518  0.1546  0.3447
    3GLY    HA1   27   4.813   5.497   4.177  1.9873  3.7237  2.4529
    3GLY    HA2   28   4.735   5.395   4.307 -1.8261  0.3582  0.5488
    3GLY      C   29   4.808   5.584   4.368  0.0521  0.2327  0.4219
    3GLY      O   30   4.770   5.692   4.396 -0.0272 -0.3750  0.4939
    4ASN      N   31   4.911   5.530   4.427 -0.4345 -0.1674  0.1381
    4ASN     HN   32   4.952   5.445   4.396  0.8356  0.7015 -0.6985
    4ASN     CA   33   4.973   5.595   4.544 -0.7438 -0.2760  0.0845
    4ASN     HA   34   4.894   5.600   4.618 -3.3589  0.4769 -2.5954
    4ASN     CB   35   5.097   5.514   4.602  0.2121 -0.2706  0.0542
    4ASN    HB1   36   5.127   5.573   4.692 -1.6443  1.8514 -0.6100
    4ASN    HB2   37   5.182   5.506   4.532  0.9938  1.1924  0.7804
    4ASN     CG   38   5.042   5.382   4.649 -0.2011 -0.3383  0.0382
    4ASN    OD1   39   4.943   5.377   4.715  0.2301  0.3875 -0.1694
    4ASN    ND2   40   5.104   5.270   4.615 -0.4814  0.1740  0.3703
    4ASN   HD21   41   5.063   5.185   4.649 -2.5713  1.6892  1.9378
    4ASN   HD22   42   5.173   5.270   4.543 -0.5087  0.2143  0.3441
    4ASN      C   43   5.021   5.738   4.517 -1.0909  0.0407 -0.0734
    4ASN      O   44   5.091   5.762   4.419 -0.3123 -0.0934  0.0676
    5PRO      N   45   4.987   5.842   4.596  0.0039 -0.6035  0.0530
    5PRO     CD   46   4.882   5.833   4.700 -0.3650 -0.5770 -0.3899
    5PRO    HD1   47   4.926   5.777   4.785  1.7612  2.0888  0.3908
    5PRO    HD2   48   4.788   5.788   4.661  0.0348 -1.9255  0.1722
    5PRO     CA   49   5.051   5.977   4.597 -0.0286  0.0582  0.2912
    5PRO     HA   50   5.003   6.027   4.515 -0.3370  2.2941  1.7485
    5PRO     CB   51   5.005   6.047   4.723  0.8548  0.0247 -0.3846
    5PRO    HB1   52   4.985   6.154   4.704  0.4310  0.2500  1.1772
    5PRO    HB2   53   5.078   6.037   4.806  1.5764 -3.0699 -1.2530
    5PRO     CG   54   4.868   5.975   4.753  0.1887 -0.2608 -0.5407
    5PRO    HG1   55   4.841   5.984   4.861  1.2718  1.4527 -0.3754
    5PRO    HG2   56   4.783   6.015   4.694 -0.8921 -1.0040  0.4407
    5PRO      C   57   5.205   5.975   4.581 -0.7164 -0.5837 -1.0722
    5PRO      O   58   5.271   5.896   4.651 -0.0353  0.0620  0.0795
    6GLY      N   59   5.266   6.075   4.502  0.0685 -0.2553  0.2543
    6GLY     HN   60   5.217   6.151   4.460 -0.7787 -1.6401 -1.3729
    6GLY     CA   61   5.411   6.076   4.476  0.0611  0.2082 -0.2162
    6GLY    HA1   62   5.423   6.123   4.379 -2.1507 -0.0971 -0.6835
    6GLY    HA2   63   5.449   5.975   4.479 -0.5362 -0.0367 -0.5843
    6GLY      C   64   5.499   6.149   4.573 -0.0968  0.2108  0.0097
    6GLY      O   65   5.452   6.200   4.673  0.3429 -0.3383  0.0871
    7PRO      N   66   5.632   6.153   4.560  0.4676 -0.1818 -0.1026
    7PRO     CD   67   5.694   6.115   4.434 -0.2097 -0.0070  0.9971
    7PRO    HD1   68   5.693   6.195   4.357 -0.0073 -1.8243 -1.0087
    7PRO    HD2   69   5.657   6.017   4.395 -0.0735  0.9511 -1.7654
    7PRO     CA   70   5.722   6.227   4.648  0.0872  0.2523  0.0211
    7PRO     HA   71   5.730   6.167   4.737 -0.0700  0.6690  0.3241
    7PRO     CB   72   5.864   6.224   4.565  0.1899  0.0048  0.5310
    7PRO    HB1   73   5.949   6.221   4.637  1.4559 -0.4017 -0.9511
    7PRO    HB2   74   5.865   6.309   4.494  0.2151  1.3078  2.0432
    7PRO     CG   75   5.837   6.102   4.474 -0.3088 -0.3704 -0.2130
    7PRO    HG1   76   5.901   6.090   4.385 -1.7015 -3.4784 -0.9515
    7PRO    HG2   77   5.850   6.008   4.532 -0.1904  0.5431  1.2859
    7PRO      C   78   5.684   6.366   4.686  0.1211  0.1819 -0.3980
    7PRO      O   79   5.661   6.447   4.595  0.9426  0.6094  0.4790
    8GLY      N   80   5.705   6.394   4.813 -0.3650  0.1984 -0.3269
    8GLY     HN   81   5.729   6.323   4.880 -2.6221  0.2550  0.6214
    8GLY     CA   82   5.678   6.519   4.876 -0.4769  0.1691 -0.1567
    8GLY    HA1   83   5.734   6.597   4.829  1.2706  0.8812  2.8446
    8GLY    HA2   84   5.716   6.521   4.977  1.6409 -0.6492 -0.9015
    8GLY      C   85   5.532   6.564   4.879  0.2454  0.7233 -0.6617
    8GLY      O   86   5.453   6.526   4.786  0.1155 -0.4931  0.6778
    9ASN      N   87   5.487   6.635   4.982 -0.2197  0.2812  0.7591
    9ASN     HN   88   5.545   6.667   5.056  0.1929 -0.6041  0.8366
    9ASN     CA   89   5.354   6.697   4.967 -0.0646  0.1425  0.3718
    9ASN     HA   90   5.283   6.623   4.932 -2.0784  1.4581  1.4400
    9ASN     CB   91   5.296   6.764   5.089 -0.2444 -0.1530 -0.3059
    9ASN    HB1   92   5.192   6.800   5.074  0.3433  2.4052  1.0657
    9ASN    HB2   93   5.345   6.851   5.138  0.0345 -1.0990  1.1918
    9ASN     CG   94   5.287   6.660   5.197  0.1246 -0.8306 -0.1814
    9ASN    OD1   95   5.278   6.538   5.173 -0.2201 -0.5287 -0.3011
    9ASN    ND2   96   5.282   6.702   5.329 -0.5097  1.0170  0.7196
    9ASN   HD21   97   5.265   6.632   5.397  2.2578 -0.9060 -0.4179
    9ASN   HD22   98   5.301   6.798   5.351  2.2751  0.7583 -0.1716
    9ASN      C   99   5.351   6.802   4.862 -0.4706 -0.1452 -0.1665
    9ASN      O  100   5.457   6.861   4.843 -0.0289  0.4646  0.0548
   10PRO      N  101   5.236   6.824   4.795 -0.3613 -0.3417  0.1792
   10PRO     CD  102   5.119   6.738   4.799 -0.5718 -0.0819 -0.7707
   10PRO    HD1  103   5.087   6.741   4.905  2.2585 -0.1391  0.1704
   10PRO    HD2  104   5.148   6.637   4.762  0.1467 -0.1086 -0.1667
   10PRO     CA  105   5.209   6.929   4.695  0.5748  0.2404  0.1569
   10PRO     HA  106   5.259   6.895   4.606  0.5953 -0.6891  0.5118
   10PRO     CB  107   5.055   6.932   4.687  0.0828 -0.4101 -0.3526
   10PRO    HB1  108   5.015   6.990   4.601 -1.6248 -0.5846  0.2870
   10PRO    HB2  109   5.026   6.988   4.778  0.3761 -1.0635  0.1471
   10PRO     CG  110   5.012   6.791   4.710 -0.0846 -0.0960  0.3889
   10PRO    HG1  111   4.910   6.778   4.752  0.3060 -1.1613  1.0219
   10PRO    HG2  112   5.013   6.734   4.615 -0.7300 -2.3005  1.6482
   10PRO      C  113   5.262   7.067   4.719  0.0734  0.5307 -0.1047
   10PRO      O  114   5.240   7.117   4.826 -0.5596 -0.5947  0.1697
   11GLY      N  115   5.328   7.139   4.629 -0.2085  0.4180 -0.0098
   11GLY     HN  116   5.346   7.109   4.536  0.7224 -2.5558  1.0145
   11GLY     CA  117   5.365   7.281   4.640 -0.6899  0.2343  0.0239
   11GLY    HA1  118   5.425   7.301   4.553 -1.8559  0.0095 -0.8551
   11GLY    HA2  119   5.423   7.285   4.731  0.1613 -1.7138 -0.3785
   11GLY      C  120   5.251   7.379   4.639 -0.1062  0.2645 -0.2612
   11GLY      O  121   5.135   7.340   4.642 -0.0742  0.2389  0.0521
   12PRO      N  122   5.278   7.507   4.639 -0.0980  0.1808 -0.6140
   12PRO     CD  123   5.417   7.553   4.638 -0.0214  0.5798 -0.2006
   12PRO    HD1  124   5.450   7.548   4.532  1.8967  0.2165  0.3741
   12PRO    HD2  125   5.478   7.492   4.708 -2.0594  1.4288  2.4970
   12PRO     CA  126   5.184   7.614   4.644 -0.7338 -0.2416 -0.1521
   12PRO     HA  127   5.133   7.609   4.739 -0.0873 -1.0695  0.1653
   12PRO     CB  128   5.277   7.742   4.626  0.0374  1.1945  0.3300
   12PRO    HB1  129   5.240   7.832   4.679 -0.6639  0.3907  1.2664
   12PRO    HB2  130   5.284   7.760   4.517 -1.4365 -1.2117 -0.2461
   12PRO     CG  131   5.411   7.695   4.680 -0.4951 -0.1135 -0.4497
   12PRO    HG1  132   5.498   7.754   4.646 -0.5046 -1.3515 -2.8398
   12PRO    HG2  133   5.395   7.690   4.790 -0.9348 -0.5050 -0.5311
   12PRO      C  134   5.077   7.621   4.529 -0.2690  0.2772 -0.1121
   12PRO      O  135   5.094   7.568   4.420  0.3162  1.4330 -0.5393
   13GLY      N  136   4.957   7.670   4.558  0.1988 -0.2770 -0.6524
   13GLY     HN  137   4.938   7.708   4.648 -1.8384 -3.5809  0.4794
   13GLY     CA  138   4.845   7.665   4.469 -0.5232 -0.3995  0.7320
   13GLY    HA1  139   4.873   7.681   4.366 -0.0685 -0.8849  0.7726
   13GLY    HA2  140   4.777   7.736   4.512 -0.2032  0.1238  0.3797
   13GLY      C  141   4.770   7.533   4.476  0.3933  0.0499 -0.4400
   13GLY      O  142   4.824   7.431   4.529  0.2205  0.3296  0.4847
   14ASN      N  143   4.650   7.537   4.419  0.3280  0.1536  0.3026
   14ASN     HN  144   4.618   7.628   4.397 -1.7850 -0.1676  1.7872
   14ASN     CA  145   4.563   7.420   4.402  0.6185  0.0778  0.3376
   14ASN     HA  146   4.559   7.354   4.488  2.3684 -0.2948  0.1760
   14ASN     CB  147   4.421   7.461   4.361  1.0753 -0.0681  0.6167
   14ASN    HB1  148   4.364   7.368   4.345  0.2483  0.8169 -2.0447
   14ASN    HB2  149   4.420   7.524   4.270  0.1557  0.8810  1.2696
   14ASN     CG  150   4.351   7.542   4.468 -0.5690 -0.0656  0.0198
   14ASN    OD1  151   4.372   7.520   4.587 -0.0850  0.3817 -0.0237
   14ASN    ND2  152   4.270   7.639   4.431 -0.4932  0.6195 -0.5292
   14ASN   HD21  153   4.225   7.692   4.503  0.6228  1.7695 -0.6409
   14ASN   HD22  154   4.283   7.671   4.337  2.8568  1.0299 -0.0426
   14ASN      C  155   4.615   7.337   4.295 -0.3937  0.5846 -0.8090
   14ASN      O  156   4.653   7.398   4.198  0.4941 -0.0315 -0.2863
   15PRO      N  157   4.627   7.197   4.311  0.4884  0.3720  0.0210
   15PRO     CD  158   4.631   7.126   4.446 -0.3001  0.0519  0.8520
   15PRO    HD1  159   4.530   7.125   4.491 -0.3518  1.1309  0.7807
   15PRO    HD2  160   4.704   7.168   4.519 -0.0396 -3.2254  2.7151
   15PRO     CA  161   4.686   7.108   4.206  0.2635  0.1653 -0.8019
   15PRO     HA  162   4.776   7.157   4.170 -0.2967  1.3784 -0.6198
   15PRO     CB  163   4.707   6.969   4.267 -0.7127 -0.2074  0.2364
   15PRO    HB1  164   4.812   6.935   4.250 -0.4189  0.3431  0.8763
   15PRO    HB2  165   4.631   6.894   4.238 -2.1328  0.9017  0.9559
   15PRO     CG  166   4.692   6.986   4.423  0.1033  0.4427  0.4254
   15PRO    HG1  167   4.627   6.905   4.463 -2.3839  1.5711 -1.0535
   15PRO    HG2  168   4.794   6.966   4.462  0.4934  0.4692 -0.5553
   15PRO      C  169   4.595   7.088   4.087  0.2177 -0.7540 -0.0407
   15PRO    OT1  170   4.644   7.102   3.969 -0.4679  0.1559  0.1890
   15PRO    OT2  171   4.468   7.070   4.106 -0.2907  0.1887  0.3506
   16LIT    LIT  172   0.272   3.098   3.382  0.2797  0.9469 -0.0015
   17LIT    LIT  173   3.009   0.453   0.533 -0.5185 -0.6396  0.5370
   18LIT    LIT  174   7.367   7.349   0.385 -1.1969 -0.3623  0.2199
   19LIT    LIT  175   0.457   5.589   3.508  0.8122  0.1862  0.4028
   20LIT    LIT  176   7.566   7.733   2.578  0.0469 -0.1508 -0.5188
   21LIT    LIT  177   3.141   0.068   5.313 -0.4160  0.8550 -0.0998
   22LIT    LIT  178   6.979   7.771   2.981 -0.0614  1.1982  0.8577
   23LIT    LIT  179   2.921   1.589   2.005  0.0267  0.7812 -1.2113
   24LIT    LIT  180   5.511   6.473   2.714 -0.6034 -0.0580 -0.4529
   25LIT    LIT  181   4.583   3.690   0.415 -0.0015  0.1238  0.3971
   26LIT    LIT  182   0.463   5.707   2.978 -0.2142  0.6552 -0.2938
   27LIT    LIT  183   5.505   2.228   6.400  0.1716  0.1042 -1.0961
   28LIT    LIT  184   7.407   3.860   1.064 -0.3362 -0.0483 -0.0427
   29LIT    LIT  185   4.876   5.533   2.416 -0.4943 -0.5645 -0.4103
   30LIT    LIT  186   2.206   7.380   1.971 -0.6329  0.1103 -0.7470
   31LIT    LIT  187   1.408   4.589   2.427 -0.0552 -0.1644  1.3664
   32LIT    LIT  188   2.210   7.640   2.693  0.2367  0.0955 -0.5207
   33LIT    LIT  189   3.156   5.859   4.050  0.4584 -0.0731  0.1918
   34LIT    LIT  190   3.429   0.826   2.124  0.3535  0.5931  1.0505
   35LIT    LIT  191   0.042   4.991   2.361  0.5176  0.3544  0.4385
   36LIT    LIT  192   6.028   6.820   5.811  0.5266  0.1741 -0.1607
   37LIT    LIT  193   3.216   2.383   4.575  0.0351 -0.1992  0.7557
   38LIT    LIT  194   3.934   3.911   2.568  0.9248 -0.0899 -0.6099
   39LIT    LIT  195   1.877   4.125   0.212  0.5018 -1.1061  0.4537
   40LIT    LIT  196   2.756   4.398   0.273  0.7887 -0.4488  0.3740
   41LIT    LIT  197   0.070   4.005   6.036 -1.1574  0.3565  0.1953
   42LIT    LIT  198   5.723   4.489   0.713 -0.3859  0.3073  0.2148
   43LIT    LIT  199   4.804   7.187   3.898  0.0621  1.2738 -0.2768
   44LIT    LIT  200   2.791   0.447   1.003  0.0774 -1.3351 -0.7273
   45LIT    LIT  201   4.473   4.402   5.150 -0.7608  0.4980  0.6114
   46LIT    LIT  202   3.902   7.204   4.276  0.8480  0.2826 -0.0702
   47LIT    LIT  203   1.616   6.013   5.952  0.0767 -1.5329  0.5640
   48LIT    LIT  204   0.543   0.264   0.629  0.2759 -0.6502 -0.2938
   49LIT    LIT  205   4.008   0.440   5.279  0.2464 -0.5026  0.2864
   50LIT    LIT  206   6.536   2.964   0.274 -0.1091  0.2817 -0.4718
   51LIT    LIT  207   7.143   5.867   6.729 -0.1945  0.5811  0.4139
   52LIT    LIT  208   6.163   2.200   0.815 -0.6382 -0.6476  0.2001
   53LIT    LIT  209   3.851   5.057   0.179 -0.7287  0.2574 -0.9576
   54LIT    LIT  210   7.434   1.222   5.889 -0.3342 -0.5678  0.0958
   55LIT    LIT  211   0.124   7.780   2.148  0.9065 -0.1649  0.0067
   56LIT    LIT  212   1.673   0.492   6.326  0.0043  1.4392  0.0435
   57LIT    LIT  213   1.418   3.708   4.312  1.1013 -0.9103 -0.4125
   58CLA    CLA  214   6.747   0.227   4.598  0.3450  0.0100  0.2420
   59CLA    CLA  215   6.915   3.484   4.962 -0.1565  0.1478  0.5119
   60CLA    CLA  216   8.034   3.005   5.555 -0.1965 -0.3989 -0.4051
   61CLA    CLA  217   0.612   7.472   0.256 -0.0145 -0.1776 -0.0830
   62CLA    CLA  218   4.001   4.890   0.232  0.2759 -0.1265 -0.7360
   63CLA    CLA  219   4.329   4.549   2.656 -0.0980 -0.0836 -0.2324
   64CLA    CLA  220   6.253   7.266   1.291 -0.2042  0.0307  0.3128
   65CLA    CLA  221   4.496   0.869   1.469 -0.1494 -0.6110 -0.1686
   66CLA    CLA  222   7.491   5.378   3.998  0.0396 -0.1303  0.1233
   67CLA    CLA  223   8.282   3.642   1.193  0.3143 -0.0806  0.1545
   68CLA    CLA  224   1.599   1.631   6.250 -0.2138 -0.1144  0.1893
   69CLA    CLA  225   6.692   2.824   0.181 -0.1220  0.1023 -0.3048
   70CLA    CLA  226   2.493   3.108   2.331  0.1606 -0.0102 -0.1859
   71CLA    CLA  227   4.183   3.691   4.099  0.2539  0.3097 -0.1028
   72CLA    CLA  228   1.895   4.171   2.555 -0.0992  0.6280 -0.5030
   73CLA    CLA  229   1.647   6.251   0.202  0.2748  0.3438 -0.2407
   74CLA    CLA  230   7.322   1.896   0.063  0.0712 -0.1291  0.0091
   75CLA    CLA  231   6.845   4.503   6.708  0.1231  0.3580  0.1881
   76CLA    CLA  232   3.090   2.999   5.143 -0.3254  0.3506  0.1341
   77CLA    CLA  233   1.143   0.304   4.047 -0.2888  0.2195 -0.0916
   78CLA    CLA  234   3.374   4.737   1.818  0.1460 -0.2828  0.1635
   79CLA    CLA  235   0.781   0.582   4.146 -0.0152  0.0003  0.2082
   80CLA    CLA  236   0.456   3.487   4.456  0.1904 -0.3052 -0.6165
   81CLA    CLA  237   2.174   2.703   3.107 -0.0505 -0.3084 -0.2755
   82CLA    CLA  238   1.805   2.723   4.434  0.0207 -0.2651  0.2259
   83CLA    CLA  239   2.353   0.492   2.838  0.1976  0.3400  0.0987
   84CLA    CLA  240   1.679   5.438   2.989 -0.1454  0.0280 -0.5558
   85CLA    CLA  241   1.400   7.796   5.587  0.4738  0.1394  0.1972
   86CLA    CLA  242   1.996   7.215   3.561 -0.5852  0.1714  0.2342
   87CLA    CLA  243   4.691   5.554   3.378  0.0988 -0.3199 -0.1112
   88CLA    CLA  244   4.515   0.307   5.772  0.3670  0.0701  0.1615
   89CLA    CLA  245   2.451   7.622   1.607 -0.4545  0.1257 -0.1373
   90CLA    CLA  246   5.943   4.596   5.951  0.2184 -0.0476 -0.3871
   91CLA    CLA  247   5.933   5.717   2.667  0.3051 -0.1901 -0.1261
   92CLA    CLA  248   1.837   0.623   0.141 -0.2971  0.0615 -0.1579
   93CLA    CLA  249   4.422   4.531   4.966 -0.3526 -0.3700  0.0954
   94CLA    CLA  250   0.083   7.595   0.731 -0.3220  0.0020 -0.3045
   95CLA    CLA  251   1.981   2.770   5.799  0.1306 -0.0783  0.6038
   96CLA    CLA  252   7.331   0.946   1.450 -0.2872  0.0046  0.0790
   97CLA    CLA  253   7.333   5.490   0.198 -0.1560 -0.1793 -0.2044
   98CLA    CLA  254   1.104   0.211   2.250  0.0453 -0.0031 -0.0544
   99CLA    CLA  255   0.852   1.724   5.725  0.0716 -0.0838  0.4696
  100TIP3   OH2  256   0.001   4.475   5.181  0.2710  0.0526 -0.1312
  100TIP3    H1  257   0.022   4.388   5.213  0.1702  0.2898  0.5883
  100TIP3    H2  258   0.080   4.504   5.136  0.0831 -0.6694 -0.9688
  101TIP3   OH2  259   3.898   5.120   3.217 -0.2599  0.1476  0.0636
  101TIP3    H1  260   3.942   5.067   3.284 -0.3655 -1.3410 -0.9817
  101TIP3    H2  261   3.896   5.063   3.140 -2.7223  0.6921 -0.3529
  102TIP3   OH2  262   4.601   7.258   2.797 -0.1908  0.3249  0.6575
  102TIP3    H1  263   4.690   7.235   2.770  0.1331  0.5370  1.5032
  102TIP3    H2  264   4.555   7.279   2.715  0.0935 -1.2477  0.0621
  103TIP3   OH2  265   7.374   2.798   1.695  0.0349  0.0296  0.0664
  103TIP3    H1  266   7.371   2.810   1.790 -0.4733  0.3306  0.0145
  103TIP3    H2  267   7.468   2.792   1.675  0.1932  0.9751  0.4620
  104TIP3   OH2  268   5.244   5.522   1.614 -0.0018 -0.8163  0.4689
  104TIP3    H1  269   5.225   5.603   1.662  2.9328  0.1554  0.1780
  104TIP3    H2  270   5.170   5.465   1.634 -0.7325  0.8611  3.1013
  105TIP3   OH2  271   6.518   6.511   5.488  0.2317 -0.0263 -0.2065
  105TIP3    H1  272   6.563   6.441   5.535  1.1612  1.2133  0.8200
  105TIP3    H2  273   6.587   6.556   5.439 -0.2456  0.5490 -0.3652
  106TIP3   OH2  274   7.123   1.371   6.386 -0.6064  0.2222 -0.5237
  106TIP3    H1  275   7.067   1.302   6.350  0.4124  0.1246 -1.9880
  106TIP3    H2  276   7.203   1.325   6.413 -0.6625  0.5698  0.2856
  107TIP3   OH2  277   2.302   4.909   1.975 -0.2371 -0.2689 -0.0025
  107TIP3    H1  278   2.210   4.897   1.951  0.0613 -1.7714 -0.4502
  107TIP3    H2  279   2.310   4.869   2.061 -0.0503  0.0647  0.1361
  108TIP3   OH2  280   7.774   7.126   3.667  0.2867  0.4710  0.5424
  108TIP3    H1  281   7.702   7.074   3.703 -0.3618 -0.4168 -1.8372
  108TIP3    H2  282   7.832   7.141   3.741 -0.7365 -1.5426  1.8529
  109TIP3   OH2  283   5.888   6.392   6.498 -0.5487 -0.0497 -0.3086
  109TIP3    H1  284   5.940   6.417   6.575 -0.8554  5.4685 -1.4806
  109TIP3    H2  285   5.799   6.418   6.519 -1.0621 -0.5307 -1.7373
  110TIP3   OH2  286   2.358   5.415   1.898  0.5438 -0.1744  0.6188
  110TIP3    H1  287   2.329   5.324   1.904 -0.0097 -0.0229  0.3704
  110TIP3    H2  288   2.395   5.423   1.810  1.2853 -0.3469  0.9070
  111TIP3   OH2  289   1.448   0.322   0.598 -0.5453  0.0459  0.8633
  111TIP3    H1  290   1.354   0.339   0.588 -0.6763  0.0581  2.0003
  111TIP3    H2  291   1.485   0.406   0.625 -0.3680 -0.2054  1.4088
  112TIP3   OH2  292   7.197   1.099   1.689  0.1479 -0.5503 -0.0859
  112TIP3    H1  293   7.231   1.061   1.608  2.7876 -1.4550  1.3298
  112TIP3    H2  294   7.153   1.026   1.733  0.3882 -0.5497  0.1546
  113TIP3   OH2  295   8.286   2.608   1.719 -0.1257  0.0487  0.4416
  113TIP3    H1  296   8.368   2.604   1.767  0.6338  0.4662 -0.7827
  113TIP3    H2  297   8.236   2.532   1.750  0.8458 -0.3904  0.9639
  114TIP3   OH2  298   2.155   7.767   5.097  0.2659  0.1777  0.0605
  114TIP3    H1  299   2.233   7.785   5.151 -0.4989 -0.1394  1.3123
  114TIP3    H2  300   2.188   7.719   5.021  1.2924  0.0703  0.5638
  115TIP3   OH2  301   7.476   5.982   6.474  0.2667  0.0493 -0.4937
  115TIP3    H1  302   7.445   6.059   6.426 -1.4512  0.2071  0.7762
  115TIP3    H2  303   7.489   5.915   6.406  0.4364  1.0241 -1.4521
  116TIP3   OH2  304   1.514   0.783   0.765 -0.3778 -0.1503  0.2952
  116TIP3    H1  305   1.540   0.868   0.730 -2.0303  0.5976  0.7961
  116TIP3    H2  306   1.519   0.794   0.860 -0.8661 -0.5300  0.3656
  117TIP3   OH2  307   6.906   5.059   6.725 -0.3404 -0.1596 -0.0692
  117TIP3    H1  308   6.880   5.086   6.813  1.3766 -1.0190  0.7477
  117TIP3    H2  309   6.899   4.964   6.726 -0.2474 -0.1819 -0.8415
  118TIP3   OH2  310   7.142   1.602   5.070  0.2504  0.1371  0.1003
  118TIP3    H1  311   7.077   1.640   5.010  0.7630 -0.5927 -0.9678
  118TIP3    H2  312   7.213   1.666   5.071  0.0635  0.3430  0.2481
  119TIP3   OH2  313   3.373   4.155   5.874  0.0531  0.7818 -0.5231
  119TIP3    H1  314   3.398   4.237   5.918 -2.0730  2.0635 -1.5282
  119TIP3    H2  315   3.313   4.112   5.934  0.7535  0.2123 -0.2248
  120TIP3   OH2  316   1.661   0.062   1.591 -0.3777  0.2867  0.0255
  120TIP3    H1  317   1.604   0.131   1.557  0.5095  1.1183  0.2116
  120TIP3    H2  318   1.733   0.057   1.529 -0.8832 -1.1137 -0.4792
  121TIP3   OH2  319   3.880   4.748   6.480  0.3488 -0.2095  0.4008
  121TIP3    H1  320   3.888   4.652   6.476  0.7327 -0.1870  0.6315
  121TIP3    H2  321   3.872   4.767   6.574 -2.8493 -0.2683  0.2508
  122TIP3   OH2  322   0.507   2.592   3.770  0.3431 -0.2681 -0.2147
  122TIP3    H1  323   0.454   2.545   3.834 -1.4738  0.9613 -0.7336
  122TIP3    H2  324   0.507   2.683   3.802  2.7117 -0.3135  0.1013
  123TIP3   OH2  325   7.457   0.624   3.236  0.1077 -0.4747  0.5394
  123TIP3    H1  326   7.460   0.709   3.192 -1.7303 -1.1447 -1.0703
  123TIP3    H2  327   7.543   0.614   3.277  0.8329  1.5519 -0.3711
  124TIP3   OH2  328   2.710   4.910   2.902 -0.1460 -0.2741  0.1952
  124TIP3    H1  329   2.752   4.985   2.859 -1.4571  0.4050  0.0646
  124TIP3    H2  330   2.682   4.854   2.829 -0.5117 -0.1486  0.2392
  125TIP3   OH2  331   1.876   2.979   6.145  0.3270  0.1537 -0.2428
  125TIP3    H1  332   1.931   3.004   6.220  1.7004 -0.1527 -1.0975
  125TIP3    H2  333   1.861   3.062   6.099  0.9288  0.1010 -0.5431
  126TIP3   OH2  334   7.099   3.686   0.631  0.7396 -0.1290 -0.1936
  126TIP3    H1  335   7.179   3.634   0.635  0.0095 -1.9587 -4.2980
  126TIP3    H2  336   7.114   3.748   0.560 -0.8875  0.6519  0.0946
  127TIP3   OH2  337   6.787   4.325   5.148 -0.1102 -0.3842 -0.3123
  127TIP3    H1  338   6.725   4.370   5.091  0.7070  0.6877 -0.3906
  127TIP3    H2  339   6.841   4.395   5.185  0.6095 -1.2296  0.2851
  128TIP3   OH2  340   7.334   0.412   2.267 -0.0331 -0.0356  1.2173
  128TIP3    H1  341   7.298   0.350   2.204  2.1899  1.8134 -2.1345
  128TIP3    H2  342   7.314   0.498   2.231  2.2428  1.0931  2.4294
  129TIP3   OH2  343   0.566   1.848   5.626 -0.1648  0.4304  0.2883
  129TIP3    H1  344   0.659   1.853   5.648  0.2020  1.3195 -1.2924
  129TIP3    H2  345   0.565   1.828   5.532 -1.5729  0.3116  0.3094
  130TIP3   OH2  346   7.861   3.578   3.927  0.3247  0.3885  0.5563
  130TIP3    H1  347   7.812   3.608   3.850 -0.5006  0.3145  1.0463
  130TIP3    H2  348   7.911   3.503   3.896  0.6580  0.8776 -0.1175
  131TIP3   OH2  349   3.963   7.721   3.436  0.2962  0.1352 -0.1505
  131TIP3    H1  350   3.991   7.760   3.353  1.2165  1.5900  0.7946
  131TIP3    H2  351   4.023   7.758   3.501 -0.5833 -0.7480  1.2111
  132TIP3   OH2  352   7.015   7.063   2.824 -0.0315 -0.8033 -0.3952
  132TIP3    H1  353   6.994   7.147   2.866 -0.1117  0.2161 -2.3654
  132TIP3    H2  354   7.103   7.042   2.856 -0.4082 -0.4948  0.8973
  133TIP3   OH2  355   3.346   7.765   2.383 -0.3707 -0.0265 -0.2597
  133TIP3    H1  356   3.372   7.739   2.471 -0.5022  0.1903 -0.1566
  133TIP3    H2  357   3.272   7.710   2.361 -0.4042 -0.0068 -0.1942
  134TIP3   OH2  358   4.663   0.203   3.826 -0.1922  0.0829  0.3965
  134TIP3    H1  359   4.731   0.256   3.866 -0.9925  1.6628 -0.2450
  134TIP3    H2  360   4.657   0.235   3.736 -0.3049 -1.5144 -0.1970
  135TIP3   OH2  361   4.320   1.596   1.829 -0.4089  0.7099  0.0451
  135TIP3    H1  362   4.365   1.560   1.753  0.2241  2.2276 -0.3436
  135TIP3    H2  363   4.326   1.528   1.896  2.1594  0.6892 -0.1148
  136TIP3   OH2  364   3.111   3.292   1.991 -0.2242 -0.8593 -0.4320
  136TIP3    H1  365   3.053   3.297   2.067  1.0295 -1.1231  0.5844
  136TIP3    H2  366   3.199   3.290   2.028  0.5904  1.6910 -1.9779
  137TIP3   OH2  367   7.956   2.301   5.645  0.3254  0.0451 -0.2014
  137TIP3    H1  368   7.914   2.229   5.693  1.0679  0.4922  1.1693
  137TIP3    H2  369   8.045   2.303   5.679  0.5778  1.0360 -0.8923
  138TIP3   OH2  370   2.549   1.593   4.626  0.3208 -0.4319 -0.3076
  138TIP3    H1  371   2.538   1.510   4.672 -0.9782 -0.8883 -1.3526
  138TIP3    H2  372   2.637   1.622   4.649  1.5096 -2.9547 -1.2579
  139TIP3   OH2  373   8.205   0.386   5.215  0.3394  0.2006  0.0361
  139TIP3    H1  374   8.265   0.350   5.281  2.0699  0.1849 -1.4699
  139TIP3    H2  375   8.124   0.337   5.227  1.1212 -0.8829  1.1309
  140TIP3   OH2  376   5.856   0.042   4.753 -0.1310 -0.5673 -0.1542
  140TIP3    H1  377   5.920   0.012   4.688  0.4046 -1.5696  0.7863
  140TIP3    H2  378   5.805  -0.037   4.774 -0.2807 -0.2650  0.6563
  141TIP3   OH2  379   7.195   1.585   6.246 -0.0788 -0.3800 -0.2311
  141TIP3    H1  380   7.164   1.517   6.306 -1.3804  0.8784  0.5684
  141TIP3    H2  381   7.243   1.537   6.178  0.2425 -1.9601  1.0599
  142TIP3   OH2  382   4.730   5.882   6.612 -0.2036 -0.6228 -0.1370
  142TIP3    H1  383   4.815   5.862   6.652  0.1623 -0.8611 -1.0242
  142TIP3    H2  384   4.732   5.839   6.527 -0.7825  0.2967 -0.6337
  143TIP3   OH2  385   2.558   7.169   0.996 -0.0951  0.0297 -0.1330
  143TIP3    H1  386   2.491   7.237   1.004  0.2168  0.2166  1.0768
  143TIP3    H2  387   2.527   7.112   0.926 -0.4479  1.3219 -1.0629
  144TIP3   OH2  388   5.552   1.555   1.316  1.0151 -0.3745  0.6671
  144TIP3    H1  389   5.602   1.558   1.235 -0.7047 -1.2072 -0.4883
  144TIP3    H2  390   5.541   1.647   1.342  0.7043 -0.0295 -0.6307
  145TIP3   OH2  391   2.026   1.301   4.460 -0.1110 -0.3858 -0.6650
  145TIP3    H1  392   2.064   1.256   4.385  2.3132  2.0596 -1.0558
  145TIP3    H2  393   2.098   1.311   4.522 -1.4690 -0.2330  0.9576
  146TIP3   OH2  394   7.427   7.689   2.449 -0.2889  0.5146 -0.8909
  146TIP3    H1  395   7.440   7.628   2.376  0.4897  1.2241 -1.3654
  146TIP3    H2  396   7.336   7.717   2.442 -1.5614 -2.6220  0.9591
  147TIP3   OH2  397   7.605   3.880   2.839  0.3803  0.4101 -0.5184
  147TIP3    H1  398   7.587   3.820   2.767 -0.0435 -1.0869  0.7766
  147TIP3    H2  399   7.678   3.840   2.886  1.0570  1.6802 -0.4391
  148TIP3   OH2  400   5.581   3.934   0.229  0.2594 -0.0407 -0.4016
  148TIP3    H1  401   5.537   3.868   0.283  0.1053 -0.6681 -1.2634
  148TIP3    H2  402   5.643   3.883   0.177  1.0696  0.6706 -0.1502
  149TIP3   OH2  403   0.280   7.273   5.093 -0.4263  0.3641  0.5244
  149TIP3    H1  404   0.233   7.255   5.175 -0.3713 -0.8710  0.2936
  149TIP3    H2  405   0.217   7.252   5.025 -0.0430  0.1562  0.2323
  150TIP3   OH2  406   2.928   3.749   5.539 -0.1067 -0.0663  0.1175
  150TIP3    H1  407   2.849   3.696   5.536  0.0866 -0.3585  0.1547
  150TIP3    H2  408   2.928   3.788   5.626 -0.1645 -0.1341  0.1479
  151TIP3   OH2  409   4.056   4.691   0.635 -0.2982 -0.2448  0.5921
  151TIP3    H1  410   3.967   4.658   0.638 -0.2391 -0.5564 -0.6182
  151TIP3    H2  411   4.110   4.620   0.669 -0.5168  0.0646  1.6406
  152TIP3   OH2  412   2.468   6.906   0.570  0.4740  0.0110 -0.3470
  152TIP3    H1  413   2.411   6.829   0.570  1.1404 -0.5469  1.8059
  152TIP3    H2  414   2.454   6.946   0.484  0.6789 -2.9116 -1.8653
  153TIP3   OH2  415   7.600  -0.010   2.442  0.0392 -0.8917  0.4286
  153TIP3    H1  416   7.588  -0.028   2.535 -0.0478 -0.9803  0.4003
  153TIP3    H2  417   7.569   0.080   2.431  1.5769 -0.2860  0.7924
  154TIP3   OH2  418   5.749   5.204   6.743  0.3808  0.1525  0.4149
  154TIP3    H1  419   5.806   5.127   6.745 -0.7180 -0.6720  0.9341
  154TIP3    H2  420   5.661   5.168   6.733 -0.1087  1.3777  0.1968
  155TIP3   OH2  421   4.538   6.526   2.315 -0.1868 -0.2779 -0.5465
  155TIP3    H1  422   4.582   6.508   2.232  0.3923  0.4395 -0.4133
  155TIP3    H2  423   4.609   6.543   2.377 -0.6204  1.4327 -0.4486
  156TIP3   OH2  424   4.289   6.496   3.232 -0.2364 -0.3976  0.3456
  156TIP3    H1  425   4.199   6.517   3.211 -0.0879  1.0048  1.0270
  156TIP3    H2  426   4.338   6.516   3.152 -0.5788 -1.7046 -0.2155
  157TIP3   OH2  427   6.927   0.452   2.290  0.9765  0.1867 -0.3301
  157TIP3    H1  428   6.863   0.447   2.361  1.0525  0.9617 -0.2004
  157TIP3    H2  429   6.911   0.536   2.249  0.7167 -0.3958 -1.4615
  158TIP3   OH2  430   6.418   2.293   4.548 -0.0874 -0.2171  0.9566
  158TIP3    H1  431   6.439   2.321   4.458 -1.3966 -0.3851  0.5801
  158TIP3    H2  432   6.447   2.201   4.551  1.3708  0.2142  1.2225
  159TIP3   OH2  433   5.274   4.306   4.584 -0.5465  0.3099  0.0164
  159TIP3    H1  434   5.217   4.247   4.535 -0.2974  1.2050 -1.4021
  159TIP3    H2  435   5.362   4.290   4.548 -0.4720  1.5162 -0.3653
  160TIP3   OH2  436   1.118   7.175   1.899 -0.0577  0.0596 -0.4089
  160TIP3    H1  437   1.156   7.209   1.818  1.3273 -0.5239 -0.0432
  160TIP3    H2  438   1.048   7.116   1.870 -1.1323  1.5845 -1.0883
  161TIP3   OH2  439   2.215   7.687   6.702  0.3903  0.6190 -0.2108
  161TIP3    H1  440   2.251   7.770   6.733 -0.7914  0.8257  0.6793
  161TIP3    H2  441   2.169   7.651   6.778 -1.1705  0.3225 -1.2479
  162TIP3   OH2  442   4.735   2.839   3.372  0.3400  0.1746 -0.7732
  162TIP3    H1  443   4.760   2.846   3.280  0.4356 -0.1240 -0.7727
  162TIP3    H2  444   4.683   2.759   3.376  2.9489 -1.6150 -0.0224
  163TIP3   OH2  445   7.615   5.706   2.743 -0.5118 -0.0865  0.9773
  163TIP3    H1  446   7.615   5.702   2.648 -1.4202 -1.2340  0.9898
  163TIP3    H2  447   7.592   5.796   2.764  0.7803  0.4702  0.1401
  164TIP3   OH2  448   2.039   4.651   3.430 -0.0121  0.1392 -0.2880
  164TIP3    H1  449   2.120   4.648   3.380  0.0736 -0.6677 -0.1250
  164TIP3    H2  450   2.024   4.560   3.456 -0.3252  0.4619  0.7149
  165TIP3   OH2  451   2.518   5.249   5.623  0.0034  0.1273  0.1865
  165TIP3    H1  452   2.491   5.305   5.696 -0.7367  0.6719 -0.4809
  165TIP3    H2  453   2.590   5.297   5.581  0.8369 -0.4743  0.9075
  166TIP3   OH2  454   1.585   5.684   2.305 -0.3074  0.6586 -0.1442
  166TIP3    H1  455   1.583   5.594   2.334 -0.5562  0.7559  0.1424
  166TIP3    H2  456   1.586   5.678   2.209  2.7588  0.2883 -0.1787
  167TIP3   OH2  457   5.148   6.968   1.594 -0.4229 -0.0102 -0.4820
  167TIP3    H1  458   5.061   6.981   1.633 -0.7264 -0.9371 -0.8165
  167TIP3    H2  459   5.209   6.979   1.666 -0.6360  2.6272 -0.5950
  168TIP3   OH2  460   5.241   7.189   6.026  0.8815 -0.1208  0.0866
  168TIP3    H1  461   5.272   7.108   6.066 -1.0611 -1.6978 -1.3769
  168TIP3    H2  462   5.178   7.225   6.089 -0.2779 -1.2534 -0.3734
  169TIP3   OH2  463   0.373   5.901   0.282  0.1338 -0.2665  0.2907
  169TIP3    H1  464   0.424   5.939   0.354 -0.3112  0.9177 -0.0012
  169TIP3    H2  465   0.333   5.823   0.320  1.0319 -0.4407  0.9237
  170TIP3   OH2  466   5.782   1.240   0.916 -1.2377  0.0861 -0.2787
  170TIP3    H1  467   5.773   1.164   0.859 -0.9776 -0.3230  0.2175
  170TIP3    H2  468   5.844   1.297   0.871  0.9066 -1.3387  0.7158
  171TIP3   OH2  469   3.122   1.860   1.533 -0.1588 -0.5693 -0.5072
  171TIP3    H1  470   3.213   1.846   1.505 -0.2436  0.0226 -1.0926
  171TIP3    H2  471   3.125   1.852   1.629  0.6610  0.2489 -0.4463
  172TIP3   OH2  472   7.586   0.642   4.380  0.2709  0.0305 -0.2045
  172TIP3    H1  473   7.618   0.689   4.457  0.8502 -0.2043 -0.2970
  172TIP3    H2  474   7.593   0.705   4.308 -1.2625  0.6020  0.1111
  173TIP3   OH2  475   4.820   5.627   2.836 -0.1181 -0.6411 -0.6539
  173TIP3    H1  476   4.856   5.688   2.901 -0.7205 -1.5903  0.6009
  173TIP3    H2  477   4.742   5.672   2.803  0.2543 -0.1042 -0.8338
  174TIP3   OH2  478   0.626   1.671   5.974 -0.0748  0.0233  0.2204
  174TIP3    H1  479   0.576   1.628   5.904 -0.5047 -1.2081  1.2396
  174TIP3    H2  480   0.705   1.702   5.930 -0.4482 -0.4904 -0.8713
  175TIP3   OH2  481   6.429   7.636   6.382 -0.3857  0.1990 -0.5079
  175TIP3    H1  482   6.493   7.595   6.324  0.3985  1.3450 -0.4856
  175TIP3    H2  483   6.360   7.666   6.324 -1.0031 -1.1429 -0.5205
  176TIP3   OH2  484   1.849   3.649   5.480  0.2215  0.0483 -0.2377
  176TIP3    H1  485   1.911   3.616   5.545 -1.5914  0.1859  1.6815
  176TIP3    H2  486   1.775   3.588   5.485 -0.5761  0.9058 -1.1316
  177TIP3   OH2  487   1.680   7.336   6.763  0.1842 -0.0562 -1.3263
  177TIP3    H1  488   1.751   7.346   6.701 -0.0400  1.6967 -1.3485
  177TIP3    H2  489   1.616   7.281   6.718  0.4992  0.3028 -2.2284
  178TIP3   OH2  490   6.223   0.190   6.798  0.4266  0.1131  0.6390
  178TIP3    H1  491   6.169   0.135   6.740  1.1278 -0.8415  0.8646
  178TIP3    H2  492   6.248   0.264   6.743  1.5446 -1.0484 -0.5095
  179TIP3   OH2  493   8.018   3.860   6.411  0.0498 -0.1831  0.3198
  179TIP3    H1  494   8.036   3.896   6.324  2.2607  1.9683  1.5078
  179TIP3    H2  495   8.035   3.933   6.471 -2.8591 -1.1229  2.5400
  180TIP3   OH2  496   0.384   3.925   5.133  0.1140 -0.1256  0.2509
  180TIP3    H1  497   0.295   3.945   5.162  0.3793  0.3006  0.7851
  180TIP3    H2  498   0.372   3.882   5.048 -0.5520  0.9184 -0.2080
  181TIP3   OH2  499   6.476   1.011   2.381  0.6990  0.7521  0.4488
  181TIP3    H1  500   6.391   0.994   2.421  0.8163 -1.7286 -0.2083
  181TIP3    H2  501   6.466   1.096   2.337 -1.7631  0.0922 -0.4104
  182TIP3   OH2  502   0.437   5.010   5.228 -0.3241  0.0159 -0.2449
  182TIP3    H1  503   0.414   4.992   5.319 -2.0576 -1.9450 -0.9948
  182TIP3    H2  504   0.514   4.955   5.211  0.7594  1.3063  0.3312
  183TIP3   OH2  505   1.153   3.448   5.468 -0.1932  0.1696  0.4610
  183TIP3    H1  506   1.095   3.504   5.417  0.2472 -0.4982 -0.8392
  183TIP3    H2  507   1.223   3.506   5.497 -0.2092  0.4741 -0.1034
  184TIP3   OH2  508   6.764   6.541   3.027  0.0207  0.6207 -0.7002
  184TIP3    H1  509   6.749   6.620   3.078 -0.6737 -1.3387  2.4649
  184TIP3    H2  510   6.685   6.532   2.973 -2.2612 -0.2403  2.4695
  185TIP3   OH2  511   6.026   1.854   5.648 -0.5076 -0.1908 -0.1564
  185TIP3    H1  512   6.098   1.916   5.636 -0.4237 -0.1348  0.5615
  185TIP3    H2  513   5.983   1.850   5.563 -1.3291  1.8728  0.0825
  186TIP3   OH2  514   0.938   4.602   6.615 -0.1781  0.8298 -0.4228
  186TIP3    H1  515   0.908   4.559   6.695 -0.3004  0.9392 -0.4089
  186TIP3    H2  516   0.979   4.533   6.564  0.4376  0.8756 -0.0008
  187TIP3   OH2  517   7.962   2.601   4.818  0.2356 -0.0950  0.4208
  187TIP3    H1  518   7.920   2.515   4.814  1.4422 -0.9298  3.2970
  187TIP3    H2  519   7.901   2.655   4.868 -0.8446  1.0489 -1.9521
  188TIP3   OH2  520   4.390   3.599   4.948  0.2548  0.5873 -0.2032
  188TIP3    H1  521   4.429   3.662   5.008  0.5337 -1.5376  2.0245
  188TIP3    H2  522   4.296   3.600   4.968  0.3808 -0.3050  0.5086
  189TIP3   OH2  523   0.920   7.495   0.273  0.0331 -0.7337 -0.4102
  189TIP3    H1  524   0.958   7.419   0.230 -1.1301 -0.6687 -1.6146
  189TIP3    H2  525   0.825   7.479   0.270 -0.1719  0.2512  0.3033
  190TIP3   OH2  526   3.014   1.971   5.747  0.1578 -0.4045  0.0944
  190TIP3    H1  527   3.013   2.003   5.837 -0.5319 -0.6203  0.1710
  190TIP3    H2  528   2.924   1.942   5.731  0.1834 -0.0339 -0.7841
  191TIP3   OH2  529   0.685   1.107   1.185 -0.2976 -0.5757 -0.1992
  191TIP3    H1  530   0.684   1.082   1.277  1.8520  0.0786  0.0500
  191TIP3    H2  531   0.776   1.096   1.158 -0.3790  1.5242 -1.5746
  192TIP3   OH2  532   1.647   0.427   4.088 -0.4871 -0.6409 -0.1628
  192TIP3    H1  533   1.690   0.461   4.009  1.0422  0.0972  0.9411
  192TIP3    H2  534   1.588   0.359   4.055 -0.6990  0.3863 -2.0396
  193TIP3   OH2  535   5.301   1.552   2.146  0.0615  0.0662  1.0237
  193TIP3    H1  536   5.386   1.550   2.190 -0.8242 -0.9461  2.8093
  193TIP3    H2  537   5.242   1.591   2.210 -1.0806 -0.5102  0.3490
  194TIP3   OH2  538   1.358   3.286   1.332  0.8418  0.3937 -0.5286
  194TIP3    H1  539   1.275   3.297   1.378 -0.1004  2.4708 -2.5146
  194TIP3    H2  540   1.421   3.336   1.383  0.7761 -0.6755  0.6467
  195TIP3   OH2  541   8.162   2.683   0.287  0.4433 -0.4297  0.0923
  195TIP3    H1  542   8.237   2.638   0.325  0.3273 -0.3970  0.3621
  195TIP3    H2  543   8.122   2.619   0.228  0.9681 -0.2876 -0.4355
  196TIP3   OH2  544   5.017   4.365   5.902  0.1896 -0.4605 -0.2655
  196TIP3    H1  545   4.961   4.366   5.979  0.2904  0.9884 -0.1859
  196TIP3    H2  546   5.095   4.317   5.929  0.3887  0.3612  0.6736
  197TIP3   OH2  547   5.985   1.006   5.966  0.0509  0.2440 -0.4926
  197TIP3    H1  548   5.974   1.019   5.872  2.2254  0.6015 -0.7461
  197TIP3    H2  549   5.992   0.911   5.976  1.1197  0.2746 -0.8780
  198TIP3   OH2  550   4.900   1.100   6.212 -1.0751 -0.2704  0.3167
  198TIP3    H1  551   4.897   1.006   6.232 -1.8044 -0.4234 -0.4677
  198TIP3    H2  552   4.816   1.118   6.170 -0.1671  0.3279 -1.3206
  199TIP3   OH2  553   3.006   7.660   3.272  0.0550 -0.1253 -0.1962
  199TIP3    H1  554   2.988   7.753   3.285 -0.0981 -0.1761 -0.0289
  199TIP3    H2  555   3.066   7.637   3.343 -2.7049 -0.9699  2.0760
  200TIP3   OH2  556   7.068   2.503   1.623  0.0606  0.2178 -0.1426
  200TIP3    H1  557   7.047   2.425   1.572 -0.2708  0.6798 -0.7206
  200TIP3    H2  558   7.163   2.505   1.626  0.0652 -0.5524  0.4117
  201TIP3   OH2  559   2.619   4.495   1.124  0.1561 -0.0108 -0.0716
  201TIP3    H1  560   2.663   4.413   1.145 -0.8249 -0.3846  0.5781
  201TIP3    H2  561   2.689   4.561   1.128  1.6961 -1.1561 -3.8163
  202TIP3   OH2  562   6.987   1.464   5.894 -0.0506 -0.1300  0.5393
  202TIP3    H1  563   6.933   1.478   5.816 -0.1538 -1.5121  0.3386
  202TIP3    H2  564   7.072   1.500   5.871  0.1917 -1.3267 -0.5850
  203TIP3   OH2  565   2.916   0.579   6.694 -0.9703  0.2895 -0.2876
  203TIP3    H1  566   2.987   0.637   6.724 -0.6640  0.2526 -0.9148
  203TIP3    H2  567   2.922   0.503   6.751 -0.6912  0.4166 -0.1417
  204TIP3   OH2  568   4.270   2.049   4.285 -0.7687 -0.4560 -0.4981
  204TIP3    H1  569   4.219   2.130   4.274 -0.2493 -0.0786 -0.1801
  204TIP3    H2  570   4.278   2.038   4.380 -2.0546 -1.6715 -0.5112
  205TIP3   OH2  571   2.585   0.020   2.395  0.0074 -0.1994  0.3804
  205TIP3    H1  572   2.575   0.112   2.420  0.7923 -0.1581  0.5767
  205TIP3    H2  573   2.616  -0.023   2.475 -1.8776 -0.9519  0.7480
  206TIP3   OH2  574   2.683   1.352   6.319  0.4508 -0.0251  0.1176
  206TIP3    H1  575   2.714   1.442   6.323 -0.5314  0.3375 -0.2233
  206TIP3    H2  576   2.601   1.352   6.369  0.4664 -0.7365  0.1620
  207TIP3   OH2  577   1.832   4.627   2.164  0.2262  1.1052  0.0928
  207TIP3    H1  578   1.827   4.558   2.229  0.6048 -0.7454 -1.7568
  207TIP3    H2  579   1.845   4.582   2.080 -0.5431  3.3502 -1.3505
  208TIP3   OH2  580   3.149   2.009   6.013 -0.6914  0.2594 -0.1412
  208TIP3    H1  581   3.161   2.103   6.027  0.4473  0.1044 -0.0142
  208TIP3    H2  582   3.238   1.973   6.011 -1.0197 -0.5739 -1.9068
  209TIP3   OH2  583   5.321   6.748   2.245  0.1843  0.7124 -0.0596
  209TIP3    H1  584   5.331   6.765   2.338  0.6736 -0.3260  0.0830
  209TIP3    H2  585   5.313   6.653   2.238 -0.4034  0.8214 -1.0261
  210TIP3   OH2  586   0.533   6.953   6.636  0.4751 -0.3338  0.3291
  210TIP3    H1  587   0.480   6.971   6.714  0.5322  1.0464  0.0756
  210TIP3    H2  588   0.619   6.990   6.657  0.3157  0.6242 -0.6015
  211TIP3   OH2  589   2.189   2.951   2.729 -0.3146  0.3887  0.5384
  211TIP3    H1  590   2.234   3.018   2.678  0.7650 -0.0650  0.8603
  211TIP3    H2  591   2.141   3.001   2.796 -2.0166  1.0067 -1.0635
  212TIP3   OH2  592   7.669   1.947   0.356  0.5239 -0.7991 -0.7176
  212TIP3    H1  593   7.637   2.025   0.310  1.4759 -0.8407 -1.4879
  212TIP3    H2  594   7.730   1.907   0.295  0.8883 -1.5427  0.1148
  213TIP3   OH2  595   0.962   2.661   0.637 -0.3556 -0.0969  0.4746
  213TIP3    H1  596   0.870   2.667   0.664 -0.2679 -0.7377  0.9252
  213TIP3    H2  597   1.002   2.741   0.669 -0.6741  0.0131  0.5996
  214TIP3   OH2  598   3.173   4.078   0.819  0.5817 -0.6411 -0.1285
  214TIP3    H1  599   3.195   3.991   0.787 -0.2341 -1.0109  0.2866
  214TIP3    H2  600   3.078   4.077   0.827  0.6104  0.1140  0.3959
  215TIP3   OH2  601   6.794   5.637   3.201 -0.3560  0.3053 -0.4216
  215TIP3    H1  602   6.889   5.631   3.197 -0.2259  1.1941  0.6801
  215TIP3    H2  603   6.763   5.547   3.188  0.7284 -0.3546  1.2719
  216TIP3   OH2  604   5.659   0.823   5.778 -0.3677 -0.8897 -0.3003
  216TIP3    H1  605   5.648   0.905   5.827  1.2577 -1.8990  1.9057
  216TIP3    H2  606   5.747   0.828   5.742  0.9217 -2.8121  2.3257
  217TIP3   OH2  607   2.403   6.136   6.436 -0.2162  0.4076  0.5612
  217TIP3    H1  608   2.342   6.074   6.476  0.2599  0.7451  1.8709
  217TIP3    H2  609   2.489   6.096   6.449  0.0665  1.1655  1.1292
  218TIP3   OH2  610   5.905   5.935   1.132 -0.1625  0.5133  0.2689
  218TIP3    H1  611   5.939   5.943   1.221 -0.2416 -0.2410  0.3764
  218TIP3    H2  612   5.866   6.021   1.114  0.4642  0.8974  0.6977
  219TIP3   OH2  613   4.567   1.670   0.615 -0.3919 -0.4685  0.2427
  219TIP3    H1  614   4.626   1.746   0.623  1.7141 -1.7646 -1.6979
  219TIP3    H2  615   4.550   1.644   0.705 -0.3567  1.6902  0.9411
  220TIP3   OH2  616   7.085   5.907   0.616 -0.1570  0.3911 -0.2685
  220TIP3    H1  617   7.094   5.998   0.586 -2.9007  0.8741  0.0855
  220TIP3    H2  618   7.079   5.856   0.536 -3.6983  1.2260 -0.6819
  221TIP3   OH2  619   1.506   7.859   2.889  0.3363 -0.1266 -0.4064
  221TIP3    H1  620   1.544   7.792   2.946 -1.0477  0.0233  0.7456
  221TIP3    H2  621   1.411   7.846   2.897  0.0848  0.7283 -1.6943
  222TIP3   OH2  622   0.908   5.606   4.765 -0.0433  0.0884  0.3589
  222TIP3    H1  623   0.993   5.619   4.724 -0.0067  0.4885  0.5562
  222TIP3    H2  624   0.880   5.694   4.790 -0.3689 -0.0772  0.5822
  223TIP3   OH2  625   6.146   4.436   1.858  0.0470 -0.1617  0.1449
  223TIP3    H1  626   6.056   4.434   1.891 -0.1595  0.5940 -0.3611
  223TIP3    H2  627   6.198   4.397   1.929 -0.5543  0.2842  0.8445
  224TIP3   OH2  628   0.339   4.841   0.658 -0.0924 -0.4806 -0.5418
  224TIP3    H1  629   0.413   4.783   0.672  0.3600  0.1932 -0.1090
  224TIP3    H2  630   0.270   4.784   0.624 -0.0059 -1.4860  0.8758
  225TIP3   OH2  631   1.406   1.567   3.007 -0.2740 -0.4225 -0.2624
  225TIP3    H1  632   1.367   1.654   3.002 -0.0691 -0.3389 -0.4040
  225TIP3    H2  633   1.332   1.507   3.001 -0.4511 -0.2524  0.1899
  226TIP3   OH2  634   0.508   3.988   0.201  0.2704  0.1093  0.0967
  226TIP3    H1  635   0.564   4.040   0.143  0.6001 -0.4015 -0.0507
  226TIP3    H2  636   0.449   3.941   0.141  0.1029  0.1646  0.2179
  227TIP3   OH2  637   5.562   5.549   3.326  0.1102  0.2627 -0.9742
  227TIP3    H1  638   5.510   5.607   3.381 -0.7838 -1.2981 -0.1233
  227TIP3    H2  639   5.532   5.568   3.237  0.3490  1.5819 -0.8039
  228TIP3   OH2  640   5.775   5.294   4.925 -0.0484  0.2024 -0.0460
  228TIP3    H1  641   5.769   5.268   5.016  4.0972  0.2288  0.4472
  228TIP3    H2  642   5.718   5.234   4.878 -1.1194 -0.7780  2.3873
  229TIP3   OH2  643   7.830   5.708   5.544 -0.3802 -0.2183 -0.7726
  229TIP3    H1  644   7.776   5.655   5.486 -1.6368  0.2704 -0.0901
  229TIP3    H2  645   7.882   5.763   5.485  0.0024 -1.2825 -1.4555
  230TIP3   OH2  646   6.633   5.227   5.514 -1.1458  0.2111 -0.3567
  230TIP3    H1  647   6.632   5.279   5.434 -0.4501  1.1566  0.2240
  230TIP3    H2  648   6.636   5.136   5.484  1.2660  0.5702 -1.4593
  231TIP3   OH2  649   2.891   1.304   5.225  0.6225  0.3160 -0.4155
  231TIP3    H1  650   2.820   1.367   5.212  0.9182  0.7081 -0.1635
  231TIP3    H2  651   2.949   1.347   5.288 -0.3891 -1.2145  1.6513
  232TIP3   OH2  652   1.229   0.610   1.125  0.5607 -0.2184  0.3491
  232TIP3    H1  653   1.316   0.610   1.087  0.4829  0.7265  0.1590
  232TIP3    H2  654   1.180   0.545   1.073  0.9711 -0.2929  0.0536
  233TIP3   OH2  655   5.893   3.363   5.563  0.1397  0.3335 -0.5796
  233TIP3    H1  656   5.845   3.443   5.543  0.0782  0.3315 -0.4410
  233TIP3    H2  657   5.830   3.292   5.548 -0.1748  0.3771  0.4280
  234TIP3   OH2  658   7.926   6.912   6.441  0.1297 -0.2596 -0.0122
  234TIP3    H1  659   7.984   6.949   6.508 -0.4436  0.3760  0.1440
  234TIP3    H2  660   7.913   6.984   6.379  0.5389 -0.7970 -0.7424
  235TIP3   OH2  661   3.957   7.106   4.102  0.2413 -0.3084 -0.0595
  235TIP3    H1  662   3.959   7.011   4.089  0.4014 -0.4068  0.6363
  235TIP3    H2  663   4.018   7.140   4.036  0.6697 -0.7412  0.1008
  236TIP3   OH2  664   6.220   7.543   5.717 -0.0510 -0.2730  0.1334
  236TIP3    H1  665   6.233   7.465   5.771 -0.1668 -0.4609 -0.1079
  236TIP3    H2  666   6.148   7.519   5.659 -2.9118  1.3694  2.7128
  237TIP3   OH2  667   2.686   1.434   0.920 -0.4704  0.2819  0.0686
  237TIP3    H1  668   2.766   1.458   0.967 -0.6853 -1.4537  1.3937
  237TIP3    H2  669   2.639   1.518   0.909  0.0766  0.8937  2.0534
  238TIP3   OH2  670   3.174   5.196   6.121  0.0110  0.1335 -0.2554
  238TIP3    H1  671   3.101   5.148   6.083  1.1637 -0.2711 -2.1223
  238TIP3    H2  672   3.198   5.146   6.199 -1.0706 -0.2757 -0.1746
  239TIP3   OH2  673   4.580   6.794   4.789  0.1968  0.3664 -0.0554
  239TIP3    H1  674   4.619   6.878   4.814  0.2950  0.6834 -1.2188
  239TIP3    H2  675   4.652   6.746   4.748 -0.1770  0.2203 -0.5450
  240TIP3   OH2  676   0.335   6.075   2.075  0.5503 -0.7081  0.0375
  240TIP3    H1  677   0.407   6.082   2.138  1.0490  0.1090 -0.6015
  240TIP3    H2  678   0.350   6.147   2.014 -0.0200 -1.3830 -0.9168
  241TIP3   OH2  679   3.704   5.580   2.201 -0.1582  0.2736 -0.0288
  241TIP3    H1  680   3.788   5.615   2.230  0.3370  0.8701 -2.0015
  241TIP3    H2  681   3.640   5.621   2.259  0.8366  0.3109  1.0982
  242TIP3   OH2  682   6.601   7.063   0.841  0.2289 -0.3079 -0.1303
  242TIP3    H1  683   6.509   7.050   0.864  0.3896 -1.0193  0.1443
  242TIP3    H2  684   6.643   6.979   0.862  0.9812  0.0835 -0.0374
  243TIP3   OH2  685   5.399   5.534   1.149  0.2300  0.6357 -0.4938
  243TIP3    H1  686   5.491   5.510   1.158 -0.3273 -1.3179  0.6670
  243TIP3    H2  687   5.390   5.612   1.203  0.6237 -0.9717  2.0847
  244TIP3   OH2  688   0.089   6.171   0.726 -0.1133  0.5435 -0.4307
  244TIP3    H1  689   0.010   6.210   0.761 -0.4192  0.1369 -0.6629
  244TIP3    H2  690   0.134   6.135   0.803 -1.1614 -1.0397 -0.5078
  245TIP3   OH2  691   3.087   6.865   4.866 -0.2290  0.6663 -0.5885
  245TIP3    H1  692   3.046   6.944   4.831 -0.5919 -0.3694 -2.5852
  245TIP3    H2  693   3.061   6.795   4.806  1.1932 -0.7393  0.3665
  246TIP3   OH2  694   3.450   1.257   4.279  0.0553 -0.6898  0.3969
  246TIP3    H1  695   3.438   1.290   4.368 -0.0438 -0.1867  0.1988
  246TIP3    H2  696   3.399   1.317   4.224  0.3220 -0.8493 -0.0255
  247TIP3   OH2  697   3.930   3.071   2.388 -0.2213  0.0948 -0.4006
  247TIP3    H1  698   3.844   3.060   2.428  0.0120  0.4647  0.2131
  247TIP3    H2  699   3.913   3.069   2.293 -0.6536 -1.6978 -0.3071
  248TIP3   OH2  700   6.536   6.634   2.378  0.2454 -0.1694  0.1919
  248TIP3    H1  701   6.628   6.655   2.362 -0.2172  0.6836 -1.6841
  248TIP3    H2  702   6.532   6.539   2.377  1.0390 -0.2067 -0.1610
  249TIP3   OH2  703   2.925   0.322   2.799  0.0078  0.3501 -0.0530
  249TIP3    H1  704   2.913   0.409   2.759  1.0252  0.2805 -0.5273
  249TIP3    H2  705   2.945   0.264   2.725 -0.9773 -0.3717  0.2207
  250TIP3   OH2  706   4.475   4.074   2.814  0.2616 -0.4469  0.5869
  250TIP3    H1  707   4.460   4.130   2.890  0.3892 -0.9807  1.0190
  250TIP3    H2  708   4.390   4.067   2.771 -0.3477 -1.9094  1.9304
  251TIP3   OH2  709   0.527   0.615   0.243 -0.0809 -0.7199  0.4313
  251TIP3    H1  710   0.540   0.523   0.223  0.3595 -0.6085  0.1965
  251TIP3    H2  711   0.600   0.638   0.301 -1.2899 -1.0224  2.1377
  252TIP3   OH2  712   5.778   5.050   5.227 -0.0682 -0.0339 -0.1600
  252TIP3    H1  713   5.763   4.970   5.277  1.6085  0.5798  1.4341
  252TIP3    H2  714   5.826   5.021   5.150  2.6491 -0.3867  1.5478
  253TIP3   OH2  715   7.970   0.662   1.353 -0.0177  0.0578  0.1811
  253TIP3    H1  716   7.967   0.630   1.443 -0.5197  2.0361  0.9182
  253TIP3    H2  717   7.924   0.746   1.356 -0.6088 -0.1251 -2.0588
  254TIP3   OH2  718   5.609   7.800   1.922  0.1844 -0.1508 -0.1901
  254TIP3    H1  719   5.618   7.893   1.945 -0.6868  0.2149 -1.2133
  254TIP3    H2  720   5.605   7.755   2.006 -0.5248  0.8725  0.3588
  255TIP3   OH2  721   5.159   2.467   5.598 -0.2019  0.0199 -0.3148
  255TIP3    H1  722   5.117   2.544   5.636 -0.4190  0.4091 -1.3298
  255TIP3    H2  723   5.231   2.501   5.546 -1.2633 -0.3142 -2.0663
  256TIP3   OH2  724   3.090   7.365   1.259  0.1968  0.0742  0.0053
  256TIP3    H1  725   3.026   7.433   1.239 -0.2619  0.1139  1.4593
  256TIP3    H2  726   3.052   7.285   1.222 -1.5339 -0.1993  2.1430
  257TIP3   OH2  727   4.053   6.218   2.920 -0.1931 -0.0211 -0.4641
  257TIP3    H1  728   3.980   6.179   2.872  0.7832  0.1181 -2.1451
  257TIP3    H2  729   4.099   6.270   2.854  2.2809 -1.2810  0.1740
  258TIP3   OH2  730   1.943   0.075   0.055 -0.3585  0.5662  0.0002
  258TIP3    H1  731   1.909   0.149   0.105  1.6309 -0.7825  3.7713
  258TIP3    H2  732   1.973   0.113  -0.027 -2.2443  3.3079  0.4452
  259TIP3   OH2  733   5.276   0.986   1.873 -0.3252 -0.5121 -0.0295
  259TIP3    H1  734   5.221   0.953   1.802  1.4544 -1.9098 -0.8239
  259TIP3    H2  735   5.235   1.069   1.899 -2.5312 -1.2842 -0.8582
  260TIP3   OH2  736   1.257   3.494   2.702 -0.3062 -0.4301 -0.3380
  260TIP3    H1  737   1.333   3.447   2.668  0.7758  0.6885  0.4574
  260TIP3    H2  738   1.196   3.425   2.728 -0.7425 -1.3732 -3.4068
  261TIP3   OH2  739   0.959   7.229   3.259 -0.1277 -0.2095  0.4747
  261TIP3    H1  740   0.886   7.278   3.298 -0.2875 -1.1364  1.3932
  261TIP3    H2  741   1.011   7.201   3.334  1.7503  1.2462 -0.2140
  262TIP3   OH2  742   4.238   7.165   6.480  0.0728 -0.0301 -0.2163
  262TIP3    H1  743   4.266   7.077   6.455 -0.9627 -0.3641 -0.2645
  262TIP3    H2  744   4.176   7.151   6.552 -1.7150  0.4669 -1.5697
  263TIP3   OH2  745   6.054   7.288   2.244 -0.2810  0.4616 -0.3520
  263TIP3    H1  746   6.132   7.243   2.277 -0.4954 -0.5120 -1.1134
  263TIP3    H2  747   5.983   7.258   2.300 -0.2167  0.8690 -0.0475
  264TIP3   OH2  748   2.093   2.580   2.068 -0.0577  0.6193 -0.3564
  264TIP3    H1  749   2.038   2.572   1.990 -1.6431  1.1993  0.6437
  264TIP3    H2  750   2.169   2.631   2.039 -0.8433  1.2248 -1.4040
  265TIP3   OH2  751   6.648   7.136   5.726  0.5501  0.0351 -0.2395
  265TIP3    H1  752   6.623   7.058   5.676 -0.3497  0.0485  0.1735
  265TIP3    H2  753   6.653   7.206   5.661 -0.5229  0.0330 -0.3476
  266TIP3   OH2  754   6.124   6.832   2.650 -0.0041  0.2560 -0.1900
  266TIP3    H1  755   6.210   6.796   2.626 -1.6073 -2.1831 -3.0128
  266TIP3    H2  756   6.096   6.779   2.724  0.6776  0.6740  0.3743
  267TIP3   OH2  757   8.127   5.900   6.629  0.4957 -0.3698  0.0843
  267TIP3    H1  758   8.106   5.899   6.535 -0.3293  0.7724  0.2263
  267TIP3    H2  759   8.206   5.953   6.636 -0.3683  0.9513  0.1678
  268TIP3   OH2  760   3.036   4.960   1.199  0.5036 -0.0531 -0.2864
  268TIP3    H1  761   3.071   4.983   1.285  0.6475 -2.9680  0.5605
  268TIP3    H2  762   2.942   4.951   1.213  0.2740  1.2557 -0.9140
  269TIP3   OH2  763   0.146   5.974   4.789 -0.7465 -0.0830 -0.3582
  269TIP3    H1  764   0.185   5.926   4.717 -0.4472 -0.0655 -0.2100
  269TIP3    H2  765   0.191   5.941   4.867 -0.9837 -0.0182 -0.1917
  270TIP3   OH2  766   0.773   5.320   1.057 -0.4143  0.0382 -0.2487
  270TIP3    H1  767   0.735   5.268   1.127 -0.7889 -0.9255 -1.1491
  270TIP3    H2  768   0.699   5.366   1.017 -0.5096 -0.9232 -1.2384
  271TIP3   OH2  769   5.271   3.306   5.328 -0.0142  0.9215  0.0297
  271TIP3    H1  770   5.312   3.389   5.351 -0.3740  1.3109 -0.7006
  271TIP3    H2  771   5.305   3.286   5.241  0.5107  0.0056  0.4237
  272TIP3   OH2  772   3.277   4.231   1.983  0.0784 -0.5062  0.5415
  272TIP3    H1  773   3.212   4.168   1.952 -0.3687 -1.0120  2.4161
  272TIP3    H2  774   3.234   4.316   1.976 -0.3385 -0.7083  0.6166
  273TIP3   OH2  775   7.589   3.544   3.566 -0.1363  0.5386 -0.6833
  273TIP3    H1  776   7.512   3.512   3.519 -0.2067 -0.7096  0.2277
  273TIP3    H2  777   7.556   3.567   3.653  0.5066  0.0232 -0.2984
  274TIP3   OH2  778   2.892   0.635   2.896 -0.7718  0.4793 -0.0518
  274TIP3    H1  779   2.985   0.635   2.876 -1.1654  3.0282 -2.6504
  274TIP3    H2  780   2.884   0.686   2.977  0.0640  0.5449 -0.0064
  275TIP3   OH2  781   2.171   2.674   6.008  0.2213 -0.7153  0.1946
  275TIP3    H1  782   2.225   2.746   5.975  1.3630 -1.5200  0.2549
  275TIP3    H2  783   2.100   2.667   5.945  1.5700 -1.2636 -1.3515
  276TIP3   OH2  784   4.540   6.248   0.130 -0.2721  0.2397 -0.5016
  276TIP3    H1  785   4.582   6.190   0.194 -0.8838  0.6064  0.2427
  276TIP3    H2  786   4.600   6.322   0.122 -1.8581  2.0462  2.5167
  277TIP3   OH2  787   4.111   7.718   1.636  0.2405  0.3863 -0.2929
  277TIP3    H1  788   4.169   7.642   1.631 -1.8852 -1.3082 -1.1969
  277TIP3    H2  789   4.117   7.747   1.727 -0.8131 -2.5721  0.8481
  278TIP3   OH2  790   8.279   7.360   4.709 -0.1768  0.2336  0.0389
  278TIP3    H1  791   8.287   7.319   4.623  1.3934  0.4281  0.0780
  278TIP3    H2  792   8.326   7.443   4.701 -1.5263  1.0996  0.5865
  279TIP3   OH2  793   1.660   2.625   1.196  0.1968  0.2572  0.1914
  279TIP3    H1  794   1.610   2.658   1.122 -0.3078  1.6509  1.1084
  279TIP3    H2  795   1.599   2.630   1.270  0.5140 -1.5918  0.6308
  280TIP3   OH2  796   4.000   4.431   0.380 -0.0509 -0.5577 -0.5006
  280TIP3    H1  797   4.065   4.499   0.362 -0.5737  0.2160  0.4490
  280TIP3    H2  798   3.917   4.479   0.388 -0.3157 -1.2206  0.9140
  281TIP3   OH2  799   6.299   2.208   3.042 -0.5624  0.2266  0.0802
  281TIP3    H1  800   6.213   2.173   3.020 -0.1989 -0.4722 -0.2505
  281TIP3    H2  801   6.297   2.298   3.010 -1.0146  0.0765 -0.3226
  282TIP3   OH2  802   5.277   4.888   0.564  0.4151  0.6231 -0.0924
  282TIP3    H1  803   5.261   4.933   0.647 -0.6978 -0.9093  0.5627
  282TIP3    H2  804   5.227   4.940   0.500 -1.9670 -0.3204  0.8732
  283TIP3   OH2  805   5.235   6.983   6.798 -0.0478  0.6721  0.0164
  283TIP3    H1  806   5.213   7.025   6.715 -1.4984 -0.1201 -0.0269
  283TIP3    H2  807   5.224   6.890   6.781  0.6052  0.4337  0.8362
  284TIP3   OH2  808   2.572   0.171   2.753 -0.1482  0.2150  0.0017
  284TIP3    H1  809   2.591   0.265   2.752 -0.2955  0.2491  0.2364
  284TIP3    H2  810   2.658   0.130   2.763 -0.1551  0.3564  0.6836
  285TIP3   OH2  811   3.288   0.140   3.038 -0.4998 -0.6076 -0.8016
  285TIP3    H1  812   3.242   0.223   3.050 -0.2765 -0.6004  0.0865
  285TIP3    H2  813   3.247   0.102   2.960 -1.0519  0.0332 -0.8438
  286TIP3   OH2  814   1.463   5.487   0.889 -0.1390 -0.2085  0.2785
  286TIP3    H1  815   1.483   5.521   0.976 -1.0896 -1.6109  1.0910
  286TIP3    H2  816   1.459   5.564   0.833  1.4114  0.6456  1.2631
  287TIP3   OH2  817   1.052   4.537   5.800  0.3773  0.0314 -0.1462
  287TIP3    H1  818   1.092   4.451   5.795 -0.2141 -0.3057  0.7517
  287TIP3    H2  819   0.982   4.528   5.864 -2.9539 -0.1586 -3.4596
  288TIP3   OH2  820   6.441   2.886   5.324 -0.3190 -0.0021 -0.5250
  288TIP3    H1  821   6.498   2.962   5.311 -1.5848  1.2082  0.7545
  288TIP3    H2  822   6.378   2.891   5.252 -1.9900  1.7247  0.9376
  289TIP3   OH2  823   6.021   0.375   6.574  0.5081  0.1521 -0.0243
  289TIP3    H1  824   6.006   0.316   6.500 -2.3297  1.0453 -0.2894
  289TIP3    H2  825   5.935   0.384   6.616  1.4522  1.8148  1.7325
  290TIP3   OH2  826   6.480   2.552   2.188 -0.0118 -0.4413 -0.7541
  290TIP3    H1  827   6.437   2.564   2.103  0.4729  2.5843 -0.6976
  290TIP3    H2  828   6.486   2.641   2.224 -1.1806 -1.6756  2.9744
  291TIP3   OH2  829   6.524   7.652   0.763 -0.1959  0.3215 -0.5164
  291TIP3    H1  830   6.447   7.675   0.815  0.0836 -0.4115  0.2251
  291TIP3    H2  831   6.497   7.575   0.713  0.1452 -0.1250 -0.0239
  292TIP3   OH2  832   3.825   5.605   4.682  0.0890 -0.4538  0.0539
  292TIP3    H1  833   3.798   5.513   4.679  1.4698 -0.9040  0.9551
  292TIP3    H2  834   3.745   5.654   4.659 -1.0742 -1.8018  1.0716
  293TIP3   OH2  835   0.955   3.861   1.496 -0.2014 -0.0891  0.4220
  293TIP3    H1  836   0.920   3.934   1.445 -0.1816  1.5812  2.6481
  293TIP3    H2  837   0.881   3.831   1.550 -0.3389 -2.0776 -0.7697
  294TIP3   OH2  838   6.231   5.342   5.208 -0.2160  0.5552  1.0837
  294TIP3    H1  839   6.276   5.257   5.208  0.1990  0.7694  0.8172
  294TIP3    H2  840   6.180   5.342   5.127  0.4862  0.9174  0.6321
  295TIP3   OH2  841   0.181   5.141   1.797 -0.2574  0.2975  0.4256
  295TIP3    H1  842   0.239   5.110   1.727 -0.1510 -0.9906  1.0515
  295TIP3    H2  843   0.224   5.220   1.830  1.7051 -1.1532  1.5177
  296TIP3   OH2  844   0.779   2.847   5.939  0.2297  0.7038 -0.3557
  296TIP3    H1  845   0.719   2.818   6.009  0.4504 -0.4587 -0.6363
  296TIP3    H2  846   0.785   2.942   5.952 -2.0611  0.9482 -0.6072
  297TIP3   OH2  847   5.727   7.832   2.519 -0.1175  0.3103  0.2009
  297TIP3    H1  848   5.783   7.841   2.596  1.3238 -1.7443 -0.5082
  297TIP3    H2  849   5.681   7.748   2.533 -3.7523  2.2412  1.1189
  298TIP3   OH2  850   7.737   4.236   3.699  0.2465  0.2571 -0.7155
  298TIP3    H1  851   7.821   4.192   3.696  0.8292  0.8061  3.2511
  298TIP3    H2  852   7.754   4.323   3.662  0.9134 -0.2309 -1.5930
  299TIP3   OH2  853   2.962   7.376   3.299  0.3324  0.2874 -0.2663
  299TIP3    H1  854   2.887   7.346   3.248 -1.9180  1.9027  1.8583
  299TIP3    H2  855   2.987   7.460   3.259 -2.3664  2.3050  1.8360
  300TIP3   OH2  856   1.947   1.168   5.289 -0.4055  0.0735 -0.0777
  300TIP3    H1  857   1.938   1.207   5.376  1.7348  0.7505 -0.0988
  300TIP3    H2  858   1.896   1.225   5.232  0.4758  1.3024  0.3230
  301TIP3   OH2  859   6.534   4.544   5.324 -0.3679  0.5516  0.8461
  301TIP3    H1  860   6.481   4.624   5.327 -0.7109  0.4672 -1.2083
  301TIP3    H2  861   6.616   4.572   5.283  0.2986  0.2163  1.9223
  302TIP3   OH2  862   5.394   3.334   5.627  0.0628  0.3427 -0.0076
  302TIP3    H1  863   5.336   3.407   5.648 -0.5079  0.3729 -1.5695
  302TIP3    H2  864   5.438   3.360   5.546  1.1899 -0.2957  0.3789
  303TIP3   OH2  865   5.146   4.469   1.376  0.5668 -0.4421 -0.0882
  303TIP3    H1  866   5.085   4.395   1.376 -0.1463  0.0956  1.7038
  303TIP3    H2  867   5.142   4.503   1.465  1.7520  1.0610 -0.5731
  304TIP3   OH2  868   0.951   1.107   5.170  0.0531  0.1713 -0.2027
  304TIP3    H1  869   0.975   1.075   5.257  1.5838  0.9441 -0.3051
  304TIP3    H2  870   0.964   1.032   5.112 -0.3638 -0.1721  0.1498
  305TIP3   OH2  871   6.353   6.459   3.735 -0.3002  0.3275  0.2045
  305TIP3    H1  872   6.314   6.440   3.650 -0.5022 -2.4017  0.8142
  305TIP3    H2  873   6.334   6.551   3.751 -1.1807  0.6178 -2.2168
  306TIP3   OH2  874   7.568   4.338   4.573 -0.7438  0.0441 -0.3729
  306TIP3    H1  875   7.628   4.311   4.642  0.2072 -0.6886 -1.4541
  306TIP3    H2  876   7.614   4.409   4.528 -1.4225  0.6241 -0.1782
  307TIP3   OH2  877   0.248   2.849   6.724  0.2888 -0.5012 -0.6063
  307TIP3    H1  878   0.201   2.787   6.669  1.4752 -0.7596 -1.3895
  307TIP3    H2  879   0.335   2.811   6.735  0.2293 -0.2310  1.1141
  308TIP3   OH2  880   3.174   7.442   4.442 -0.1775 -0.0227  0.2347
  308TIP3    H1  881   3.196   7.463   4.533  0.5547  1.0823 -0.1698
  308TIP3    H2  882   3.124   7.518   4.411 -0.1801 -0.2591 -0.3564
  309TIP3   OH2  883   1.066   1.638   0.670  0.2262  0.3040 -0.1582
  309TIP3    H1  884   1.100   1.716   0.627  0.6530 -0.3015 -0.9673
  309TIP3    H2  885   1.101   1.565   0.617 -1.7659 -0.3728 -0.6355
  310TIP3   OH2  886   8.003   1.718   5.147 -0.3877  0.0516 -0.0028
  310TIP3    H1  887   7.932   1.691   5.205 -0.9350 -0.9994 -1.1325
  310TIP3    H2  888   8.034   1.801   5.184 -1.8533  0.2712  0.7911
  311TIP3   OH2  889   4.833   3.956   6.576 -0.2894  0.0236  0.2498
  311TIP3    H1  890   4.828   3.953   6.480 -0.0975  1.2190  0.1954
  311TIP3    H2  891   4.869   4.042   6.596 -2.7454  0.8573  1.4833
  312TIP3   OH2  892   4.942   1.277   4.519 -0.0523  0.4206 -0.2672
  312TIP3    H1  893   4.847   1.264   4.525  0.2130 -1.6257  0.1161
  312TIP3    H2  894   4.957   1.303   4.428 -0.9111 -0.0586 -0.5557
  313TIP3   OH2  895   8.317   0.002   4.972  0.4393  0.2554  0.2438
  313TIP3    H1  896   8.259   0.067   5.011 -1.6650 -0.8988 -0.8235
  313TIP3    H2  897   8.340   0.038   4.886  0.9599  0.4900  0.4728
  314TIP3   OH2  898   7.573   3.645   0.690  0.5319 -0.5836  0.3822
  314TIP3    H1  899   7.513   3.571   0.679 -2.7372  2.1130 -2.3687
  314TIP3    H2  900   7.617   3.654   0.606  1.4991  0.1744  0.9365
  315TIP3   OH2  901   6.793   0.585   6.589 -0.5265  0.0771 -0.1496
  315TIP3    H1  902   6.762   0.674   6.607  0.3720  0.5042 -0.6298
  315TIP3    H2  903   6.889   0.593   6.590 -0.4229 -1.0872  0.7617
  316TIP3   OH2  904   1.805   1.016   0.824  0.0604  0.2182  0.7226
  316TIP3    H1  905   1.815   1.101   0.782  0.1815  0.3473  1.0100
  316TIP3    H2  906   1.766   1.035   0.909 -0.6712 -0.0917  0.4617
  317TIP3   OH2  907   2.817   6.398   4.256  0.3258  0.5949  0.5575
  317TIP3    H1  908   2.779   6.484   4.239  2.6329  1.2553 -2.0756
  317TIP3    H2  909   2.768   6.339   4.198  1.3409  0.9394 -0.7064
  318TIP3   OH2  910   1.150   6.483   3.304  0.0795 -0.3264 -0.0128
  318TIP3    H1  911   1.097   6.562   3.302 -0.2815 -0.5852 -1.7516
  318TIP3    H2  912   1.239   6.514   3.325 -0.1048  0.5005 -0.4241
  319TIP3   OH2  913   1.424   3.020   1.950  0.9533 -0.2033  0.0059
  319TIP3    H1  914   1.397   3.104   1.987 -0.2306  0.2381 -1.7061
  319TIP3    H2  915   1.516   3.010   1.976  1.2031  1.7681  0.0175
  320TIP3   OH2  916   7.449   5.846   1.316 -0.4798  0.4810 -0.0504
  320TIP3    H1  917   7.393   5.923   1.312 -0.2895  0.8563  2.5917
  320TIP3    H2  918   7.392   5.776   1.348  0.1928  0.5506  1.4059
  321TIP3   OH2  919   2.693   1.844   0.037  0.1790  0.0069 -0.0207
  321TIP3    H1  920   2.700   1.864   0.130  1.2857  0.2402 -0.1423
  321TIP3    H2  921   2.782   1.856   0.003 -0.4895  1.4829 -1.4139
  322TIP3   OH2  922   2.599   3.613   3.946 -0.0899  0.1545  0.0103
  322TIP3    H1  923   2.548   3.665   4.008 -3.3026 -0.2847 -2.0395
  322TIP3    H2  924   2.550   3.531   3.937  1.6677 -0.8243 -1.2227
  323TIP3   OH2  925   0.261   0.339   0.297 -0.4345  0.0826 -0.8550
  323TIP3    H1  926   0.259   0.266   0.235  1.0647  0.1560 -1.0439
  323TIP3    H2  927   0.184   0.327   0.351 -0.3818 -1.4745 -1.0800
  324TIP3   OH2  928   4.114   1.914   4.759  0.5440  0.4605  0.2828
  324TIP3    H1  929   4.128   1.940   4.851  2.2856  0.1456  0.1447
  324TIP3    H2  930   4.157   1.983   4.709  0.2422  0.2393 -0.2876
  325TIP3   OH2  931   0.752   3.763   1.673  0.0884 -0.5380  0.0029
  325TIP3    H1  932   0.682   3.706   1.643 -0.2998  1.2637 -3.0336
  325TIP3    H2  933   0.710   3.825   1.732 -0.1400 -1.4577  0.8162
  326TIP3   OH2  934   3.724   7.230   2.832 -0.7119 -0.0547  0.4397
  326TIP3    H1  935   3.713   7.230   2.737 -2.8507  2.8440  0.5540
  326TIP3    H2  936   3.814   7.262   2.846 -0.5160 -0.1354 -0.5909
  327TIP3   OH2  937   7.742   0.254   4.005  0.3385 -0.1259  0.1522
  327TIP3    H1  938   7.712   0.253   4.096  1.4033 -1.2889  0.5244
  327TIP3    H2  939   7.681   0.312   3.960 -0.6514 -0.1112  1.4528
  328TIP3   OH2  940   4.636   1.413   2.337  0.2325 -0.7893  0.5000
  328TIP3    H1  941   4.587   1.331   2.341  0.9872 -1.2071  1.5815
  328TIP3    H2  942   4.667   1.417   2.247  0.7454 -2.0347  0.5947
  329TIP3   OH2  943   3.334   6.554   4.008  0.0022  0.2891 -0.1689
  329TIP3    H1  944   3.260   6.495   4.027  1.6538 -1.3573  1.6717
  329TIP3    H2  945   3.368   6.578   4.094 -0.1497  3.4652 -0.8964
  330TIP3   OH2  946   3.882   4.518   3.930  0.1078 -0.1939  0.6832
  330TIP3    H1  947   3.816   4.549   3.868 -0.9619 -0.5655  1.6102
  330TIP3    H2  948   3.917   4.438   3.890 -0.9185 -0.6993  0.7701
  331TIP3   OH2  949   5.223   2.416   2.750 -0.1556 -0.3610  0.5047
  331TIP3    H1  950   5.180   2.481   2.806  1.1988  0.1088  1.0436
  331TIP3    H2  951   5.204   2.332   2.793 -0.7191 -0.1882  0.6021
  332TIP3   OH2  952   0.881   0.418   2.190  0.1743  0.3458  0.0104
  332TIP3    H1  953   0.814   0.395   2.255  0.6300 -1.6138 -0.1319
  332TIP3    H2  954   0.938   0.341   2.188  1.4195  1.2716 -1.1451
  333TIP3   OH2  955   2.378   0.954   3.436 -0.0367  0.0507 -0.9154
  333TIP3    H1  956   2.360   1.005   3.357 -0.2174  1.2213 -0.1376
  333TIP3    H2  957   2.297   0.904   3.452 -1.5362  2.7487  0.6672
  334TIP3   OH2  958   4.802   3.735   4.840 -0.2360  0.6750  0.3130
  334TIP3    H1  959   4.734   3.707   4.779 -0.4046 -1.0639  1.2214
  334TIP3    H2  960   4.753   3.772   4.915 -0.2301 -0.7084  1.0290
  335TIP3   OH2  961   0.836   1.603   3.294  0.1010 -0.2404  0.0813
  335TIP3    H1  962   0.790   1.686   3.299 -0.2065 -0.4464  0.8209
  335TIP3    H2  963   0.787   1.553   3.228  0.4076  0.2255 -0.5123
  336TIP3   OH2  964   3.698   2.574   2.491 -0.3828 -0.2623  0.2311
  336TIP3    H1  965   3.782   2.532   2.505 -1.0254 -1.5598  0.3917
  336TIP3    H2  966   3.692   2.642   2.559  0.2311 -0.6213  0.6442
  337TIP3   OH2  967   4.660   3.896   2.150 -0.2350  0.4243 -0.7207
  337TIP3    H1  968   4.605   3.970   2.174  0.9939  1.4926 -1.0744
  337TIP3    H2  969   4.744   3.935   2.124  0.1032 -1.0034 -1.9615
  338TIP3   OH2  970   2.368   5.990   3.366  0.5173 -0.4386 -0.2493
  338TIP3    H1  971   2.303   5.944   3.314  0.8822 -1.1477 -0.0960
  338TIP3    H2  972   2.398   5.926   3.430  0.2579  0.3407  0.6793
  339TIP3   OH2  973   4.224   5.222   0.292 -0.5330  0.4210  0.1166
  339TIP3    H1  974   4.200   5.194   0.380  2.1949  0.8240  1.0732
  339TIP3    H2  975   4.234   5.140   0.243  0.1122  0.0852  0.8028
  340TIP3   OH2  976   7.310   6.587   0.059  0.3560 -0.3841  0.3525
  340TIP3    H1  977   7.391   6.542   0.035  1.7142  1.8047  0.5909
  340TIP3    H2  978   7.332   6.680   0.058 -2.0888  0.2849  0.7330
  341TIP3   OH2  979   2.158   1.835   2.036  0.5445 -0.0948  0.0071
  341TIP3    H1  980   2.197   1.861   2.120  1.9604  0.1248 -0.6879
  341TIP3    H2  981   2.149   1.917   1.988  1.5278 -0.4155 -0.7591
  342TIP3   OH2  982   5.031   0.536   1.455  0.2047  0.0328  0.7325
  342TIP3    H1  983   5.116   0.507   1.423 -0.1446 -0.4821  0.2612
  342TIP3    H2  984   4.995   0.588   1.383  0.5177  1.0595  1.2941
  343TIP3   OH2  985   5.917   5.874   3.854 -0.1535 -0.3333  0.1521
  343TIP3    H1  986   5.920   5.791   3.902  1.8809 -1.4008 -1.6441
  343TIP3    H2  987   5.901   5.849   3.763 -1.1639  1.3987 -0.1828
  344TIP3   OH2  988   4.372   6.355   1.633 -0.5562 -0.3431 -0.2299
  344TIP3    H1  989   4.347   6.295   1.563 -0.5807  0.2880 -0.7814
  344TIP3    H2  990   4.322   6.435   1.615 -0.3205 -0.0614  0.3229
  345TIP3   OH2  991   4.293   3.429   3.492 -0.3481 -0.3742 -0.5314
  345TIP3    H1  992   4.348   3.507   3.481 -2.0680  1.3752  2.2627
  345TIP3    H2  993   4.209   3.453   3.455 -0.1146 -2.0701 -2.3303
  346TIP3   OH2  994   2.671   2.230   4.220  0.0248 -0.4751  0.0655
  346TIP3    H1  995   2.614   2.219   4.296  1.3366  1.2780  1.3979
  346TIP3    H2  996   2.618   2.201   4.146 -2.2210  0.0844  1.3501
  347TIP3   OH2  997   6.788   3.268   4.750  0.1125 -0.4183 -0.4663
  347TIP3    H1  998   6.810   3.346   4.802 -0.6406  0.1514 -0.9736
  347TIP3    H2  999   6.713   3.229   4.796 -1.6312  1.0005 -1.9349
  348TIP3   OH2 1000   3.414   1.979   2.703 -0.2720 -0.2461  0.1448
  348TIP3    H1 1001   3.493   2.017   2.665 -1.4959  1.8867 -0.3870
  348TIP3    H2 1002   3.425   1.884   2.691  2.1838 -0.0184  0.1196
  349TIP3   OH2 1003   2.195   2.826   5.583 -0.0696 -0.1323  0.0839
  349TIP3    H1 1004   2.210   2.761   5.514 -0.7883  1.3145 -1.5185
  349TIP3    H2 1005   2.142   2.780   5.648  1.3363 -1.7937  0.1088
  350TIP3   OH2 1006   4.565   3.943   1.730  0.6362 -0.0602  0.1598
  350TIP3    H1 1007   4.497   3.946   1.663 -1.8232 -2.1151  2.3331
  350TIP3    H2 1008   4.583   4.034   1.751 -1.0357  0.5449 -0.9011
  351TIP3   OH2 1009   7.390   6.544   3.003  0.2013 -0.0286 -0.5594
  351TIP3    H1 1010   7.484   6.558   3.005  0.0366  1.4792  1.7035
  351TIP3    H2 1011   7.357   6.608   2.940  0.6108  0.2041 -0.5375
  352TIP3   OH2 1012   5.613   0.288   1.057  0.0514  0.1039 -0.1457
  352TIP3    H1 1013   5.575   0.232   0.989 -1.0710  0.3787  0.2483
  352TIP3    H2 1014   5.545   0.351   1.078  1.0674  1.2322 -0.1028
  353TIP3   OH2 1015   3.646   1.431   3.938  0.4522 -0.0715  0.2255
  353TIP3    H1 1016   3.674   1.520   3.917 -1.2646  1.1021  2.4884
  353TIP3    H2 1017   3.665   1.421   4.032  0.1608 -1.9235  0.1309
  354TIP3   OH2 1018   7.158   4.271   1.451 -0.3993 -0.1266  0.6947
  354TIP3    H1 1019   7.192   4.298   1.536  0.2999 -0.3066  0.4829
  354TIP3    H2 1020   7.069   4.241   1.469  0.1517 -1.3256  1.5948
  355TIP3   OH2 1021   2.158   6.959   2.004  0.0350  1.0822 -0.7833
  355TIP3    H1 1022   2.194   6.875   1.976 -0.0742  1.1323 -1.0799
  355TIP3    H2 1023   2.072   6.939   2.039 -0.7615  1.2814 -2.5269
  356TIP3   OH2 1024   0.830   4.177   0.234  0.1815 -0.3458  0.2680
  356TIP3    H1 1025   0.784   4.153   0.153 -0.2173 -0.0838  0.4128
  356TIP3    H2 1026   0.791   4.261   0.259  1.6596  0.5526 -0.3202
  357TIP3   OH2 1027   7.191   6.725   4.849  0.3334  0.3335 -0.2939
  357TIP3    H1 1028   7.173   6.819   4.852  1.1761  0.4757  1.7885
  357TIP3    H2 1029   7.232   6.712   4.764  1.6018  2.1489 -0.0229
  358TIP3   OH2 1030   5.889   1.000   5.697  0.4697 -0.1228  0.3220
  358TIP3    H1 1031   5.928   0.938   5.635  1.5243 -1.1435  1.9151
  358TIP3    H2 1032   5.848   1.067   5.642  0.5365 -1.4648 -1.4639
  359TIP3   OH2 1033   6.601   0.015   4.789 -0.4686  0.1499 -0.2956
  359TIP3    H1 1034   6.571   0.057   4.869 -0.1222 -1.6001  0.8025
  359TIP3    H2 1035   6.652   0.083   4.744 -0.8810  1.2340  0.8102
  360TIP3   OH2 1036   3.133   0.473   4.052 -0.8140  0.7620 -0.0168
  360TIP3    H1 1037   3.077   0.396   4.049  0.1487  0.0261  0.3284
  360TIP3    H2 1038   3.075   0.546   4.033 -1.4679 -0.1994 -1.9866
  361TIP3   OH2 1039   4.991   6.966   1.068 -0.1191  0.0594 -0.2902
  361TIP3    H1 1040   5.045   7.017   1.007  0.2914 -0.2132 -0.1606
  361TIP3    H2 1041   4.912   6.946   1.018  0.3203 -0.3845 -0.8414
  362TIP3   OH2 1042   5.974   0.783   0.362  0.0959 -0.4399  0.6017
  362TIP3    H1 1043   5.897   0.786   0.304  0.0006 -0.3801  0.7312
  362TIP3    H2 1044   5.946   0.728   0.435  0.7996 -2.0040 -0.2557
  363TIP3   OH2 1045   4.603   4.918   6.152  0.4675 -0.3216 -0.3047
  363TIP3    H1 1046   4.695   4.946   6.143  0.8572 -1.1764  0.8112
  363TIP3    H2 1047   4.581   4.881   6.066  0.6291  1.3525 -1.1047
  364TIP3   OH2 1048   0.776   1.666   0.339  0.3204 -0.6409 -0.1268
  364TIP3    H1 1049   0.844   1.617   0.293  1.7629  0.3009  0.9017
  364TIP3    H2 1050   0.817   1.750   0.360 -0.8688 -0.3701  1.2706
  365TIP3   OH2 1051   2.584   4.077   1.352  0.5039  0.1645  0.3737
  365TIP3    H1 1052   2.665   4.083   1.300 -0.1667 -1.6766 -0.9745
  365TIP3    H2 1053   2.609   4.024   1.427  0.7412  0.2928  0.3896
  366TIP3   OH2 1054   5.995   0.622   0.853 -0.5304  0.1341  0.3155
  366TIP3    H1 1055   5.963   0.612   0.763 -0.0509  1.0195  0.0280
  366TIP3    H2 1056   6.050   0.701   0.850  1.1851 -0.9678  0.9130
  367TIP3   OH2 1057   2.659   6.462   4.814  0.1098  0.0045 -0.5609
  367TIP3    H1 1058   2.608   6.541   4.833  0.0781  0.1066 -1.0761
  367TIP3    H2 1059   2.594   6.393   4.801  0.1526 -0.4180  1.1810
  368TIP3   OH2 1060   8.076   1.158   1.659  0.0411  0.0361 -0.4622
  368TIP3    H1 1061   8.121   1.089   1.609  0.4230 -0.5527  0.6665
  368TIP3    H2 1062   8.061   1.119   1.745  1.3373  1.7731  0.6129
  369TIP3   OH2 1063   3.445   4.857   3.139  0.1408  0.4242 -0.0666
  369TIP3    H1 1064   3.449   4.851   3.235 -0.1188  1.4088  0.0152
  369TIP3    H2 1065   3.525   4.902   3.115 -0.0566  0.6702 -0.2644
  370TIP3   OH2 1066   1.754   1.955   3.907  0.0738  0.4040 -0.1693
  370TIP3    H1 1067   1.774   1.941   4.000 -2.0484 -2.5188  0.0287
  370TIP3    H2 1068   1.819   1.903   3.860  0.0587  0.4080 -0.1950
  371TIP3   OH2 1069   7.456   6.970   1.482 -0.2986  0.1255  0.0877
  371TIP3    H1 1070   7.462   6.896   1.542  2.3278  0.7117  0.6787
  371TIP3    H2 1071   7.417   7.040   1.535 -1.9026 -0.4981 -0.1999
  372TIP3   OH2 1072   4.854   1.386   6.686  0.0587 -0.0746  0.1264
  372TIP3    H1 1073   4.861   1.408   6.593 -0.1832 -1.1051 -0.1495
  372TIP3    H2 1074   4.938   1.346   6.707 -0.2416 -0.7243  0.0989
  373TIP3   OH2 1075   1.783   1.882   0.047  0.4397  0.1949  0.1740
  373TIP3    H1 1076   1.835   1.862  -0.031  0.6942  0.2459  0.3310
  373TIP3    H2 1077   1.713   1.939   0.015 -1.0300 -1.8585 -0.5369
  374TIP3   OH2 1078   4.104   1.646   4.030  0.3120 -0.3427 -0.2195
  374TIP3    H1 1079   4.074   1.571   3.980  3.5040 -2.1610  0.3608
  374TIP3    H2 1080   4.040   1.654   4.101 -2.8851  0.7736 -2.9608
  375TIP3   OH2 1081   1.642   4.943   0.292  0.2280 -0.0102  0.2641
  375TIP3    H1 1082   1.632   4.929   0.386  0.3847  1.2339  0.4822
  375TIP3    H2 1083   1.553   4.952   0.259  0.2163  1.1022  0.5629
  376TIP3   OH2 1084   4.157   4.678   1.433  0.2422 -0.5422  0.3860
  376TIP3    H1 1085   4.120   4.609   1.377  0.2695 -0.7382  0.6101
  376TIP3    H2 1086   4.198   4.631   1.505 -2.1549 -0.2150  2.0825
  377TIP3   OH2 1087   7.455   3.621   3.792 -0.0478  0.0324 -0.0513
  377TIP3    H1 1088   7.377   3.631   3.846 -0.4639 -1.4370 -0.3323
  377TIP3    H2 1089   7.507   3.700   3.810 -1.6258  1.0950  0.0496
  378TIP3   OH2 1090   2.175   4.969   3.862  0.2013  0.1632 -0.4917
  378TIP3    H1 1091   2.175   4.920   3.945  2.7978  2.8844  1.2890
  378TIP3    H2 1092   2.099   5.027   3.869  1.3521  1.5680  0.8200
  379TIP3   OH2 1093   5.994   3.235   2.343 -0.5418  0.7052  0.2105
  379TIP3    H1 1094   5.938   3.276   2.409 -1.5669  0.0505 -0.2148
  379TIP3    H2 1095   5.943   3.160   2.312  1.2274 -0.8513  0.8813
  380TIP3   OH2 1096   2.117   3.224   2.230  1.2158  0.7104  0.6079
  380TIP3    H1 1097   2.156   3.307   2.202  3.0143  0.2468  1.6418
  380TIP3    H2 1098   2.165   3.157   2.181 -2.3223  0.2190 -2.7950
  381TIP3   OH2 1099   4.576   4.403   0.752 -0.3133  0.1296  0.0197
  381TIP3    H1 1100   4.525   4.328   0.783  1.2698 -1.3302 -0.7668
  381TIP3    H2 1101   4.631   4.428   0.827  0.4441 -0.6693 -0.2550
  382TIP3   OH2 1102   0.753   3.063   3.826 -0.1756  0.1390 -0.4192
  382TIP3    H1 1103   0.813   3.124   3.870 -0.3756 -1.0339  1.5886
  382TIP3    H2 1104   0.668   3.080   3.868 -0.4442 -0.8007 -0.5754
  383TIP3   OH2 1105   0.206   7.033   3.406 -0.3099  0.3798  0.1258
  383TIP3    H1 1106   0.207   7.062   3.497 -3.4220  1.8721 -0.1921
  383TIP3    H2 1107   0.285   7.073   3.368  0.8158  0.0829  1.9923
  384TIP3   OH2 1108   3.045   3.319   4.637  0.2024  0.4606 -0.3186
  384TIP3    H1 1109   3.091   3.263   4.699 -0.6295 -1.8071 -1.6218
  384TIP3    H2 1110   2.953   3.310   4.661  0.0089  0.8272 -0.9136
  385TIP3   OH2 1111   2.318   6.158   0.855  0.3997  0.1149 -0.4515
  385TIP3    H1 1112   2.393   6.101   0.873 -1.0134 -1.2241  1.5355
  385TIP3    H2 1113   2.243   6.110   0.888 -1.0213  2.6225  0.1753
  386TIP3   OH2 1114   4.951   6.679   2.229  0.2059 -0.5076 -0.2799
  386TIP3    H1 1115   5.017   6.617   2.199  0.4306 -0.0752 -0.6866
  386TIP3    H2 1116   4.934   6.734   2.152  0.0902  0.0026  0.1119
  387TIP3   OH2 1117   4.533   5.862   4.591 -0.2071  0.3763 -0.4282
  387TIP3    H1 1118   4.450   5.829   4.624  0.8719 -0.6938  1.3619
  387TIP3    H2 1119   4.532   5.838   4.498 -1.7628  0.1423 -0.3844
  388TIP3   OH2 1120   5.422   1.586   6.151 -0.4225 -0.1755  0.2981
  388TIP3    H1 1121   5.438   1.680   6.149  0.7297 -0.3625 -1.2619
  388TIP3    H2 1122   5.494   1.548   6.101 -1.3387 -1.8226  0.1383
  389TIP3   OH2 1123   7.974   0.083   0.983 -0.0613 -0.1271 -0.0732
  389TIP3    H1 1124   7.891   0.129   0.967  1.0911  2.9752  1.9179
  389TIP3    H2 1125   8.038   0.131   0.931  1.1469  0.4464  1.8293
  390TIP3   OH2 1126   1.626   7.371   4.661 -0.1739 -0.3864 -0.2640
  390TIP3    H1 1127   1.686   7.359   4.734  1.6365  1.6419 -1.2945
  390TIP3    H2 1128   1.681   7.359   4.583 -1.1660  1.1868 -1.2519
  391TIP3   OH2 1129   4.699   0.559   4.958  0.0128 -0.1318  0.6499
  391TIP3    H1 1130   4.784   0.527   4.987  0.4464 -1.8518 -2.1199
  391TIP3    H2 1131   4.641   0.484   4.965 -0.1764 -0.2347 -1.3810
  392TIP3   OH2 1132   6.568   3.390   5.926 -0.1815  0.0112  0.1320
  392TIP3    H1 1133   6.570   3.437   6.009 -1.2482 -0.7661  0.6264
  392TIP3    H2 1134   6.553   3.299   5.950  0.5720 -0.3914 -0.8712
  393TIP3   OH2 1135   6.999   1.135   2.493 -0.4112  0.0950 -0.1450
  393TIP3    H1 1136   6.993   1.045   2.524  0.3731  0.8397  2.4093
  393TIP3    H2 1137   6.995   1.128   2.398 -3.1964 -2.3634  0.0333
  394TIP3   OH2 1138   2.515   0.819   5.852  0.6525 -0.7392  0.5082
  394TIP3    H1 1139   2.577   0.759   5.810  0.4504 -1.0166  0.6013
  394TIP3    H2 1140   2.558   0.904   5.849 -0.0440 -0.4087 -1.7362
  395TIP3   OH2 1141   5.753   3.793   1.962 -0.2704  0.4943  0.5892
  395TIP3    H1 1142   5.661   3.804   1.939 -0.4640 -1.5246  0.2514
  395TIP3    H2 1143   5.800   3.850   1.901 -1.2468  1.0779  0.3651
  396TIP3   OH2 1144   7.977   6.478   6.664  0.2960  0.3158 -0.3775
  396TIP3    H1 1145   8.026   6.398   6.683 -0.0761 -0.5656 -2.7965
  396TIP3    H2 1146   8.042   6.548   6.665  1.2825 -0.5528 -1.6211
  397TIP3   OH2 1147   2.071   2.613   1.526 -0.0701 -0.3633  0.0977
  397TIP3    H1 1148   2.033   2.526   1.512  0.8313 -0.6979 -0.3447
  397TIP3    H2 1149   2.000   2.674   1.506  0.1560 -0.9053 -2.6825
  398TIP3   OH2 1150   7.268   0.782   6.612 -0.1221  0.1157 -0.7917
  398TIP3    H1 1151   7.298   0.811   6.698 -0.6586 -1.3485 -0.0769
  398TIP3    H2 1152   7.183   0.826   6.600 -0.1769  0.1015 -0.4584
  399TIP3   OH2 1153   8.287   2.810   0.641  0.0010  0.1611 -0.0234
  399TIP3    H1 1154   8.335   2.790   0.561  1.1922 -0.3193  0.7781
  399TIP3    H2 1155   8.315   2.898   0.666  0.4238 -0.0959  0.4158
  400TIP3   OH2 1156   6.115   5.485   0.948  0.1139 -0.3035  0.3346
  400TIP3    H1 1157   6.056   5.411   0.953 -1.8375  1.2252  1.6897
  400TIP3    H2 1158   6.168   5.479   1.028 -0.3768  0.0038  0.6880
  401TIP3   OH2 1159   7.562   1.483   1.602 -0.4150 -0.1573  0.6668
  401TIP3    H1 1160   7.653   1.478   1.632  0.2519 -1.1476 -1.3466
  401TIP3    H2 1161   7.521   1.404   1.635 -0.0603 -0.5652  0.1412
  402TIP3   OH2 1162   3.765   4.826   3.230 -0.0267  0.3434  0.7238
  402TIP3    H1 1163   3.730   4.751   3.183  0.3020  0.2208  0.6717
  402TIP3    H2 1164   3.694   4.854   3.288  0.0671 -0.4112  1.2125
  403TIP3   OH2 1165   7.455   4.292   3.446  0.2340 -0.1343  0.5295
  403TIP3    H1 1166   7.511   4.245   3.384 -0.2915 -0.2075  0.1025
  403TIP3    H2 1167   7.411   4.222   3.495  0.9741 -0.0758  1.2893
  404TIP3   OH2 1168   6.260   1.510   0.403  0.0265  0.0771 -0.4332
  404TIP3    H1 1169   6.181   1.561   0.423 -0.2885 -0.4020 -0.4579
  404TIP3    H2 1170   6.294   1.483   0.488  1.1379  1.7198 -0.3009
  405TIP3   OH2 1171   2.788   4.135   3.984 -0.1148  0.0045 -0.1388
  405TIP3    H1 1172   2.712   4.085   4.012 -0.4765  1.3044  1.3151
  405TIP3    H2 1173   2.854   4.069   3.963 -0.6328 -1.0987  1.5440
  406TIP3   OH2 1174   4.110   3.307   5.609  0.4275  0.3007 -0.5034
  406TIP3    H1 1175   4.064   3.250   5.549  1.4352 -0.8919 -0.1919
  406TIP3    H2 1176   4.050   3.318   5.683  0.3855 -0.7215 -0.3747
  407TIP3   OH2 1177   8.083   4.535   6.172  0.0658  0.2626 -0.4880
  407TIP3    H1 1178   8.089   4.458   6.228  1.3202 -0.4791 -1.5743
  407TIP3    H2 1179   8.052   4.500   6.088 -1.4548  1.2960 -0.4103
  408TIP3   OH2 1180   2.360   2.844   0.383  0.7883  0.6011  0.0467
  408TIP3    H1 1181   2.415   2.773   0.352  0.7501  0.7574 -0.3869
  408TIP3    H2 1182   2.313   2.875   0.305  2.0536  2.2118 -0.1331
  409TIP3   OH2 1183   5.767   1.806   2.410 -0.0645  0.4735 -0.5268
  409TIP3    H1 1184   5.792   1.867   2.341 -0.4802  2.7474  1.2223
  409TIP3    H2 1185   5.684   1.841   2.443  0.9011  0.4248  2.1530
  410TIP3   OH2 1186   7.010   6.194   2.509  0.4444  0.1679 -0.2912
  410TIP3    H1 1187   6.992   6.181   2.416  0.9862 -0.2210 -0.3478
  410TIP3    H2 1188   7.082   6.257   2.512 -0.2180  0.9177 -0.1040
  411TIP3   OH2 1189   1.916   5.117   5.699 -0.6260 -0.1363  0.5121
  411TIP3    H1 1190   1.829   5.137   5.732 -1.5608 -0.8718 -1.3745
  411TIP3    H2 1191   1.922   5.021   5.701 -0.2033 -0.1387 -0.1448
  412TIP3   OH2 1192   5.994   0.476   3.428  0.3873  0.3715  0.0982
  412TIP3    H1 1193   5.933   0.549   3.417 -0.4478 -0.2688  0.3702
  412TIP3    H2 1194   5.956   0.423   3.498  1.1401 -0.1641  0.1127
  413TIP3   OH2 1195   7.897   2.955   3.640 -0.2283  0.2836 -0.1973
  413TIP3    H1 1196   7.842   2.948   3.718 -0.7560 -1.8278 -0.6932
  413TIP3    H2 1197   7.901   3.049   3.622 -2.0394  0.6533  1.0114
  414TIP3   OH2 1198   2.599   3.481   4.662  0.7332  0.1026  0.3522
  414TIP3    H1 1199   2.666   3.509   4.724  2.1340 -1.5435 -0.3282
  414TIP3    H2 1200   2.647   3.469   4.580 -0.5654 -0.3776 -0.3561
  415TIP3   OH2 1201   5.291   6.420   1.891  0.0369  0.0983  0.2577
  415TIP3    H1 1202   5.352   6.494   1.890  0.1587  0.0272  1.3974
  415TIP3    H2 1203   5.348   6.343   1.887 -0.0536  0.0463 -0.0905
  416TIP3   OH2 1204   3.361   3.347   0.590 -0.0335  0.1162 -0.1928
  416TIP3    H1 1205   3.326   3.301   0.666 -0.9158  1.1971  0.0823
  416TIP3    H2 1206   3.393   3.277   0.532 -0.7306 -0.7928  0.4911
  417TIP3   OH2 1207   1.164   3.757   5.355 -0.1634  0.2487 -0.3310
  417TIP3    H1 1208   1.243   3.712   5.325 -0.6951 -1.4002  0.6175
  417TIP3    H2 1209   1.092   3.700   5.331 -0.8607  0.5000  1.0302
  418TIP3   OH2 1210   7.674   6.037   5.360 -0.2146  0.5359 -0.4666
  418TIP3    H1 1211   7.632   6.113   5.319 -1.7269  0.8540  1.5236
  418TIP3    H2 1212   7.630   5.961   5.321 -1.3052  0.8207  0.1649
  419TIP3   OH2 1213   5.318   1.282   1.640 -0.4799 -0.0875  0.3371
  419TIP3    H1 1214   5.378   1.346   1.603  0.9672 -1.1072  0.8033
  419TIP3    H2 1215   5.296   1.316   1.726 -1.3309  0.7395 -0.1885
  420TIP3   OH2 1216   2.784   7.002   1.881  0.1144  0.2105  0.0878
  420TIP3    H1 1217   2.775   7.072   1.816  1.8571  0.6751  0.3180
  420TIP3    H2 1218   2.824   6.930   1.834 -0.2116 -0.0770  0.2430
  421TIP3   OH2 1219   5.816   3.330   2.541 -0.7924 -0.2697  0.6630
  421TIP3    H1 1220   5.786   3.415   2.510 -0.9633 -0.2708  0.8249
  421TIP3    H2 1221   5.736   3.277   2.545 -0.4665 -1.0447 -1.3464
  422TIP3   OH2 1222   2.976   2.230   4.726 -0.1742  0.6660  0.1096
  422TIP3    H1 1223   2.968   2.252   4.819 -0.8341  1.1416 -0.0512
  422TIP3    H2 1224   2.894   2.261   4.687  0.3365  0.9740 -0.7372
  423TIP3   OH2 1225   2.377   5.898   4.077 -0.3487  0.5218  0.0757
  423TIP3    H1 1226   2.423   5.889   3.993 -1.2022 -0.9641 -0.2702
  423TIP3    H2 1227   2.379   5.992   4.095  1.1748  0.7179 -0.8440
  424TIP3   OH2 1228   7.626   0.633   1.824 -0.3747 -0.2924  0.0943
  424TIP3    H1 1229   7.550   0.675   1.865  1.6045  1.1517  2.5668
  424TIP3    H2 1230   7.644   0.687   1.747 -3.2360 -2.1427 -2.0738
  425TIP3   OH2 1231   4.832   7.050   2.854 -0.4607 -0.0201 -0.4807
  425TIP3    H1 1232   4.768   7.085   2.916 -0.6542  2.4971 -1.9341
  425TIP3    H2 1233   4.914   7.095   2.877  0.1702 -1.2568 -0.2578
  426TIP3   OH2 1234   1.622   1.054   2.513  0.4222 -0.6451  0.4144
  426TIP3    H1 1235   1.536   1.014   2.499  0.7231 -1.4833  0.8841
  426TIP3    H2 1236   1.603   1.146   2.531 -0.4363 -0.9935  1.3454
  427TIP3   OH2 1237   3.039   4.162   0.430 -0.0314 -0.1856  0.3354
  427TIP3    H1 1238   3.125   4.186   0.464 -0.5454  1.2773  0.6644
  427TIP3    H2 1239   3.036   4.200   0.342 -0.1161 -0.7551  0.0900
  428TIP3   OH2 1240   6.565   2.331   3.862 -0.0075 -0.0502 -0.5068
  428TIP3    H1 1241   6.498   2.306   3.925  1.0771 -1.3776  0.1777
  428TIP3    H2 1242   6.538   2.289   3.780 -0.1715 -0.3325 -0.3089
  429TIP3   OH2 1243   6.028   3.537   2.133  0.2513  0.1203  0.1409
  429TIP3    H1 1244   6.003   3.491   2.053  0.8303 -0.8534  0.4913
  429TIP3    H2 1245   5.964   3.607   2.143 -1.3426 -1.2824  0.1386
  430TIP3   OH2 1246   5.749   7.300   6.135 -0.1540 -0.0731  0.1778
  430TIP3    H1 1247   5.740   7.206   6.151 -0.2252  0.2714  2.5495
  430TIP3    H2 1248   5.712   7.341   6.214 -1.8421  2.0163 -1.5705
  431TIP3   OH2 1249   4.096   1.542   0.114 -0.1278 -0.0308  0.1243
  431TIP3    H1 1250   4.018   1.570   0.163 -1.2695 -0.8039 -1.1772
  431TIP3    H2 1251   4.061   1.498   0.037  1.5354  2.5665 -2.3178
  432TIP3   OH2 1252   6.519   2.648   1.015 -0.1239 -0.5878 -0.5328
  432TIP3    H1 1253   6.477   2.678   0.935  0.0838 -0.7115 -0.6885
  432TIP3    H2 1254   6.503   2.718   1.078  2.7739  1.2773 -1.6362
  433TIP3   OH2 1255   5.026   1.597   2.754  0.4307  0.4208  0.4592
  433TIP3    H1 1256   5.119   1.613   2.771  0.3900  0.9409  0.2100
  433TIP3    H2 1257   5.015   1.618   2.662  0.0314  0.5020  0.5257
  434TIP3   OH2 1258   2.738   0.630   5.751  0.0508 -0.2639 -0.1044
  434TIP3    H1 1259   2.825   0.608   5.785  1.3210  2.3477 -1.3860
  434TIP3    H2 1260   2.706   0.548   5.713  1.2368 -1.6722  1.7496
  435TIP3   OH2 1261   1.313   5.122   1.436 -0.6918 -0.6108 -0.7943
  435TIP3    H1 1262   1.245   5.098   1.499  1.4804 -0.7352  1.6637
  435TIP3    H2 1263   1.345   5.038   1.403 -0.4727 -0.6377 -0.5165
  436TIP3   OH2 1264   4.063   7.617   2.818 -0.3726 -0.3024 -0.2449
  436TIP3    H1 1265   4.018   7.680   2.875 -0.4766 -0.8357  0.2659
  436TIP3    H2 1266   4.042   7.531   2.855 -1.6663 -0.7587 -1.9617
  437TIP3   OH2 1267   3.070   1.611   5.367 -0.0768  0.0682 -0.7323
  437TIP3    H1 1268   3.138   1.560   5.412 -0.3550  0.4480  0.1239
  437TIP3    H2 1269   3.004   1.629   5.434 -0.7525  0.1943 -1.4185
  438TIP3   OH2 1270   1.263   4.376   1.188 -0.0396 -0.3249  0.2240
  438TIP3    H1 1271   1.271   4.396   1.095 -0.6598  0.4229  0.3172
  438TIP3    H2 1272   1.328   4.433   1.230 -0.3921  0.0052  0.3229
  439TIP3   OH2 1273   1.999   2.897   2.479  0.1078  0.2315  0.3859
  439TIP3    H1 1274   2.036   2.829   2.535  0.5131  0.5806  0.5475
  439TIP3    H2 1275   2.063   2.969   2.483  1.6195 -0.7648 -2.7733
  440TIP3   OH2 1276   5.727   6.871   6.120 -0.8750 -0.0568 -0.7104
  440TIP3    H1 1277   5.724   6.831   6.207  0.0306  0.0208 -0.6297
  440TIP3    H2 1278   5.644   6.917   6.112 -0.6744  0.5608  0.4280
  441TIP3   OH2 1279   0.547   7.012   0.447 -0.5321  0.0094  0.2344
  441TIP3    H1 1280   0.616   7.042   0.506 -0.2934 -0.9269  0.4477
  441TIP3    H2 1281   0.562   7.060   0.366  0.3909 -0.2007  0.2737
  442TIP3   OH2 1282   2.450   1.438   0.389 -0.6830 -0.1951 -0.4270
  442TIP3    H1 1283   2.499   1.356   0.389 -0.4498 -0.0666 -1.1671
  442TIP3    H2 1284   2.366   1.417   0.348 -1.1212 -0.3389  0.5314
  443TIP3   OH2 1285   5.508   2.843   1.308 -0.2198  0.2337  0.3378
  443TIP3    H1 1286   5.466   2.816   1.390  0.9304 -0.2849  0.7723
  443TIP3    H2 1287   5.492   2.769   1.249  1.9543 -1.0063  1.1860
  444TIP3   OH2 1288   4.685   6.032   3.965  0.3557 -0.2871 -0.0407
  444TIP3    H1 1289   4.714   5.947   3.997 -0.8324 -0.9977 -0.8302
  444TIP3    H2 1290   4.657   6.017   3.875  1.4213  1.2242 -0.6874
  445TIP3   OH2 1291   2.500   0.124   4.060 -0.1346  0.2965 -0.3964
  445TIP3    H1 1292   2.432   0.091   4.001  0.2290  1.2630 -1.4094
  445TIP3    H2 1293   2.453   0.170   4.129 -0.5342  0.9682 -1.0960
  446TIP3   OH2 1294   1.621   0.830   1.871 -0.0398  0.2453  0.2584
  446TIP3    H1 1295   1.627   0.797   1.960 -1.5212 -0.4516  0.1451
  446TIP3    H2 1296   1.527   0.838   1.855  0.1827  0.1532 -1.3021
  447TIP3   OH2 1297   4.697   5.403   1.007 -0.4615 -0.2141  0.1084
  447TIP3    H1 1298   4.688   5.447   0.922  0.2464 -0.2023  0.0320
  447TIP3    H2 1299   4.772   5.344   0.995 -0.3713 -0.2268  0.7164
  448TIP3   OH2 1300   3.035   5.750   4.464  0.3828 -0.4159  0.4431
  448TIP3    H1 1301   2.966   5.805   4.500  1.1255 -0.2896  1.7341
  448TIP3    H2 1302   3.046   5.781   4.374  0.0348  0.8065  0.8016
  449TIP3   OH2 1303   1.996   4.127   3.879  0.2729 -0.3048  0.1960
  449TIP3    H1 1304   2.013   4.034   3.892 -0.2329 -0.5652 -0.8616
  449TIP3    H2 1305   2.083   4.166   3.865  0.4479 -0.6914  0.2155
  450TIP3   OH2 1306   2.159   4.561   5.661 -0.0835  0.4830 -0.5958
  450TIP3    H1 1307   2.244   4.517   5.658 -0.6250 -0.5492 -1.7812
  450TIP3    H2 1308   2.160   4.611   5.743  0.3924 -2.0871  1.0772
  451TIP3   OH2 1309   0.085   2.051   6.022  0.1086  0.0759  0.1646
  451TIP3    H1 1310   0.048   1.984   5.965 -0.8431  2.0081 -1.6049
  451TIP3    H2 1311   0.017   2.069   6.086 -0.2629  0.4234 -0.3172
  452TIP3   OH2 1312   4.893   5.589   2.226  0.0651  0.0109 -0.2207
  452TIP3    H1 1313   4.938   5.520   2.178  0.3338  0.1443 -0.1588
  452TIP3    H2 1314   4.895   5.665   2.167  1.9742  0.7278  0.6790
  453TIP3   OH2 1315   0.623   6.363   4.734  0.4290 -0.6836  0.1189
  453TIP3    H1 1316   0.644   6.394   4.646 -3.5755  1.8610 -0.2161
  453TIP3    H2 1317   0.639   6.439   4.791  0.1299 -1.3186  1.0778
  454TIP3   OH2 1318   1.832   3.023   6.686  0.3328 -0.3166  0.0647
  454TIP3    H1 1319   1.771   3.041   6.615  0.9602 -1.5229 -0.8265
  454TIP3    H2 1320   1.913   3.065   6.659  0.0922  0.7487  0.9459
  455TIP3   OH2 1321   5.807   3.414   3.120 -0.4658  0.1843 -0.5505
  455TIP3    H1 1322   5.885   3.371   3.085  0.1734  1.7526 -1.1622
  455TIP3    H2 1323   5.823   3.421   3.214  0.7598  1.6463 -0.8368
  456TIP3   OH2 1324   4.591   6.423   5.244  0.1872  0.4128  0.2324
  456TIP3    H1 1325   4.639   6.460   5.170 -0.5341  0.9229  0.0057
  456TIP3    H2 1326   4.659   6.391   5.303  0.7704 -0.9647 -1.1064
  457TIP3   OH2 1327   2.021   6.217   6.513  0.0935 -0.0772 -0.3435
  457TIP3    H1 1328   2.056   6.294   6.559  1.9354 -1.7652  1.2936
  457TIP3    H2 1329   1.933   6.206   6.547 -0.0022  0.9804 -0.2103
  458TIP3   OH2 1330   1.741   0.088   5.631 -0.6863  0.4139 -0.7482
  458TIP3    H1 1331   1.788   0.065   5.711 -0.3222  0.7608 -0.8647
  458TIP3    H2 1332   1.797   0.151   5.586 -0.7860  0.0546 -1.3875
  459TIP3   OH2 1333   1.303   6.703   1.491 -0.5342  0.1590 -0.1774
  459TIP3    H1 1334   1.336   6.676   1.406 -0.8484 -0.0418 -0.2331
  459TIP3    H2 1335   1.251   6.782   1.473  1.1144  1.3755  0.0913
  460TIP3   OH2 1336   1.702   0.210   4.498  0.3076 -0.4235  0.2902
  460TIP3    H1 1337   1.763   0.279   4.523  0.3846 -1.0613  1.9933
  460TIP3    H2 1338   1.634   0.255   4.448  0.8080  0.7287  0.6121
  461TIP3   OH2 1339   1.922   4.937   6.030 -0.1233  0.4976 -0.3266
  461TIP3    H1 1340   1.939   4.913   5.939 -0.4053  1.0610 -0.5343
  461TIP3    H2 1341   1.907   4.854   6.075 -1.3862  0.2833 -1.0839
  462TIP3   OH2 1342   3.788   5.458   3.858  0.0892 -0.1040 -0.3183
  462TIP3    H1 1343   3.751   5.545   3.840 -0.4476  0.3971  2.7230
  462TIP3    H2 1344   3.728   5.419   3.922  1.5873 -1.7774  0.1346
  463TIP3   OH2 1345   7.688   7.719   1.338 -0.1104 -0.2019  0.1239
  463TIP3    H1 1346   7.736   7.754   1.263  0.5307 -0.3554  0.4536
  463TIP3    H2 1347   7.645   7.795   1.377 -0.4532 -0.1220 -0.4024
  464TIP3   OH2 1348   3.127   5.459   2.266  0.4085 -0.1207 -0.6605
  464TIP3    H1 1349   3.211   5.428   2.300 -0.1390 -0.6381  0.2817
  464TIP3    H2 1350   3.143   5.476   2.173  1.9736  1.3950 -0.1550
  465TIP3   OH2 1351   6.993   6.808   5.960 -0.0092  0.0455  0.0205
  465TIP3    H1 1352   6.948   6.890   5.981  1.0966  0.2569  1.8284
  465TIP3    H2 1353   7.054   6.795   6.033  0.4283 -1.9725 -0.6363
  466TIP3   OH2 1354   5.168   2.844   2.200 -0.2109 -0.1575 -0.0623
  466TIP3    H1 1355   5.107   2.808   2.135  1.4795 -3.1374 -0.1738
  466TIP3    H2 1356   5.143   2.801   2.282  2.5774 -2.7857 -0.4108
  467TIP3   OH2 1357   6.542   6.648   1.048 -0.0476 -0.6213 -0.1053
  467TIP3    H1 1358   6.512   6.718   1.106  1.8737  1.6619 -1.6780
  467TIP3    H2 1359   6.463   6.622   1.000 -1.3458 -1.4951  2.3197
  468TIP3   OH2 1360   2.595   4.592   3.573 -0.2919  0.2006  0.4646
  468TIP3    H1 1361   2.583   4.674   3.622 -1.4730 -0.0856  0.6831
  468TIP3    H2 1362   2.681   4.560   3.600 -0.3704  0.7155  1.3532
  469TIP3   OH2 1363   3.858   3.230   2.639  0.1699 -0.1935 -0.0357
  469TIP3    H1 1364   3.793   3.183   2.588 -1.3451  1.0592  0.6611
  469TIP3    H2 1365   3.886   3.167   2.705  0.4609 -1.0795 -0.9702
  470TIP3   OH2 1366   2.359   1.317   5.981 -0.6549 -0.5333 -0.6589
  470TIP3    H1 1367   2.417   1.271   5.920  0.4534 -1.3630  0.9341
  470TIP3    H2 1368   2.310   1.247   6.024 -0.7119 -0.0536  0.0652
  471TIP3   OH2 1369   7.723   3.930   1.338  0.2045  0.3875 -0.3693
  471TIP3    H1 1370   7.672   4.008   1.317  0.0425 -0.1730 -2.2478
  471TIP3    H2 1371   7.729   3.882   1.255 -0.7861 -2.2656  0.9694
  472TIP3   OH2 1372   0.559   1.165   4.238  0.1166 -0.8414  0.1267
  472TIP3    H1 1373   0.561   1.260   4.236 -0.9311 -0.8014  0.5993
  472TIP3    H2 1374   0.572   1.139   4.147 -0.3101 -0.2251 -0.1178
  473TIP3   OH2 1375   6.638   4.338   3.374  0.3212  0.1649 -0.1253
  473TIP3    H1 1376   6.573   4.327   3.304  2.3237 -0.1492 -2.0785
  473TIP3    H2 1377   6.594   4.310   3.453 -2.3104  1.2092 -1.1341
  474TIP3   OH2 1378   6.214   2.555   3.826  0.6359  0.7927 -0.2853
  474TIP3    H1 1379   6.129   2.518   3.851  1.5308 -0.9071  0.3801
  474TIP3    H2 1380   6.255   2.488   3.773  2.1858  0.9366  0.6751
  475TIP3   OH2 1381   1.656   6.741   1.394 -0.3478  0.2955  0.2590
  475TIP3    H1 1382   1.591   6.681   1.431  0.5744 -0.4564  0.6978
  475TIP3    H2 1383   1.679   6.702   1.310  0.8478 -0.4342  0.9004
  476TIP3   OH2 1384   7.173   3.108   4.656  0.1923  0.6862 -0.1685
  476TIP3    H1 1385   7.083   3.100   4.624  0.6904 -0.2876 -1.3923
  476TIP3    H2 1386   7.179   3.199   4.686 -0.6283  1.3679 -1.9143
  477TIP3   OH2 1387   0.201   2.770   5.350  0.6418  0.3360  0.8110
  477TIP3    H1 1388   0.228   2.861   5.360 -0.4696  0.8250 -0.3574
  477TIP3    H2 1389   0.105   2.772   5.354  0.6088 -0.8787  1.3667
  478TIP3   OH2 1390   5.268   6.876   1.157 -0.0987  0.5192 -0.6164
  478TIP3    H1 1391   5.299   6.944   1.217 -0.4486 -0.8044  1.1453
  478TIP3    H2 1392   5.176   6.897   1.142  0.2351  1.4052 -1.5080
  479TIP3   OH2 1393   4.001   4.108   3.230 -0.1115  0.1420  0.0267
  479TIP3    H1 1394   4.091   4.108   3.261 -0.3464 -0.6580  0.7561
  479TIP3    H2 1395   3.988   4.195   3.193  0.9430  0.2741 -0.0562
  480TIP3   OH2 1396   1.981   4.214   0.894 -0.4412  0.2383  0.0260
  480TIP3    H1 1397   2.029   4.288   0.858 -0.9346  1.0033  0.8915
  480TIP3    H2 1398   2.034   4.184   0.967  1.1605 -2.0649 -1.9195
  481TIP3   OH2 1399   0.296   6.214   4.217 -0.5285 -0.2922 -0.3241
  481TIP3    H1 1400   0.263   6.258   4.139 -0.3351 -0.6440 -0.6090
  481TIP3    H2 1401   0.333   6.132   4.184 -0.0702 -0.2537  0.0855
  482TIP3   OH2 1402   0.561   6.782   2.965  0.1751 -0.4772 -0.0743
  482TIP3    H1 1403   0.507   6.717   2.921  0.2157 -1.2529  0.9597
  482TIP3    H2 1404   0.651   6.754   2.947  0.1942 -0.5959  0.1927
  483TIP3   OH2 1405   6.777   4.402   3.735 -0.2120 -0.1553 -0.1157
  483TIP3    H1 1406   6.846   4.454   3.776 -2.8198  0.8151  3.4826
  483TIP3    H2 1407   6.738   4.352   3.806 -2.5458 -1.5198 -2.1768
  484TIP3   OH2 1408   6.876   3.383   5.637 -0.5310  0.3355  0.1875
  484TIP3    H1 1409   6.811   3.335   5.689  1.2604 -0.8523  1.4175
  484TIP3    H2 1410   6.839   3.384   5.548 -2.0684 -0.5849  0.7854
  485TIP3   OH2 1411   6.017   2.383   6.753 -0.0618 -0.1014  0.1904
  485TIP3    H1 1412   6.007   2.341   6.838  1.0835 -0.6923  0.0476
  485TIP3    H2 1413   5.948   2.345   6.699  0.8498 -1.7195  0.1134
  486TIP3   OH2 1414   1.884   4.249   3.663  0.4345  0.3649  0.1514
  486TIP3    H1 1415   1.924   4.220   3.746  1.5467 -2.7502 -1.2844
  486TIP3    H2 1416   1.954   4.296   3.618  0.7339 -0.2753 -0.0734
  487TIP3   OH2 1417   2.607   7.360   5.649 -0.2699 -0.0037  0.2512
  487TIP3    H1 1418   2.637   7.442   5.609  0.6649 -0.2877  0.3282
  487TIP3    H2 1419   2.635   7.366   5.740 -3.4473  1.1679  1.2881
  488TIP3   OH2 1420   4.909   1.809   0.364 -0.2469 -0.3232 -0.5679
  488TIP3    H1 1421   4.969   1.805   0.289  1.2333 -0.0875  0.5585
  488TIP3    H2 1422   4.912   1.900   0.393 -1.2137 -0.2978 -0.5100
  489TIP3   OH2 1423   3.495   7.694   4.093 -0.0026  0.7125 -0.2530
  489TIP3    H1 1424   3.436   7.732   4.158  0.5848  0.7203  0.2777
  489TIP3    H2 1425   3.458   7.606   4.076 -0.0846  0.6643  0.1749
  490TIP3   OH2 1426   6.186   2.452   1.178  0.1582 -0.5152  0.1281
  490TIP3    H1 1427   6.114   2.490   1.229 -0.3698 -2.0768  0.5913
  490TIP3    H2 1428   6.188   2.360   1.204  1.0698 -0.9362 -1.3356
  491TIP3   OH2 1429   5.494   0.953   0.722  0.0225 -0.0946 -0.3740
  491TIP3    H1 1430   5.439   0.936   0.645  1.5472 -0.2489 -1.4648
  491TIP3    H2 1431   5.466   1.039   0.753  0.6414  0.8324 -2.2642
  492TIP3   OH2 1432   0.394   3.930   3.931  0.0944 -0.0650 -0.0997
  492TIP3    H1 1433   0.413   4.024   3.929 -0.7813  0.1229  0.0375
  492TIP3    H2 1434   0.419   3.902   4.020  0.3303  0.0404 -0.1325
  493TIP3   OH2 1435   0.644   0.246   2.668 -0.5269 -0.2952 -0.0353
  493TIP3    H1 1436   0.710   0.237   2.736 -1.3561  0.8320  0.9793
  493TIP3    H2 1437   0.693   0.255   2.587  0.5162 -0.7229  0.5370
  494TIP3   OH2 1438   6.451   4.660   2.653 -0.3883 -0.8775 -0.3053
  494TIP3    H1 1439   6.366   4.682   2.690 -0.5698  0.8261 -1.6208
  494TIP3    H2 1440   6.437   4.575   2.610 -1.7388 -0.1621 -1.3672
  495TIP3   OH2 1441   3.544   6.749   4.090  0.0432  0.7967 -0.1481
  495TIP3    H1 1442   3.549   6.751   4.185 -0.2183 -2.1926  0.0277
  495TIP3    H2 1443   3.635   6.737   4.061  0.2091  2.3564 -0.3666
  496TIP3   OH2 1444   3.333   7.169   2.998 -0.2814 -0.0768 -0.3085
  496TIP3    H1 1445   3.325   7.246   2.942 -0.0258  0.5950  0.5608
  496TIP3    H2 1446   3.294   7.195   3.081  1.6391 -0.1534  0.6793
  497TIP3   OH2 1447   5.204   5.153   6.377  0.3524 -0.4773 -0.1368
  497TIP3    H1 1448   5.208   5.198   6.462 -1.3579  1.0367 -0.8066
  497TIP3    H2 1449   5.245   5.214   6.316  0.3049 -0.9451 -0.6428
  498TIP3   OH2 1450   6.243   2.004   5.690  0.3937  0.0497 -0.1692
  498TIP3    H1 1451   6.251   2.041   5.778  1.0669  0.6732 -0.4813
  498TIP3    H2 1452   6.237   2.080   5.632 -0.7814 -0.3520 -0.6157
  499TIP3   OH2 1453   7.809   0.898   4.384 -0.0841  0.0080 -0.0061
  499TIP3    H1 1454   7.867   0.909   4.309  1.1679 -0.3790  0.8849
  499TIP3    H2 1455   7.781   0.987   4.405  2.8237  0.6757  1.5517
  500TIP3   OH2 1456   0.866   1.673   1.735 -0.1204  0.6226  0.1778
  500TIP3    H1 1457   0.908   1.758   1.730 -1.4046  1.2469 -0.5800
  500TIP3    H2 1458   0.902   1.623   1.662  0.9517  0.3488  0.8781
  501TIP3   OH2 1459   1.241   5.349   3.368 -0.1998 -0.1733  0.2191
  501TIP3    H1 1460   1.173   5.292   3.333  0.3896 -1.1221  0.5751
  501TIP3    H2 1461   1.244   5.329   3.461 -1.1104  1.6572  0.6959
  502TIP3   OH2 1462   3.276   2.378   6.056  0.2986 -0.1575  0.0966
  502TIP3    H1 1463   3.370   2.377   6.037  0.1937 -1.6741 -0.4772
  502TIP3    H2 1464   3.235   2.394   5.971  0.0322  1.0921  0.4432
  503TIP3   OH2 1465   6.206   5.803   2.549  0.1718 -0.1613 -0.0379
  503TIP3    H1 1466   6.207   5.898   2.557  1.2912 -0.2598  1.1563
  503TIP3    H2 1467   6.114   5.779   2.561  0.0223  0.6929  0.5693
  504TIP3   OH2 1468   6.796   7.427   2.520  0.1139 -0.1365 -0.0816
  504TIP3    H1 1469   6.712   7.442   2.563  0.6670 -0.6289  1.2382
  504TIP3    H2 1470   6.784   7.344   2.474 -0.0527 -0.3198  0.2880
  505TIP3   OH2 1471   3.006   5.085   4.162  0.1646 -0.5268 -0.2225
  505TIP3    H1 1472   3.093   5.072   4.200  0.3711 -0.6622 -0.7395
  505TIP3    H2 1473   2.996   5.180   4.155 -0.2983 -0.4510  1.1373
  506TIP3   OH2 1474   3.494   2.538   6.704 -0.2099  0.5714  0.4990
  506TIP3    H1 1475   3.525   2.465   6.650 -2.5425 -0.3725  0.3035
  506TIP3    H2 1476   3.482   2.501   6.791 -1.8494  0.5351  0.2941
  507TIP3   OH2 1477   8.270   3.681   2.107 -0.0022 -0.1562  0.2394
  507TIP3    H1 1478   8.215   3.684   2.185 -1.8516  0.4566 -1.0082
  507TIP3    H2 1479   8.277   3.589   2.085 -3.8577 -0.1784 -1.6890
  508TIP3   OH2 1480   5.578   7.853   6.763 -0.9143  0.2413 -0.0642
  508TIP3    H1 1481   5.570   7.758   6.751 -0.3815  0.2042 -0.1771
  508TIP3    H2 1482   5.665   7.864   6.802 -0.6262  0.7498 -0.8268
  509TIP3   OH2 1483   4.052   4.882   3.698  0.3081 -0.2038  0.0936
  509TIP3    H1 1484   4.082   4.878   3.789 -1.0006  1.4877  0.6531
  509TIP3    H2 1485   4.048   4.976   3.679 -1.6737 -0.4613 -0.9279
  510TIP3   OH2 1486   8.049   0.919   3.413 -0.9490 -0.2399  0.0769
  510TIP3    H1 1487   8.080   0.853   3.475 -0.0305 -1.3292 -1.4515
  510TIP3    H2 1488   8.047   0.873   3.329 -0.5710  1.6010 -0.9971
  511TIP3   OH2 1489   4.996   5.203   3.845 -0.0068 -0.4556  0.3231
  511TIP3    H1 1490   4.982   5.148   3.768 -0.4724  0.8451 -0.5446
  511TIP3    H2 1491   5.089   5.191   3.866 -0.0805 -1.4959  0.1141
  512TIP3   OH2 1492   6.308   0.986   2.028  0.1316 -0.2188 -0.1059
  512TIP3    H1 1493   6.274   0.898   2.041 -0.1526  0.1088  1.6540
  512TIP3    H2 1494   6.237   1.044   2.055  0.4147  0.5587 -0.9786
  513TIP3   OH2 1495   0.091   0.877   0.364  0.3165  0.2067 -0.2773
  513TIP3    H1 1496   0.043   0.833   0.435 -0.3772 -0.1461 -0.9497
  513TIP3    H2 1497   0.160   0.815   0.340  0.8374  0.5210  0.3876
  514TIP3   OH2 1498   8.261   4.449   1.347  0.0835 -0.4006  0.0366
  514TIP3    H1 1499   8.338   4.505   1.356  0.7474 -1.3178  0.2047
  514TIP3    H2 1500   8.263   4.391   1.423  1.6276 -3.2434 -1.9486
  515TIP3   OH2 1501   1.033   3.093   1.107 -0.3108 -0.2345  0.0725
  515TIP3    H1 1502   0.941   3.105   1.085 -0.0835  0.4976 -0.5035
  515TIP3    H2 1503   1.032   3.040   1.187 -1.2533  0.6058  0.6391
  516TIP3   OH2 1504   0.356   5.197   1.594  0.2355  0.3490 -0.0024
  516TIP3    H1 1505   0.449   5.184   1.576  0.8292  1.1926  2.1945
  516TIP3    H2 1506   0.336   5.282   1.556  0.1677 -0.0948 -1.0086
  517TIP3   OH2 1507   2.859   3.504   3.283  0.0630 -0.6356  0.2885
  517TIP3    H1 1508   2.776   3.457   3.289  0.5888 -1.4266  2.4337
  517TIP3    H2 1509   2.838   3.594   3.306 -0.6452 -0.1378 -2.0720
  518TIP3   OH2 1510   4.850   7.516   1.482  0.6705 -0.5607 -0.8805
  518TIP3    H1 1511   4.927   7.497   1.535  0.8142 -3.0186 -1.8174
  518TIP3    H2 1512   4.885   7.555   1.402  0.8718 -0.7788 -0.9009
  519TIP3   OH2 1513   5.045   4.784   4.609 -0.6109  0.6192 -0.1706
  519TIP3    H1 1514   4.988   4.848   4.566  0.5296  0.9547 -1.2419
  519TIP3    H2 1515   5.124   4.833   4.632 -0.7611  0.1834  1.3698
  520TIP3   OH2 1516   5.261   3.474   4.211 -0.1540 -0.5875 -0.5550
  520TIP3    H1 1517   5.249   3.382   4.191  1.3832 -0.8422 -0.4073
  520TIP3    H2 1518   5.354   3.483   4.229 -0.5120  0.7144  0.8962
  521TIP3   OH2 1519   5.928   6.549   2.531 -0.4156 -0.4558  0.2949
  521TIP3    H1 1520   5.996   6.531   2.466 -1.5754 -1.5829 -0.6651
  521TIP3    H2 1521   5.917   6.644   2.529 -0.0977 -0.4337 -0.8134
  522TIP3   OH2 1522   3.376   4.184   1.275 -0.3885  0.0139 -0.3812
  522TIP3    H1 1523   3.425   4.266   1.285 -0.2508 -0.1407  0.2875
  522TIP3    H2 1524   3.441   4.115   1.292 -1.1281 -0.1709  2.0946
  523TIP3   OH2 1525   4.130   2.441   5.610 -0.9987  0.6248 -0.0326
  523TIP3    H1 1526   4.075   2.403   5.678  0.2711 -0.2363  0.5592
  523TIP3    H2 1527   4.127   2.379   5.538 -0.4302  0.3345  0.1899
  524TIP3   OH2 1528   7.898   4.747   5.337 -0.0770  0.5319 -0.3926
  524TIP3    H1 1529   7.987   4.724   5.365 -1.0713 -0.1203  2.5493
  524TIP3    H2 1530   7.908   4.835   5.299  1.9196  0.1323 -0.9451
  525TIP3   OH2 1531   2.208   1.157   4.294 -0.2241 -0.1435 -0.2352
  525TIP3    H1 1532   2.213   1.222   4.224 -0.1215  0.4772  0.3383
  525TIP3    H2 1533   2.271   1.089   4.269  0.7559  0.7010 -0.1071
  526TIP3   OH2 1534   4.455   2.667   4.796 -0.4327 -0.5189 -0.7616
  526TIP3    H1 1535   4.433   2.646   4.705 -1.3515 -0.3957 -0.5808
  526TIP3    H2 1536   4.376   2.645   4.846 -0.8983  1.8293 -0.3312
  527TIP3   OH2 1537   7.155   3.143   0.259  0.0175 -0.9262 -0.6639
  527TIP3    H1 1538   7.063   3.119   0.268  0.0379 -0.4029  1.3586
  527TIP3    H2 1539   7.203   3.061   0.274 -0.0101 -0.3719  3.4731
  528TIP3   OH2 1540   3.794   2.430   6.163  0.9780  0.0483  0.2344
  528TIP3    H1 1541   3.792   2.345   6.208 -1.3093 -0.8436 -1.3976
  528TIP3    H2 1542   3.767   2.492   6.230  1.7980 -0.6130  1.2162
  529TIP3   OH2 1543   5.457   1.784   4.695  1.0100  0.0425 -0.3068
  529TIP3    H1 1544   5.551   1.769   4.688  1.2896  1.3285  0.3637
  529TIP3    H2 1545   5.447   1.830   4.779 -0.3901 -1.4222  0.3902
  530TIP3   OH2 1546   5.074   6.427   0.282 -0.0747 -0.2134  0.1912
  530TIP3    H1 1547   5.033   6.383   0.208 -0.7334 -0.3530  0.6351
  530TIP3    H2 1548   5.048   6.375   0.358 -0.0290  0.3702  0.6063
  531TIP3   OH2 1549   3.864   3.284   0.338 -0.1199  0.5448 -0.0110
  531TIP3    H1 1550   3.926   3.296   0.266  0.6253 -2.7004 -0.0469
  531TIP3    H2 1551   3.919   3.280   0.417 -0.0434 -2.7720 -0.0827
  532TIP3   OH2 1552   3.549   3.881   5.278  0.2178  0.3768  0.2478
  532TIP3    H1 1553   3.574   3.799   5.235 -1.8937 -0.8959  1.2278
  532TIP3    H2 1554   3.600   3.883   5.359  1.8505  1.1680 -0.7575
  533TIP3   OH2 1555   3.007   1.126   3.614 -0.4578  0.3620 -0.1102
  533TIP3    H1 1556   3.009   1.030   3.613 -0.1344  0.3667  0.1628
  533TIP3    H2 1557   2.918   1.148   3.587 -0.6690 -0.0212  0.2592
  534TIP3   OH2 1558   4.094   1.272   5.938 -0.7104 -0.4254  0.5253
  534TIP3    H1 1559   4.071   1.361   5.963  0.8321  0.3588 -0.7006
  534TIP3    H2 1560   4.164   1.282   5.873  1.7843 -2.5530  2.6323
  535TIP3   OH2 1561   4.091   3.520   2.365  0.5460  0.2631  0.7775
  535TIP3    H1 1562   4.164   3.558   2.315  1.2379  3.0499  3.6047
  535TIP3    H2 1563   4.017   3.579   2.348 -0.2248 -0.7814  0.3785
  536TIP3   OH2 1564   5.621   2.316   4.275 -0.1314 -0.1459  0.3452
  536TIP3    H1 1565   5.576   2.395   4.245  1.1041  0.4742  0.0577
  536TIP3    H2 1566   5.587   2.301   4.363 -1.8171 -0.4336 -0.3286
  537TIP3   OH2 1567   6.058   4.097   3.437 -0.1479  0.0656  0.1845
  537TIP3    H1 1568   6.092   4.173   3.486  0.7930 -0.9765  1.2368
  537TIP3    H2 1569   5.973   4.080   3.476  1.1848 -1.6400  2.6219
  538TIP3   OH2 1570   2.574   5.238   6.670  0.1374 -0.5142 -0.0502
  538TIP3    H1 1571   2.539   5.170   6.613  0.7960 -0.7441 -0.1961
  538TIP3    H2 1572   2.634   5.191   6.729  0.9858  0.0046 -0.4839
  539TIP3   OH2 1573   5.001   2.923   5.488  0.2155  0.1376  0.0893
  539TIP3    H1 1574   5.093   2.944   5.473 -0.4469  1.6551 -2.3849
  539TIP3    H2 1575   4.984   2.954   5.577  1.5623  1.9464 -0.2288
  540TIP3   OH2 1576   4.832   7.438   5.649  0.2101 -0.0602 -0.1327
  540TIP3    H1 1577   4.819   7.447   5.744  1.3535 -0.7941  0.1076
  540TIP3    H2 1578   4.754   7.392   5.619 -0.1017  0.0538  0.4830
  541TIP3   OH2 1579   0.667   6.375   5.829 -0.6030 -0.5062  0.2836
  541TIP3    H1 1580   0.592   6.393   5.886  0.1089 -0.3444  1.2007
  541TIP3    H2 1581   0.705   6.462   5.812 -1.2658 -0.4754 -1.0955
  542TIP3   OH2 1582   7.252   4.008   1.355 -0.0658  0.2654 -0.6454
  542TIP3    H1 1583   7.169   4.032   1.397  0.0089 -1.5206  0.6716
  542TIP3    H2 1584   7.319   4.055   1.405  0.0242 -1.8859  1.4470
  543TIP3   OH2 1585   1.539   6.111   1.196  0.7655  0.0818  0.4847
  543TIP3    H1 1586   1.509   6.150   1.278 -1.1294  0.1401 -0.1878
  543TIP3    H2 1587   1.594   6.037   1.224 -1.4035 -1.1227  1.8892
  544TIP3   OH2 1588   2.061   1.703   0.642 -0.2431  0.7532  0.1864
  544TIP3    H1 1589   2.123   1.631   0.650 -1.8237 -0.5918  1.0889
  544TIP3    H2 1590   2.054   1.718   0.548  0.7306  0.3051  0.0276
  545TIP3   OH2 1591   0.048   5.084   0.667 -0.2588  0.5258 -0.0192
  545TIP3    H1 1592  -0.029   5.127   0.704  1.3046  2.2596  1.3682
  545TIP3    H2 1593   0.063   5.009   0.725 -0.1673  0.9077  0.4523
  546TIP3   OH2 1594   4.287   1.540   1.242 -0.0991 -0.6452 -0.3870
  546TIP3    H1 1595   4.327   1.605   1.183 -0.1475 -1.4856 -1.3790
  546TIP3    H2 1596   4.362   1.494   1.279 -0.0349  0.3899  0.8513
  547TIP3   OH2 1597   6.920   2.997   0.303  0.5705 -0.4080 -0.2694
  547TIP3    H1 1598   6.839   2.996   0.253  0.3456 -2.0085  0.0608
  547TIP3    H2 1599   6.966   2.917   0.276  1.1770 -0.4725  0.8820
  548TIP3   OH2 1600   4.321   3.357   1.103 -0.3453 -0.3456  0.0886
  548TIP3    H1 1601   4.386   3.288   1.089  0.0827  0.2429 -0.9340
  548TIP3    H2 1602   4.363   3.436   1.070 -1.4970  0.0910 -0.3872
  549TIP3   OH2 1603   4.017   2.944   4.349 -0.2571 -0.1859 -0.2150
  549TIP3    H1 1604   3.941   2.886   4.350  1.1649 -2.1569  1.5473
  549TIP3    H2 1605   3.990   3.019   4.403 -1.4966 -0.0324 -1.0129
  550TIP3   OH2 1606   4.422   4.242   1.514  0.0225  0.7869 -0.9088
  550TIP3    H1 1607   4.373   4.215   1.591 -0.7620  1.3700 -1.1943
  550TIP3    H2 1608   4.488   4.174   1.503 -0.0335  0.5538  0.1080
  551TIP3   OH2 1609   1.527   2.426   6.567 -0.2108  0.1610  0.1216
  551TIP3    H1 1610   1.576   2.506   6.550  0.6601 -0.2300  0.7321
  551TIP3    H2 1611   1.514   2.387   6.481 -1.7339  1.5622 -0.3321
  552TIP3   OH2 1612   3.305   2.124   1.666 -0.3149  0.1101  0.2161
  552TIP3    H1 1613   3.337   2.044   1.706 -2.9050 -1.4451 -0.5768
  552TIP3    H2 1614   3.232   2.152   1.722  0.8661  2.2992  0.7998
  553TIP3   OH2 1615   5.461   6.220   3.313 -0.5146 -0.1444 -0.3415
  553TIP3    H1 1616   5.548   6.182   3.327 -0.8017 -0.5084  0.5816
  553TIP3    H2 1617   5.402   6.161   3.360 -1.0112  1.3058  0.9381
  554TIP3   OH2 1618   5.514   1.330   5.027  0.4817  0.0361  0.1423
  554TIP3    H1 1619   5.435   1.279   5.010  0.7482  0.2024 -1.8198
  554TIP3    H2 1620   5.494   1.381   5.106 -1.1612 -0.3278 -0.0188
  555TIP3   OH2 1621   5.671   6.846   2.256 -0.3112 -0.1005  0.3888
  555TIP3    H1 1622   5.755   6.836   2.212 -0.9353 -0.2750 -0.8349
  555TIP3    H2 1623   5.666   6.772   2.316  0.9629  0.6554  1.4770
  556TIP3   OH2 1624   8.198   2.847   4.253  0.0983 -0.2548  0.8853
  556TIP3    H1 1625   8.120   2.893   4.285 -0.1478 -0.6452  0.8547
  556TIP3    H2 1626   8.269   2.880   4.307 -0.4319 -1.5198  2.4450
  557TIP3   OH2 1627   5.032   6.367   2.436  0.0324 -0.5593 -0.2872
  557TIP3    H1 1628   5.004   6.289   2.485 -0.8230  0.4845  0.9563
  557TIP3    H2 1629   5.016   6.440   2.496 -0.3681  0.7244 -1.8735
  558TIP3   OH2 1630   5.767   5.327   5.261  0.2097 -0.2188  0.4709
  558TIP3    H1 1631   5.841   5.364   5.309  1.7369 -1.6800 -0.6665
  558TIP3    H2 1632   5.780   5.232   5.265 -1.0215 -0.4700 -0.6571
  559TIP3   OH2 1633   3.924   1.002   5.039 -0.9869 -0.4881  0.0462
  559TIP3    H1 1634   3.901   0.914   5.070  1.1680 -0.6297  1.4520
  559TIP3    H2 1635   4.018   0.996   5.020 -0.8599  1.4700 -0.0836
  560TIP3   OH2 1636   0.288   7.511   4.847  0.4617 -0.1051 -0.0370
  560TIP3    H1 1637   0.341   7.586   4.875  0.1172 -0.5487  1.9775
  560TIP3    H2 1638   0.213   7.551   4.803 -1.0695  1.0568  3.2334
  561TIP3   OH2 1639   4.156   3.951   4.497 -0.4741 -0.2050 -0.0382
  561TIP3    H1 1640   4.194   3.931   4.412 -2.4066 -0.6150 -0.8548
  561TIP3    H2 1641   4.165   4.046   4.505 -0.4011 -0.1485 -0.7496
  562TIP3   OH2 1642   5.258   7.265   1.617  1.0092  0.1440  0.1382
  562TIP3    H1 1643   5.346   7.264   1.656  0.8859  1.0773  0.4757
  562TIP3    H2 1644   5.199   7.268   1.692  0.6854 -0.3985 -0.0909
  563TIP3   OH2 1645   3.435   3.203   6.032 -0.1801  0.3656  0.0068
  563TIP3    H1 1646   3.388   3.205   6.115  1.4447 -0.4554  1.0154
  563TIP3    H2 1647   3.504   3.138   6.046  1.6418  1.9524 -1.1161
  564TIP3   OH2 1648   4.580   4.844   4.594 -0.0601 -0.3770  0.2852
  564TIP3    H1 1649   4.493   4.810   4.573 -0.1567 -0.1822  0.3703
  564TIP3    H2 1650   4.641   4.777   4.561 -0.1860  0.1456 -1.0762
  565TIP3   OH2 1651   1.852   0.767   5.853 -0.6949 -0.5584  0.6877
  565TIP3    H1 1652   1.885   0.856   5.839 -0.4631 -0.4627  1.7699
  565TIP3    H2 1653   1.904   0.713   5.794 -0.9192  0.0293 -0.0700
  566TIP3   OH2 1654   0.541   6.091   2.243 -0.0191  0.1123  0.1889
  566TIP3    H1 1655   0.629   6.053   2.252  0.3198 -0.1501 -3.0117
  566TIP3    H2 1656   0.557   6.185   2.234 -0.0530  0.0853 -0.1867
  567TIP3   OH2 1657   6.209   2.957   4.623  0.3794  0.0146 -0.1247
  567TIP3    H1 1658   6.266   3.032   4.642 -0.8985  1.0308 -0.1880
  567TIP3    H2 1659   6.255   2.909   4.554  1.7599  0.0979  0.7066
  568TIP3   OH2 1660   6.525   0.994   5.318  0.3512  0.3045 -0.3610
  568TIP3    H1 1661   6.558   1.068   5.370  0.4267  0.4404 -0.5981
  568TIP3    H2 1662   6.491   1.035   5.238  1.7846 -0.0351 -1.1951
  569TIP3   OH2 1663   4.656   4.708   4.834 -0.6681 -0.1375  0.2957
  569TIP3    H1 1664   4.653   4.776   4.768 -0.5338  0.2128  0.6446
  569TIP3    H2 1665   4.566   4.676   4.840 -0.6486 -0.2721 -0.1593
  570TIP3   OH2 1666   6.264   1.372   2.556 -0.2943  0.4211  0.5359
  570TIP3    H1 1667   6.241   1.316   2.630 -1.6707  0.7835  0.4217
  570TIP3    H2 1668   6.219   1.454   2.573  0.8783  1.1614  0.2002
  571TIP3   OH2 1669   0.942   3.285   4.848 -0.0920  0.1063  0.1832
  571TIP3    H1 1670   1.008   3.218   4.830 -0.2895  0.3703 -1.7309
  571TIP3    H2 1671   0.859   3.245   4.823 -0.2450  0.9018 -0.6669
  572TIP3   OH2 1672   4.945   1.669   6.103  0.0466 -0.3927 -0.0178
  572TIP3    H1 1673   4.855   1.701   6.093  0.3506  0.6645  0.4265
  572TIP3    H2 1674   4.997   1.728   6.048  0.6567  0.0667  1.0237
  573TIP3   OH2 1675   2.199   4.740   5.862 -0.0397 -0.8092  0.3229
  573TIP3    H1 1676   2.136   4.704   5.925 -1.1840  1.9593  0.9013
  573TIP3    H2 1677   2.282   4.740   5.909 -0.3828 -1.0149  0.9510
  574TIP3   OH2 1678   7.877   0.928   1.410 -0.4613 -0.0037 -0.2804
  574TIP3    H1 1679   7.848   1.016   1.430 -0.8033 -0.1221 -0.2485
  574TIP3    H2 1680   7.798   0.874   1.416  0.1049 -0.6692  1.7655
  575TIP3   OH2 1681   5.731   6.972   4.707 -0.0018  0.5554 -0.1132
  575TIP3    H1 1682   5.788   7.002   4.778 -1.6612 -0.3866  1.7374
  575TIP3    H2 1683   5.755   6.880   4.693 -2.0009 -0.3435  1.8102
  576TIP3   OH2 1684   8.040   7.747   4.398 -0.6309  0.0311 -0.2360
  576TIP3    H1 1685   8.062   7.825   4.449  1.3611 -1.6762  1.7453
  576TIP3    H2 1686   8.107   7.743   4.331  1.6314 -1.7927  1.9286
  577TIP3   OH2 1687   5.528   3.115   0.884 -0.5634  0.0623  0.2487
  577TIP3    H1 1688   5.504   3.050   0.950 -1.8524 -1.4330 -1.5880
  577TIP3    H2 1689   5.473   3.190   0.903 -1.5287 -0.6658  0.4209
  578TIP3   OH2 1690   6.521   1.835   6.245 -0.3160  0.0597 -0.3912
  578TIP3    H1 1691   6.458   1.763   6.247 -0.7689  0.3951 -1.7203
  578TIP3    H2 1692   6.529   1.857   6.152  1.0669  0.6345 -0.1559
  579TIP3   OH2 1693   0.340   0.737   4.272  0.1060  0.1470 -0.3645
  579TIP3    H1 1694   0.395   0.780   4.207  0.2831  1.1174  0.3900
  579TIP3    H2 1695   0.257   0.722   4.228  0.3704  0.3870 -0.9497
  580TIP3   OH2 1696   0.854   1.888   3.649 -0.2235 -0.3188  0.5809
  580TIP3    H1 1697   0.895   1.909   3.566  0.9731 -1.7221  0.7675
  580TIP3    H2 1698   0.821   1.971   3.682 -2.5095  0.0293 -2.1653
  581TIP3   OH2 1699   2.319   1.615   4.192 -0.0910 -0.0618  0.5176
  581TIP3    H1 1700   2.260   1.675   4.236 -0.2535 -0.7783  1.3044
  581TIP3    H2 1701   2.399   1.618   4.244  0.5399  0.7918 -0.4556
  582TIP3   OH2 1702   1.090   2.937   5.014  0.1286 -0.3338 -0.4165
  582TIP3    H1 1703   1.076   2.975   4.927 -0.2292  1.4711  0.3852
  582TIP3    H2 1704   1.041   2.855   5.012 -0.3177 -0.0641 -1.7442
  583TIP3   OH2 1705   6.308   6.786   6.208  0.0750 -0.2682 -0.6006
  583TIP3    H1 1706   6.255   6.732   6.266  0.7139  0.2917  0.5266
  583TIP3    H2 1707   6.398   6.756   6.222  0.1459 -0.8820 -2.1432
  584TIP3   OH2 1708   7.297   3.218   5.521 -0.5034  0.4007  0.4454
  584TIP3    H1 1709   7.259   3.230   5.608 -3.3296 -0.2635 -0.6044
  584TIP3    H2 1710   7.283   3.301   5.476 -1.2730 -0.0278 -0.1331
  585TIP3   OH2 1711   1.541   4.748   4.979  0.6163 -0.4749 -0.5808
  585TIP3    H1 1712   1.518   4.764   5.071 -0.0062  0.3213 -0.8583
  585TIP3    H2 1713   1.512   4.658   4.962 -0.4342 -0.2077 -0.3312
  586TIP3   OH2 1714   2.603   1.159   1.825 -0.3627  0.0012  0.0049
  586TIP3    H1 1715   2.599   1.065   1.843  0.3899  0.1908  1.2888
  586TIP3    H2 1716   2.524   1.195   1.867 -1.5742 -0.2275 -1.9362
  587TIP3   OH2 1717   7.194   2.675   3.435 -0.1568  0.4250 -0.5925
  587TIP3    H1 1718   7.279   2.698   3.397 -0.4687 -0.8582 -2.1841
  587TIP3    H2 1719   7.136   2.667   3.359 -1.6737  1.1468  0.4642
  588TIP3   OH2 1720   3.645   4.222   4.211  0.6506  0.4162 -0.3991
  588TIP3    H1 1721   3.610   4.252   4.295 -0.3911 -0.6643 -0.4251
  588TIP3    H2 1722   3.637   4.298   4.153  4.0451  2.1834  1.1173
  589TIP3   OH2 1723   6.930   2.363   6.526 -0.4782 -0.1497  0.1041
  589TIP3    H1 1724   6.876   2.284   6.531  0.5505 -0.8147  1.4814
  589TIP3    H2 1725   7.016   2.335   6.557 -0.1657  1.5865  0.9264
  590TIP3   OH2 1726   3.572   6.374   1.038 -0.7131  0.3873  0.3569
  590TIP3    H1 1727   3.494   6.387   0.986 -1.6836 -0.6899  1.4723
  590TIP3    H2 1728   3.548   6.405   1.126  0.0162 -0.1503  0.7633
  591TIP3   OH2 1729   0.120   3.741   0.477 -0.1596 -0.1088  0.1845
  591TIP3    H1 1730   0.143   3.658   0.436  0.4699  0.5581 -0.8509
  591TIP3    H2 1731   0.116   3.803   0.404 -0.3399  0.8310  0.9817
  592TIP3   OH2 1732   7.832   5.236   5.304 -0.2631 -0.0672  0.1350
  592TIP3    H1 1733   7.755   5.261   5.253 -0.4936 -0.6820  0.1743
  592TIP3    H2 1734   7.854   5.148   5.273  0.6682  0.2538 -0.1646
  593TIP3   OH2 1735   5.023   3.780   3.251 -0.5489  0.6728 -0.5783
  593TIP3    H1 1736   4.966   3.857   3.256 -0.5173  0.6869 -0.4326
  593TIP3    H2 1737   5.047   3.775   3.159 -1.4445  0.1852 -0.7964
  594TIP3   OH2 1738   2.987   4.005   0.161  0.4097 -0.3239 -0.3608
  594TIP3    H1 1739   3.077   4.013   0.128  0.6027 -1.3424 -0.1230
  594TIP3    H2 1740   2.991   3.931   0.221  0.0857  1.5116  2.0506
  595TIP3   OH2 1741   2.540   4.988   5.875  0.1581 -0.7576 -0.6510
  595TIP3    H1 1742   2.561   5.035   5.794  0.8237 -1.9064 -1.1726
  595TIP3    H2 1743   2.620   4.940   5.897 -0.0910 -0.6468  0.5737
  596TIP3   OH2 1744   7.338   6.054   6.072 -1.1524  0.4961 -0.5750
  596TIP3    H1 1745   7.396   5.997   6.124  0.2327  0.7152 -1.8206
  596TIP3    H2 1746   7.310   6.121   6.134 -1.2259 -0.4142  0.4160
  597TIP3   OH2 1747   6.755   1.254   5.948 -0.4055  0.7847 -0.3260
  597TIP3    H1 1748   6.801   1.308   6.012 -0.1462 -0.0741  0.2230
  597TIP3    H2 1749   6.799   1.271   5.865  2.5555 -1.7992  0.5409
  598TIP3   OH2 1750   7.065   5.793   6.210  0.6281  0.9055  0.0677
  598TIP3    H1 1751   7.034   5.882   6.193 -0.6769  0.1913 -1.5927
  598TIP3    H2 1752   7.139   5.782   6.151  0.1452  0.5649 -0.4836
  599TIP3   OH2 1753   5.880   3.712   4.626 -0.7431  0.3456 -0.1912
  599TIP3    H1 1754   5.841   3.625   4.618 -1.1496  0.4217  0.8645
  599TIP3    H2 1755   5.810   3.772   4.599 -0.0379  0.3217 -2.2707
  600TIP3   OH2 1756   3.096   4.224   4.074  0.4669 -0.4509 -0.0997
  600TIP3    H1 1757   3.143   4.165   4.133  1.0382 -0.5750 -0.6623
  600TIP3    H2 1758   3.004   4.199   4.084  0.6355 -0.9912  0.1648
  601TIP3   OH2 1759   2.818   1.346   0.451  0.2469 -0.0174  0.2628
  601TIP3    H1 1760   2.825   1.375   0.360 -1.5383  0.3840  0.2235
  601TIP3    H2 1761   2.851   1.420   0.503 -0.1133  0.3251  0.0009
  602TIP3   OH2 1762   1.146   0.719   1.363  0.0716  0.0162  0.1747
  602TIP3    H1 1763   1.182   0.700   1.276  0.6083 -0.7094  0.5440
  602TIP3    H2 1764   1.130   0.633   1.401 -1.0489  0.3328  0.4445
  603TIP3   OH2 1765   8.227   7.516   3.961  0.3540  0.5083 -0.3724
  603TIP3    H1 1766   8.291   7.464   4.009 -0.4688  0.8063  1.1040
  603TIP3    H2 1767   8.146   7.507   4.010 -0.1116  2.2032 -0.7402
  604TIP3   OH2 1768   6.497   5.887   4.270  0.0980 -0.1650  0.2852
  604TIP3    H1 1769   6.588   5.872   4.244 -0.0318 -0.0280 -0.2666
  604TIP3    H2 1770   6.447   5.879   4.188 -0.2156  1.2347  0.3055
  605TIP3   OH2 1771   1.269   3.735   2.175  0.0960 -0.4062 -0.5701
  605TIP3    H1 1772   1.334   3.666   2.190 -0.9876 -1.9182 -2.2339
  605TIP3    H2 1773   1.193   3.708   2.227  0.7295  1.3851  1.4238
  606TIP3   OH2 1774   5.500   5.326   5.264 -0.2812 -0.0809  0.4530
  606TIP3    H1 1775   5.592   5.353   5.271  0.1253 -1.4662  0.8751
  606TIP3    H2 1776   5.500   5.234   5.290 -2.0020  0.2254  1.7500
  607TIP3   OH2 1777   8.150   0.307   2.209 -0.1243 -0.2286 -0.4665
  607TIP3    H1 1778   8.109   0.230   2.171  1.2448 -1.4936  0.5035
  607TIP3    H2 1779   8.243   0.296   2.193  0.1501  0.9840  0.1207
  608TIP3   OH2 1780   3.762   0.097   2.766 -0.1572  0.1302  0.4205
  608TIP3    H1 1781   3.729   0.091   2.676  0.7175  0.6681  0.0485
  608TIP3    H2 1782   3.683   0.103   2.820 -0.6973  1.5324 -0.4469
  609TIP3   OH2 1783   1.009   2.090   3.800 -0.5473  0.1179  0.2870
  609TIP3    H1 1784   1.069   2.017   3.814  1.2040  1.2324 -0.9200
  609TIP3    H2 1785   1.051   2.165   3.844 -1.6518  0.6757  0.4181
  610TIP3   OH2 1786   2.004   3.605   0.911 -0.0380  0.1469  0.0895
  610TIP3    H1 1787   1.947   3.535   0.943  0.9342 -0.4508  0.5877
  610TIP3    H2 1788   1.945   3.672   0.877 -1.0557  0.0457  1.5961
  611TIP3   OH2 1789   5.837   4.670   0.682 -0.2871 -0.3123 -0.1550
  611TIP3    H1 1790   5.868   4.680   0.593  0.3426 -1.1036 -0.0308
  611TIP3    H2 1791   5.791   4.752   0.701 -1.3797 -0.5684 -1.5685
  612TIP3   OH2 1792   1.524   2.334   3.046  0.2758  0.8178 -0.3791
  612TIP3    H1 1793   1.446   2.294   3.084  0.4075 -0.8101 -1.7140
  612TIP3    H2 1794   1.535   2.290   2.962  1.8965  1.9455 -0.8057
  613TIP3   OH2 1795   7.038   5.220   2.019 -0.3230  0.2878  0.3742
  613TIP3    H1 1796   7.024   5.278   2.093  0.1513  1.5974 -0.5290
  613TIP3    H2 1797   7.114   5.257   1.973 -0.1388 -0.9219 -0.3512
  614TIP3   OH2 1798   0.748   5.396   4.803  0.4940 -0.3188 -0.2345
  614TIP3    H1 1799   0.822   5.335   4.807  1.8616  1.3058  0.0259
  614TIP3    H2 1800   0.787   5.481   4.786 -1.1319  0.9019  1.6919
  615TIP3   OH2 1801   6.301   7.630   2.823 -0.0350  0.1650 -0.1212
  615TIP3    H1 1802   6.287   7.680   2.743 -1.6393  2.7908  1.6610
  615TIP3    H2 1803   6.254   7.548   2.809  1.2230 -0.2349 -2.4735
  616TIP3   OH2 1804   1.788   4.775   3.146 -0.3982  0.2303 -0.6738
  616TIP3    H1 1805   1.774   4.870   3.153 -1.9622  0.0276 -0.6641
  616TIP3    H2 1806   1.754   4.752   3.060 -2.0668 -0.6162  0.1644
  617TIP3   OH2 1807   6.202   4.711   1.875  0.0459  0.7017 -0.2760
  617TIP3    H1 1808   6.177   4.620   1.861 -0.2002  0.8548 -0.8274
  617TIP3    H2 1809   6.214   4.718   1.970  2.5480 -0.5587 -0.4102
  618TIP3   OH2 1810   5.950   2.602   5.396  0.2625  0.0059 -0.5899
  618TIP3    H1 1811   6.041   2.572   5.392  0.9347  1.9530 -0.6126
  618TIP3    H2 1812   5.947   2.660   5.472 -1.3592 -1.1601  0.3117
  619TIP3   OH2 1813   8.150   5.288   6.645 -0.3726 -0.3118 -0.5562
  619TIP3    H1 1814   8.088   5.359   6.629 -1.8223 -1.3749  0.0971
  619TIP3    H2 1815   8.198   5.279   6.563 -0.6013  0.9829 -0.8588
  620TIP3   OH2 1816   7.430   2.436   6.289  0.0642 -0.9162  0.0970
  620TIP3    H1 1817   7.341   2.433   6.254 -0.4227  0.3536  1.1364
  620TIP3    H2 1818   7.460   2.345   6.284 -2.0183 -1.7878  1.4698
  621TIP3   OH2 1819   0.642   7.688   0.837  0.5292 -0.0885  0.2965
  621TIP3    H1 1820   0.672   7.598   0.825 -0.5329 -0.5557  0.9731
  621TIP3    H2 1821   0.547   7.681   0.844  0.2994  1.2603 -1.0714
  622TIP3   OH2 1822   2.590   4.474   6.291  0.4048  0.1971  0.2493
  622TIP3    H1 1823   2.632   4.434   6.215 -1.8192  0.2851 -1.0901
  622TIP3    H2 1824   2.530   4.407   6.324 -0.6306  1.0873  0.2415
  623TIP3   OH2 1825   0.786   7.731   6.296  0.5971 -0.0255 -0.3921
  623TIP3    H1 1826   0.720   7.685   6.347 -0.4692 -0.0875 -1.7657
  623TIP3    H2 1827   0.863   7.733   6.353 -0.1728 -1.1045  0.7438
  624TIP3   OH2 1828   1.081   1.942   4.242  0.5345  0.6630  0.1163
  624TIP3    H1 1829   1.097   1.869   4.181  0.4620  0.2144  0.6224
  624TIP3    H2 1830   1.160   1.944   4.296 -0.1746 -0.1814  1.2424
  625TIP3   OH2 1831   7.794   2.422   3.900 -0.4205  0.2705  0.4741
  625TIP3    H1 1832   7.701   2.399   3.894 -0.3246 -0.8793  2.4994
  625TIP3    H2 1833   7.838   2.359   3.842 -0.7792 -0.1535  0.6597
  626TIP3   OH2 1834   1.025   7.328   4.900  0.4834  0.1071  0.0440
  626TIP3    H1 1835   0.953   7.271   4.873  0.0247  1.0747 -0.9038
  626TIP3    H2 1836   1.005   7.412   4.857  0.8740  1.1156  1.7411
  627TIP3   OH2 1837   4.614   7.003   2.509 -0.2076 -0.0929 -0.0296
  627TIP3    H1 1838   4.703   7.000   2.474 -0.3575  2.2567 -0.7905
  627TIP3    H2 1839   4.569   7.069   2.456 -1.6589  0.6092  1.9395
  628TIP3   OH2 1840   1.982   3.721   1.180  0.3214 -0.1127  0.2355
  628TIP3    H1 1841   1.892   3.751   1.168  0.7418  0.7243 -0.9614
  628TIP3    H2 1842   2.006   3.681   1.096  0.3550 -2.3358  1.2268
  629TIP3   OH2 1843   5.505   3.287   3.026 -0.0840  0.2374  0.6797
  629TIP3    H1 1844   5.409   3.293   3.032 -0.1824 -0.8036  0.3050
  629TIP3    H2 1845   5.533   3.265   3.115 -0.2575 -0.1749  0.6345
  630TIP3   OH2 1846   5.456   6.725   0.879  0.3709 -0.0977  0.5669
  630TIP3    H1 1847   5.451   6.646   0.826  2.3697 -0.1923  0.4676
  630TIP3    H2 1848   5.417   6.793   0.824 -0.8949 -0.8861  0.4551
  631TIP3   OH2 1849   2.310   4.680   3.804 -0.8301  0.1922  0.5156
  631TIP3    H1 1850   2.308   4.712   3.894 -1.7948 -1.0265  0.9575
  631TIP3    H2 1851   2.387   4.720   3.766 -0.4435  0.7860  1.8676
  632TIP3   OH2 1852   4.661   6.204   3.627 -1.0423  0.3640  0.0227
  632TIP3    H1 1853   4.645   6.116   3.660  0.5218  0.2771  0.6160
  632TIP3    H2 1854   4.693   6.253   3.703 -1.0544  1.2162 -0.5056
  633TIP3   OH2 1855   6.844   2.969   3.243  0.5141 -0.1976  0.0029
  633TIP3    H1 1856   6.911   2.933   3.301 -0.3693 -0.6788  0.7446
  633TIP3    H2 1857   6.845   3.063   3.260  1.0157 -0.1974 -0.0101
  634TIP3   OH2 1858   3.667   7.664   4.625 -0.2004  0.0551 -0.4684
  634TIP3    H1 1859   3.727   7.591   4.610 -1.2323 -1.1114  0.8233
  634TIP3    H2 1860   3.719   7.728   4.674  0.5063 -0.1316 -0.9689
  635TIP3   OH2 1861   5.142   1.939   6.293 -0.6757  0.7569 -0.5501
  635TIP3    H1 1862   5.186   1.999   6.233  0.2612  0.4578 -0.1811
  635TIP3    H2 1863   5.213   1.889   6.333 -1.4745 -1.2057 -1.4563
  636TIP3   OH2 1864   5.494   6.721   5.985 -0.3947 -0.4701  0.1729
  636TIP3    H1 1865   5.407   6.708   5.948  0.3840 -0.8866 -1.6046
  636TIP3    H2 1866   5.522   6.806   5.951  0.1209 -0.6004  0.2674
  637TIP3   OH2 1867   7.864   7.702   5.765 -0.3015 -0.0239  0.0444
  637TIP3    H1 1868   7.856   7.792   5.797 -0.5416  0.1385 -0.4534
  637TIP3    H2 1869   7.898   7.711   5.676 -1.0262 -0.3766 -0.2810
  638TIP3   OH2 1870   4.900   2.877   3.623 -0.0971 -0.1470 -0.1112
  638TIP3    H1 1871   4.869   2.898   3.535  0.3295  1.0287  0.0059
  638TIP3    H2 1872   4.839   2.923   3.682 -0.2532 -0.7542  0.2164
  639TIP3   OH2 1873   6.032   5.334   2.924 -0.4337 -0.1688 -0.3712
  639TIP3    H1 1874   5.995   5.309   3.008  0.5911 -0.5511 -0.0200
  639TIP3    H2 1875   6.074   5.419   2.940  1.5396 -1.1644  0.0691
  640TIP3   OH2 1876   6.716   1.758   0.123 -0.3824  0.2394 -0.2211
  640TIP3    H1 1877   6.800   1.785   0.085 -0.0648  2.1702  1.6196
  640TIP3    H2 1878   6.661   1.836   0.118 -2.2311 -1.0573 -1.6075
  641TIP3   OH2 1879   3.729   7.640   0.947 -0.1272 -0.2245  1.0491
  641TIP3    H1 1880   3.698   7.567   1.000 -1.7201  1.5363  2.7233
  641TIP3    H2 1881   3.802   7.676   0.997 -0.6996  0.5566  1.3570
  642TIP3   OH2 1882   1.737   7.044   1.046 -0.3158 -0.2713  0.4512
  642TIP3    H1 1883   1.819   7.005   1.076 -0.6719  0.3907  2.4637
  642TIP3    H2 1884   1.705   7.093   1.122 -0.7482  2.5027 -1.3741
  643TIP3   OH2 1885   5.765   7.442   0.744 -0.3273 -0.1674  0.5296
  643TIP3    H1 1886   5.790   7.517   0.691 -0.9754  1.4257  2.3806
  643TIP3    H2 1887   5.821   7.448   0.822 -1.0684 -1.0467  1.1562
  644TIP3   OH2 1888   0.236   2.272   0.362  0.4050 -0.0425  0.7451
  644TIP3    H1 1889   0.290   2.252   0.286  0.7170  0.7051  0.7661
  644TIP3    H2 1890   0.153   2.302   0.326 -0.0100 -1.1901  0.7125
  645TIP3   OH2 1891   4.847   7.530   1.024  0.5451  0.1049 -0.2094
  645TIP3    H1 1892   4.767   7.568   0.989  1.2223 -0.0691 -2.0266
  645TIP3    H2 1893   4.823   7.441   1.047  0.2304  0.0398 -0.7822
  646TIP3   OH2 1894   2.732   2.199   2.297 -0.1501 -0.1198  0.2743
  646TIP3    H1 1895   2.673   2.274   2.309 -1.2814 -0.8842 -0.3230
  646TIP3    H2 1896   2.819   2.238   2.288 -0.6481  1.0870  0.4690
  647TIP3   OH2 1897   6.393   5.716   1.678 -0.3640  0.1902 -0.4469
  647TIP3    H1 1898   6.395   5.632   1.724 -1.6728  0.4229  0.0658
  647TIP3    H2 1899   6.381   5.693   1.586 -1.4036 -0.1820 -0.2308
  648TIP3   OH2 1900   5.847   2.388   4.388 -0.2362 -0.2640  0.1201
  648TIP3    H1 1901   5.807   2.444   4.455 -1.3375 -2.9496  1.8561
  648TIP3    H2 1902   5.773   2.359   4.334  0.4746  0.7437 -1.4953
  649TIP3   OH2 1903   3.548   7.694   6.240 -0.6799 -0.0401 -0.2830
  649TIP3    H1 1904   3.616   7.759   6.257 -1.1564  0.1493  0.9848
  649TIP3    H2 1905   3.558   7.629   6.309 -1.0154 -0.6480 -0.8000
  650TIP3   OH2 1906   4.318   4.090   5.405 -0.0384 -0.7551 -0.1980
  650TIP3    H1 1907   4.315   4.045   5.489 -0.1295 -1.9964 -0.8526
  650TIP3    H2 1908   4.296   4.023   5.341 -0.2955  0.2527 -1.1901
  651TIP3   OH2 1909   6.600   1.677   4.681 -0.1493  0.0512  0.1064
  651TIP3    H1 1910   6.633   1.589   4.667 -1.5376 -0.8413  2.0245
  651TIP3    H2 1911   6.637   1.704   4.765  1.6079  2.0344 -1.2036
  652TIP3   OH2 1912   4.700   3.744   0.568  0.1756  0.5905  0.1942
  652TIP3    H1 1913   4.693   3.811   0.636 -0.4415  0.2234  0.4993
  652TIP3    H2 1914   4.777   3.692   0.593 -0.3571  0.1378  0.9012
  653TIP3   OH2 1915   2.254   7.549   6.180  0.2298  0.9877  0.3125
  653TIP3    H1 1916   2.250   7.486   6.108  0.6568  0.4213  0.7748
  653TIP3    H2 1917   2.218   7.630   6.143  0.9745  0.8685 -0.7128
  654TIP3   OH2 1918   1.158   3.505   0.811  0.0763 -0.5992 -0.3840
  654TIP3    H1 1919   1.183   3.432   0.755 -0.7181  0.0344 -1.6021
  654TIP3    H2 1920   1.075   3.479   0.850  0.0145 -0.5248 -0.4664
  655TIP3   OH2 1921   2.951   6.151   1.926  0.0922 -0.1519 -0.2225
  655TIP3    H1 1922   3.008   6.179   1.997 -2.5927  2.2405  1.2136
  655TIP3    H2 1923   2.903   6.076   1.962  0.6763 -0.7043 -0.5780
  656TIP3   OH2 1924   3.259   1.853   5.740 -0.0708  0.8611 -0.2069
  656TIP3    H1 1925   3.243   1.759   5.741 -0.8104  0.8937 -2.4215
  656TIP3    H2 1926   3.173   1.891   5.719  0.0234  2.1185  1.5262
  657TIP3   OH2 1927   0.722   5.120   2.293 -0.7825 -0.0105 -0.0627
  657TIP3    H1 1928   0.787   5.051   2.284 -0.2466  0.1657  2.0253
  657TIP3    H2 1929   0.644   5.075   2.327 -0.3979  0.4085  1.4045
  658TIP3   OH2 1930   1.636   6.002   4.087 -0.0028 -0.1018  0.2003
  658TIP3    H1 1931   1.583   6.076   4.058  0.2400 -0.2959 -0.7791
  658TIP3    H2 1932   1.716   6.042   4.122  1.7537  0.1098 -3.5529
  659TIP3   OH2 1933   1.212  -0.003   5.751  0.0743 -0.2713 -0.2045
  659TIP3    H1 1934   1.252   0.061   5.810 -1.1561 -2.0673  2.7898
  659TIP3    H2 1935   1.151   0.048   5.698  1.2338  1.4247  0.0098
  660TIP3   OH2 1936   3.192   3.439   3.347 -0.5122 -0.0353 -0.0592
  660TIP3    H1 1937   3.121   3.473   3.402 -1.3558 -0.5652 -0.7946
  660TIP3    H2 1938   3.150   3.417   3.264  0.0712 -2.4896  0.2337
  661TIP3   OH2 1939   1.390   0.803   6.149  0.1142 -0.0057  0.4612
  661TIP3    H1 1940   1.306   0.824   6.108 -2.1022 -1.8694  3.6481
  661TIP3    H2 1941   1.454   0.856   6.101 -2.4025 -0.4428 -3.8714
  662TIP3   OH2 1942   6.503   0.216   1.658  0.0378 -0.3848 -0.6203
  662TIP3    H1 1943   6.549   0.241   1.738 -1.3339  0.9674 -0.2090
  662TIP3    H2 1944   6.560   0.245   1.588  1.0356 -1.1562 -0.1575
  663TIP3   OH2 1945   1.308   1.359   3.372  0.4066 -0.3423  0.4962
  663TIP3    H1 1946   1.213   1.346   3.368  0.5244 -1.0897 -0.7589
  663TIP3    H2 1947   1.330   1.356   3.465 -0.7929 -0.1912  0.7963
  664TIP3   OH2 1948   3.575   5.872   5.169  0.1290  0.0543  0.1123
  664TIP3    H1 1949   3.632   5.812   5.121 -0.4857  1.5440 -2.6671
  664TIP3    H2 1950   3.498   5.819   5.190  0.4527 -0.6715 -0.4791
  665TIP3   OH2 1951   5.497   6.757   3.593  0.6478 -0.6969 -0.1104
  665TIP3    H1 1952   5.417   6.788   3.633  1.5100  0.9237  0.4440
  665TIP3    H2 1953   5.535   6.698   3.659  0.6597 -0.2682  0.2725
  666TIP3   OH2 1954   1.610   6.417   0.654 -0.1496  0.1155  0.7490
  666TIP3    H1 1955   1.682   6.376   0.606  0.1095  0.2528  1.0172
  666TIP3    H2 1956   1.552   6.450   0.586 -0.1825 -0.3826  0.5325
  667TIP3   OH2 1957   8.056   1.044   0.795 -0.0721  0.9660 -0.4486
  667TIP3    H1 1958   8.033   0.969   0.850 -1.1447  0.2160 -1.8356
  667TIP3    H2 1959   8.062   1.118   0.855  1.9337 -0.3497  1.1113
  668TIP3   OH2 1960   3.393   3.386   4.013 -0.2026 -0.0465 -0.5208
  668TIP3    H1 1961   3.472   3.423   3.974 -0.1698 -1.5136 -1.9136
  668TIP3    H2 1962   3.359   3.327   3.947 -1.2466 -1.1374  0.9408
  669TIP3   OH2 1963   0.063   4.064   4.134 -0.7000  0.2308 -0.1714
  669TIP3    H1 1964   0.008   4.140   4.115 -0.0151  0.5678 -0.8859
  669TIP3    H2 1965   0.098   4.038   4.048 -1.6951 -1.5114 -0.0919
  670TIP3   OH2 1966   0.633   3.305   0.954  0.5109 -0.1282 -0.3961
  670TIP3    H1 1967   0.641   3.241   1.025 -0.5515  1.8107  1.5839
  670TIP3    H2 1968   0.568   3.266   0.895 -0.1957 -0.8656  0.8138
  671TIP3   OH2 1969   6.042   6.711   3.471  0.5501 -0.2714  0.1400
  671TIP3    H1 1970   6.077   6.626   3.499  1.8209 -0.3773 -1.6620
  671TIP3    H2 1971   6.050   6.766   3.549 -0.3317 -1.7586  1.3656
  672TIP3   OH2 1972   1.025   2.153   5.819  0.2313  0.3127  0.3989
  672TIP3    H1 1973   1.025   2.205   5.899  3.1941 -0.6583  1.1675
  672TIP3    H2 1974   1.014   2.216   5.748 -0.1536  1.4605  1.4541
  673TIP3   OH2 1975   2.259   6.872   0.192  0.0239 -0.0512  0.0657
  673TIP3    H1 1976   2.343   6.829   0.207 -0.5739 -1.7081 -1.0557
  673TIP3    H2 1977   2.200   6.829   0.254  0.0766  1.4528  1.2008
  674TIP3   OH2 1978   0.361   2.954   4.530  0.0615  0.0539  0.1324
  674TIP3    H1 1979   0.286   2.894   4.534  0.1549 -0.0686  0.0715
  674TIP3    H2 1980   0.323   3.040   4.513 -0.0533 -0.0341 -0.0563
  675TIP3   OH2 1981   6.889   0.846   3.419 -0.1104  0.5431 -0.7843
  675TIP3    H1 1982   6.841   0.770   3.450 -0.2991  0.3564 -1.5161
  675TIP3    H2 1983   6.888   0.907   3.493 -2.4108  0.9824 -1.1044
  676TIP3   OH2 1984   3.349   3.982   3.799 -0.2661  0.1200 -0.0080
  676TIP3    H1 1985   3.342   4.026   3.883  0.7926  0.8325 -0.2637
  676TIP3    H2 1986   3.413   3.912   3.814  0.6112  0.8124 -0.4173
  677TIP3   OH2 1987   1.852   2.281   3.603 -0.3425  0.0184  0.5179
  677TIP3    H1 1988   1.778   2.240   3.648 -1.6260  0.3995 -1.1439
  677TIP3    H2 1989   1.823   2.290   3.512  1.8830 -0.0971 -0.2650
  678TIP3   OH2 1990   2.964   4.236   4.597 -0.4975 -0.5373  0.8011
  678TIP3    H1 1991   3.038   4.236   4.657  0.7294 -2.5474 -0.6037
  678TIP3    H2 1992   2.957   4.327   4.568 -0.9378  0.4259  3.6491
  679TIP3   OH2 1993   8.316   6.270   5.970 -0.0583  0.3965  0.5497
  679TIP3    H1 1994   8.339   6.344   5.913  1.2562 -0.2789  0.1762
  679TIP3    H2 1995   8.258   6.215   5.917 -0.3080  0.6878  0.5155
  680TIP3   OH2 1996   1.568   2.213   1.339  0.2760  0.1308 -0.3419
  680TIP3    H1 1997   1.555   2.242   1.429  0.7470 -1.2876  0.2181
  680TIP3    H2 1998   1.647   2.158   1.343  1.4451  1.5753 -1.9832
  681TIP3   OH2 1999   4.378   5.824   3.048 -0.3150 -0.0008  0.0997
  681TIP3    H1 2000   4.442   5.812   3.118 -1.4892  2.1683  1.6657
  681TIP3    H2 2001   4.344   5.736   3.032  0.6423 -0.6992  1.6381
  682TIP3   OH2 2002   1.203   2.542   3.583  0.4170  0.9773  0.1196
  682TIP3    H1 2003   1.240   2.481   3.519  0.9452  1.3939  0.0209
  682TIP3    H2 2004   1.247   2.625   3.566 -1.2746  1.7745 -0.6877
  683TIP3   OH2 2005   7.476   7.446   5.777 -0.0780  0.2814 -0.5512
  683TIP3    H1 2006   7.384   7.421   5.766 -0.5219  1.2035  0.7141
  683TIP3    H2 2007   7.490   7.516   5.713 -1.2786  2.4454  1.3860
  684TIP3   OH2 2008   1.352   1.692   0.931 -0.1341 -0.6327 -0.3841
  684TIP3    H1 2009   1.405   1.760   0.890  1.7189 -1.6750  0.1532
  684TIP3    H2 2010   1.283   1.739   0.978  0.8776  0.8374 -0.3284
  685TIP3   OH2 2011   0.204   6.856   0.068  0.0801 -0.7366  0.2714
  685TIP3    H1 2012   0.132   6.906   0.105  0.2135  1.2978 -1.9948
  685TIP3    H2 2013   0.283   6.905   0.093  0.4971 -1.4859  0.4847
  686TIP3   OH2 2014   2.870   0.941   0.088 -0.5555 -0.8167  0.3947
  686TIP3    H1 2015   2.841   0.852   0.109 -0.9232 -0.9504 -0.5911
  686TIP3    H2 2016   2.858   0.947  -0.007 -1.3683  0.5884  0.5679
  687TIP3   OH2 2017   5.230   0.235   2.842 -0.4537 -0.0174 -0.2530
  687TIP3    H1 2018   5.190   0.168   2.898  0.6585 -0.2655  0.2566
  687TIP3    H2 2019   5.307   0.264   2.890  0.5855 -0.3064 -1.6921
  688TIP3   OH2 2020   4.787   4.761   5.280  0.0647  0.1481 -0.3144
  688TIP3    H1 2021   4.850   4.704   5.236 -0.9579  0.3155 -2.0985
  688TIP3    H2 2022   4.710   4.762   5.222 -1.1060  0.9390  1.1682
  689TIP3   OH2 2023   0.330   3.859   0.016  0.6636 -0.4515  0.0582
  689TIP3    H1 2024   0.279   3.790   0.058  1.5486 -0.5120  1.0607
  689TIP3    H2 2025   0.267   3.903  -0.042  0.1544 -2.2672 -0.8362
  690TIP3   OH2 2026   2.685   3.627   4.881  0.4590 -0.1081  0.0447
  690TIP3    H1 2027   2.590   3.637   4.873  0.6376  1.2779 -0.6729
  690TIP3    H2 2028   2.702   3.641   4.974  0.0688  0.7554 -0.0062
  691TIP3   OH2 2029   3.751   4.861   4.954 -0.5840  0.3843 -0.1505
  691TIP3    H1 2030   3.698   4.796   5.001 -2.0975  1.0525 -0.8810
  691TIP3    H2 2031   3.791   4.811   4.882 -1.0520  0.0773 -0.2056
  692TIP3   OH2 2032   0.854   0.326   1.371 -0.0229  0.3286  0.3961
  692TIP3    H1 2033   0.794   0.354   1.440 -0.5099 -0.7620  0.4322
  692TIP3    H2 2034   0.879   0.407   1.327 -1.3080  0.8461  0.5624
  693TIP3   OH2 2035   4.388   5.367   5.036 -0.7229 -0.2796  0.4877
  693TIP3    H1 2036   4.410   5.400   4.949 -1.9889 -0.1766  0.2012
  693TIP3    H2 2037   4.446   5.291   5.048 -0.9952 -0.6793 -0.7002
  694TIP3   OH2 2038   4.615   4.396   0.407 -0.2111  0.3695 -0.3304
  694TIP3    H1 2039   4.659   4.437   0.481 -1.3140  0.1827  0.4532
  694TIP3    H2 2040   4.536   4.448   0.394 -1.2974 -1.0497  0.2538
  695TIP3   OH2 2041   5.717   6.285   3.562 -0.1205  0.0550 -0.6884
  695TIP3    H1 2042   5.710   6.266   3.469 -0.2627 -1.0691 -0.4575
  695TIP3    H2 2043   5.801   6.249   3.589 -0.7841 -1.1135 -0.0636
  696TIP3   OH2 2044   0.281   0.490   4.449 -0.1523 -0.4316  0.3942
  696TIP3    H1 2045   0.308   0.555   4.385 -2.6718  1.6204  1.2670
  696TIP3    H2 2046   0.357   0.478   4.505  0.3585  1.9313  0.2971
  697TIP3   OH2 2047   3.216   1.183   1.853 -0.0502 -0.2203 -0.4330
  697TIP3    H1 2048   3.209   1.241   1.777 -0.2515  1.3712  0.7634
  697TIP3    H2 2049   3.126   1.163   1.876 -0.0030 -0.1807 -0.2156
  698TIP3   OH2 2050   6.159   6.278   0.502 -0.2044  0.0659 -0.0078
  698TIP3    H1 2051   6.131   6.353   0.449 -1.2060  1.8632  2.8404
  698TIP3    H2 2052   6.193   6.215   0.438  2.9761  3.7938 -2.4751
  699TIP3   OH2 2053   4.000   5.730   2.612  0.3502  0.0623 -0.1240
  699TIP3    H1 2054   4.005   5.738   2.517 -2.8352 -3.0045 -0.7836
  699TIP3    H2 2055   4.024   5.639   2.630  2.4214  0.9589  2.3048
  700TIP3   OH2 2056   6.695   4.891   2.919  0.1501 -0.1977  0.0859
  700TIP3    H1 2057   6.732   4.826   2.860 -1.1263  0.6622 -1.7573
  700TIP3    H2 2058   6.744   4.971   2.901 -1.7122  0.6553 -1.5527
  701TIP3   OH2 2059   1.631   4.661   4.400 -0.0151 -0.1530 -0.0533
  701TIP3    H1 2060   1.554   4.679   4.347  0.4701  0.6833 -0.4879
  701TIP3    H2 2061   1.632   4.730   4.467  0.7938  0.3386 -0.5502
  702TIP3   OH2 2062   5.628   4.397   1.613 -0.0439  0.2288 -0.3960
  702TIP3    H1 2063   5.612   4.455   1.539  1.5840 -0.3211 -1.2349
  702TIP3    H2 2064   5.691   4.333   1.580 -1.4560 -1.7841  0.6111
  703TIP3   OH2 2065   2.616   1.612   1.287  0.1190  0.1732  0.3408
  703TIP3    H1 2066   2.675   1.537   1.296  0.2230  0.4140  1.7897
  703TIP3    H2 2067   2.668   1.677   1.239  0.5728 -0.0989  0.4551
  704TIP3   OH2 2068   1.813   7.150   5.299 -0.4846 -0.2209 -0.1420
  704TIP3    H1 2069   1.782   7.061   5.284 -0.7938 -0.0501 -0.5621
  704TIP3    H2 2070   1.864   7.145   5.380 -0.0047 -0.8921 -0.4797
  705TIP3   OH2 2071   1.315   2.477   5.689  0.4560  0.3339  0.2944
  705TIP3    H1 2072   1.384   2.478   5.623 -0.1053 -0.8935 -0.3510
  705TIP3    H2 2073   1.339   2.405   5.747  0.0365  0.2994  0.4246
  706TIP3   OH2 2074   0.246   3.201   4.501 -0.3053  0.0444  0.5383
  706TIP3    H1 2075   0.152   3.222   4.498 -0.5259 -0.9958 -1.6216
  706TIP3    H2 2076   0.290   3.283   4.481 -0.8636  0.0781 -0.6019
  707TIP3   OH2 2077   1.561   5.355   3.790 -0.5779  0.0083  0.2859
  707TIP3    H1 2078   1.577   5.299   3.866  0.1379  1.2872  1.1119
  707TIP3    H2 2079   1.643   5.350   3.740 -0.5063  0.3406  0.3724
  708TIP3   OH2 2080   2.269   0.127   5.876  0.3478  0.1559 -0.1066
  708TIP3    H1 2081   2.185   0.146   5.918  0.1134  1.6024 -1.1318
  708TIP3    H2 2082   2.329   0.113   5.949 -0.8367 -1.3193  0.6431
  709TIP3   OH2 2083   0.316   4.343   4.191 -0.3633 -0.2188  0.3046
  709TIP3    H1 2084   0.306   4.303   4.277 -2.1292 -1.0454 -0.2280
  709TIP3    H2 2085   0.246   4.408   4.187  0.4770  0.6921 -0.0672
  710TIP3   OH2 2086   3.961   5.257   3.886  0.4510  0.7354  0.3391
  710TIP3    H1 2087   4.042   5.280   3.839  0.0309  0.9022 -0.3228
  710TIP3    H2 2088   3.907   5.335   3.880  0.0536  0.4615  0.3569
  711TIP3   OH2 2089   5.281   3.459   5.943 -0.1909 -0.7526 -0.2584
  711TIP3    H1 2090   5.235   3.501   5.870 -0.7214  1.9762  1.5020
  711TIP3    H2 2091   5.365   3.432   5.906 -0.2184  1.0282 -1.7758
  712TIP3   OH2 2092   5.951   6.335   1.336 -0.1197  0.2258 -0.3448
  712TIP3    H1 2093   5.861   6.364   1.346  0.0772  0.5769  0.5203
  712TIP3    H2 2094   5.945   6.239   1.336 -0.6812  0.2129 -2.3805
  713TIP3   OH2 2095   4.204   7.048   1.865 -0.4386 -0.4755  0.5224
  713TIP3    H1 2096   4.190   7.013   1.953 -0.7446 -0.8670  0.3238
  713TIP3    H2 2097   4.226   7.140   1.878  1.1297 -0.9200  1.0954
  714TIP3   OH2 2098   6.516   7.397   1.411 -0.0957  0.0305 -0.4967
  714TIP3    H1 2099   6.439   7.365   1.363 -0.3826  1.4875 -1.0514
  714TIP3    H2 2100   6.537   7.480   1.369  1.5126 -0.1212 -0.0446
  715TIP3   OH2 2101   3.528   2.888   1.182 -0.1967  0.2819  0.7694
  715TIP3    H1 2102   3.487   2.975   1.184 -1.2465 -0.2035  2.0875
  715TIP3    H2 2103   3.525   2.858   1.272 -0.3643 -1.3675  0.2504
  716TIP3   OH2 2104   0.595   4.081   5.230 -0.3814 -0.2122 -0.1820
  716TIP3    H1 2105   0.631   4.104   5.145 -0.4886 -0.3577 -0.2662
  716TIP3    H2 2106   0.520   4.025   5.211 -1.0729  0.6475 -0.0268
  717TIP3   OH2 2107   0.823   7.600   5.519  0.2696  0.1933 -0.0759
  717TIP3    H1 2108   0.910   7.632   5.543  0.0395 -0.5903  2.0109
  717TIP3    H2 2109   0.837   7.509   5.493  0.0248 -0.0661  0.6885
  718TIP3   OH2 2110   3.904   6.347   5.391  0.3585 -0.2882  0.3830
  718TIP3    H1 2111   3.869   6.426   5.431 -1.0777 -0.4470 -0.4971
  718TIP3    H2 2112   3.827   6.298   5.363  1.2469 -1.5602  0.0630
  719TIP3   OH2 2113   3.877   4.845   1.710 -0.5871  0.6049  0.8858
  719TIP3    H1 2114   3.943   4.877   1.649  0.2956 -1.7815  0.4565
  719TIP3    H2 2115   3.833   4.924   1.742 -0.2401  2.0414 -1.8441
  720TIP3   OH2 2116   6.111   4.642   0.347 -0.6245  0.1461  0.3948
  720TIP3    H1 2117   6.024   4.675   0.369 -0.9086 -0.9540  0.9589
  720TIP3    H2 2118   6.141   4.598   0.426  0.5772  0.7635  0.3078
  721TIP3   OH2 2119   7.312   0.458   5.534  0.4161  0.1744 -0.0834
  721TIP3    H1 2120   7.297   0.511   5.612 -0.5767  0.5295 -0.4944
  721TIP3    H2 2121   7.304   0.520   5.461 -0.0959 -0.4065 -0.5327
  722TIP3   OH2 2122   8.286   6.379   2.537  0.2467 -0.3641 -0.1542
  722TIP3    H1 2123   8.370   6.423   2.552  1.7087 -2.1586 -2.4546
  722TIP3    H2 2124   8.238   6.438   2.478  1.5867 -1.0786 -2.0405
  723TIP3   OH2 2125   2.917   7.512   1.587  0.2050 -0.9357 -0.2354
  723TIP3    H1 2126   2.867   7.489   1.666 -1.9279 -1.5195 -1.6687
  723TIP3    H2 2127   2.889   7.600   1.566 -0.0066 -1.1588 -0.8977
  724TIP3   OH2 2128   7.918   6.498   3.338  0.5906 -0.0729  0.0280
  724TIP3    H1 2129   7.886   6.416   3.375  0.8043 -0.1062  0.1429
  724TIP3    H2 2130   7.913   6.561   3.410 -0.9981  0.4072 -0.4616
  725TIP3   OH2 2131   2.870   5.394   5.250 -0.4719  0.1654 -0.0341
  725TIP3    H1 2132   2.936   5.411   5.316  0.8736 -0.3225 -1.2017
  725TIP3    H2 2133   2.867   5.474   5.197  0.0789 -0.2502 -0.7103
  726TIP3   OH2 2134   5.375   0.745   1.300 -0.0010  0.1032 -0.4017
  726TIP3    H1 2135   5.425   0.723   1.222  0.9139 -1.7767  0.6601
  726TIP3    H2 2136   5.436   0.793   1.356 -0.3783  0.6293 -0.4261
  727TIP3   OH2 2137   3.750   3.319   2.300  0.2653  0.2615 -0.4413
  727TIP3    H1 2138   3.808   3.343   2.372 -0.4665 -1.6754  0.8798
  727TIP3    H2 2139   3.662   3.336   2.335 -0.1610 -1.9459 -0.3159
  728TIP3   OH2 2140   0.593   5.389   1.875  0.3616  0.0617  0.3061
  728TIP3    H1 2141   0.665   5.376   1.937 -0.3604  0.2546  1.2047
  728TIP3    H2 2142   0.518   5.410   1.930 -0.7626 -1.6403 -0.5017
  729TIP3   OH2 2143   7.841   4.623   0.070 -0.2200  0.3006 -0.0825
  729TIP3    H1 2144   7.929   4.626   0.108  0.1152  0.3171 -0.8535
  729TIP3    H2 2145   7.818   4.530   0.071  1.2287 -0.1989 -3.0359
  730TIP3   OH2 2146   4.278   2.101   6.715 -0.2407  0.2357 -0.2121
  730TIP3    H1 2147   4.344   2.033   6.729 -0.8157 -0.6671 -1.7059
  730TIP3    H2 2148   4.213   2.060   6.658 -1.6916  1.3673  0.5719
  731TIP3   OH2 2149   4.037   1.167   2.835  0.0621 -0.6371  0.0075
  731TIP3    H1 2150   4.042   1.261   2.818  0.4956 -0.3910  1.3509
  731TIP3    H2 2151   4.123   1.145   2.872  0.1265 -1.6602 -0.7228
  732TIP3   OH2 2152   0.761   3.839   3.222 -0.0741 -0.3957  0.0025
  732TIP3    H1 2153   0.834   3.877   3.271  0.1944 -0.9899  0.0700
  732TIP3    H2 2154   0.713   3.788   3.287 -0.4097 -0.2066 -0.0956
  733TIP3   OH2 2155   7.807   6.504   4.085 -0.0471 -0.2629 -0.3310
  733TIP3    H1 2156   7.722   6.459   4.095 -0.2382  0.0640 -0.5020
  733TIP3    H2 2157   7.863   6.460   4.149 -0.8834  0.8309  1.2141
  734TIP3   OH2 2158   7.757   2.350   1.654  0.1344 -0.3394  0.6080
  734TIP3    H1 2159   7.760   2.385   1.743  0.1028 -2.6483  1.5846
  734TIP3    H2 2160   7.664   2.334   1.637  0.1891 -0.3831  0.3429
  735TIP3   OH2 2161   3.341   3.192   2.136 -0.1694 -0.0503  0.3463
  735TIP3    H1 2162   3.349   3.191   2.232 -0.6721 -0.0853  0.3919
  735TIP3    H2 2163   3.427   3.166   2.104  0.1032  0.2970  0.7876
  736TIP3   OH2 2164   3.656   3.476   3.907 -0.0452  0.0295 -0.2619
  736TIP3    H1 2165   3.637   3.505   3.818 -0.1857  0.2119 -0.1721
  736TIP3    H2 2166   3.728   3.533   3.936  1.3923 -1.3260 -0.9766
  737TIP3   OH2 2167   2.539   6.320   0.171  0.0157 -0.6066 -0.7187
  737TIP3    H1 2168   2.489   6.324   0.253 -2.3555 -1.4512 -2.0357
  737TIP3    H2 2169   2.541   6.410   0.140 -0.3455 -0.5096 -0.4687
  738TIP3   OH2 2170   1.206   4.925   2.750 -0.0186 -0.0320  0.2662
  738TIP3    H1 2171   1.283   4.982   2.748  0.9036 -1.0909  2.4571
  738TIP3    H2 2172   1.173   4.933   2.840 -1.4451 -0.9372 -0.1451
  739TIP3   OH2 2173   3.202   5.597   6.716  0.1331 -0.4561 -0.2325
  739TIP3    H1 2174   3.270   5.531   6.704 -0.9461 -1.2794 -2.0754
  739TIP3    H2 2175   3.121   5.555   6.688 -0.6730  1.4773 -0.9976
  740TIP3   OH2 2176   2.081   2.112   6.334  0.0813 -0.4462  0.3452
  740TIP3    H1 2177   2.148   2.057   6.373  0.6469 -0.8078 -1.0690
  740TIP3    H2 2178   2.129   2.184   6.293 -0.5022  0.0287  0.4752
  741TIP3   OH2 2179   5.076   0.017   3.370 -0.3745 -0.4115  0.2601
  741TIP3    H1 2180   5.103   0.081   3.305  1.5371 -1.1230  0.3065
  741TIP3    H2 2181   4.980   0.024   3.371 -0.3251  1.1380 -1.0271
  742TIP3   OH2 2182   3.661   6.662   1.692 -0.3672  0.0532 -0.0699
  742TIP3    H1 2183   3.710   6.581   1.684  0.1105  0.3738 -0.4911
  742TIP3    H2 2184   3.678   6.692   1.781 -0.8807 -0.5143  0.2242
  743TIP3   OH2 2185   5.371   2.509   3.104 -0.7722 -0.6829  0.1837
  743TIP3    H1 2186   5.410   2.595   3.121 -0.2872 -0.9259  0.3006
  743TIP3    H2 2187   5.423   2.472   3.033 -0.4132 -1.2482  0.7314
  744TIP3   OH2 2188   6.203   6.005   4.299  0.0922  0.0242 -0.4283
  744TIP3    H1 2189   6.217   6.054   4.218 -1.8312  0.3426 -0.6112
  744TIP3    H2 2190   6.210   6.070   4.369  1.5147 -0.2096 -0.3082
  745TIP3   OH2 2191   2.152   4.399   0.810 -0.5027 -0.0549 -0.3268
  745TIP3    H1 2192   2.235   4.361   0.839 -1.2400 -1.4052  0.1236
  745TIP3    H2 2193   2.146   4.483   0.855  0.8428  0.2807 -0.7567
  746TIP3   OH2 2194   5.721   1.686   4.995 -0.1552 -0.1829  0.5730
  746TIP3    H1 2195   5.711   1.632   5.073 -0.4407  0.3775  0.9243
  746TIP3    H2 2196   5.687   1.631   4.924  1.0614 -1.1021  0.6702
  747TIP3   OH2 2197   0.850   2.825   4.687  0.1709  0.3116  0.2559
  747TIP3    H1 2198   0.758   2.802   4.696  0.3617 -0.6061 -0.0998
  747TIP3    H2 2199   0.894   2.743   4.664  0.8663  1.0086 -1.0091
  748TIP3   OH2 2200   2.852   6.397   2.406 -0.3052  0.1809  0.6582
  748TIP3    H1 2201   2.807   6.337   2.465  0.5748  0.2395  1.4156
  748TIP3    H2 2202   2.789   6.414   2.336 -0.2379 -2.4152 -0.1368
  749TIP3   OH2 2203   7.264   2.171   5.623  0.2453 -0.2791  0.0919
  749TIP3    H1 2204   7.355   2.144   5.633  0.2586 -0.4599 -0.5148
  749TIP3    H2 2205   7.256   2.196   5.531 -0.6977 -1.6876 -0.2360
  750TIP3   OH2 2206   2.488   4.293   1.495  0.0241  0.1795  0.5268
  750TIP3    H1 2207   2.541   4.373   1.493 -2.1661  1.7357 -1.1038
  750TIP3    H2 2208   2.512   4.246   1.416 -1.7484  1.5149 -0.9014
  751TIP3   OH2 2209   1.255   3.316   0.672  0.2256 -0.4292 -0.1340
  751TIP3    H1 2210   1.289   3.248   0.731  1.0106 -1.2115 -1.4257
  751TIP3    H2 2211   1.198   3.268   0.612  0.7444  0.0468 -1.0249
  752TIP3   OH2 2212   5.135   5.090   1.092  0.6647  0.2975  0.2624
  752TIP3    H1 2213   5.200   5.104   1.161  2.5167 -0.3939 -1.2866
  752TIP3    H2 2214   5.097   5.005   1.113  0.3661  0.6070  1.0523
  753TIP3   OH2 2215   8.133   0.216   4.948 -0.1064 -0.3546 -0.2336
  753TIP3    H1 2216   8.192   0.287   4.973 -0.3165 -0.1330 -0.3621
  753TIP3    H2 2217   8.070   0.257   4.890  0.6877 -0.9680 -1.5655
  754TIP3   OH2 2218   3.955   2.198   0.012 -0.0066  0.3519 -0.3520
  754TIP3    H1 2219   4.049   2.209  -0.002 -0.3530  2.1809 -1.5240
  754TIP3    H2 2220   3.947   2.115   0.060  2.2398  0.5860  0.5156
  755TIP3   OH2 2221   6.578   0.480   0.339 -0.1613  0.1349  0.2503
  755TIP3    H1 2222   6.621   0.405   0.381 -2.0035 -1.8363 -1.1827
  755TIP3    H2 2223   6.563   0.542   0.410  2.3156 -0.3538  1.3113
  756TIP3   OH2 2224   5.998   6.201   3.593 -0.3399 -0.0679 -0.2711
  756TIP3    H1 2225   6.034   6.279   3.551 -1.3682  1.1568  1.0313
  756TIP3    H2 2226   5.997   6.135   3.523  3.1960  0.1380 -0.7084
  757TIP3   OH2 2227   8.069   5.577   2.066  0.1536  0.1624 -0.3687
  757TIP3    H1 2228   8.034   5.493   2.096  0.4190 -0.0548 -0.6510
  757TIP3    H2 2229   8.100   5.559   1.977 -2.5248  1.2876 -1.6259
  758TIP3   OH2 2230   1.701   2.543   0.261  0.1707  0.3053  0.0349
  758TIP3    H1 2231   1.768   2.559   0.195  2.4958 -2.3898  1.5137
  758TIP3    H2 2232   1.723   2.601   0.334 -0.0868  0.5492 -0.0784
  759TIP3   OH2 2233   1.945   6.475   3.612  0.3887  0.5116  0.3950
  759TIP3    H1 2234   1.958   6.467   3.707 -0.4425  1.4080  0.5931
  759TIP3    H2 2235   1.925   6.385   3.584  2.3778 -0.1017  0.7593
  760TIP3   OH2 2236   3.761   5.311   1.944 -0.5116 -0.1113 -0.1758
  760TIP3    H1 2237   3.686   5.299   2.003  0.3125  0.3406  1.0093
  760TIP3    H2 2238   3.747   5.396   1.904 -0.1671  0.4139  0.7836
  761TIP3   OH2 2239   6.956   7.447   3.342  0.1326  0.6992 -0.6355
  761TIP3    H1 2240   6.889   7.508   3.373 -1.8944 -1.8460  0.3027
  761TIP3    H2 2241   6.913   7.398   3.272  2.0574  0.9677 -2.0994
  762TIP3   OH2 2242   2.575   2.762   5.809  0.7239 -0.0057  0.2772
  762TIP3    H1 2243   2.486   2.779   5.840 -0.2274  0.9763 -2.6134
  762TIP3    H2 2244   2.619   2.847   5.815  1.1141 -0.2261  0.6136
  763TIP3   OH2 2245   6.487   3.922   2.397  0.1921  0.8479  0.0529
  763TIP3    H1 2246   6.522   3.833   2.410  0.0340  0.7908  0.0828
  763TIP3    H2 2247   6.510   3.942   2.306 -0.7295  0.3478 -0.3020
  764TIP3   OH2 2248   1.175   5.453   5.930  0.0439 -0.2928  0.4811
  764TIP3    H1 2249   1.151   5.470   6.021  0.2716  0.1943  0.4551
  764TIP3    H2 2250   1.129   5.373   5.907  2.4629 -2.3030  2.0365
  765TIP3   OH2 2251   8.014   3.931   5.033  0.4145 -0.1998  0.1766
  765TIP3    H1 2252   8.009   4.013   4.984 -0.9201 -0.2212  0.2551
  765TIP3    H2 2253   8.052   3.869   4.971  0.0808  0.1269 -0.3685
  766TIP3   OH2 2254   3.773   0.663   3.589 -0.3985  0.1657 -0.6510
  766TIP3    H1 2255   3.714   0.638   3.517 -0.9181 -0.6488  0.0334
  766TIP3    H2 2256   3.849   0.606   3.579 -1.1091 -0.9827  0.2755
  767TIP3   OH2 2257   4.086   3.813   3.252 -0.1771  0.0853  0.4677
  767TIP3    H1 2258   4.145   3.889   3.246 -1.5478  1.2241  0.8432
  767TIP3    H2 2259   4.007   3.840   3.205 -0.4001 -1.4312 -0.0751
  768TIP3   OH2 2260   5.041   7.701   6.246 -0.3081 -0.3864 -0.1455
  768TIP3    H1 2261   4.966   7.692   6.305  0.0896 -0.0372  0.4244
  768TIP3    H2 2262   5.111   7.654   6.290 -0.0874 -0.3777 -0.4875
  769TIP3   OH2 2263   2.036   4.447   3.058  0.2754 -0.6765  0.3100
  769TIP3    H1 2264   2.028   4.355   3.081  3.6151 -1.0838  0.3190
  769TIP3    H2 2265   1.983   4.493   3.123  0.6476 -2.4726  1.9794
  770TIP3   OH2 2266   5.245   5.538   6.278 -0.2510 -0.2487 -0.0379
  770TIP3    H1 2267   5.267   5.627   6.306  0.5432 -0.1962 -0.7644
  770TIP3    H2 2268   5.329   5.491   6.281 -0.6174 -0.8943  0.0886
  771TIP3   OH2 2269   7.596   1.604   6.297 -0.3108 -0.4138  0.5053
  771TIP3    H1 2270   7.560   1.515   6.301  1.2317 -1.2598 -2.0498
  771TIP3    H2 2271   7.689   1.593   6.319 -0.3602  0.8163  1.4512
  772TIP3   OH2 2272   5.207   6.149   6.059 -0.3079 -0.0954 -0.1737
  772TIP3    H1 2273   5.242   6.153   5.970  0.6741  0.0008  0.1970
  772TIP3    H2 2274   5.136   6.085   6.054 -1.6427  1.3888 -1.4484
  773TIP3   OH2 2275   1.073   4.923   2.995 -0.2753 -0.3700 -0.4661
  773TIP3    H1 2276   0.982   4.894   2.999 -0.2167 -0.6139 -0.8310
  773TIP3    H2 2277   1.118   4.872   3.062 -0.9295  1.7878  1.7991
  774TIP3   OH2 2278   6.051   1.341   5.821  0.5495 -0.2068 -0.3796
  774TIP3    H1 2279   6.046   1.433   5.795  0.2440  0.0505  0.5567
  774TIP3    H2 2280   5.977   1.300   5.776  1.3136 -0.2375 -1.6745
  775TIP3   OH2 2281   7.221   6.732   4.352 -0.2414  0.1091  0.2342
  775TIP3    H1 2282   7.283   6.676   4.304 -0.0657  0.0521  0.5246
  775TIP3    H2 2283   7.136   6.691   4.336 -0.0434 -0.6045  0.9457
  776TIP3   OH2 2284   2.338   3.726   2.820 -0.2030 -0.1644 -0.2178
  776TIP3    H1 2285   2.382   3.774   2.890 -0.5270 -0.5284  0.2427
  776TIP3    H2 2286   2.246   3.751   2.827 -0.4760 -1.2675  0.3949
  777TIP3   OH2 2287   0.865   3.236   3.157  0.2146  0.2892 -0.2079
  777TIP3    H1 2288   0.960   3.226   3.160  0.1340 -1.1068 -1.2384
  777TIP3    H2 2289   0.838   3.238   3.249  1.0086 -2.1807  0.1359
  778TIP3   OH2 2290   0.519   6.045   0.507  0.2344  0.2598 -0.0530
  778TIP3    H1 2291   0.483   6.049   0.595  0.3462  1.1428 -0.0412
  778TIP3    H2 2292   0.602   6.091   0.512  0.4506 -0.0604 -0.5278
  779TIP3   OH2 2293   2.813   2.789   0.428  0.2537  0.7557 -0.3040
  779TIP3    H1 2294   2.787   2.697   0.436  1.9607  0.4245  2.8087
  779TIP3    H2 2295   2.738   2.838   0.463  0.8635  0.2570  1.7867
  780TIP3   OH2 2296   1.715   7.117   3.293 -0.2829  0.1759  0.4466
  780TIP3    H1 2297   1.671   7.089   3.213 -1.6375  1.3061  0.7593
  780TIP3    H2 2298   1.732   7.035   3.341 -0.7396 -0.3904 -0.3435
  781TIP3   OH2 2299   5.404   6.826   0.130  0.0213 -0.0758  0.0219
  781TIP3    H1 2300   5.401   6.787   0.217  3.4989 -0.0878  0.2694
  781TIP3    H2 2301   5.457   6.904   0.140 -3.0235  2.3876 -1.3720
  782TIP3   OH2 2302   7.697   2.419   3.022 -0.3732  0.4948 -0.2983
  782TIP3    H1 2303   7.711   2.346   2.962 -2.7721 -0.5877  0.3429
  782TIP3    H2 2304   7.679   2.377   3.107 -0.7889  1.8671  0.3197
  783TIP3   OH2 2305   2.294   2.603   5.466  0.1816  0.2905  0.2714
  783TIP3    H1 2306   2.285   2.519   5.510  1.1317 -0.1241 -0.2836
  783TIP3    H2 2307   2.382   2.633   5.490 -0.2910  1.3126  0.7755
  784TIP3   OH2 2308   4.839   1.156   5.513 -0.2102 -0.1654 -0.5898
  784TIP3    H1 2309   4.790   1.142   5.593 -1.0197  1.2242 -0.8044
  784TIP3    H2 2310   4.888   1.075   5.499 -0.7141 -0.7307  0.8368
  785TIP3   OH2 2311   3.414   7.155   0.655 -0.0322  0.4684 -0.2713
  785TIP3    H1 2312   3.452   7.174   0.570  0.1946 -1.3910 -0.6351
  785TIP3    H2 2313   3.411   7.239   0.700  1.3020  1.2206 -1.5219
  786TIP3   OH2 2314   4.545   4.574   3.173 -0.5037  0.0974 -0.1084
  786TIP3    H1 2315   4.483   4.550   3.105 -0.4785 -0.7008  0.1480
  786TIP3    H2 2316   4.591   4.493   3.195  0.5882  0.6570 -0.2406
  787TIP3   OH2 2317   7.299   3.215   2.956 -0.6130 -0.3046 -0.0767
  787TIP3    H1 2318   7.243   3.214   2.878  0.7800  2.2640 -1.2381
  787TIP3    H2 2319   7.280   3.132   3.001 -2.1889 -1.4267 -2.6143
  788TIP3   OH2 2320   4.529   4.505   4.559 -0.0781 -0.3890 -0.1881
  788TIP3    H1 2321   4.537   4.455   4.478 -0.5861 -0.7584 -0.0188
  788TIP3    H2 2322   4.617   4.538   4.576  0.3890 -1.6240 -0.0551
  789TIP3   OH2 2323   8.315   7.624   5.804 -0.2687  0.4719 -0.2425
  789TIP3    H1 2324   8.376   7.621   5.878  0.3312 -0.8737 -0.7530
  789TIP3    H2 2325   8.228   7.631   5.845  0.1511  1.3003  0.5312
  790TIP3   OH2 2326   3.006   2.253   4.039  0.5925 -0.2674  0.2870
  790TIP3    H1 2327   2.935   2.215   3.987 -0.4349  1.0164  0.7066
  790TIP3    H2 2328   2.962   2.299   4.110  1.8408  0.6795  0.4795
  791TIP3   OH2 2329   3.767   0.395   1.037 -0.3006 -0.3621 -0.5377
  791TIP3    H1 2330   3.779   0.402   1.132 -0.9077  1.6492 -0.5521
  791TIP3    H2 2331   3.828   0.327   1.010 -0.6880 -1.5522  1.3875
  792TIP3   OH2 2332   6.664   5.609   5.337  0.7542  0.4645 -0.0855
  792TIP3    H1 2333   6.688   5.636   5.248 -0.0423  3.2025  0.4247
  792TIP3    H2 2334   6.714   5.669   5.393 -1.2612  1.0412  1.1730
  793TIP3   OH2 2335   1.883   2.836   1.922  0.2054  0.1755  0.8724
  793TIP3    H1 2336   1.932   2.916   1.943  2.5341 -0.6283 -1.0941
  793TIP3    H2 2337   1.842   2.855   1.838  1.0797 -0.7751  0.2068
  794TIP3   OH2 2338   3.657   5.643   0.406 -0.5652 -0.4810  0.2568
  794TIP3    H1 2339   3.677   5.731   0.439 -1.1543  0.9189 -2.8368
  794TIP3    H2 2340   3.614   5.658   0.322 -0.0215 -3.7781 -0.7289
  795TIP3   OH2 2341   2.596   3.662   2.311  0.1307  0.2529 -0.1112
  795TIP3    H1 2342   2.599   3.600   2.238 -0.0807 -0.1160  0.1925
  795TIP3    H2 2343   2.505   3.658   2.342  0.3280  0.0881  0.4516
  796TIP3   OH2 2344   8.202   5.487   0.119  0.1446  0.7843 -0.0450
  796TIP3    H1 2345   8.205   5.446   0.206  1.0402  0.2249 -0.3304
  796TIP3    H2 2346   8.129   5.443   0.075  0.5684  0.0675 -0.0552
  797TIP3   OH2 2347   3.516   3.172   2.685  0.2276 -0.1528  0.4206
  797TIP3    H1 2348   3.518   3.266   2.701 -1.5693 -0.1757  1.0012
  797TIP3    H2 2349   3.493   3.133   2.769  0.9420 -1.1234  0.1838
  798TIP3   OH2 2350   5.335   4.855   0.148 -0.3262  0.5232  0.2437
  798TIP3    H1 2351   5.384   4.913   0.090 -1.5113 -1.1714 -2.6900
  798TIP3    H2 2352   5.399   4.787   0.173 -0.1013  0.6148 -0.0783
  799TIP3   OH2 2353   0.127   2.381   0.963 -0.0966  0.5667  0.0153
  799TIP3    H1 2354   0.092   2.462   0.926  0.3798  1.3161  1.1203
  799TIP3    H2 2355   0.155   2.329   0.888  0.4490  1.8400 -0.6798
  800TIP3   OH2 2356   2.643   2.020   1.706 -0.0418  0.3424  0.2482
  800TIP3    H1 2357   2.731   2.023   1.743  0.2193 -1.6464 -0.1081
  800TIP3    H2 2358   2.615   1.929   1.718 -1.6535  0.7021 -0.5400
  801TIP3   OH2 2359   2.000   3.813   3.984  0.2159 -0.1237  0.4205
  801TIP3    H1 2360   2.050   3.734   4.003 -1.1627 -1.6705 -1.9314
  801TIP3    H2 2361   1.927   3.784   3.929  0.0040  2.8493 -1.1156
  802TIP3   OH2 2362   7.296   5.637   0.972  0.1482 -0.0884 -0.5411
  802TIP3    H1 2363   7.249   5.554   0.965  0.2989 -0.0958 -1.4841
  802TIP3    H2 2364   7.259   5.678   1.051  1.7409 -2.0789  1.3499
  803TIP3   OH2 2365   2.532   3.242   6.065 -0.0080  0.1936 -0.3429
  803TIP3    H1 2366   2.471   3.247   6.138 -0.2895  0.9464 -0.6128
  803TIP3    H2 2367   2.575   3.157   6.074 -0.7126 -0.1166  0.1562
  804TIP3   OH2 2368   1.986   5.220   5.387  0.1510  0.4245  0.0344
  804TIP3    H1 2369   2.007   5.181   5.472 -0.7448  1.2626  0.6637
  804TIP3    H2 2370   1.911   5.168   5.356  0.1163  0.4781  0.0284
  805TIP3   OH2 2371   1.323   4.763   5.672  0.0705 -0.2055 -0.0369
  805TIP3    H1 2372   1.300   4.730   5.759 -0.9186  1.7960  0.5165
  805TIP3    H2 2373   1.277   4.846   5.665  1.3614  0.4180 -1.8856
  806TIP3   OH2 2374   4.952   0.632   5.064 -0.2389  0.6570  0.4816
  806TIP3    H1 2375   4.964   0.563   5.129  1.0830  1.8682  1.5838
  806TIP3    H2 2376   4.889   0.692   5.105  1.8270  2.2914  1.4840
  807TIP3   OH2 2377   3.039   2.977   1.997 -0.3942  0.1226  0.0582
  807TIP3    H1 2378   3.070   3.067   2.001 -0.0840  0.0753 -0.9377
  807TIP3    H2 2379   2.974   2.976   1.927 -0.3554 -0.4298  0.0192
  808TIP3   OH2 2380   6.665   7.180   3.353  0.0155  0.1106  0.1193
  808TIP3    H1 2381   6.733   7.114   3.371  0.2702  0.2821 -0.1940
  808TIP3    H2 2382   6.687   7.213   3.266 -2.1921 -1.9599 -1.3598
  809TIP3   OH2 2383   6.366   6.097   4.838  0.7618  0.8881  0.3406
  809TIP3    H1 2384   6.288   6.125   4.789 -0.1255 -1.8530 -0.0228
  809TIP3    H2 2385   6.338   6.098   4.930  1.3078  2.7119  0.5226
  810TIP3   OH2 2386   4.960   6.262   5.825  0.0890  0.3605 -0.0550
  810TIP3    H1 2387   4.982   6.171   5.806 -0.8681 -0.5729  2.8454
  810TIP3    H2 2388   4.888   6.282   5.765  2.0682  0.2190 -2.6657
  811TIP3   OH2 2389   2.761   0.524   6.481  0.4565 -0.0238 -0.1211
  811TIP3    H1 2390   2.780   0.451   6.421  0.3965  1.1222 -1.5827
  811TIP3    H2 2391   2.834   0.525   6.542 -0.4446 -2.4742  1.1514
  812TIP3   OH2 2392   3.782   2.680   3.818 -0.1100 -0.2116  0.6244
  812TIP3    H1 2393   3.745   2.594   3.797  0.2591  0.0561 -1.3015
  812TIP3    H2 2394   3.720   2.718   3.880 -1.4721 -0.9789 -0.2166
  813TIP3   OH2 2395   3.746   5.836   1.194  0.3429  0.5792  0.3444
  813TIP3    H1 2396   3.835   5.832   1.228  0.8578 -2.8407 -1.0011
  813TIP3    H2 2397   3.756   5.849   1.100 -0.5521  0.1603  0.1743
  814TIP3   OH2 2398   2.031   6.040   5.969 -0.3420 -0.5352 -0.4326
  814TIP3    H1 2399   2.081   6.100   5.914 -0.7204  1.6432  1.4047
  814TIP3    H2 2400   2.081   5.958   5.968  1.2672  0.4015 -1.5457
  815TIP3   OH2 2401   2.897   4.374   3.404  0.3046 -0.1502 -0.4920
  815TIP3    H1 2402   2.803   4.353   3.404  0.2870 -0.3038  1.7650
  815TIP3    H2 2403   2.918   4.389   3.312 -2.2125  1.1409 -0.9577
  816TIP3   OH2 2404   6.615   4.972   5.333 -0.2502 -0.0718  0.1343
  816TIP3    H1 2405   6.666   5.007   5.260 -1.7173 -0.3014 -1.0541
  816TIP3    H2 2406   6.594   4.883   5.306 -1.5485  0.1267  0.4371
  817TIP3   OH2 2407   8.071   4.663   6.577  0.4624 -0.2946 -0.3722
  817TIP3    H1 2408   8.146   4.669   6.636  1.4941  2.3480 -1.7912
  817TIP3    H2 2409   8.103   4.613   6.502  0.8685  0.7841 -0.9518
  818TIP3   OH2 2410   5.404   4.883   5.740 -0.0558 -0.0705  0.1089
  818TIP3    H1 2411   5.448   4.900   5.823 -0.6755 -2.3062  0.9859
  818TIP3    H2 2412   5.325   4.936   5.743 -0.7303 -1.0866  1.5908
  819TIP3   OH2 2413   1.783   6.482   5.249  0.2497 -0.1589  1.0631
  819TIP3    H1 2414   1.778   6.470   5.344  2.3181 -1.2574  1.0889
  819TIP3    H2 2415   1.876   6.469   5.228 -0.2491 -0.5177 -1.1804
  820TIP3   OH2 2416   8.178   6.642   1.774 -0.0995  0.0043  0.3768
  820TIP3    H1 2417   8.242   6.714   1.772  0.6580 -0.6019 -2.7299
  820TIP3    H2 2418   8.224   6.569   1.733 -2.2244 -1.0053 -0.3076
  821TIP3   OH2 2419   0.796   7.326   1.701  0.0579  0.1062  0.4128
  821TIP3    H1 2420   0.880   7.369   1.716 -0.2412  0.5164  0.9548
  821TIP3    H2 2421   0.810   7.273   1.622  0.5997  0.7687  0.0448
  822TIP3   OH2 2422   7.905   5.260   1.964  0.0394 -0.2030  0.0023
  822TIP3    H1 2423   7.963   5.187   1.943  0.0289 -0.2960  0.3016
  822TIP3    H2 2424   7.825   5.241   1.914  0.1110 -0.2873 -0.0824
  823TIP3   OH2 2425   0.816   4.850   2.997  0.2224 -0.3410  0.0033
  823TIP3    H1 2426   0.786   4.830   2.908  0.1189  0.8426 -0.2445
  823TIP3    H2 2427   0.751   4.808   3.054 -0.4270 -0.0374 -0.4999
  824TIP3   OH2 2428   2.814   4.136   1.883  0.1384  0.6197 -0.6988
  824TIP3    H1 2429   2.756   4.150   1.809 -0.8701  0.8020  0.1096
  824TIP3    H2 2430   2.899   4.115   1.843 -0.6796 -0.5678 -1.9004
  825TIP3   OH2 2431   4.624   5.966   3.716  0.2488 -0.0994  0.0042
  825TIP3    H1 2432   4.528   5.970   3.717  0.2308 -0.4275  1.0764
  825TIP3    H2 2433   4.646   5.942   3.626 -0.7100 -0.6791 -0.0902
  826TIP3   OH2 2434   4.091   7.802   3.207  0.5209 -0.4195  0.2030
  826TIP3    H1 2435   4.139   7.876   3.245  0.8713 -0.7805  0.4853
  826TIP3    H2 2436   4.158   7.735   3.194  0.5842 -0.0339 -1.8529
  827TIP3   OH2 2437   6.693   2.250   5.910  0.3111  0.0800  0.2275
  827TIP3    H1 2438   6.735   2.329   5.877 -0.0299  0.9280  1.7236
  827TIP3    H2 2439   6.681   2.266   6.004 -1.0939 -1.1436  0.3031
  828TIP3   OH2 2440   0.006   3.404   3.800  0.4439 -0.3176  0.5699
  828TIP3    H1 2441   0.050   3.463   3.738  0.3944 -0.9754 -0.0969
  828TIP3    H2 2442   0.058   3.411   3.880  1.0867 -0.2127  0.1470
  829TIP3   OH2 2443   1.476   7.622   0.057  0.8362  0.7589  0.1229
  829TIP3    H1 2444   1.384   7.647   0.045  0.8052  0.9368  0.6843
  829TIP3    H2 2445   1.479   7.529   0.037  0.3735  0.5746  0.8747
  830TIP3   OH2 2446   6.106   7.484   6.104 -0.4554  0.1525 -0.4452
  830TIP3    H1 2447   6.099   7.388   6.112  0.1361  0.2248  1.2715
  830TIP3    H2 2448   6.041   7.518   6.166  0.5189  0.8477  0.2164
  831TIP3   OH2 2449   1.712   0.223   3.733  0.2167  0.3483 -0.2377
  831TIP3    H1 2450   1.800   0.260   3.731  0.3614  0.0328  0.0358
  831TIP3    H2 2451   1.694   0.211   3.826 -0.4589  1.1986 -0.2517
  832TIP3   OH2 2452   1.479   4.753   4.068 -0.5199  0.2479  0.3864
  832TIP3    H1 2453   1.547   4.819   4.081  0.7028 -0.8377 -0.3081
  832TIP3    H2 2454   1.481   4.733   3.974 -2.3407  0.7391  0.1999
  833TIP3   OH2 2455   2.195   5.439   5.566  0.1273 -0.8201  0.0325
  833TIP3    H1 2456   2.219   5.390   5.486  0.4302 -1.2690  0.3906
  833TIP3    H2 2457   2.199   5.373   5.635 -0.0218 -0.4014  0.4376
  834TIP3   OH2 2458   1.680   4.806   2.879 -0.1449  0.4400 -0.3036
  834TIP3    H1 2459   1.652   4.883   2.830 -2.2000 -1.1124 -1.7618
  834TIP3    H2 2460   1.605   4.785   2.936 -0.0944 -1.0647 -0.7367
  835TIP3   OH2 2461   0.562   5.720   6.240 -0.1074 -0.3438 -0.7742
  835TIP3    H1 2462   0.500   5.744   6.171 -1.1499  1.1575  0.6128
  835TIP3    H2 2463   0.533   5.635   6.272 -1.1238  0.0850 -0.5319
  836TIP3   OH2 2464   2.629   6.610   1.628  0.3106  0.4362 -0.3992
  836TIP3    H1 2465   2.679   6.529   1.638 -0.1842 -0.0200 -1.5379
  836TIP3    H2 2466   2.542   6.589   1.664  0.3866  0.6870 -0.0568
  837TIP3   OH2 2467   8.059   4.659   3.264  0.3244  0.2839 -0.2287
  837TIP3    H1 2468   8.097   4.747   3.258 -2.2320  1.6256  1.4612
  837TIP3    H2 2469   8.099   4.621   3.342  0.1583  0.6802  0.0587
  838TIP3   OH2 2470   2.114   1.988   6.790  0.0502 -0.5496  0.5553
  838TIP3    H1 2471   2.022   1.962   6.786  0.1167 -0.8828  1.1061
  838TIP3    H2 2472   2.122   2.058   6.725 -0.7711  0.0393  1.0594
  839TIP3   OH2 2473   6.918   1.342   1.818 -0.2494 -0.4875 -1.1048
  839TIP3    H1 2474   7.010   1.318   1.830 -0.9625 -2.1008  2.1101
  839TIP3    H2 2475   6.908   1.423   1.867 -0.6529 -0.5656 -1.0571
  840TIP3   OH2 2476   6.533   7.684   1.323  0.2529 -0.5590  0.1497
  840TIP3    H1 2477   6.550   7.674   1.229  0.3904 -1.3190  0.2460
  840TIP3    H2 2478   6.454   7.739   1.327  0.7254  0.1793 -0.3800
  841TIP3   OH2 2479   4.877   5.265   1.884  0.0018  0.2292 -0.0411
  841TIP3    H1 2480   4.786   5.236   1.875 -0.5030  1.6092  0.3876
  841TIP3    H2 2481   4.901   5.243   1.974 -0.1554  0.5320  0.0751
  842TIP3   OH2 2482   0.339   5.185   6.203  0.6375 -0.2613 -0.4006
  842TIP3    H1 2483   0.424   5.219   6.230  0.8663 -2.3881  1.8849
  842TIP3    H2 2484   0.317   5.236   6.125  2.2757  2.9165  1.0128
  843TIP3   OH2 2485   7.366   6.763   6.409  0.4869 -0.6797  0.5303
  843TIP3    H1 2486   7.302   6.734   6.474  1.9772  0.6097  2.7034
  843TIP3    H2 2487   7.382   6.855   6.430 -0.5713  0.5417 -3.1239
  844TIP3   OH2 2488   4.735   7.260   1.457 -0.8390 -0.5630  0.3166
  844TIP3    H1 2489   4.794   7.219   1.394  0.2051 -1.2855  1.7058
  844TIP3    H2 2490   4.758   7.353   1.455 -1.7762 -0.3364 -1.3319
  845TIP3   OH2 2491   6.388   5.556   3.976 -0.2861  0.4710 -0.1858
  845TIP3    H1 2492   6.324   5.616   4.014  0.6232  2.3299 -1.4368
  845TIP3    H2 2493   6.458   5.551   4.040 -0.9307 -0.3022  0.4813
  846TIP3   OH2 2494   6.818   5.143   0.948  0.6035 -0.0940  0.2399
  846TIP3    H1 2495   6.828   5.232   0.982  0.5114 -0.8174  2.3402
  846TIP3    H2 2496   6.736   5.145   0.899  1.3153  1.2898 -0.9536
  847TIP3   OH2 2497   1.255   5.772   4.805  0.0372 -0.1206  0.0052
  847TIP3    H1 2498   1.272   5.852   4.854 -1.4930  0.3850 -0.2321
  847TIP3    H2 2499   1.331   5.763   4.747  1.5920 -0.4167  1.9913
  848TIP3   OH2 2500   8.259   4.897   4.298  0.5266  0.1684  0.2283
  848TIP3    H1 2501   8.274   4.979   4.345 -0.9271  0.4393  0.2587
  848TIP3    H2 2502   8.252   4.922   4.206 -0.3065  0.1565  0.2767
  849TIP3   OH2 2503   2.351   7.509   5.241  0.7395 -0.6868  0.0324
  849TIP3    H1 2504   2.318   7.451   5.173  1.0014  0.0622 -0.7470
  849TIP3    H2 2505   2.403   7.574   5.195 -0.0440  0.5408  0.7986
  850TIP3   OH2 2506   2.212   3.511   0.200 -0.2279 -0.5488 -0.3864
  850TIP3    H1 2507   2.248   3.550   0.280 -0.5318 -1.3948  0.1726
  850TIP3    H2 2508   2.117   3.515   0.212 -0.2705 -2.3131  0.1227
  851TIP3   OH2 2509   5.852   2.418   0.207 -0.5759  0.6211  0.3207
  851TIP3    H1 2510   5.838   2.458   0.293  0.4404 -0.2768  0.9270
  851TIP3    H2 2511   5.937   2.375   0.214 -0.3474  0.7581 -1.2342
  852TIP3   OH2 2512   6.427   0.669   3.597 -0.6801 -0.7691 -0.2820
  852TIP3    H1 2513   6.399   0.713   3.517  0.8088 -0.7277 -0.8151
  852TIP3    H2 2514   6.472   0.590   3.566  0.5555 -0.3784  0.4622
  853TIP3   OH2 2515   2.981   6.365   0.315  0.7097 -0.3730 -0.5775
  853TIP3    H1 2516   2.916   6.295   0.321  0.8093 -0.3743  0.6869
  853TIP3    H2 2517   2.933   6.439   0.277 -0.8962  0.5747  2.9400
  854TIP3   OH2 2518   6.162   5.099   0.945 -0.0248  0.4195  0.3022
  854TIP3    H1 2519   6.202   5.069   1.027 -1.7659 -0.7022  0.7953
  854TIP3    H2 2520   6.072   5.123   0.969 -0.4557  0.4371 -1.2165
  855TIP3   OH2 2521   1.985   6.677   3.389 -0.1211 -0.0748 -0.7331
  855TIP3    H1 2522   1.986   6.620   3.312  1.4326 -0.1908 -0.6553
  855TIP3    H2 2523   1.956   6.621   3.461  1.4311 -0.8178 -0.6494
  856TIP3   OH2 2524   6.261   6.052   0.359 -0.1442  0.6127 -0.8543
  856TIP3    H1 2525   6.194   5.987   0.335 -2.4265  2.0622  1.1283
  856TIP3    H2 2526   6.326   6.002   0.408 -0.7838 -0.5447 -1.1476
  857TIP3   OH2 2527   0.796   7.058   1.554  0.4417 -0.8331  0.1084
  857TIP3    H1 2528   0.811   7.141   1.509 -0.1718 -0.3479  0.7708
  857TIP3    H2 2529   0.848   6.994   1.505  0.9613 -0.0529 -0.3771
  858TIP3   OH2 2530   6.056   4.801   5.088 -0.1961  0.0225 -0.3386
  858TIP3    H1 2531   6.084   4.733   5.027 -0.1125 -1.7838  1.5900
  858TIP3    H2 2532   5.978   4.765   5.130  1.0352  0.0984  2.2245
  859TIP3   OH2 2533   7.519   6.922   2.986  0.7355 -0.0038 -0.5054
  859TIP3    H1 2534   7.531   6.874   2.904  0.2297  1.5970 -1.5777
  859TIP3    H2 2535   7.468   6.999   2.961  0.5881  0.5376  1.3262
  860TIP3   OH2 2536   6.403   4.211   4.812 -0.8135 -0.0982  0.1167
  860TIP3    H1 2537   6.486   4.193   4.855 -0.1192  1.2121 -0.5936
  860TIP3    H2 2538   6.338   4.160   4.860  0.4552 -1.4386  0.4514
  861TIP3   OH2 2539   0.565   4.137   0.594 -0.3977  0.0699  0.0392
  861TIP3    H1 2540   0.642   4.178   0.632 -0.3450 -0.6006  0.6719
  861TIP3    H2 2541   0.594   4.104   0.509  0.0155 -0.1755  0.2726
  862TIP3   OH2 2542   4.181   5.924   1.378  0.0609  0.0193 -0.1242
  862TIP3    H1 2543   4.265   5.880   1.366 -1.3493 -2.5763 -1.2224
  862TIP3    H2 2544   4.148   5.890   1.461 -0.8565 -0.7133 -0.7702
  863TIP3   OH2 2545   7.936   5.563   6.799  0.0935  0.0626  0.2700
  863TIP3    H1 2546   8.008   5.595   6.745  0.8001 -1.0963  0.4980
  863TIP3    H2 2547   7.885   5.507   6.741 -0.0343  0.0489  0.3942
  864TIP3   OH2 2548   7.131   2.868   0.975  0.3041  0.4205 -0.5540
  864TIP3    H1 2549   7.210   2.915   0.948 -0.3346  1.6206 -0.3967
  864TIP3    H2 2550   7.098   2.830   0.894  2.2336 -2.0785 -0.3115
  865TIP3   OH2 2551   4.401   2.588   4.542  0.0665  0.6304 -0.2646
  865TIP3    H1 2552   4.317   2.610   4.500 -0.2606 -0.8631 -0.4559
  865TIP3    H2 2553   4.465   2.592   4.471  0.1327  1.5910 -0.1578
  866TIP3   OH2 2554   2.425   1.164   2.861  0.1852  0.2183 -0.0225
  866TIP3    H1 2555   2.433   1.109   2.939 -1.1841 -0.0968 -0.0731
  866TIP3    H2 2556   2.501   1.141   2.807  1.0063  0.2498  1.0907
  867TIP3   OH2 2557   1.508   6.024   3.158  0.1604 -0.2940 -0.6093
  867TIP3    H1 2558   1.425   6.052   3.119  0.3887  0.4208 -0.5918
  867TIP3    H2 2559   1.517   5.932   3.132 -0.4956 -0.2955 -0.8501
  868TIP3   OH2 2560   5.467   3.390   2.273  0.3614  0.1354 -0.4406
  868TIP3    H1 2561   5.379   3.423   2.291  0.6639  0.1226  1.2279
  868TIP3    H2 2562   5.518   3.413   2.351  1.8716  0.2458 -1.4239
  869TIP3   OH2 2563   2.368   5.625   3.182  0.1854 -0.6584 -0.5863
  869TIP3    H1 2564   2.390   5.543   3.227 -0.4425 -0.3173  0.3672
  869TIP3    H2 2565   2.449   5.677   3.187 -0.1193 -0.2624  1.0031
  870TIP3   OH2 2566   1.529   5.190   3.462  0.5955 -0.1835 -0.2101
  870TIP3    H1 2567   1.472   5.249   3.513 -0.2665 -0.3063 -1.0122
  870TIP3    H2 2568   1.497   5.198   3.372  0.6797 -1.6443 -0.3829
  871TIP3   OH2 2569   4.610   3.141   3.148  0.5739 -0.7359 -0.5409
  871TIP3    H1 2570   4.557   3.076   3.196  0.6622  0.0364  0.6407
  871TIP3    H2 2571   4.653   3.192   3.216  0.7070  0.4122 -1.4557
  872TIP3   OH2 2572   5.804   5.412   3.158  0.1756  0.1092  0.2875
  872TIP3    H1 2573   5.738   5.424   3.226 -1.0280  0.1171 -0.8429
  872TIP3    H2 2574   5.878   5.371   3.203 -1.1825 -1.3321  1.2805
  873TIP3   OH2 2575   0.754   6.563   0.366 -0.2397  0.4012 -0.4712
  873TIP3    H1 2576   0.754   6.653   0.333 -2.2923  1.4845  2.1115
  873TIP3    H2 2577   0.793   6.569   0.453 -2.0062 -0.8532  0.4596
  874TIP3   OH2 2578   2.517   3.109   1.015  0.5248 -0.1556 -0.5585
  874TIP3    H1 2579   2.515   3.197   0.977  0.3857  0.2446  0.3545
  874TIP3    H2 2580   2.500   3.051   0.941 -1.8999  0.7210 -0.7753
  875TIP3   OH2 2581   4.929   5.021   4.505  0.1233 -0.2897  0.2610
  875TIP3    H1 2582   4.928   5.117   4.511  0.8808 -0.1962 -0.8365
  875TIP3    H2 2583   4.856   4.999   4.448 -0.7393 -0.4671  1.3920
  876TIP3   OH2 2584   3.564   2.283   2.657  0.0689 -0.1268  0.3296
  876TIP3    H1 2585   3.540   2.359   2.709  2.4208 -0.3139  1.8530
  876TIP3    H2 2586   3.657   2.295   2.638  0.3451 -2.2609  0.0219
  877TIP3   OH2 2587   4.056   4.439   2.724  0.4605 -0.2692 -0.2991
  877TIP3    H1 2588   4.143   4.475   2.708  0.2892  0.2390 -0.0984
  877TIP3    H2 2589   3.996   4.506   2.691  0.1475 -1.0218 -1.3174
  878TIP3   OH2 2590   2.347   4.734   1.756 -0.1500  0.3427 -0.5333
  878TIP3    H1 2591   2.320   4.652   1.797 -2.1479  0.8608 -0.7127
  878TIP3    H2 2592   2.342   4.799   1.827 -0.3568  0.6422 -0.8228
  879TIP3   OH2 2593   8.203   0.815   6.414  0.0553 -0.7211  0.3745
  879TIP3    H1 2594   8.200   0.900   6.370 -0.2125 -1.4521 -1.0793
  879TIP3    H2 2595   8.255   0.759   6.356  0.4046 -1.5050  1.4037
  880TIP3   OH2 2596   6.229   7.651   1.636  0.0950  0.4711 -0.1014
  880TIP3    H1 2597   6.200   7.734   1.599  1.1884  0.0014 -2.2138
  880TIP3    H2 2598   6.201   7.585   1.572 -0.1171 -0.7249  1.1699
  881TIP3   OH2 2599   0.490   3.355   0.563  0.3570 -0.2949 -0.1644
  881TIP3    H1 2600   0.455   3.423   0.506 -0.8903 -0.2433  0.6247
  881TIP3    H2 2601   0.551   3.306   0.508  0.8216  1.0792 -0.9112
  882TIP3   OH2 2602   5.177   6.093   6.534  0.8398 -0.5320 -0.1111
  882TIP3    H1 2603   5.202   6.186   6.529  1.4395 -0.5057  2.3625
  882TIP3    H2 2604   5.217   6.054   6.456 -1.2970  1.5898 -2.5161
  883TIP3   OH2 2605   4.585   4.093   0.562  0.1120 -0.0808  0.1761
  883TIP3    H1 2606   4.653   4.046   0.610  0.2112 -1.5410 -1.3014
  883TIP3    H2 2607   4.630   4.168   0.524  0.7254 -0.5529 -0.0555
  884TIP3   OH2 2608   7.912   0.617   4.913  0.3004  1.0224  0.4844
  884TIP3    H1 2609   7.942   0.667   4.989  1.8273  0.5133  0.2305
  884TIP3    H2 2610   7.983   0.625   4.849  0.6014 -1.4837  0.4359
  885TIP3   OH2 2611   4.642   5.838   0.916 -0.7314 -0.1667 -0.0256
  885TIP3    H1 2612   4.659   5.909   0.978  3.6739 -2.2325  1.5180
  885TIP3    H2 2613   4.652   5.758   0.968 -0.7316 -1.9657 -2.6294
  886TIP3   OH2 2614   6.980   5.071   3.859  0.0119  0.0508 -0.5539
  886TIP3    H1 2615   6.916   5.015   3.814 -0.3890 -0.7331  0.9397
  886TIP3    H2 2616   6.986   5.149   3.804 -1.7873 -0.1136 -1.0499
  887TIP3   OH2 2617   1.377   6.441   1.980 -0.0879  0.4552  0.1291
  887TIP3    H1 2618   1.304   6.502   1.987  1.9107  3.0364 -0.0481
  887TIP3    H2 2619   1.380   6.417   1.888 -0.5105  0.5844  0.0816
  888TIP3   OH2 2620   1.123   3.303   5.829 -0.1222 -0.3022 -0.5813
  888TIP3    H1 2621   1.215   3.317   5.852  0.3233 -0.9004 -1.9346
  888TIP3    H2 2622   1.095   3.387   5.793 -0.6599  0.4588  1.4538
  889TIP3   OH2 2623   4.312   3.189   2.717  0.7550  1.2559  0.5066
  889TIP3    H1 2624   4.259   3.220   2.643 -0.8322  1.1237  1.5394
  889TIP3    H2 2625   4.276   3.104   2.739  0.8657  1.5114  1.7575
  890TIP3   OH2 2626   7.512   2.050   1.674 -0.9792 -0.2210 -0.1082
  890TIP3    H1 2627   7.597   2.039   1.717 -1.6077  1.5601  1.7339
  890TIP3    H2 2628   7.486   1.961   1.651  0.0087 -1.1724  2.0940
  891TIP3   OH2 2629   5.012   4.592   3.661  0.4958 -0.1462  0.2068
  891TIP3    H1 2630   4.997   4.562   3.571  0.7472  0.6353 -0.0989
  891TIP3    H2 2631   4.926   4.619   3.692  0.1623 -1.5938  0.6607
  892TIP3   OH2 2632   7.099   2.255   1.979  0.1625 -0.0151  0.3334
  892TIP3    H1 2633   7.065   2.173   2.014 -2.6201  1.5560  1.6462
  892TIP3    H2 2634   7.138   2.299   2.054 -0.0512  0.6549  0.0576
  893TIP3   OH2 2635   6.631   6.266   2.850 -0.6193 -0.0604  0.1255
  893TIP3    H1 2636   6.703   6.294   2.794 -0.6284  0.6089  0.4305
  893TIP3    H2 2637   6.589   6.348   2.878 -2.1872 -0.4526 -0.9253
  894TIP3   OH2 2638   2.723   6.992   3.406  0.0995  0.4534  0.1639
  894TIP3    H1 2639   2.699   7.049   3.480  0.3195  0.0336  0.5698
  894TIP3    H2 2640   2.694   7.039   3.329 -1.0812  0.4250  0.5766
  895TIP3   OH2 2641   4.714   6.989   3.588  0.5347 -0.4077 -0.4774
  895TIP3    H1 2642   4.807   6.987   3.567  0.9058 -1.1091  1.0881
  895TIP3    H2 2643   4.679   6.908   3.551  0.7934 -0.7041 -0.0835
  896TIP3   OH2 2644   0.951   3.248   4.018  0.0975  0.5513  0.4747
  896TIP3    H1 2645   0.984   3.183   4.080 -1.3430 -0.5269  0.1637
  896TIP3    H2 2646   0.972   3.211   3.932  0.5571  1.2080  0.3017
  897TIP3   OH2 2647   0.544   7.599   5.286 -0.2839  0.1481 -0.5129
  897TIP3    H1 2648   0.584   7.535   5.228 -0.5958  0.8616 -1.5367
  897TIP3    H2 2649   0.543   7.556   5.372 -1.4492 -1.6442 -1.3666
  898TIP3   OH2 2650   7.884   4.395   4.319  0.1130  0.1316  0.3197
  898TIP3    H1 2651   7.871   4.438   4.234  0.3203  1.9249  1.1472
  898TIP3    H2 2652   7.808   4.337   4.327  0.1288 -0.1349 -1.1126
  899TIP3   OH2 2653   4.920   7.015   1.786 -0.7157  0.0429  0.2668
  899TIP3    H1 2654   4.859   7.082   1.754  2.3472  2.2505 -1.4873
  899TIP3    H2 2655   4.940   7.042   1.875 -2.3234 -0.8310  0.9457
  900TIP3   OH2 2656   2.185   5.811   6.061  0.5945 -0.1507  0.6577
  900TIP3    H1 2657   2.242   5.736   6.079 -0.3578 -0.6876  1.5620
  900TIP3    H2 2658   2.226   5.883   6.109  2.4773  0.4033 -1.5938
  901TIP3   OH2 2659   2.532   4.325   3.873 -0.6913  0.6842  0.1975
  901TIP3    H1 2660   2.625   4.348   3.881 -0.4325  0.1441 -0.9823
  901TIP3    H2 2661   2.485   4.404   3.898  0.0844  0.9403  0.8731
  902TIP3   OH2 2662   1.977   6.161   3.618 -0.8511  0.1497  0.1246
  902TIP3    H1 2663   1.913   6.117   3.562 -0.6166 -0.8974  0.6535
  902TIP3    H2 2664   2.045   6.192   3.558 -1.7310  1.0700 -0.4127
  903TIP3   OH2 2665   4.408   4.577   3.485  0.6510 -0.7264 -0.1506
  903TIP3    H1 2666   4.486   4.529   3.514 -0.8176 -3.9920 -1.1694
  903TIP3    H2 2667   4.407   4.565   3.390 -0.3602  0.5096 -0.3159
  904TIP3   OH2 2668   7.827   1.543   6.035 -0.0715  0.4933  0.7288
  904TIP3    H1 2669   7.835   1.529   6.130  0.4103 -3.9201  0.2586
  904TIP3    H2 2670   7.916   1.533   6.002 -0.3869  1.0286 -0.3125
  905TIP3   OH2 2671   2.505   7.041   5.484  0.1141 -0.1790  0.5931
  905TIP3    H1 2672   2.535   7.123   5.443 -1.6581  0.8582  1.2810
  905TIP3    H2 2673   2.573   6.978   5.462  2.0141  1.6731  0.8002
  906TIP3   OH2 2674   7.911   7.253   2.369  0.2294  0.0291  0.3611
  906TIP3    H1 2675   7.900   7.203   2.288 -0.7238  0.5518  0.1560
  906TIP3    H2 2676   8.006   7.255   2.383  0.2777 -2.3757  0.7357
  907TIP3   OH2 2677   5.122   4.405   0.366 -0.8659 -0.6650  0.6805
  907TIP3    H1 2678   5.174   4.483   0.346 -0.1653 -1.3503 -0.2219
  907TIP3    H2 2679   5.068   4.431   0.441 -0.6832  0.7028  0.3619
  908TIP3   OH2 2680   0.889   5.116   0.185  0.3243  0.0502  0.5062
  908TIP3    H1 2681   0.831   5.143   0.256 -1.4278  0.0472 -0.8572
  908TIP3    H2 2682   0.840   5.048   0.139  0.3009  1.7001 -2.1341
  909TIP3   OH2 2683   3.801   5.326   4.643  0.2988  0.0649  0.2282
  909TIP3    H1 2684   3.818   5.328   4.549  0.2881 -0.2528  0.2176
  909TIP3    H2 2685   3.882   5.293   4.681  1.3238  2.7732  0.5955
  910TIP3   OH2 2686   7.116   2.166   0.901 -0.1557  0.1628 -0.4241
  910TIP3    H1 2687   7.107   2.221   0.978 -0.2692 -0.9354  0.3804
  910TIP3    H2 2688   7.166   2.090   0.931 -1.1634 -0.8275 -1.1284
  911TIP3   OH2 2689   7.371   6.366   0.578  0.0341 -0.1161  0.2346
  911TIP3    H1 2690   7.335   6.397   0.496  0.3420 -0.4282 -0.0246
  911TIP3    H2 2691   7.315   6.404   0.646  0.9295  1.7706 -0.0020
  912TIP3   OH2 2692   4.168   5.927   5.384  0.3234  0.4146  0.3014
  912TIP3    H1 2693   4.175   5.832   5.397 -2.4065  0.1138  0.1358
  912TIP3    H2 2694   4.203   5.965   5.464  1.0372 -0.7481  0.5557
  913TIP3   OH2 2695   4.315   4.945   0.179  0.0456 -0.2214  0.0307
  913TIP3    H1 2696   4.360   4.914   0.101 -0.4877  0.2818 -0.4814
  913TIP3    H2 2697   4.222   4.942   0.156 -0.0762  0.6362  0.3748
  914TIP3   OH2 2698   2.989   6.959   4.386 -0.5636  0.2311  0.0061
  914TIP3    H1 2699   3.035   7.027   4.337 -0.1756 -1.0540 -1.4986
  914TIP3    H2 2700   2.896   6.976   4.369 -0.4821  0.5073 -0.1734
  915TIP3   OH2 2701   5.248   7.026   3.341  0.3441 -0.4949  0.9457
  915TIP3    H1 2702   5.216   6.950   3.389 -1.4042 -1.1124 -1.0602
  915TIP3    H2 2703   5.261   6.994   3.252 -0.2523  1.5165  0.0958
  916TIP3   OH2 2704   5.022   1.383   0.841 -0.3318 -0.4912 -0.1303
  916TIP3    H1 2705   4.938   1.402   0.800  0.2111  0.4403 -0.8491
  916TIP3    H2 2706   5.086   1.426   0.785  0.4126  1.0525  1.7898
  917TIP3   OH2 2707   1.326   1.736   6.384 -0.1048  0.4193  0.5150
  917TIP3    H1 2708   1.410   1.722   6.341 -0.8339 -0.3655 -0.6959
  917TIP3    H2 2709   1.273   1.660   6.360 -1.4346  1.2984  0.5685
  918TIP3   OH2 2710   1.931   2.448   5.311  0.2978  0.2409  0.3749
  918TIP3    H1 2711   1.845   2.421   5.279 -0.2125  2.1035  0.0920
  918TIP3    H2 2712   1.913   2.511   5.380  1.4151  1.5008 -0.4313
  919TIP3   OH2 2713   6.548   3.548   5.693 -0.5524  0.3377  0.8672
  919TIP3    H1 2714   6.468   3.506   5.663  0.6566 -1.3762 -0.1515
  919TIP3    H2 2715   6.583   3.489   5.759  1.8082 -1.0956 -1.4457
  920TIP3   OH2 2716   4.808   2.330   1.347  0.2273 -0.5303  0.0708
  920TIP3    H1 2717   4.865   2.277   1.292  0.3142 -1.2888  0.8683
  920TIP3    H2 2718   4.746   2.267   1.384  0.0258 -0.0005  0.6451
  921TIP3   OH2 2719   6.112   3.439   2.574  0.4122 -0.6448 -0.8300
  921TIP3    H1 2720   6.076   3.462   2.660  0.5638 -0.8470 -0.7132
  921TIP3    H2 2721   6.039   3.397   2.528  0.2486 -0.2911 -0.9022
  922TIP3   OH2 2722   6.410   4.784   5.232 -0.2618  0.5216 -0.4168
  922TIP3    H1 2723   6.347   4.853   5.251  1.8614  2.8386 -1.1860
  922TIP3    H2 2724   6.398   4.766   5.138 -0.3219  0.3810 -0.3822
  923TIP3   OH2 2725   4.982  -0.012   1.564  0.7185  0.5868  0.5592
  923TIP3    H1 2726   5.005   0.066   1.513 -1.3452  1.5317  0.9670
  923TIP3    H2 2727   5.064  -0.038   1.606  1.4576  2.5578  0.4470
  924TIP3   OH2 2728   3.493   1.763   2.390  0.8369 -0.0337  0.1416
  924TIP3    H1 2729   3.417   1.743   2.444  0.3136 -1.6776 -1.1087
  924TIP3    H2 2730   3.486   1.856   2.371 -2.0108 -0.4831 -1.5720
  925TIP3   OH2 2731   1.502   4.634   3.292 -0.1966 -0.2766 -0.2313
  925TIP3    H1 2732   1.454   4.660   3.370  0.4547 -1.0316  0.4392
  925TIP3    H2 2733   1.594   4.648   3.315  0.0222 -0.8384 -0.7428
  926TIP3   OH2 2734   0.400   0.630   3.071  0.1937 -0.0071 -0.0420
  926TIP3    H1 2735   0.434   0.689   3.139 -0.2845 -0.4282  0.5751
  926TIP3    H2 2736   0.461   0.557   3.071  0.9686  0.6223 -1.0312
  927TIP3   OH2 2737   3.165   4.998   0.730  0.4207  0.1785  0.6795
  927TIP3    H1 2738   3.113   4.947   0.792  1.0818 -1.3422  0.0345
  927TIP3    H2 2739   3.131   5.087   0.738 -2.0014 -0.6525  0.5923
  928TIP3   OH2 2740   6.397   4.927   2.188 -0.1129 -0.0510  0.0640
  928TIP3    H1 2741   6.327   4.905   2.250 -1.0820  1.7107 -0.3541
  928TIP3    H2 2742   6.477   4.896   2.230 -1.2275 -4.0444 -0.3325
  929TIP3   OH2 2743   7.836   5.758   1.473  0.0545  0.6239  0.0853
  929TIP3    H1 2744   7.861   5.786   1.385  2.6822  2.9089  1.3935
  929TIP3    H2 2745   7.905   5.697   1.500 -0.8530 -0.2500  0.5061
  930TIP3   OH2 2746   5.180   5.770   2.187  0.0391 -0.3496 -0.6657
  930TIP3    H1 2747   5.134   5.803   2.264  0.4571 -1.7016  0.2055
  930TIP3    H2 2748   5.122   5.703   2.151  0.9497 -1.5472  0.0145
  931TIP3   OH2 2749   0.913   4.912   6.111  0.4922  0.1629 -0.2515
  931TIP3    H1 2750   0.820   4.903   6.128  0.4939  1.0581  0.3194
  931TIP3    H2 2751   0.922   4.903   6.016 -0.2320  0.5301 -0.3540
  932TIP3   OH2 2752   4.763   5.371   3.922 -0.4360 -0.6959  0.1453
  932TIP3    H1 2753   4.699   5.305   3.947 -2.8866  1.1516 -0.8683
  932TIP3    H2 2754   4.847   5.324   3.923 -1.8983 -3.5370  0.4157
  933TIP3   OH2 2755   2.592   4.742   1.436  0.4489 -0.0642  0.1773
  933TIP3    H1 2756   2.619   4.651   1.447 -2.6392 -0.8008  4.0367
  933TIP3    H2 2757   2.630   4.788   1.510 -1.5480  0.7409  0.7679
  934TIP3   OH2 2758   7.703   7.711   0.062 -0.2166 -0.0822  0.6697
  934TIP3    H1 2759   7.708   7.715   0.158 -1.5364 -0.0595  0.7442
  934TIP3    H2 2760   7.656   7.791   0.037  0.1016 -0.0961 -0.0098
  935TIP3   OH2 2761   1.150   2.787   3.749  0.0549  0.5021  0.4203
  935TIP3    H1 2762   1.140   2.692   3.748  0.7001  0.3357 -3.3328
  935TIP3    H2 2763   1.062   2.820   3.727 -0.3895  0.9017  2.5780
  936TIP3   OH2 2764   6.155   5.407   0.638 -0.7800 -0.0935  0.0198
  936TIP3    H1 2765   6.072   5.413   0.590 -0.6725  2.2697  0.0117
  936TIP3    H2 2766   6.168   5.494   0.675  1.4503 -0.5510  0.4747
  937TIP3   OH2 2767   6.313   2.003   1.730  0.2253 -0.0914  0.0906
  937TIP3    H1 2768   6.323   2.038   1.818 -0.4659  1.1565 -0.3028
  937TIP3    H2 2769   6.403   1.989   1.699  0.5255  1.1849  0.3383
  938TIP3   OH2 2770   3.871   5.599   1.753 -0.6023 -0.0267  0.4983
  938TIP3    H1 2771   3.793   5.597   1.809 -2.5454 -1.6454 -2.0190
  938TIP3    H2 2772   3.847   5.546   1.677  2.8720 -0.2968 -0.6052
  939TIP3   OH2 2773   2.912   2.392   1.971 -0.5980  0.5424 -0.3101
  939TIP3    H1 2774   2.891   2.473   1.924  0.5064  0.6926 -0.5644
  939TIP3    H2 2775   2.828   2.363   2.006 -1.4415  0.5223 -2.2125
  940TIP3   OH2 2776   6.903   4.906   4.920 -0.0892 -0.5830 -0.3952
  940TIP3    H1 2777   6.879   4.819   4.952  0.2100 -0.6662 -0.3953
  940TIP3    H2 2778   6.949   4.889   4.838 -2.3019 -0.2902 -1.7698
  941TIP3   OH2 2779   7.423   1.902   0.589 -0.6545 -0.0327 -0.3748
  941TIP3    H1 2780   7.458   1.990   0.601  0.9336 -0.9392  3.0606
  941TIP3    H2 2781   7.390   1.901   0.499 -1.0423  4.1087 -0.4802
  942TIP3   OH2 2782   4.750   6.483   1.106  0.4367 -0.0336  0.3594
  942TIP3    H1 2783   4.703   6.400   1.102  3.0377 -1.7233  1.8913
  942TIP3    H2 2784   4.741   6.521   1.018 -2.4330 -0.9290  0.1897
  943TIP3   OH2 2785   0.053   0.930   5.388 -1.1113 -0.3227  0.4453
  943TIP3    H1 2786   0.135   0.937   5.339 -0.5701 -1.0263  1.2211
  943TIP3    H2 2787   0.018   1.019   5.391 -1.1040 -0.2469 -1.1028
  944TIP3   OH2 2788   8.326   2.939   2.070 -0.0251 -0.3802 -0.2974
  944TIP3    H1 2789   8.322   2.875   2.141  1.4455 -1.4771 -1.1469
  944TIP3    H2 2790   8.262   2.908   2.007  0.0097 -0.4814 -0.2843
  945TIP3   OH2 2791   7.542   6.962   1.860  0.3298  0.1414  0.0508
  945TIP3    H1 2792   7.531   6.975   1.954 -1.4441  0.8697 -0.2191
  945TIP3    H2 2793   7.586   7.042   1.830  1.1240 -0.2003  0.2810
  946TIP3   OH2 2794   6.432   7.392   6.616  0.6896 -0.0535  0.2045
  946TIP3    H1 2795   6.440   7.374   6.522 -1.7091 -0.7701  0.0930
  946TIP3    H2 2796   6.460   7.483   6.625  3.2934 -0.6483 -0.7663
  947TIP3   OH2 2797   3.141   2.528   2.831 -0.7543  0.5230 -0.5389
  947TIP3    H1 2798   3.161   2.545   2.923 -0.1476 -0.3524 -0.4948
  947TIP3    H2 2799   3.090   2.604   2.803 -1.3586  0.5744  0.6441
  948TIP3   OH2 2800   6.990   4.697   1.119 -0.1021  0.5805  0.1439
  948TIP3    H1 2801   7.018   4.653   1.200  1.9229  0.4945 -0.5656
  948TIP3    H2 2802   6.985   4.789   1.143 -0.6031  0.4317  0.6452
  949TIP3   OH2 2803   4.825   5.302   5.974  0.2895  0.3433 -0.2757
  949TIP3    H1 2804   4.917   5.294   5.951  0.3067  0.3256 -0.1971
  949TIP3    H2 2805   4.821   5.377   6.033  0.5298 -0.8680  1.3280
  950TIP3   OH2 2806   4.130   4.739   0.993  0.0963 -0.3184  0.1401
  950TIP3    H1 2807   4.186   4.719   1.069  2.4314 -1.8137 -1.8211
  950TIP3    H2 2808   4.076   4.661   0.981  0.0057 -0.2407  0.0381
  951TIP3   OH2 2809   3.940   5.527   3.077 -0.1914  0.0818 -0.6633
  951TIP3    H1 2810   3.949   5.585   3.153 -0.8916 -0.1458 -0.3929
  951TIP3    H2 2811   3.934   5.587   3.002 -3.9188  0.6297 -0.1372
  952TIP3   OH2 2812   0.621   7.187   3.970 -0.1962  0.3444  0.4290
  952TIP3    H1 2813   0.624   7.178   4.065 -0.1565  2.6335  0.6906
  952TIP3    H2 2814   0.676   7.263   3.950  0.4941 -0.5959 -1.5201
  953TIP3   OH2 2815   3.916   5.691   3.642 -0.2683  0.5075  0.1276
  953TIP3    H1 2816   3.842   5.739   3.678 -0.7110  0.6622 -0.9496
  953TIP3    H2 2817   3.990   5.715   3.699 -0.3937  2.7631 -0.5660
  954TIP3   OH2 2818   6.430   5.661   0.553 -0.3109  0.5070  0.2280
  954TIP3    H1 2819   6.451   5.574   0.521 -0.6395  0.7557 -0.7030
  954TIP3    H2 2820   6.339   5.655   0.584 -0.8226  0.8492 -1.1488
  955TIP3   OH2 2821   4.499   5.302   4.726  0.0777 -0.4247 -0.1634
  955TIP3    H1 2822   4.521   5.236   4.661 -1.4417  0.5359 -1.7272
  955TIP3    H2 2823   4.530   5.385   4.689  0.8650 -0.0627  1.2104
  956TIP3   OH2 2824   2.989   1.669   4.504  0.2034 -0.2386 -0.0958
  956TIP3    H1 2825   2.901   1.667   4.466  0.7230 -0.6663 -1.3162
  956TIP3    H2 2826   2.975   1.651   4.597 -1.0818  0.6723 -0.0851
  957TIP3   OH2 2827   5.990   2.763   2.706 -0.0709 -0.0084 -0.3182
  957TIP3    H1 2828   5.907   2.727   2.739 -0.7637  0.6728 -1.2695
  957TIP3    H2 2829   6.056   2.698   2.732 -1.1581 -1.5779 -1.2941
  958TIP3   OH2 2830   7.052   5.702   5.229 -0.0890  0.1622 -0.1651
  958TIP3    H1 2831   7.004   5.663   5.156  0.0099 -0.1996 -0.0374
  958TIP3    H2 2832   7.115   5.635   5.256  0.2312  0.4927 -0.0847
  959TIP3   OH2 2833   0.800   7.069   6.667  0.4586  0.4797 -0.2109
  959TIP3    H1 2834   0.829   6.993   6.616 -0.8044  0.8204 -1.4976
  959TIP3    H2 2835   0.878   7.096   6.716  0.3886 -3.0373  2.1539
  960TIP3   OH2 2836   4.183   0.421   2.359  0.0250 -0.2223  0.1133
  960TIP3    H1 2837   4.088   0.408   2.368 -0.1150 -0.1354 -1.0585
  960TIP3    H2 2838   4.201   0.500   2.410 -0.6406  0.0959 -0.1325
  961TIP3   OH2 2839   4.956   1.609   5.800  0.7323  0.3077 -0.0274
  961TIP3    H1 2840   4.984   1.664   5.874  0.7787 -0.1233  0.2800
  961TIP3    H2 2841   4.956   1.520   5.836 -0.2628  0.2112 -0.2404
  962TIP3   OH2 2842   7.121   3.725   2.128 -0.0638 -0.2732  0.3734
  962TIP3    H1 2843   7.180   3.784   2.177 -1.6382  1.4511  0.2953
  962TIP3    H2 2844   7.142   3.741   2.036  0.1371 -0.5282  0.3737
  963TIP3   OH2 2845   3.009   3.643   4.418 -0.2106 -0.0673 -0.3388
  963TIP3    H1 2846   3.075   3.665   4.352  0.4062  0.2040  0.3504
  963TIP3    H2 2847   3.060   3.604   4.489 -1.1067 -2.6784 -1.0124
  964TIP3   OH2 2848   2.488   7.599   0.868 -0.2293  0.0526  0.5284
  964TIP3    H1 2849   2.419   7.561   0.922 -0.7364  1.1564  0.6900
  964TIP3    H2 2850   2.446   7.619   0.785  0.5378 -1.5937 -0.3116
  965TIP3   OH2 2851   6.033   1.380   4.766  0.5195  0.0391  0.4788
  965TIP3    H1 2852   5.958   1.326   4.740  1.9498 -2.3793  0.9760
  965TIP3    H2 2853   6.008   1.417   4.851 -0.0162 -0.9546  0.7737
  966TIP3   OH2 2854   6.592   0.614   2.940  0.2833  0.6498  0.5561
  966TIP3    H1 2855   6.649   0.681   2.903 -0.0175  0.6324  0.0641
  966TIP3    H2 2856   6.600   0.540   2.881 -1.1633  1.0536 -0.1836
  967TIP3   OH2 2857   2.022   5.107   1.690  0.4767  0.5986 -0.1111
  967TIP3    H1 2858   2.080   5.127   1.617  0.4282  0.5153 -0.1728
  967TIP3    H2 2859   2.067   5.142   1.767 -0.3703  2.4151 -0.4097
  968TIP3   OH2 2860   1.153   6.924   4.784 -0.3310  0.2567  0.1782
  968TIP3    H1 2861   1.160   6.895   4.875 -0.7013  0.4048  0.2603
  968TIP3    H2 2862   1.165   7.019   4.789  0.9044  0.1324 -0.0907
  969TIP3   OH2 2863   6.685   4.682   6.513  0.6972  0.2969 -0.0021
  969TIP3    H1 2864   6.736   4.628   6.574 -0.9974 -0.9182  0.3935
  969TIP3    H2 2865   6.690   4.636   6.430  0.2114  0.1428  0.0514
  970TIP3   OH2 2866   2.861   7.443   4.670 -0.3202  0.0994 -0.1708
  970TIP3    H1 2867   2.859   7.359   4.714  0.4373  0.1781  0.0356
  970TIP3    H2 2868   2.801   7.433   4.596  0.3897 -0.8973 -0.6330
  971TIP3   OH2 2869   4.242   2.930   1.633 -0.0451 -0.2458  0.0002
  971TIP3    H1 2870   4.257   2.835   1.637 -0.4560 -0.3110 -0.0239
  971TIP3    H2 2871   4.150   2.941   1.653  0.4625  0.3221  2.2405
  972TIP3   OH2 2872   3.653   7.486   1.528  0.3776  0.2447  0.2167
  972TIP3    H1 2873   3.624   7.395   1.525  0.5420  0.2105 -0.9190
  972TIP3    H2 2874   3.573   7.536   1.544  0.3636 -0.1282  1.3451
  973TIP3   OH2 2875   5.045   2.670   0.579  0.0537  0.1938  0.0332
  973TIP3    H1 2876   4.998   2.644   0.659 -1.1471 -1.4496 -1.1578
  973TIP3    H2 2877   4.983   2.726   0.532  1.4565  2.7719  1.0635
  974TIP3   OH2 2878   3.022   4.793   3.727  0.3036 -0.2185 -0.6131
  974TIP3    H1 2879   2.965   4.860   3.688  2.7105  2.0550 -0.5514
  974TIP3    H2 2880   2.985   4.777   3.813 -2.2378 -1.5665 -1.8493
  975TIP3   OH2 2881   1.192   4.008   0.438  0.0538 -0.1142  0.2742
  975TIP3    H1 2882   1.177   4.038   0.527 -1.1659 -0.8150  0.3347
  975TIP3    H2 2883   1.260   4.066   0.404  1.7729 -0.8835  2.1817
  976TIP3   OH2 2884   4.838   2.270   2.209  0.3616  0.2423  0.1382
  976TIP3    H1 2885   4.812   2.244   2.297 -0.6740 -1.8150 -0.7065
  976TIP3    H2 2886   4.911   2.213   2.187  2.0158  2.1522  0.3703
  977TIP3   OH2 2887   1.904   2.814   2.982  0.4883  0.9247  0.1481
  977TIP3    H1 2888   1.994   2.785   2.995  0.5736  0.2575 -1.7127
  977TIP3    H2 2889   1.910   2.889   2.923 -0.1937  0.8022 -0.0871
  978TIP3   OH2 2890   4.944   2.716   5.141  0.7683  0.4573 -0.0258
  978TIP3    H1 2891   4.936   2.637   5.194  0.6787  0.4505 -0.0487
  978TIP3    H2 2892   5.035   2.743   5.152  0.9055  0.1289 -0.3331
  979TIP3   OH2 2893   1.631   0.971   4.886 -0.3369  0.3981  0.2209
  979TIP3    H1 2894   1.563   0.943   4.948 -0.1613  1.1483  0.7714
  979TIP3    H2 2895   1.690   0.897   4.879  1.2781  1.2621  3.2405
  980TIP3   OH2 2896   4.915   4.289   1.394 -0.6025 -0.0553  0.6309
  980TIP3    H1 2897   4.854   4.245   1.453  0.4918 -0.5270  1.4451
  980TIP3    H2 2898   4.867   4.365   1.362 -2.1342 -1.1964  0.1026
  981TIP3   OH2 2899   2.138   6.191   4.114 -0.1347  0.2233 -0.2916
  981TIP3    H1 2900   2.060   6.143   4.086  1.3719 -1.9402 -0.9964
  981TIP3    H2 2901   2.133   6.190   4.210 -0.7225 -0.3295 -0.3178
  982TIP3   OH2 2902   4.042   6.726   0.109  0.0864  0.0744 -0.2737
  982TIP3    H1 2903   4.053   6.821   0.105  0.1000  0.0411 -1.2968
  982TIP3    H2 2904   4.132   6.692   0.113  0.0663  0.1181  0.8100
  983TIP3   OH2 2905   3.017   5.530   0.858  0.6006  0.1303  0.2472
  983TIP3    H1 2906   3.068   5.526   0.777  1.9974  0.9496  1.0435
  983TIP3    H2 2907   3.030   5.620   0.889 -0.7776  0.1385  0.8483
  984TIP3   OH2 2908   7.689   4.638   0.821  0.0745  0.4716  0.1239
  984TIP3    H1 2909   7.762   4.603   0.871  1.3515  0.3241 -1.7722
  984TIP3    H2 2910   7.699   4.733   0.828  1.4000  0.4667 -1.4162
  985TIP3   OH2 2911   3.199   5.092   4.525  0.6180  0.1739  0.1782
  985TIP3    H1 2912   3.172   5.183   4.515  1.8703  0.7287  1.4955
  985TIP3    H2 2913   3.246   5.073   4.443  0.0285  0.5856 -0.2647
  986TIP3   OH2 2914   2.735   4.936   0.692  0.4635  0.5346  0.1793
  986TIP3    H1 2915   2.702   4.912   0.779 -0.2707 -0.6942 -0.4148
  986TIP3    H2 2916   2.801   4.870   0.672  0.6663  0.8409 -0.1910
  987TIP3   OH2 2917   7.877   4.374   2.358 -0.7970 -0.5690  0.1661
  987TIP3    H1 2918   7.810   4.388   2.291 -0.0144  0.5195 -0.4186
  987TIP3    H2 2919   7.829   4.340   2.434 -2.1085  0.6758 -0.0636
  988TIP3   OH2 2920   0.881   1.359   2.968 -0.0594 -1.1234  0.1289
  988TIP3    H1 2921   0.887   1.411   2.888  0.3514  0.4927  1.1710
  988TIP3    H2 2922   0.791   1.327   2.968  0.0534 -1.4973 -1.1770
  989TIP3   OH2 2923   3.890   5.913   6.382  0.2729 -0.0891 -0.0277
  989TIP3    H1 2924   3.968   5.881   6.426  0.1143 -0.6754 -0.1625
  989TIP3    H2 2925   3.847   5.968   6.447  1.0112  0.5921 -0.0976
  990TIP3   OH2 2926   5.522   4.669   0.404  0.5232  0.2737 -0.6257
  990TIP3    H1 2927   5.548   4.681   0.313  1.2217  1.0521 -0.3263
  990TIP3    H2 2928   5.517   4.574   0.415 -0.4364  0.1854 -1.7119
  991TIP3   OH2 2929   3.971   6.873   0.904  0.2339  0.3599 -0.3695
  991TIP3    H1 2930   3.953   6.823   0.824  0.2073 -0.7421  0.3078
  991TIP3    H2 2931   3.936   6.819   0.975  1.0972  0.8728  0.4757
  992TIP3   OH2 2932   5.208   6.367   5.750 -0.4253 -0.0652 -0.0973
  992TIP3    H1 2933   5.239   6.277   5.759  1.4147  0.5237 -0.1375
  992TIP3    H2 2934   5.137   6.374   5.815 -0.6018 -1.5237 -0.0989
  993TIP3   OH2 2935   1.000   1.973   3.399 -0.0482  0.8379  0.4304
  993TIP3    H1 2936   0.999   2.065   3.372  0.3004  0.4327 -1.0394
  993TIP3    H2 2937   1.074   1.966   3.460  1.0065  1.1944 -0.7692
  994TIP3   OH2 2938   0.083   4.569   6.677  0.1384 -0.4013 -0.3346
  994TIP3    H1 2939   0.080   4.519   6.596 -0.0243  0.0229 -0.5978
  994TIP3    H2 2940   0.171   4.605   6.680 -0.6243  1.8667 -1.7683
  995TIP3   OH2 2941   2.202   1.033   5.358 -0.4305  0.2221  0.0113
  995TIP3    H1 2942   2.119   1.077   5.337 -0.0328  0.9250 -0.1009
  995TIP3    H2 2943   2.264   1.065   5.293  0.1451  0.3487  0.6073
  996TIP3   OH2 2944   2.099   1.927   0.832  0.0717  0.3238  0.0850
  996TIP3    H1 2945   2.072   1.886   0.749  0.9273 -1.5784  0.6888
  996TIP3    H2 2946   2.180   1.973   0.810 -0.0743  0.4095 -0.2886
  997TIP3   OH2 2947   0.985   3.026   2.772  0.0799  0.0764 -0.0943
  997TIP3    H1 2948   1.005   3.026   2.678  0.9272 -2.5065  0.0004
  997TIP3    H2 2949   0.923   2.954   2.783 -0.3178  0.6031  1.2856
  998TIP3   OH2 2950   3.286   2.703   3.262 -0.1220 -0.6362  0.6230
  998TIP3    H1 2951   3.324   2.708   3.174 -0.0419 -1.6938  0.5905
  998TIP3    H2 2952   3.239   2.786   3.272 -1.6190 -1.1887 -1.1308
  999TIP3   OH2 2953   1.395   6.081   6.410  0.0977 -0.0852  0.0065
  999TIP3    H1 2954   1.475   6.130   6.391 -0.2679  0.4980 -0.0690
  999TIP3    H2 2955   1.351   6.133   6.477  0.0119 -0.6532  0.3918
 1000TIP3   OH2 2956   1.280   2.776   0.233  0.1290 -0.0652  0.3055
 1000TIP3    H1 2957   1.240   2.728   0.306 -0.3394  0.9077  0.7136
 1000TIP3    H2 2958   1.371   2.787   0.259 -0.0177  0.2132  0.7294
 1001TIP3   OH2 2959   7.854   4.883   0.736  0.3221 -0.0805 -0.0997
 1001TIP3    H1 2960   7.832   4.953   0.796 -1.4867 -1.0319  0.4178
 1001TIP3    H2 2961   7.793   4.893   0.663  0.1812 -0.9724 -0.1160
 1002TIP3   OH2 2962   3.989   2.555   1.622 -0.2449 -0.3188 -0.1868
 1002TIP3    H1 2963   4.021   2.635   1.579 -1.4343  0.0772 -0.3755
 1002TIP3    H2 2964   3.908   2.582   1.665  0.1551 -1.0720  1.0669
 1003TIP3   OH2 2965   3.258   7.559   6.696 -0.2175 -0.1871 -0.1006
 1003TIP3    H1 2966   3.261   7.632   6.758 -1.8891 -0.0294 -0.1753
 1003TIP3    H2 2967   3.166   7.535   6.690  0.0366 -0.9406 -1.6766
 1004TIP3   OH2 2968   4.332   2.083   1.824 -0.5025 -0.4146 -0.0808
 1004TIP3    H1 2969   4.271   2.037   1.766  0.6117 -0.9285 -0.8890
 1004TIP3    H2 2970   4.418   2.068   1.784  0.1088  0.6452  0.7967
 1005TIP3   OH2 2971   7.065   4.294   3.918  0.4565 -0.2612 -0.2578
 1005TIP3    H1 2972   7.100   4.207   3.900 -1.1755 -0.8275 -0.8731
 1005TIP3    H2 2973   7.050   4.333   3.831 -0.2647  0.0072 -0.0251
 1006TIP3   OH2 2974   0.168   0.636   2.898  0.4038  0.1462  0.2742
 1006TIP3    H1 2975   0.102   0.680   2.952 -0.2661 -1.9905  1.3294
 1006TIP3    H2 2976   0.249   0.642   2.949  0.6549  1.2921 -0.2301
 1007TIP3   OH2 2977   5.040   2.266   1.561  0.4253 -0.0942 -0.6287
 1007TIP3    H1 2978   5.126   2.290   1.525  1.1010 -0.8408  0.4195
 1007TIP3    H2 2979   4.996   2.219   1.490  0.3423  1.4033 -1.6238
 1008TIP3   OH2 2980   0.531   2.661   1.288 -0.1112  0.1685 -0.7158
 1008TIP3    H1 2981   0.583   2.588   1.256  1.5028  0.8231  0.3334
 1008TIP3    H2 2982   0.441   2.627   1.290  0.6358 -1.9184  0.1251
 1009TIP3   OH2 2983   3.959   0.592   5.984  0.0119  0.5284  0.2211
 1009TIP3    H1 2984   3.990   0.518   6.035 -0.5629  0.6414  0.7544
 1009TIP3    H2 2985   4.011   0.666   6.013 -1.1346  0.8484  1.5738
 1010TIP3   OH2 2986   2.099   2.245   6.697  0.4505 -0.1024  0.1255
 1010TIP3    H1 2987   2.076   2.256   6.789 -0.4551  1.5464 -0.2599
 1010TIP3    H2 2988   2.015   2.232   6.652  0.5460  2.0143 -0.7978
 1011TIP3   OH2 2989   4.393   1.937   1.571  0.1770 -0.0892 -0.6684
 1011TIP3    H1 2990   4.380   1.939   1.477  0.3773  0.1022 -0.6912
 1011TIP3    H2 2991   4.305   1.929   1.607 -0.1940  2.5535 -0.7701
 1012TIP3   OH2 2992   4.147   7.172   3.319 -0.4882  0.5482 -0.2004
 1012TIP3    H1 2993   4.221   7.231   3.307  1.6185 -2.0131 -0.9845
 1012TIP3    H2 2994   4.159   7.135   3.406 -1.8852  1.3798  0.3652
 1013TIP3   OH2 2995   0.369   4.404   0.770  0.6463  0.3611 -0.4070
 1013TIP3    H1 2996   0.337   4.317   0.745  0.8001  0.7845 -2.2153
 1013TIP3    H2 2997   0.331   4.463   0.706  0.9151  1.5855  0.5295
 1014TIP3   OH2 2998   0.266   6.441   1.649 -0.0591  0.3761  0.2780
 1014TIP3    H1 2999   0.191   6.496   1.627  0.5410  1.2085  0.2609
 1014TIP3    H2 3000   0.339   6.479   1.600  0.2785 -0.7213 -0.0990
 1015TIP3   OH2 3001   4.778   5.094   0.878  0.4928  0.0077 -0.1707
 1015TIP3    H1 3002   4.746   5.138   0.800  0.5464  0.3116 -0.0210
 1015TIP3    H2 3003   4.825   5.161   0.927  2.1333 -0.6293 -0.8032
 1016TIP3   OH2 3004   7.091   0.052   2.409 -0.2054  0.4515  0.6072
 1016TIP3    H1 3005   7.041  -0.029   2.412 -1.3065  1.1408  1.2100
 1016TIP3    H2 3006   7.075   0.094   2.493 -0.4961  1.7882 -0.0831
 1017TIP3   OH2 3007   3.923   2.691   0.263 -0.1835 -0.4165  0.6512
 1017TIP3    H1 3008   3.980   2.659   0.333 -0.3485  0.5355  1.2303
 1017TIP3    H2 3009   3.923   2.620   0.198 -1.1229 -1.9319  2.2196
 1018TIP3   OH2 3010   1.784   5.469   0.763  0.1455  0.5136  0.0004
 1018TIP3    H1 3011   1.786   5.378   0.735 -1.2957  0.4587  0.0191
 1018TIP3    H2 3012   1.872   5.502   0.745  1.1024 -1.2349  1.2220
 1019TIP3   OH2 3013   2.077   1.185   0.557  0.0871 -0.0309 -0.2715
 1019TIP3    H1 3014   2.152   1.166   0.613 -0.0886  1.3586  0.4713
 1019TIP3    H2 3015   2.033   1.100   0.547  1.0383 -0.6145  0.3343
 1020TIP3   OH2 3016   3.646   0.010   1.493 -0.1004  0.4162  0.1242
 1020TIP3    H1 3017   3.632   0.072   1.564  0.8613  0.6883  0.0890
 1020TIP3    H2 3018   3.688   0.061   1.423  0.5574 -0.2193  0.0357
 1021TIP3   OH2 3019   2.229   5.733   4.805  0.7461  0.0802 -0.2623
 1021TIP3    H1 3020   2.225   5.719   4.900  2.7081  0.2056 -0.1044
 1021TIP3    H2 3021   2.308   5.686   4.778  0.2251  0.0603 -1.8512
 1022TIP3   OH2 3022   8.077   4.693   1.361 -0.1747  0.1804  0.1021
 1022TIP3    H1 3023   8.122   4.608   1.364 -0.3928 -0.0392 -1.6225
 1022TIP3    H2 3024   8.015   4.691   1.434 -0.2396 -1.1878  0.0248
 1023TIP3   OH2 3025   5.424   0.680   4.235 -0.4404  0.0789 -0.3671
 1023TIP3    H1 3026   5.371   0.602   4.218  1.8444 -2.2902  2.2958
 1023TIP3    H2 3027   5.365   0.739   4.282 -1.7712 -0.6959 -0.9918
 1024TIP3   OH2 3028   6.583   7.162   2.820  0.2779 -0.2499 -0.1454
 1024TIP3    H1 3029   6.610   7.244   2.861  0.6053 -1.2480  1.7747
 1024TIP3    H2 3030   6.499   7.142   2.861 -0.3075 -0.3784 -1.3678
 1025TIP3   OH2 3031   7.234   3.950   0.578 -0.0412 -0.5403 -0.4459
 1025TIP3    H1 3032   7.279   3.925   0.659 -2.3576 -1.8622  0.5454
 1025TIP3    H2 3033   7.252   4.044   0.569 -1.0300  0.0681  2.5916
 1026TIP3   OH2 3034   3.518   7.467   2.431 -0.3677  0.0130  0.1873
 1026TIP3    H1 3035   3.565   7.549   2.443 -1.4441  0.6645  0.1516
 1026TIP3    H2 3036   3.476   7.476   2.345 -0.3701 -0.6446  0.1139
 1027TIP3   OH2 3037   0.386   3.638   5.657 -0.4657  0.0121 -0.0116
 1027TIP3    H1 3038   0.324   3.569   5.684 -0.4363 -0.7619 -1.8183
 1027TIP3    H2 3039   0.342   3.683   5.586  0.8501 -0.2527 -1.0259
 1028TIP3   OH2 3040   1.294   2.209   3.192 -0.3144 -0.1343  0.4911
 1028TIP3    H1 3041   1.222   2.156   3.158  0.1421 -1.0425  0.9051
 1028TIP3    H2 3042   1.369   2.150   3.192  0.5418  0.9205 -0.3154
 1029TIP3   OH2 3043   2.380   6.464   6.637 -0.0630 -0.5185 -0.3959
 1029TIP3    H1 3044   2.424   6.450   6.553 -0.6899 -0.2286 -0.7781
 1029TIP3    H2 3045   2.292   6.427   6.625 -0.5746  0.6302 -0.2822
 1030TIP3   OH2 3046   6.173   1.655   2.334  0.0122 -0.3901 -0.4856
 1030TIP3    H1 3047   6.126   1.579   2.299 -1.8571  0.4911 -0.0608
 1030TIP3    H2 3048   6.213   1.624   2.415 -0.5945 -0.9785 -0.3989
 1031TIP3   OH2 3049   5.392   6.062   6.241 -0.2624 -0.0946 -0.2441
 1031TIP3    H1 3050   5.455   6.133   6.224 -0.6449  0.3309  0.0878
 1031TIP3    H2 3051   5.321   6.077   6.179 -0.7494  0.3318  0.3900
 1032TIP3   OH2 3052   3.628   2.635   0.084 -0.5188  0.3732  0.4387
 1032TIP3    H1 3053   3.722   2.636   0.101  0.2871  0.7021 -3.2080
 1032TIP3    H2 3054   3.605   2.728   0.075 -1.1258  0.2742  0.9073
 1033TIP3   OH2 3055   6.254   6.094   3.271  0.2867  0.4335 -0.8619
 1033TIP3    H1 3056   6.298   6.105   3.187 -0.0700  1.7853 -0.8933
 1033TIP3    H2 3057   6.321   6.113   3.336  1.0978 -2.4300 -0.7173
 1034TIP3   OH2 3058   7.083   4.948   2.021  0.1434 -0.2010 -0.0960
 1034TIP3    H1 3059   7.171   4.971   2.051  0.4250  0.5388 -1.3915
 1034TIP3    H2 3060   7.038   5.032   2.013 -0.3383 -0.4880 -0.4320
 1035TIP3   OH2 3061   0.621   2.719   2.386  0.7036  0.2253  0.5695
 1035TIP3    H1 3062   0.661   2.734   2.300 -0.4146 -1.2010 -0.2407
 1035TIP3    H2 3063   0.571   2.799   2.404  0.0215  0.1027 -0.6664
 1036TIP3   OH2 3064   4.808   4.410   0.210 -0.6461  0.0437  0.3267
 1036TIP3    H1 3065   4.904   4.412   0.217 -0.6618 -0.7193  0.9234
 1036TIP3    H2 3066   4.777   4.425   0.299 -1.0543 -0.6733  0.3204
 1037TIP3   OH2 3067   8.210   7.720   2.671 -0.3900 -0.6685  0.3958
 1037TIP3    H1 3068   8.268   7.658   2.625  0.2352  0.5742 -0.5630
 1037TIP3    H2 3069   8.251   7.732   2.757  0.1163 -0.7271  0.1668
 1038TIP3   OH2 3070   7.689   0.069   5.379 -0.5669  0.5033  0.3119
 1038TIP3    H1 3071   7.778   0.079   5.346 -0.8096 -0.0932 -0.5706
 1038TIP3    H2 3072   7.697   0.007   5.451 -0.2041  0.7913  0.5192
 1039TIP3   OH2 3073   1.245   5.097   1.053  0.2392  0.1060 -0.2323
 1039TIP3    H1 3074   1.225   5.165   0.988  1.1827  0.9100  0.2969
 1039TIP3    H2 3075   1.248   5.143   1.136 -1.1540 -0.9531  0.4624
 1040TIP3   OH2 3076   7.348   0.695   3.477 -0.3774  0.3520  0.2177
 1040TIP3    H1 3077   7.363   0.673   3.386 -2.2238 -0.0353 -0.0419
 1040TIP3    H2 3078   7.279   0.761   3.475  0.7262  1.5971  1.2778
 1041TIP3   OH2 3079   6.792   3.784   6.548 -0.1002 -0.0074 -0.5056
 1041TIP3    H1 3080   6.798   3.878   6.535 -0.1173  0.2656  1.2330
 1041TIP3    H2 3081   6.882   3.752   6.540  0.6214  0.8004  2.9882
 1042TIP3   OH2 3082   1.278   2.385   0.784 -0.2199 -0.1226  0.7311
 1042TIP3    H1 3083   1.186   2.409   0.774 -0.7864 -2.1299  0.5337
 1042TIP3    H2 3084   1.323   2.430   0.713 -1.1322  0.5000  0.5340
 1043TIP3   OH2 3085   7.762   5.452   2.137  0.4886  0.0143  0.0994
 1043TIP3    H1 3086   7.726   5.519   2.080  1.8344 -0.3116 -1.2094
 1043TIP3    H2 3087   7.810   5.394   2.078  0.7221 -1.1723  1.3999
 1044TIP3   OH2 3088   6.726   3.844   5.055  0.2555  0.2687  0.0543
 1044TIP3    H1 3089   6.683   3.773   5.007  1.4184  0.9254 -2.1250
 1044TIP3    H2 3090   6.819   3.824   5.049  0.4758  0.8458  1.3324
 1045TIP3   OH2 3091   6.693   5.479   3.486 -0.0438  0.0836  0.1232
 1045TIP3    H1 3092   6.630   5.510   3.422  0.5466  0.2033 -0.4069
 1045TIP3    H2 3093   6.769   5.535   3.474 -0.6951  1.5903  2.4297
 1046TIP3   OH2 3094   6.261   4.868   1.493 -0.4967  0.1052 -0.2440
 1046TIP3    H1 3095   6.302   4.783   1.481  0.5223  0.4481  0.6065
 1046TIP3    H2 3096   6.182   4.851   1.544  0.0395 -0.2715  0.4767
 1047TIP3   OH2 3097   7.058   5.850   0.349 -0.4033 -0.2032 -0.1941
 1047TIP3    H1 3098   7.149   5.880   0.339 -0.2961 -0.4581  0.0403
 1047TIP3    H2 3099   7.005   5.926   0.321 -0.1817  1.0843  2.6010
 1048TIP3   OH2 3100   6.553   1.433   2.534 -0.1703  0.1554 -0.2448
 1048TIP3    H1 3101   6.487   1.376   2.494  0.9373 -1.3037 -0.0750
 1048TIP3    H2 3102   6.636   1.396   2.507  0.6255 -0.2536  2.4788
 1049TIP3   OH2 3103   3.778   1.194   6.132  0.2423 -0.0821 -0.4835
 1049TIP3    H1 3104   3.857   1.147   6.159  0.1279  0.1510  0.2698
 1049TIP3    H2 3105   3.803   1.237   6.050  0.0926 -2.0931 -1.6383
 1050TIP3   OH2 3106   2.902   2.720   5.571 -0.3992 -0.3979  0.2061
 1050TIP3    H1 3107   2.962   2.723   5.497 -0.7316 -0.3669 -0.0673
 1050TIP3    H2 3108   2.958   2.718   5.648 -0.0419  0.9252  0.0081
 1051TIP3   OH2 3109   2.705   0.577   0.896 -0.1631  0.5837  0.3032
 1051TIP3    H1 3110   2.648   0.574   0.819  0.7543 -1.3765 -0.3573
 1051TIP3    H2 3111   2.717   0.671   0.913 -2.6181  1.0537 -0.2082
 1052TIP3   OH2 3112   0.054   5.860   0.885  0.3787 -0.1730  0.0593
 1052TIP3    H1 3113   0.041   5.853   0.791 -0.1415 -3.1973  0.2804
 1052TIP3    H2 3114  -0.029   5.894   0.918  0.3408  0.2815 -0.4860
 1053TIP3   OH2 3115   7.324   1.406   3.499 -0.1571 -0.4741  0.4479
 1053TIP3    H1 3116   7.287   1.390   3.586 -1.9332 -0.2529 -0.2186
 1053TIP3    H2 3117   7.255   1.455   3.453  0.1029 -1.9231 -1.5881
 1054TIP3   OH2 3118   7.199   6.433   2.407  0.6310 -0.5245 -0.0972
 1054TIP3    H1 3119   7.206   6.459   2.498  0.8576 -0.4215 -0.1447
 1054TIP3    H2 3120   7.116   6.473   2.377  1.0874  0.3466 -0.2345
 1055TIP3   OH2 3121   5.689   2.681   5.948  0.3741 -0.6650 -0.0452
 1055TIP3    H1 3122   5.784   2.670   5.948  0.7618  1.9690  0.6738
 1055TIP3    H2 3123   5.663   2.659   6.038  0.4379 -0.6664 -0.0265
 1056TIP3   OH2 3124   6.411   4.786   3.885  0.5275 -0.5505  0.1767
 1056TIP3    H1 3125   6.473   4.854   3.913  0.7371  0.9660 -3.4585
 1056TIP3    H2 3126   6.464   4.724   3.837 -0.2342 -1.3215  0.3108
 1057TIP3   OH2 3127   0.437   5.935   0.737 -0.2545 -0.5044 -0.3836
 1057TIP3    H1 3128   0.465   5.879   0.810 -1.0421 -0.2986  0.0852
 1057TIP3    H2 3129   0.354   5.897   0.708  1.4941 -2.5341 -3.3081
 1058TIP3   OH2 3130   5.705   6.096   5.477  0.4431  0.0769  0.1321
 1058TIP3    H1 3131   5.708   6.001   5.476  1.0508  0.0758  0.7870
 1058TIP3    H2 3132   5.651   6.120   5.402  1.8452 -0.7180 -1.1903
 1059TIP3   OH2 3133   4.299   7.273   2.014 -0.1850  0.1813 -0.3088
 1059TIP3    H1 3134   4.344   7.217   2.077  0.9653  1.5098  0.0963
 1059TIP3    H2 3135   4.310   7.361   2.049 -1.9536  0.6773 -0.9308
 1060TIP3   OH2 3136   2.997   5.244   0.364 -0.1388  0.0846  0.0345
 1060TIP3    H1 3137   2.992   5.163   0.312 -1.2045 -0.1146  0.4055
 1060TIP3    H2 3138   2.913   5.246   0.411  0.3115  0.8773  0.8200
 1061TIP3   OH2 3139   2.167   0.896   5.976 -0.3796  0.0293  0.1407
 1061TIP3    H1 3140   2.206   0.895   5.889 -1.0168  0.0044 -0.1547
 1061TIP3    H2 3141   2.237   0.924   6.034  0.1809 -0.4027 -0.3158
 1062TIP3   OH2 3142   6.624   6.872   4.971  0.0755  0.5708 -0.0657
 1062TIP3    H1 3143   6.637   6.874   4.876 -2.9890  0.4571 -0.5870
 1062TIP3    H2 3144   6.557   6.939   4.987 -0.3803 -0.2889  1.8484
 1063TIP3   OH2 3145   4.925   0.902   5.508 -0.3426  0.3476 -0.2085
 1063TIP3    H1 3146   4.933   0.854   5.591 -0.7702 -0.5827 -0.6879
 1063TIP3    H2 3147   4.984   0.855   5.448  0.1340  1.1497 -0.3799
 1064TIP3   OH2 3148   4.238   0.135   6.546 -0.4772 -0.1474 -0.4081
 1064TIP3    H1 3149   4.312   0.132   6.485  1.1031  0.7850  1.3612
 1064TIP3    H2 3150   4.182   0.204   6.513 -0.5761 -0.8327 -1.7542
 1065TIP3   OH2 3151   8.087   1.854   3.510 -0.1475 -0.2258  0.2473
 1065TIP3    H1 3152   8.174   1.832   3.476  0.5328  0.3429  1.5512
 1065TIP3    H2 3153   8.033   1.862   3.432  0.9137 -0.8035 -0.5843
 1066TIP3   OH2 3154   4.498   5.442   6.142  0.0529 -0.1253 -0.6400
 1066TIP3    H1 3155   4.587   5.467   6.168 -0.2832  0.0190  0.3954
 1066TIP3    H2 3156   4.488   5.353   6.176 -1.1685  0.8524  1.7397
 1067TIP3   OH2 3157   5.875   6.894   1.603 -0.5044  0.3083 -0.1892
 1067TIP3    H1 3158   5.914   6.970   1.645 -2.8848  0.9077  1.0978
 1067TIP3    H2 3159   5.949   6.843   1.571  1.2153  2.1450  0.7026
 1068TIP3   OH2 3160   6.509   7.501   6.028 -0.3447  0.5779  0.0867
 1068TIP3    H1 3161   6.417   7.526   6.033 -0.9331 -1.2683 -0.7367
 1068TIP3    H2 3162   6.540   7.538   5.945 -1.2821 -1.4928 -1.2613
 1069TIP3   OH2 3163   1.990   7.146   5.956 -0.0663  0.2262  0.0958
 1069TIP3    H1 3164   1.905   7.130   5.917  0.0821 -0.1928 -0.0581
 1069TIP3    H2 3165   1.977   7.128   6.049  0.3396 -1.8575 -0.1948
 1070TIP3   OH2 3166   6.974   5.692   4.066  1.3931  0.0659  0.9365
 1070TIP3    H1 3167   6.996   5.642   3.988  3.1570 -1.7252  2.4826
 1070TIP3    H2 3168   7.043   5.757   4.073  1.0084  0.4932  0.7991
 1071TIP3   OH2 3169   2.937   6.713   3.442  0.3196 -0.6895  0.0304
 1071TIP3    H1 3170   2.946   6.740   3.351  0.3410 -0.4113  0.1150
 1071TIP3    H2 3171   3.027   6.692   3.469  0.2856 -0.9813 -0.0744
 1072TIP3   OH2 3172   1.295   6.993   2.020  0.0232 -0.0361 -0.1342
 1072TIP3    H1 3173   1.243   6.915   2.006  0.3388 -0.1676 -0.6288
 1072TIP3    H2 3174   1.255   7.060   1.964  0.6103 -0.2470 -0.8244
 1073TIP3   OH2 3175   6.310   3.465   1.543  0.2925 -0.2095  0.2570
 1073TIP3    H1 3176   6.255   3.404   1.495 -1.6944  1.6945 -0.0894
 1073TIP3    H2 3177   6.393   3.420   1.555 -0.2911 -2.0466 -1.9809
 1074TIP3   OH2 3178   0.067   5.265   4.203 -0.5801  0.3089  0.2219
 1074TIP3    H1 3179   0.140   5.259   4.142  0.5204  1.9893  1.2901
 1074TIP3    H2 3180   0.097   5.325   4.271 -3.2862  1.8363  0.2211
 1075TIP3   OH2 3181   4.934   2.379   3.668 -0.0724  0.2921 -0.4080
 1075TIP3    H1 3182   4.996   2.418   3.607 -0.8462  0.8882 -0.8317
 1075TIP3    H2 3183   4.900   2.453   3.718  1.2073 -0.2802  1.3963
 1076TIP3   OH2 3184   4.643   1.319   6.335 -0.1725  0.2165 -0.1965
 1076TIP3    H1 3185   4.623   1.412   6.349  0.7288  0.3615  0.2175
 1076TIP3    H2 3186   4.677   1.315   6.246 -1.5228  0.0445 -0.7280
 1077TIP3   OH2 3187   1.481   0.851   4.544  0.2220  0.2943 -0.3799
 1077TIP3    H1 3188   1.425   0.891   4.478  0.5256 -0.5600 -1.1820
 1077TIP3    H2 3189   1.537   0.921   4.575 -0.7742  0.9939 -0.1086
 1078TIP3   OH2 3190   1.959   4.380   2.780  0.1907  0.2058  0.3460
 1078TIP3    H1 3191   1.933   4.328   2.704 -0.9060  0.0912  0.7767
 1078TIP3    H2 3192   1.919   4.334   2.854  1.4383  0.1816  1.0223
 1079TIP3   OH2 3193   2.419   3.505   6.537 -0.4126 -1.0708  0.4948
 1079TIP3    H1 3194   2.499   3.541   6.498 -1.2231 -0.0072 -0.2395
 1079TIP3    H2 3195   2.393   3.570   6.603 -1.1274 -0.9810  0.1342
 1080TIP3   OH2 3196   5.407   3.412   3.934  0.1044  0.0056  0.0499
 1080TIP3    H1 3197   5.404   3.502   3.966  2.5534  1.5244 -3.3323
 1080TIP3    H2 3198   5.324   3.401   3.886 -0.4974  0.1783  1.0297
 1081TIP3   OH2 3199   2.853   1.084   1.296 -0.0861 -0.2175 -0.0085
 1081TIP3    H1 3200   2.796   1.022   1.252  1.6727 -2.1458  0.2818
 1081TIP3    H2 3201   2.931   1.033   1.319  1.0687  1.8907  1.0500
 1082TIP3   OH2 3202   5.008   1.726   5.253  0.1057 -0.1953 -0.2363
 1082TIP3    H1 3203   5.048   1.802   5.210 -0.8823  1.8270  2.1835
 1082TIP3    H2 3204   4.919   1.725   5.220 -0.3603  0.7597  0.9030
 1083TIP3   OH2 3205   0.354   1.851   1.414 -0.0231 -0.0838  0.2797
 1083TIP3    H1 3206   0.377   1.812   1.330 -0.5255 -0.2283  0.2084
 1083TIP3    H2 3207   0.358   1.946   1.397  1.8123 -0.0711  0.6219
 1084TIP3   OH2 3208   1.314   1.908   4.811 -0.1275 -0.1030  0.4948
 1084TIP3    H1 3209   1.250   1.846   4.778  1.2808 -1.6545  0.5817
 1084TIP3    H2 3210   1.304   1.906   4.906 -1.0281  0.9075  0.4500
 1085TIP3   OH2 3211   0.842   0.206   2.843  0.4592  0.4467  0.5149
 1085TIP3    H1 3212   0.804   0.244   2.922  1.3450  0.9646  0.7043
 1085TIP3    H2 3213   0.872   0.119   2.869  1.1831  0.7991  0.8874
 1086TIP3   OH2 3214   4.067   4.084   6.403 -0.8299 -0.0630  0.3971
 1086TIP3    H1 3215   4.120   4.164   6.397 -0.1581 -0.3952  1.6217
 1086TIP3    H2 3216   3.989   4.103   6.351  1.1899 -0.1586 -3.0263
 1087TIP3   OH2 3217   5.045   5.015   1.814  0.5538  0.0062 -0.0188
 1087TIP3    H1 3218   5.123   4.964   1.793  0.6239  0.3455 -0.6170
 1087TIP3    H2 3219   5.059   5.099   1.769  1.2832  1.2729  2.4054
 1088TIP3   OH2 3220   5.975   3.623   4.341 -0.1146  0.5315  0.1354
 1088TIP3    H1 3221   5.920   3.556   4.381 -0.1702  0.9751  0.8161
 1088TIP3    H2 3222   6.034   3.651   4.411  0.4666  0.6101 -0.3725
 1089TIP3   OH2 3223   7.427   1.664   4.684 -0.0751  0.2497 -0.7281
 1089TIP3    H1 3224   7.351   1.630   4.638  0.2195 -0.4286 -0.7203
 1089TIP3    H2 3225   7.489   1.687   4.614  0.8325 -1.8500 -0.6856
 1090TIP3   OH2 3226   2.549   2.308   5.162  0.5748  0.2216  0.2001
 1090TIP3    H1 3227   2.474   2.364   5.141 -0.4817 -1.9487 -2.3978
 1090TIP3    H2 3228   2.547   2.301   5.258 -0.7898  2.4512  0.4231
 1091TIP3   OH2 3229   7.035   1.668   3.902 -0.3029  0.3502 -0.6335
 1091TIP3    H1 3230   7.099   1.703   3.840  0.6776  0.0600  0.1928
 1091TIP3    H2 3231   7.005   1.744   3.952  0.6905  0.2546  0.1338
 1092TIP3   OH2 3232   2.662   1.054   5.881  0.0689  0.4650 -0.4417
 1092TIP3    H1 3233   2.656   1.079   5.973 -0.0806 -0.1428 -0.2800
 1092TIP3    H2 3234   2.743   1.095   5.850 -0.0303  0.9088 -0.1169
 1093TIP3   OH2 3235   8.101   4.513   2.987  0.8739  0.0123  0.3015
 1093TIP3    H1 3236   8.120   4.422   3.009  1.0499  0.5551  2.6651
 1093TIP3    H2 3237   8.132   4.563   3.063  2.1814  2.2195 -1.5382
 1094TIP3   OH2 3238   4.946   2.465   4.332  0.1977 -0.3609  0.2694
 1094TIP3    H1 3239   5.000   2.525   4.383  1.8692 -0.5151 -1.2193
 1094TIP3    H2 3240   5.005   2.394   4.307 -1.3346 -1.8071  0.6073
 1095TIP3   OH2 3241   1.182   6.234   2.725 -0.0738  0.1806 -0.6284
 1095TIP3    H1 3242   1.167   6.277   2.641 -2.6389  1.5562  0.4363
 1095TIP3    H2 3243   1.118   6.273   2.784  1.6513 -0.7031  2.0122
 1096TIP3   OH2 3244   4.986   2.690   0.280 -0.8273 -0.2575 -0.1240
 1096TIP3    H1 3245   4.990   2.612   0.335 -0.0494 -0.6998 -0.7816
 1096TIP3    H2 3246   4.975   2.657   0.191  3.8018 -0.0090 -1.0598
 1097TIP3   OH2 3247   6.266   0.515   3.400 -0.1820  0.1276 -0.4878
 1097TIP3    H1 3248   6.313   0.486   3.478  1.9399 -0.0702 -1.7537
 1097TIP3    H2 3249   6.173   0.514   3.426  0.5007  1.6685  2.5171
 1098TIP3   OH2 3250   8.152   6.365   1.224 -0.5238  0.4929  0.7543
 1098TIP3    H1 3251   8.134   6.442   1.279  1.4058  1.3617  0.2484
 1098TIP3    H2 3252   8.066   6.338   1.193 -1.2498  2.6599  0.6833
 1099TIP3   OH2 3253   0.321   0.473   6.218  0.2917  0.2446  0.0783
 1099TIP3    H1 3254   0.382   0.416   6.264 -1.0267  0.3533  2.1010
 1099TIP3    H2 3255   0.304   0.428   6.135  3.1098  0.2776 -0.5978
 1100TIP3   OH2 3256   1.159   0.088   5.031 -0.2573  0.2307 -0.5700
 1100TIP3    H1 3257   1.149   0.163   4.972  1.0067  0.3754 -0.6234
 1100TIP3    H2 3258   1.186   0.127   5.114 -2.9608  0.1299  0.4676
 1101TIP3   OH2 3259   0.337   1.109   5.664 -0.0953  0.2847  0.5283
 1101TIP3    H1 3260   0.414   1.111   5.607 -0.8258 -0.0600 -0.5170
 1101TIP3    H2 3261   0.320   1.015   5.677 -1.1309  0.3310 -0.3876
 1102TIP3   OH2 3262   0.683   3.448   1.586  0.2415 -0.0473 -0.0794
 1102TIP3    H1 3263   0.707   3.361   1.618  2.0823  0.1794 -0.6907
 1102TIP3    H2 3264   0.613   3.432   1.524  0.8491 -1.1551 -0.5154
 1103TIP3   OH2 3265   1.244   3.154   5.468 -0.1831 -0.0270  0.2979
 1103TIP3    H1 3266   1.223   3.244   5.444 -0.3206 -0.4022 -1.0535
 1103TIP3    H2 3267   1.297   3.162   5.548 -1.4760  1.1558  1.0659
 1104TIP3   OH2 3268   2.912   1.718   5.003  0.3759  0.1823 -0.2364
 1104TIP3    H1 3269   2.850   1.728   5.075  0.0999 -0.0326 -0.4407
 1104TIP3    H2 3270   2.951   1.805   4.993  0.4385  0.2069  0.1886
 1105TIP3   OH2 3271   7.658   6.310   4.431 -0.1998 -0.1174 -0.2475
 1105TIP3    H1 3272   7.649   6.306   4.527  1.2773 -2.1057 -0.1195
 1105TIP3    H2 3273   7.709   6.389   4.415  2.5260 -1.4556  0.9936
 1106TIP3   OH2 3274   0.811   6.086   1.415  0.3528  0.9731  1.2443
 1106TIP3    H1 3275   0.772   6.101   1.329 -0.5295  0.3243  1.5198
 1106TIP3    H2 3276   0.890   6.036   1.397 -0.7730 -0.7831  0.9081
 1107TIP3   OH2 3277   4.931   2.575   3.288 -0.2083  0.1697 -0.2174
 1107TIP3    H1 3278   4.891   2.622   3.362  2.9711  0.8755  1.2427
 1107TIP3    H2 3279   4.909   2.483   3.303 -0.8183  0.4644  0.8075
 1108TIP3   OH2 3280   0.596   3.272   2.796 -0.5746  0.1716  0.0225
 1108TIP3    H1 3281   0.692   3.268   2.803 -0.5515  1.0071  0.3676
 1108TIP3    H2 3282   0.572   3.192   2.750  0.2002 -0.5266  0.8020
 1109TIP3   OH2 3283   4.883   2.130   4.208  0.2491  0.6877  0.2716
 1109TIP3    H1 3284   4.795   2.121   4.245 -0.7564 -1.0753 -2.2198
 1109TIP3    H2 3285   4.942   2.112   4.281 -1.5151 -0.1862  1.5624
 1110TIP3   OH2 3286   2.979   5.039   5.997 -0.2783  0.2107  0.6782
 1110TIP3    H1 3287   2.955   4.966   6.053 -0.4386  0.4531  0.9303
 1110TIP3    H2 3288   2.898   5.058   5.948  0.5131 -1.6248 -1.5118
 1111TIP3   OH2 3289   5.824   5.092   3.243  0.2061  0.4847 -0.2245
 1111TIP3    H1 3290   5.902   5.061   3.197  0.7402 -0.7400  1.4090
 1111TIP3    H2 3291   5.856   5.161   3.300  0.0162  0.3105  0.0973
 1112TIP3   OH2 3292   6.019   0.981   1.032 -0.0711 -0.1372 -0.0034
 1112TIP3    H1 3293   5.936   0.933   1.030  0.1474 -0.5222  0.0756
 1112TIP3    H2 3294   6.000   1.060   1.083 -0.1581 -0.6658  0.8034
 1113TIP3   OH2 3295   2.368   2.822   1.271  0.8110  0.3906  0.3747
 1113TIP3    H1 3296   2.336   2.851   1.356  0.9765 -0.0786  0.5963
 1113TIP3    H2 3297   2.424   2.747   1.290 -1.1404 -1.3402 -0.3277
 1114TIP3   OH2 3298   5.556   6.549   1.077  0.0195 -0.5837  0.1916
 1114TIP3    H1 3299   5.535   6.610   1.006 -2.8972 -1.9226 -0.2074
 1114TIP3    H2 3300   5.472   6.532   1.120  1.3589 -1.5056  2.6345
 1115TIP3   OH2 3301   1.963   6.917   5.530 -0.2484  0.0333  0.2847
 1115TIP3    H1 3302   1.998   6.920   5.619 -0.9253 -3.4470  0.7868
 1115TIP3    H2 3303   2.034   6.951   5.475  0.4785  1.4735  2.0320
 1116TIP3   OH2 3304   2.875   2.119   0.447 -0.4806  0.4956 -0.1020
 1116TIP3    H1 3305   2.840   2.151   0.364 -0.1868  1.5501  0.1732
 1116TIP3    H2 3306   2.828   2.168   0.514 -0.9652 -0.5960  0.3841
 1117TIP3   OH2 3307   3.039   3.241   1.232  0.3720 -0.4716 -0.5038
 1117TIP3    H1 3308   3.008   3.258   1.143  0.2062  0.8541 -0.2100
 1117TIP3    H2 3309   3.101   3.312   1.249 -0.3667 -0.1162  0.8019
 1118TIP3   OH2 3310   6.641   1.161   3.031  0.4730 -0.2286  0.5342
 1118TIP3    H1 3311   6.664   1.248   3.063  0.4929 -0.1968  0.4345
 1118TIP3    H2 3312   6.545   1.160   3.031  0.4446  0.3927 -1.0582
 1119TIP3   OH2 3313   2.985   2.488   0.856  0.1900  0.2949 -0.1547
 1119TIP3    H1 3314   3.035   2.517   0.932  0.6980 -1.0884  0.0603
 1119TIP3    H2 3315   2.929   2.563   0.835 -0.1003  0.6455  1.6905
 1120TIP3   OH2 3316   7.765   6.558   5.685  0.4259  0.2367 -0.3619
 1120TIP3    H1 3317   7.858   6.545   5.669  0.4001 -1.2577  0.5120
 1120TIP3    H2 3318   7.722   6.485   5.639 -0.0226 -1.0458  1.9598
 1121TIP3   OH2 3319   0.335   4.417   6.297  0.8278 -0.0924 -0.2174
 1121TIP3    H1 3320   0.301   4.328   6.302  0.5961 -0.1902 -2.4423
 1121TIP3    H2 3321   0.422   4.413   6.336  1.5167 -1.7055 -1.8224
 1122TIP3   OH2 3322   3.032   4.378   1.085  0.3348 -0.5838 -0.3397
 1122TIP3    H1 3323   3.074   4.342   1.163  1.5095  1.3386 -0.0116
 1122TIP3    H2 3324   3.104   4.397   1.025 -0.5316 -1.7493 -1.8075
 1123TIP3   OH2 3325   7.841   4.491   4.008 -0.2036 -0.0051 -0.0354
 1123TIP3    H1 3326   7.895   4.564   3.975  0.1115 -0.0424  0.3813
 1123TIP3    H2 3327   7.754   4.509   3.974 -0.7595  2.0129  2.1782
 1124TIP3   OH2 3328   5.790   6.170   2.267 -0.3343 -0.2596 -0.2832
 1124TIP3    H1 3329   5.819   6.220   2.190 -0.9104  0.0257 -0.3175
 1124TIP3    H2 3330   5.842   6.089   2.264  1.1310  0.6224  0.1607
 1125TIP3   OH2 3331   6.233   0.881   0.521  0.2053  0.4479 -0.5239
 1125TIP3    H1 3332   6.183   0.834   0.455 -3.1411  2.9006  0.0142
 1125TIP3    H2 3333   6.224   0.828   0.600  2.0495 -1.1700 -1.3114
 1126TIP3   OH2 3334   7.437   4.906   2.354 -0.4427 -0.3746 -0.6202
 1126TIP3    H1 3335   7.471   4.982   2.401  0.9331 -0.7989 -0.8862
 1126TIP3    H2 3336   7.397   4.852   2.422  1.8928 -1.1898  0.1748
 1127TIP3   OH2 3337   5.624   2.477   4.838 -0.4101 -0.0368 -0.5216
 1127TIP3    H1 3338   5.669   2.562   4.842 -0.8869  0.2226 -0.5274
 1127TIP3    H2 3339   5.581   2.470   4.923 -0.3834 -0.2687 -0.5270
 1128TIP3   OH2 3340   1.034   3.515   6.434  0.5513 -0.3500 -0.5444
 1128TIP3    H1 3341   1.047   3.610   6.425  1.0036 -0.4170 -0.6174
 1128TIP3    H2 3342   0.951   3.498   6.390 -0.1214  0.1838  0.4875
 1129TIP3   OH2 3343   7.046   5.516   2.085 -0.0829  0.4312 -0.2540
 1129TIP3    H1 3344   7.093   5.599   2.074  0.5013  0.1030 -0.2618
 1129TIP3    H2 3345   7.106   5.450   2.051 -0.7661  0.0590 -0.7393
 1130TIP3   OH2 3346   0.186   2.401   1.498  0.2200  0.4297 -0.1330
 1130TIP3    H1 3347   0.206   2.311   1.473  1.3282  0.7289 -0.3879
 1130TIP3    H2 3348   0.098   2.416   1.465 -0.5454 -1.0124  1.1887
 1131TIP3   OH2 3349   3.625   3.552   0.235  0.0889 -0.3174 -0.0794
 1131TIP3    H1 3350   3.546   3.604   0.240  0.0564 -0.2558 -1.0939
 1131TIP3    H2 3351   3.595   3.466   0.205  0.4331 -0.1895 -0.8207
 1132TIP3   OH2 3352   7.495   3.016   6.553  1.2169  0.0014 -0.0271
 1132TIP3    H1 3353   7.539   3.048   6.632 -0.9111 -0.5764  1.5032
 1132TIP3    H2 3354   7.442   2.942   6.585  0.4009 -0.3350 -2.0443
 1133TIP3   OH2 3355   2.917   1.129   0.968  0.1145  0.0907  0.3538
 1133TIP3    H1 3356   2.916   1.195   0.899 -0.9749 -1.8126 -1.5650
 1133TIP3    H2 3357   2.866   1.167   1.039  0.2328  1.6315 -0.3576
 1134TIP3   OH2 3358   3.822   6.506   0.517  0.5759 -0.4294 -0.2731
 1134TIP3    H1 3359   3.859   6.445   0.581 -1.2935 -0.1581  1.1887
 1134TIP3    H2 3360   3.881   6.502   0.443  1.1666 -3.1546  0.2126
 1135TIP3   OH2 3361   1.777   1.993   3.523  0.6085 -0.3241 -0.3039
 1135TIP3    H1 3362   1.866   2.023   3.544  0.0068  0.7603  0.7904
 1135TIP3    H2 3363   1.735   2.068   3.481 -0.1112 -0.5022  0.0893
 1136TIP3   OH2 3364   3.610   0.122   1.202 -0.1330 -0.4425 -0.2155
 1136TIP3    H1 3365   3.696   0.163   1.209  0.1008 -0.9923  0.2017
 1136TIP3    H2 3366   3.619   0.060   1.129 -0.6616  0.6533 -1.2421
 1137TIP3   OH2 3367   1.954   0.245   4.829  0.7827 -0.7506 -0.7179
 1137TIP3    H1 3368   1.930   0.155   4.804  1.1520 -0.5214 -1.9595
 1137TIP3    H2 3369   1.999   0.280   4.752  0.9379  0.3966 -0.1230
 1138TIP3   OH2 3370   7.438   4.889   4.275 -0.5179  0.2966 -0.3488
 1138TIP3    H1 3371   7.408   4.972   4.239  1.6141  0.5393 -1.7821
 1138TIP3    H2 3372   7.512   4.912   4.331 -0.1880 -0.5813 -0.4058
 1139TIP3   OH2 3373   4.597   3.644   5.308  0.2144 -0.3371 -0.0502
 1139TIP3    H1 3374   4.691   3.658   5.309  0.1253  0.2614  0.1619
 1139TIP3    H2 3375   4.568   3.674   5.222  0.0454  0.6659  0.3473
 1140TIP3   OH2 3376   6.592  -0.018   6.289  0.1512  0.3073  0.7882
 1140TIP3    H1 3377   6.616   0.070   6.261  0.1696  0.7769  2.1644
 1140TIP3    H2 3378   6.635  -0.028   6.374 -1.8174 -0.0724  1.7976
 1141TIP3   OH2 3379   2.508   3.821   1.749  0.1403 -0.3176  0.2355
 1141TIP3    H1 3380   2.558   3.740   1.759 -2.2424 -2.0041 -0.5128
 1141TIP3    H2 3381   2.555   3.871   1.682  0.2456 -2.3568 -1.3107
 1142TIP3   OH2 3382   7.275   3.714   2.570 -0.7457 -0.3854 -0.0079
 1142TIP3    H1 3383   7.218   3.638   2.586  0.7583 -1.0926  2.7345
 1142TIP3    H2 3384   7.290   3.751   2.657  3.4046 -0.6435 -0.3956
 1143TIP3   OH2 3385   3.342   7.435   2.865  0.1075  0.6539 -0.0866
 1143TIP3    H1 3386   3.351   7.387   2.783  1.6348  0.4151  0.1817
 1143TIP3    H2 3387   3.255   7.475   2.861 -0.3129 -0.3359 -1.2792
 1144TIP3   OH2 3388   0.261   5.419   0.599  0.0732 -0.2321  0.1391
 1144TIP3    H1 3389   0.228   5.358   0.533 -2.1565 -1.1075  1.9397
 1144TIP3    H2 3390   0.190   5.483   0.609  0.7643  0.4177  1.0060
 1145TIP3   OH2 3391   2.475   3.094   0.728 -1.1763 -0.3557 -0.0820
 1145TIP3    H1 3392   2.412   3.162   0.753  1.1096  1.3195  1.5528
 1145TIP3    H2 3393   2.555   3.142   0.709  0.6840 -2.5909  1.5467
 1146TIP3   OH2 3394   1.484   4.364   2.349 -0.2753  0.0366  0.3068
 1146TIP3    H1 3395   1.489   4.274   2.316 -0.9603 -0.2150  0.8413
 1146TIP3    H2 3396   1.570   4.401   2.332  0.8630 -1.5136  2.2692
 1147TIP3   OH2 3397   5.977   6.868   5.378  0.1315 -0.3014  0.5420
 1147TIP3    H1 3398   5.984   6.857   5.283  0.5902  2.3627  0.1773
 1147TIP3    H2 3399   5.970   6.779   5.412  0.3432 -1.3610 -1.9477
 1148TIP3   OH2 3400   2.694   4.837   1.941 -0.1477 -0.6194  0.0063
 1148TIP3    H1 3401   2.764   4.894   1.910 -0.1421 -0.0242  1.0781
 1148TIP3    H2 3402   2.735   4.781   2.007 -0.4118 -1.1003 -0.2262
 1149TIP3   OH2 3403   0.730   4.897   0.021 -0.1678 -0.4850  0.0772
 1149TIP3    H1 3404   0.740   4.859  -0.066 -1.4141 -0.3910 -0.1298
 1149TIP3    H2 3405   0.720   4.822   0.079 -2.4730 -0.5594 -0.3093
 1150TIP3   OH2 3406   2.122   3.037   5.983 -0.1250  0.4947  0.1093
 1150TIP3    H1 3407   2.085   3.103   6.042  0.8205  1.6962 -0.5837
 1150TIP3    H2 3408   2.054   2.970   5.976 -1.0026  1.2529  1.0708
 1151TIP3   OH2 3409   4.507   6.322   4.688 -0.6817  0.5408  0.7691
 1151TIP3    H1 3410   4.432   6.356   4.737 -0.6333 -1.4280  2.3376
 1151TIP3    H2 3411   4.510   6.229   4.710 -0.1240 -0.2968 -2.4230
 1152TIP3   OH2 3412   8.228   6.025   3.801 -0.1374 -0.2368 -0.4768
 1152TIP3    H1 3413   8.240   6.106   3.751 -0.5464 -0.4416 -0.9200
 1152TIP3    H2 3414   8.197   6.054   3.886  2.4301  0.2492  0.3764
 1153TIP3   OH2 3415   7.846   1.561   1.189  0.2083  0.0235  0.6695
 1153TIP3    H1 3416   7.808   1.630   1.243  1.2402  0.4622  0.8662
 1153TIP3    H2 3417   7.846   1.483   1.245  1.1997  0.4549  1.2962
 1154TIP3   OH2 3418   7.655   7.610   5.295 -0.0212  0.2078  0.3921
 1154TIP3    H1 3419   7.560   7.604   5.298 -0.1624  1.2267 -1.0314
 1154TIP3    H2 3420   7.685   7.566   5.375 -1.6953  0.3165  1.1112
 1155TIP3   OH2 3421   3.887   1.017   4.221  0.3106 -0.2330 -0.3890
 1155TIP3    H1 3422   3.818   1.083   4.218 -0.2338 -0.7966 -0.4542
 1155TIP3    H2 3423   3.918   1.019   4.312  0.3286  0.1432 -0.4032
 1156TIP3   OH2 3424   3.030   7.643   5.708 -0.0621 -0.3984 -0.1851
 1156TIP3    H1 3425   3.073   7.661   5.791  1.1805  1.0448 -1.0759
 1156TIP3    H2 3426   2.986   7.560   5.721 -0.0870 -0.1023  1.9694
 1157TIP3   OH2 3427   5.543   6.885   2.714  0.0754  0.0512 -0.3375
 1157TIP3    H1 3428   5.451   6.859   2.716 -0.3648  1.5038 -0.4363
 1157TIP3    H2 3429   5.557   6.918   2.625  0.4164  0.7021 -0.0542
 1158TIP3   OH2 3430   7.055   1.672   1.186  0.5489  0.7295  0.5500
 1158TIP3    H1 3431   7.051   1.583   1.222  2.6357  0.8381  1.1992
 1158TIP3    H2 3432   7.084   1.660   1.095 -1.8452  0.6316 -0.2558
 1159TIP3   OH2 3433   5.311   1.962   4.108 -0.6996 -0.2662 -0.4803
 1159TIP3    H1 3434   5.283   1.871   4.112  0.3792 -0.6382 -0.8725
 1159TIP3    H2 3435   5.262   1.999   4.035  1.9093 -1.7280 -3.2369
 1160TIP3   OH2 3436   7.019   3.467   2.179  0.7623  0.2867  0.6743
 1160TIP3    H1 3437   7.071   3.547   2.170  0.7113  0.2875  0.3685
 1160TIP3    H2 3438   6.946   3.492   2.235  0.8849  0.3870  0.7887
 1161TIP3   OH2 3439   5.171   6.380   6.479 -0.1706  0.5873 -0.3219
 1161TIP3    H1 3440   5.223   6.374   6.558 -0.3468  0.3208 -0.2248
 1161TIP3    H2 3441   5.168   6.473   6.459  0.5582  0.5794 -0.4753
 1162TIP3   OH2 3442   0.694   1.085   3.744  0.4084  0.1757  0.9230
 1162TIP3    H1 3443   0.723   0.996   3.763 -0.0779 -0.3037 -0.4443
 1162TIP3    H2 3444   0.755   1.117   3.678 -0.9845 -0.1629 -0.5973
 1163TIP3   OH2 3445   7.988   0.511   2.109 -0.0739 -0.4111  0.1251
 1163TIP3    H1 3446   8.031   0.595   2.091  0.0751 -0.5747 -0.2774
 1163TIP3    H2 3447   8.053   0.461   2.159  0.2411 -0.6896 -0.5532
 1164TIP3   OH2 3448   7.775   4.590   4.777 -0.1691 -0.7450 -0.0569
 1164TIP3    H1 3449   7.850   4.644   4.803 -0.0945 -1.6980  1.9477
 1164TIP3    H2 3450   7.798   4.556   4.691  1.1276 -0.0109 -0.0191
 1165TIP3   OH2 3451   3.374   1.404   1.167 -0.0089 -0.1975 -0.0653
 1165TIP3    H1 3452   3.430   1.479   1.147  0.1549 -0.5163 -0.8221
 1165TIP3    H2 3453   3.328   1.386   1.085  2.0587 -2.7209 -0.8134
 1166TIP3   OH2 3454   2.388   2.433   3.335 -0.5401  0.1187  0.2419
 1166TIP3    H1 3455   2.417   2.481   3.257 -0.4653 -1.5562 -0.8156
 1166TIP3    H2 3456   2.334   2.495   3.383 -1.5495  0.8535 -1.7378
 1167TIP3   OH2 3457   5.337   5.092   4.886 -0.3117  0.1257  0.4219
 1167TIP3    H1 3458   5.367   5.183   4.882 -0.5914  0.3334  2.1292
 1167TIP3    H2 3459   5.263   5.094   4.946 -1.2810 -1.0130 -0.7023
 1168TIP3   OH2 3460   4.520   6.061   2.469 -0.2519  0.5481  0.3893
 1168TIP3    H1 3461   4.541   6.099   2.383 -0.2399  0.8580  0.5302
 1168TIP3    H2 3462   4.455   5.993   2.449 -2.4026  2.4617  0.4160
 1169TIP3   OH2 3463   0.500   6.968   4.410  0.2294 -0.4091 -0.1404
 1169TIP3    H1 3464   0.430   6.903   4.417 -0.7176  0.5397 -0.4482
 1169TIP3    H2 3465   0.509   7.002   4.499  1.1210 -1.3386  0.1387
 1170TIP3   OH2 3466   0.026   0.105   2.992  0.2135  0.1591 -0.5883
 1170TIP3    H1 3467   0.082   0.157   3.049 -1.2204  1.7803 -0.5680
 1170TIP3    H2 3468   0.043   0.137   2.904  1.5607 -1.5284 -0.9991
 1171TIP3   OH2 3469   7.696   5.798   6.299 -0.0037 -0.0957  0.0947
 1171TIP3    H1 3470   7.749   5.876   6.314  0.1938 -0.4727  1.5176
 1171TIP3    H2 3471   7.752   5.725   6.323 -0.0052 -0.7505 -1.7279
 1172TIP3   OH2 3472   5.281   3.955   5.699 -0.1865 -0.1226  0.8103
 1172TIP3    H1 3473   5.275   3.897   5.622 -2.8534  1.7831 -0.5792
 1172TIP3    H2 3474   5.370   3.942   5.731  1.0635 -1.0685 -2.5631
 1173TIP3   OH2 3475   2.954   7.590   6.308  0.7993  0.1360 -0.4679
 1173TIP3    H1 3476   2.895   7.604   6.383  0.7202  0.4138 -0.5794
 1173TIP3    H2 3477   3.033   7.639   6.331  1.3955 -1.0652  0.1425
 1174TIP3   OH2 3478   6.018   6.024   6.208 -0.8282  0.3382  0.0990
 1174TIP3    H1 3479   5.992   5.949   6.155  1.5422 -0.6467  0.1844
 1174TIP3    H2 3480   6.023   6.097   6.147 -1.1809 -0.0481 -0.3955
 1175TIP3   OH2 3481   0.736   4.357   3.110 -0.6352  0.1786 -0.7131
 1175TIP3    H1 3482   0.759   4.266   3.131 -1.2486 -0.0334 -0.9346
 1175TIP3    H2 3483   0.801   4.410   3.157 -0.1681 -0.3786 -0.7208
 1176TIP3   OH2 3484   7.731   6.610   5.084 -0.2469  0.4759 -0.0443
 1176TIP3    H1 3485   7.810   6.662   5.100 -1.0191  1.4250  0.7867
 1176TIP3    H2 3486   7.762   6.536   5.032  1.1443  0.9652  0.0363
 1177TIP3   OH2 3487   2.532   6.846   1.737 -0.4862  0.2648  0.1546
 1177TIP3    H1 3488   2.572   6.762   1.717 -2.4106 -0.4533 -0.8745
 1177TIP3    H2 3489   2.525   6.848   1.832  1.5090  0.2434  0.3511
 1178TIP3   OH2 3490   4.780   1.462   0.686 -0.3792 -0.3541 -0.5576
 1178TIP3    H1 3491   4.843   1.439   0.617  0.5780  0.4158  0.0309
 1178TIP3    H2 3492   4.740   1.543   0.655  0.8421  0.5995  0.2497
 1179TIP3   OH2 3493   8.033   2.091   4.087 -0.1514  0.2987 -0.1789
 1179TIP3    H1 3494   7.959   2.035   4.109 -0.3098  0.3294 -0.6419
 1179TIP3    H2 3495   8.003   2.179   4.110 -0.1028  0.2643  0.0255
 1180TIP3   OH2 3496   0.788   5.089   0.423  0.1198 -0.0529 -0.0758
 1180TIP3    H1 3497   0.840   5.009   0.420 -1.9525 -1.4642 -1.5413
 1180TIP3    H2 3498   0.820   5.135   0.501  1.8690 -1.9471  0.4291
 1181TIP3   OH2 3499   5.747   1.001   0.795 -0.5934  0.6881 -0.5776
 1181TIP3    H1 3500   5.669   0.955   0.764 -0.8002  0.3441  0.4062
 1181TIP3    H2 3501   5.819   0.965   0.743 -0.3761 -2.4593  1.5908
 1182TIP3   OH2 3502   2.550   2.642   1.366 -0.3615  0.1883  0.0937
 1182TIP3    H1 3503   2.600   2.696   1.426  0.6841 -0.2577 -0.3445
 1182TIP3    H2 3504   2.616   2.603   1.308 -1.0238 -1.7501  0.5485
 1183TIP3   OH2 3505   1.450   6.184   4.335 -0.3322  0.2503  0.5987
 1183TIP3    H1 3506   1.384   6.253   4.330  0.2738  0.8610  0.7488
 1183TIP3    H2 3507   1.534   6.231   4.325  0.0669 -0.5172  0.3006
 1184TIP3   OH2 3508   6.351   7.088   2.950 -0.0490  0.0038  0.2674
 1184TIP3    H1 3509   6.272   7.140   2.962  0.8766  1.5608 -0.1744
 1184TIP3    H2 3510   6.341   7.015   3.012 -2.2177 -0.3432 -0.4298
 1185TIP3   OH2 3511   6.120   3.399   0.995  0.0789  0.2529 -0.4544
 1185TIP3    H1 3512   6.055   3.426   1.059 -0.1693  0.0405 -0.6200
 1185TIP3    H2 3513   6.197   3.453   1.015  0.2866 -0.4027  0.5528
 1186TIP3   OH2 3514   0.385   4.075   4.873  0.2512 -0.4456 -0.6666
 1186TIP3    H1 3515   0.402   3.989   4.912  2.0815  0.5018  0.7758
 1186TIP3    H2 3516   0.304   4.063   4.823 -0.6385 -2.5043  1.0888
 1187TIP3   OH2 3517   1.902   6.878   2.139  0.1232 -0.1606  0.0997
 1187TIP3    H1 3518   1.830   6.857   2.080 -0.7540  0.9716  0.7142
 1187TIP3    H2 3519   1.952   6.796   2.148 -0.4679 -0.6773 -1.1633
 1188TIP3   OH2 3520   3.840   2.195   6.331  0.0423 -0.4306  1.2987
 1188TIP3    H1 3521   3.872   2.203   6.421 -0.7635  0.2935  1.5367
 1188TIP3    H2 3522   3.783   2.118   6.334 -2.0394  1.0497  2.0803
 1189TIP3   OH2 3523   2.705   3.635   1.750  0.2633 -0.7445 -0.5768
 1189TIP3    H1 3524   2.761   3.583   1.807  0.6795  1.8769  1.6207
 1189TIP3    H2 3525   2.755   3.646   1.670  1.7647 -0.7179  0.3231
 1190TIP3   OH2 3526   6.136   2.679   1.467  0.2452 -0.3295 -0.1867
 1190TIP3    H1 3527   6.204   2.650   1.406  1.6102  2.5919 -0.2630
 1190TIP3    H2 3528   6.054   2.665   1.419  1.0878 -0.5432 -1.6511
 1191TIP3   OH2 3529   2.728   5.020   2.245  0.3314  0.3172 -0.1100
 1191TIP3    H1 3530   2.694   4.979   2.165  0.5038 -0.1255  0.0405
 1191TIP3    H2 3531   2.717   5.114   2.230  0.9505  0.2692 -0.9113
 1192TIP3   OH2 3532   6.447   6.605   5.914  0.2378  0.0167  0.1665
 1192TIP3    H1 3533   6.445   6.565   6.001  1.5433  1.2910  0.8436
 1192TIP3    H2 3534   6.527   6.571   5.873  0.1462  0.1759 -0.1502
 1193TIP3   OH2 3535   2.879   3.932   3.077  0.5533 -0.2695 -0.3505
 1193TIP3    H1 3536   2.955   3.948   3.020  0.4661 -0.5511 -0.5515
 1193TIP3    H2 3537   2.842   4.019   3.093  0.1847 -0.2400 -1.2845
 1194TIP3   OH2 3538   7.163   6.326   5.321  0.6458 -0.0744  0.2280
 1194TIP3    H1 3539   7.092   6.343   5.382  0.0399  0.9718 -0.7392
 1194TIP3    H2 3540   7.139   6.244   5.278 -0.5477  0.8268 -0.8725
 1195TIP3   OH2 3541   8.258   4.446   3.282 -0.0762  0.2383 -0.0216
 1195TIP3    H1 3542   8.267   4.371   3.222 -1.6531  0.3642 -0.4853
 1195TIP3    H2 3543   8.272   4.409   3.369  0.1994 -0.3915 -0.3248
 1196TIP3   OH2 3544   4.154   5.331   1.282  0.0299  0.0918  0.4133
 1196TIP3    H1 3545   4.210   5.286   1.345  0.0891 -0.4773 -0.0344
 1196TIP3    H2 3546   4.136   5.265   1.215  0.8883  1.0080 -0.7502
 1197TIP3   OH2 3547   3.968   5.366   5.350 -0.4625 -0.2362 -0.2564
 1197TIP3    H1 3548   3.970   5.416   5.432 -2.4557 -1.4625  0.6238
 1197TIP3    H2 3549   4.044   5.308   5.355  1.0680  1.6290 -0.6495
 1198TIP3   OH2 3550   1.377   6.935   0.671 -0.1220  0.2638  0.3503
 1198TIP3    H1 3551   1.443   6.906   0.734  0.0100 -0.4985 -0.1274
 1198TIP3    H2 3552   1.299   6.953   0.724 -0.3480 -1.4076  0.6302
 1199TIP3   OH2 3553   4.730   5.495   4.996 -0.2341 -0.5051 -0.5744
 1199TIP3    H1 3554   4.653   5.533   4.955 -0.5581 -1.7126 -1.1536
 1199TIP3    H2 3555   4.702   5.406   5.021  0.1420 -0.0376  1.7259
 1200TIP3   OH2 3556   1.525   1.896   0.840  0.2635  0.5544 -0.5288
 1200TIP3    H1 3557   1.515   1.991   0.851 -0.9181  0.3664  0.2852
 1200TIP3    H2 3558   1.560   1.885   0.752 -0.1409  1.7232 -0.8532
 1201TIP3   OH2 3559   5.388   6.960   1.791 -0.4959 -0.0140 -0.2191
 1201TIP3    H1 3560   5.405   6.919   1.876 -1.2557  1.2130  0.5533
 1201TIP3    H2 3561   5.465   6.939   1.739 -0.2188 -1.1739  0.6143
 1202TIP3   OH2 3562   1.048   5.551   1.542  0.5076 -0.5603 -0.1546
 1202TIP3    H1 3563   1.126   5.498   1.562  0.4901 -0.2023  0.8924
 1202TIP3    H2 3564   1.064   5.583   1.453  2.2107  0.6114  0.5086
 1203TIP3   OH2 3565   3.948   4.209   4.223  0.0216 -0.2569 -0.6636
 1203TIP3    H1 3566   3.871   4.261   4.248  0.1442 -1.3474  2.5357
 1203TIP3    H2 3567   3.912   4.132   4.179 -0.4144  0.7342 -2.1089
 1204TIP3   OH2 3568   6.416   5.461   2.486  0.0656 -0.1473  0.1541
 1204TIP3    H1 3569   6.479   5.391   2.468  0.7170  0.5797 -0.5003
 1204TIP3    H2 3570   6.331   5.417   2.494  0.4067 -0.9613 -0.6447
 1205TIP3   OH2 3571   6.147   0.504   4.138  0.4743 -0.0731 -0.1264
 1205TIP3    H1 3572   6.069   0.474   4.184  0.5862 -0.0406  0.0850
 1205TIP3    H2 3573   6.203   0.542   4.206  0.5308  0.2067 -0.3265
 1206TIP3   OH2 3574   4.553   0.399   6.673  0.4001 -0.4298 -0.2767
 1206TIP3    H1 3575   4.555   0.373   6.765  0.0463 -1.3446 -0.5184
 1206TIP3    H2 3576   4.487   0.469   6.669 -0.5003 -1.2518 -0.0439
 1207TIP3   OH2 3577   7.497   6.136   0.560  0.3078  0.1485 -0.3393
 1207TIP3    H1 3578   7.431   6.073   0.591  1.1460  0.6652  2.9095
 1207TIP3    H2 3579   7.459   6.222   0.581  1.4962  0.4899  0.4933
 1208TIP3   OH2 3580   2.975   7.325   1.836  0.0356 -0.6193 -0.3961
 1208TIP3    H1 3581   3.051   7.366   1.796  1.0263 -1.2727  0.7518
 1208TIP3    H2 3582   2.962   7.372   1.918 -0.2184 -1.1236 -0.1410
 1209TIP3   OH2 3583   7.419   0.096   4.638 -0.0100 -0.1307  0.6738
 1209TIP3    H1 3584   7.391   0.186   4.625  0.8013 -0.0146 -0.3695
 1209TIP3    H2 3585   7.396   0.051   4.557  1.4774 -0.3601  0.3450
 1210TIP3   OH2 3586   4.582   1.418   4.198  0.8609 -0.1662 -0.1363
 1210TIP3    H1 3587   4.641   1.349   4.229  1.2036  0.2798  0.2186
 1210TIP3    H2 3588   4.603   1.426   4.105  0.3804 -0.9675 -0.3224
 1211TIP3   OH2 3589   3.005   1.249   4.690 -0.1779 -0.0396 -0.2767
 1211TIP3    H1 3590   3.086   1.297   4.707  0.1417 -0.3803 -0.7988
 1211TIP3    H2 3591   2.946   1.277   4.759 -0.1219  1.3908 -0.7781
 1212TIP3   OH2 3592   6.316   4.530   0.205 -0.2271  0.3254  0.2315
 1212TIP3    H1 3593   6.259   4.466   0.163 -1.7002  0.1217  2.3777
 1212TIP3    H2 3594   6.257   4.593   0.245  1.1739  2.1728 -0.4849
 1213TIP3   OH2 3595   0.617   0.946   1.849  0.1623 -0.4272  0.7716
 1213TIP3    H1 3596   0.552   0.991   1.904 -0.6416  0.9043 -1.1939
 1213TIP3    H2 3597   0.577   0.860   1.831 -0.1006 -0.4136  1.2605
 1214TIP3   OH2 3598   2.170   4.051   0.631  0.2942  0.0617 -0.5233
 1214TIP3    H1 3599   2.113   3.976   0.614  0.0385  0.8043 -3.4229
 1214TIP3    H2 3600   2.218   4.027   0.711 -0.4063 -2.7783 -0.8405
 1215TIP3   OH2 3601   5.648   1.427   0.519 -0.3691  0.2071  0.1410
 1215TIP3    H1 3602   5.742   1.445   0.510 -0.2947  0.2610  0.9133
 1215TIP3    H2 3603   5.644   1.339   0.558 -0.7065 -0.8858 -2.2322
 1216TIP3   OH2 3604   2.930   1.120   1.859  0.2543 -0.2796 -0.1767
 1216TIP3    H1 3605   2.882   1.061   1.801  0.6184  0.2610 -1.0476
 1216TIP3    H2 3606   2.882   1.116   1.942 -0.4383 -0.8596 -0.5899
 1217TIP3   OH2 3607   1.578   1.923   6.156  0.0958  0.6426 -0.0147
 1217TIP3    H1 3608   1.573   1.832   6.185  1.3745  0.3234 -0.6946
 1217TIP3    H2 3609   1.580   1.917   6.060  0.6097  1.3463 -0.0558
 1218TIP3   OH2 3610   3.938   2.597   1.204  0.3898  0.2936 -0.2286
 1218TIP3    H1 3611   3.869   2.636   1.258  0.4198  0.2778 -0.1791
 1218TIP3    H2 3612   3.929   2.503   1.217  0.5272  0.2993 -0.0929
 1219TIP3   OH2 3613   4.547   3.283   1.937  0.0587  0.0660  0.3112
 1219TIP3    H1 3614   4.541   3.212   2.000  2.1395 -1.7275 -1.3565
 1219TIP3    H2 3615   4.509   3.248   1.857 -0.8632  1.6494  0.0003
 1220TIP3   OH2 3616   4.504   7.643   6.420  0.9248  0.3661  0.0133
 1220TIP3    H1 3617   4.473   7.696   6.347 -1.1382  0.8152  1.1284
 1220TIP3    H2 3618   4.442   7.570   6.424  0.3463  0.8961  1.8755
 1221TIP3   OH2 3619   4.492   4.055   2.328 -0.3311  0.1484  0.0073
 1221TIP3    H1 3620   4.473   4.148   2.335  0.1258  0.4099 -1.7788
 1221TIP3    H2 3621   4.499   4.025   2.418  2.8107  2.5196  0.7320
 1222TIP3   OH2 3622   0.398   2.266   2.162  1.1476  0.4777 -0.3818
 1222TIP3    H1 3623   0.342   2.343   2.158  1.0802  0.4697  0.3223
 1222TIP3    H2 3624   0.439   2.270   2.249  1.6941  0.1062 -0.6140
 1223TIP3   OH2 3625   4.383   1.759   4.484 -0.3747  0.1980  0.1818
 1223TIP3    H1 3626   4.366   1.745   4.391 -1.0679  0.9484  0.1785
 1223TIP3    H2 3627   4.468   1.719   4.499 -0.8392 -1.1153 -0.4756
 1224TIP3   OH2 3628   1.368   5.878   1.225  0.0736 -0.2930 -0.1214
 1224TIP3    H1 3629   1.352   5.945   1.292  0.5682 -2.2301  2.0761
 1224TIP3    H2 3630   1.295   5.887   1.163 -0.6024  1.3581  0.8658
 1225TIP3   OH2 3631   5.818   5.912   1.870 -0.4520  0.0268 -0.0963
 1225TIP3    H1 3632   5.912   5.924   1.879 -0.5142  1.3068 -0.8671
 1225TIP3    H2 3633   5.791   5.870   1.952  0.3733  2.2465  1.4031
 1226TIP3   OH2 3634   3.571   6.436   5.603  0.5638  0.1839 -0.0219
 1226TIP3    H1 3635   3.627   6.359   5.621  1.5892  0.7360 -0.7197
 1226TIP3    H2 3636   3.558   6.433   5.508 -0.1251  0.3959  0.0646
 1227TIP3   OH2 3637   2.628   3.896   5.256 -0.0339 -0.0806 -0.6611
 1227TIP3    H1 3638   2.546   3.860   5.290  0.0552  0.1867 -0.1503
 1227TIP3    H2 3639   2.646   3.970   5.313  1.1860 -0.8461 -0.0165
 1228TIP3   OH2 3640   2.263   7.553   0.623 -0.2904  0.4094  0.7094
 1228TIP3    H1 3641   2.180   7.529   0.580 -0.9746  1.2740  1.4982
 1228TIP3    H2 3642   2.325   7.562   0.551 -1.5743  2.5489 -0.2594
 1229TIP3   OH2 3643   6.690   6.510   4.016  0.3766  0.3702  0.1588
 1229TIP3    H1 3644   6.657   6.581   4.071  0.8916 -0.3859  1.4789
 1229TIP3    H2 3645   6.641   6.433   4.044  0.8297 -0.0813 -0.2732
 1230TIP3   OH2 3646   4.949   2.477   5.267  0.3282 -0.3984 -0.6213
 1230TIP3    H1 3647   5.028   2.430   5.240 -0.0042 -1.3462  0.0153
 1230TIP3    H2 3648   4.899   2.413   5.317 -0.4303  0.4599 -0.2596
 1231TIP3   OH2 3649   5.643   5.087   4.775  0.5615 -0.4276 -0.1978
 1231TIP3    H1 3650   5.561   5.098   4.824  0.7492  1.6521 -0.2382
 1231TIP3    H2 3651   5.621   5.024   4.706  0.0185 -2.6326  1.8577
 1232TIP3   OH2 3652   6.325   0.613   0.285 -0.0148 -0.3515 -0.4558
 1232TIP3    H1 3653   6.261   0.566   0.339  0.7743 -1.3444 -0.3465
 1232TIP3    H2 3654   6.391   0.643   0.348 -0.4690  0.8650 -0.5348
 1233TIP3   OH2 3655   3.895   0.783   4.715  0.3077 -0.2021  0.2418
 1233TIP3    H1 3656   3.893   0.714   4.781  1.0792 -0.3116  0.1548
 1233TIP3    H2 3657   3.966   0.841   4.742  0.6048 -0.2266 -0.4630
 1234TIP3   OH2 3658   0.920   3.816   2.159 -0.4912  0.7914 -0.0036
 1234TIP3    H1 3659   0.836   3.771   2.148  0.0669 -0.1939 -0.4410
 1234TIP3    H2 3660   0.962   3.770   2.232 -1.4061  3.0019  2.0242
 1235TIP3   OH2 3661   0.227   1.277   0.220  0.2251  0.8173 -0.2610
 1235TIP3    H1 3662   0.211   1.183   0.218 -2.6383  1.2147 -1.4810
 1235TIP3    H2 3663   0.250   1.299   0.130 -0.7992  1.5006 -0.3656
 1236TIP3   OH2 3664   0.986   7.365   4.242  0.1749  0.1851 -0.3631
 1236TIP3    H1 3665   0.945   7.434   4.294 -1.8388 -0.9936 -0.2912
 1236TIP3    H2 3666   1.043   7.411   4.181  0.6886  1.7479  1.2130
 1237TIP3   OH2 3667   2.586   5.482   3.763 -0.2821 -0.0714  0.1548
 1237TIP3    H1 3668   2.538   5.502   3.844 -1.8474  0.6312 -0.8914
 1237TIP3    H2 3669   2.591   5.565   3.716  0.0367 -0.5809 -0.7518
 1238TIP3   OH2 3670   0.415   3.140   4.782 -0.2485  0.2493  0.1545
 1238TIP3    H1 3671   0.337   3.136   4.726  1.2860 -2.8136 -1.9977
 1238TIP3    H2 3672   0.400   3.072   4.848  0.8102 -0.7295 -0.6009
 1239TIP3   OH2 3673   7.399   3.032   3.400  0.4083  0.4761  0.3990
 1239TIP3    H1 3674   7.421   3.070   3.485  1.2975  1.7552 -0.3740
 1239TIP3    H2 3675   7.438   3.092   3.336 -0.4978 -0.3060 -0.9214
 1240TIP3   OH2 3676   1.072   6.934   4.029 -0.4199 -0.3261  0.4999
 1240TIP3    H1 3677   1.161   6.953   4.001 -0.3286 -0.5079  0.6614
 1240TIP3    H2 3678   1.040   7.016   4.065 -0.6475 -0.0037 -0.4100
 1241TIP3   OH2 3679   3.134   4.014   3.016 -0.0179 -0.2187  0.4456
 1241TIP3    H1 3680   3.142   3.941   3.077 -1.9711 -0.1886  0.8039
 1241TIP3    H2 3681   3.151   4.092   3.069 -0.6428 -0.2583  0.7111
 1242TIP3   OH2 3682   7.569   6.248   5.231 -0.0944  0.3611 -0.5355
 1242TIP3    H1 3683   7.607   6.271   5.146  0.2210  0.7913 -0.2859
 1242TIP3    H2 3684   7.537   6.332   5.266  1.8007  0.6105  0.7542
 1243TIP3   OH2 3685   1.891   6.080   0.077 -0.4949 -0.1714  0.2706
 1243TIP3    H1 3686   1.802   6.102   0.105 -1.0817  0.8991 -2.2336
 1243TIP3    H2 3687   1.882   5.994   0.035 -0.0638 -0.6724  1.1708
 1244TIP3   OH2 3688   3.510   5.945   4.261 -0.4234  0.6440  0.3840
 1244TIP3    H1 3689   3.503   6.016   4.197  1.3627  1.1388  0.6902
 1244TIP3    H2 3690   3.595   5.957   4.301  0.0345 -1.8022  0.3222
 1245TIP3   OH2 3691   8.004   0.289   1.196 -0.1860 -0.0417  0.2442
 1245TIP3    H1 3692   7.940   0.335   1.141 -0.9887 -0.3489  0.8870
 1245TIP3    H2 3693   7.950   0.232   1.251  0.3515  1.7493  2.8094
 1246TIP3   OH2 3694   1.995   2.247   0.327  0.1198 -0.0885 -0.5417
 1246TIP3    H1 3695   1.989   2.244   0.231 -1.2115  0.8411 -0.5005
 1246TIP3    H2 3696   2.055   2.319   0.345  1.6937 -1.3078 -0.6790
 1247TIP3   OH2 3697   4.956   7.055   3.211 -0.5390 -0.2600 -0.3799
 1247TIP3    H1 3698   5.040   7.070   3.167  0.4964 -0.9944  1.2790
 1247TIP3    H2 3699   4.940   7.136   3.260 -1.1673  0.1444 -1.2231
 1248TIP3   OH2 3700   6.117   6.765   5.168  0.4327 -0.2610  0.0813
 1248TIP3    H1 3701   6.116   6.702   5.096  0.4952 -0.5046  0.2946
 1248TIP3    H2 3702   6.144   6.847   5.126 -0.7269 -0.1109 -0.3977
 1249TIP3   OH2 3703   4.473   2.994   3.561 -0.7523 -0.1172 -0.0819
 1249TIP3    H1 3704   4.503   2.909   3.592 -0.8507 -0.1386 -0.0454
 1249TIP3    H2 3705   4.445   2.977   3.471  2.0093  0.4739 -1.1339
 1250TIP3   OH2 3706   6.885   2.268   3.481  0.9337 -0.6049 -0.1311
 1250TIP3    H1 3707   6.863   2.328   3.410  1.5685  0.6971  0.7312
 1250TIP3    H2 3708   6.962   2.307   3.523  1.8537 -2.4337 -0.0065
 1251TIP3   OH2 3709   7.542   4.596   5.081  0.8893 -0.0215  0.2027
 1251TIP3    H1 3710   7.520   4.504   5.095 -2.8363  0.7959  0.5730
 1251TIP3    H2 3711   7.540   4.607   4.986 -1.8245  0.2430  0.2253
 1252TIP3   OH2 3712   0.856   3.257   3.462 -0.4005  0.1170  0.3991
 1252TIP3    H1 3713   0.932   3.315   3.466 -0.7965  0.7669 -0.9632
 1252TIP3    H2 3714   0.794   3.295   3.525 -0.3700  0.7658  0.0471
 1253TIP3   OH2 3715   7.886   2.717   5.466 -0.2752 -0.0141  0.2311
 1253TIP3    H1 3716   7.910   2.798   5.512  0.1271  1.0008 -1.6477
 1253TIP3    H2 3717   7.969   2.684   5.431 -0.7040 -0.0899 -0.7504
 1254TIP3   OH2 3718   8.147   5.189   0.812 -0.1000  0.5274 -0.4108
 1254TIP3    H1 3719   8.071   5.223   0.764 -0.1302  4.0269  1.7504
 1254TIP3    H2 3720   8.119   5.189   0.904  1.1784 -2.3213  0.0755
 1255TIP3   OH2 3721   2.226   7.643   1.290 -0.4293 -0.3321 -0.1007
 1255TIP3    H1 3722   2.223   7.726   1.242 -3.9096 -0.2349  0.0479
 1255TIP3    H2 3723   2.242   7.668   1.381  1.4728 -0.1550 -0.4291
 1256TIP3   OH2 3724   5.730   0.901   1.733  0.5374 -0.2785 -0.4251
 1256TIP3    H1 3725   5.653   0.950   1.704  1.8168  1.7642 -0.5250
 1256TIP3    H2 3726   5.720   0.896   1.828  1.6425  2.6277 -0.0439
 1257TIP3   OH2 3727   7.362   2.152   5.928 -0.5291  0.1677 -0.4953
 1257TIP3    H1 3728   7.418   2.189   5.859 -2.4967  2.0719 -1.1728
 1257TIP3    H2 3729   7.273   2.176   5.902 -1.4707 -0.6227  1.8094
 1258TIP3   OH2 3730   7.698   3.767   6.677  0.0270  0.3342  0.0130
 1258TIP3    H1 3731   7.764   3.709   6.639  1.1902  0.3631  1.8478
 1258TIP3    H2 3732   7.629   3.772   6.611  2.2314  1.0407 -2.3954
 1259TIP3   OH2 3733   4.715   3.745   0.942 -0.0067 -0.2278 -0.0512
 1259TIP3    H1 3734   4.775   3.799   0.993  1.0954 -0.3640 -1.1708
 1259TIP3    H2 3735   4.747   3.655   0.954  0.0442 -0.2980 -0.7006
 1260TIP3   OH2 3736   2.762   3.691   5.159  0.5914  0.6015  0.2986
 1260TIP3    H1 3737   2.700   3.761   5.178  0.7934  0.3442  2.1299
 1260TIP3    H2 3738   2.841   3.715   5.208  0.1861 -1.5680  2.1569
 1261TIP3   OH2 3739   0.309   0.155   3.109  0.0622 -0.6149 -0.6791
 1261TIP3    H1 3740   0.396   0.133   3.076  1.2124 -0.2792  1.8225
 1261TIP3    H2 3741   0.294   0.092   3.180 -1.4490 -0.2493 -0.6470
 1262TIP3   OH2 3742   7.399   6.458   5.001  0.9057  0.1763 -0.0551
 1262TIP3    H1 3743   7.329   6.524   4.997  1.8520  1.3154  1.2264
 1262TIP3    H2 3744   7.406   6.437   5.094  0.9916 -1.3630 -0.3916
 1263TIP3   OH2 3745   6.329   6.629   4.951 -0.2802  0.0951  0.1912
 1263TIP3    H1 3746   6.300   6.542   4.980  2.1368 -0.8421 -0.0536
 1263TIP3    H2 3747   6.300   6.635   4.860  1.8835 -1.6402 -0.6825
 1264TIP3   OH2 3748   1.123   2.378   1.873  0.3854 -0.2710 -0.9415
 1264TIP3    H1 3749   1.053   2.345   1.929  1.2512 -0.6999 -0.0850
 1264TIP3    H2 3750   1.175   2.435   1.931  1.5060 -1.0151 -1.1880
 1265TIP3   OH2 3751   0.906   5.125   4.036 -0.6994 -0.1497 -0.7068
 1265TIP3    H1 3752   0.919   5.034   4.008 -0.7040 -0.3096 -0.2056
 1265TIP3    H2 3753   0.951   5.130   4.121 -0.5305  0.3711 -0.8227
 1266TIP3   OH2 3754   6.565   4.569   0.396  0.7342 -0.4015  0.1276
 1266TIP3    H1 3755   6.517   4.606   0.469  0.4972 -0.5574  0.0525
 1266TIP3    H2 3756   6.499   4.553   0.329  0.2754 -3.5737  1.1528
 1267TIP3   OH2 3757   8.204   5.263   2.795  0.0325  0.2115  0.5079
 1267TIP3    H1 3758   8.145   5.299   2.861 -0.5582  0.5474 -0.1791
 1267TIP3    H2 3759   8.271   5.331   2.783  0.1317  0.1566  0.7487
 1268TIP3   OH2 3760   0.221   0.199   2.060  0.4991 -0.0859 -0.5006
 1268TIP3    H1 3761   0.174   0.225   2.139  0.9531 -0.4459 -0.1036
 1268TIP3    H2 3762   0.312   0.189   2.089  0.7677  0.2889 -1.1831
 1269TIP3   OH2 3763   7.386   3.594   5.926  0.5349 -0.2610 -0.7204
 1269TIP3    H1 3764   7.459   3.557   5.975 -0.4150 -1.5242 -0.1866
 1269TIP3    H2 3765   7.364   3.528   5.860 -0.3007 -0.0453 -0.6800
 1270TIP3   OH2 3766   2.023   0.834   0.983  0.4067  0.2660 -1.1636
 1270TIP3    H1 3767   2.021   0.879   0.898 -0.1387 -0.1180 -1.3647
 1270TIP3    H2 3768   1.963   0.884   1.038  2.6864  2.0708 -0.1630
 1271TIP3   OH2 3769   0.365   4.283   2.704 -0.0588 -0.1687  0.0600
 1271TIP3    H1 3770   0.325   4.369   2.706  1.0699  0.3696  0.7668
 1271TIP3    H2 3771   0.455   4.297   2.736  0.4637 -1.4307 -0.7539
 1272TIP3   OH2 3772   2.757   2.663   4.791  0.0700 -0.3234 -0.0856
 1272TIP3    H1 3773   2.691   2.663   4.722  0.7960  1.1123 -0.8375
 1272TIP3    H2 3774   2.710   2.689   4.870 -0.3401  0.3322 -0.5366
 1273TIP3   OH2 3775   4.443   2.474   5.692 -0.2649 -0.3851 -0.1621
 1273TIP3    H1 3776   4.348   2.472   5.677 -0.6004 -0.1051  1.6215
 1273TIP3    H2 3777   4.481   2.475   5.605 -1.9588  1.4852 -0.9867
 1274TIP3   OH2 3778   4.426   2.194   2.680 -0.2773 -0.4423 -0.1928
 1274TIP3    H1 3779   4.419   2.235   2.593 -0.0308 -1.5839 -0.7703
 1274TIP3    H2 3780   4.511   2.224   2.713 -0.0404 -0.5912 -0.6598
 1275TIP3   OH2 3781   5.250   5.140   1.357  0.1368 -0.0220  0.0697
 1275TIP3    H1 3782   5.341   5.113   1.350  0.3208  0.0749  1.7239
 1275TIP3    H2 3783   5.255   5.230   1.391 -0.5560  0.5791 -1.3393
 1276TIP3   OH2 3784   8.256   5.464   3.190 -0.8514  0.0498  0.4283
 1276TIP3    H1 3785   8.164   5.476   3.170 -0.6706 -0.3016 -0.6753
 1276TIP3    H2 3786   8.272   5.521   3.266 -1.6817  1.1044 -0.1558
 1277TIP3   OH2 3787   7.060   0.660   1.189  0.1633 -0.0345 -0.1301
 1277TIP3    H1 3788   7.043   0.582   1.241 -1.1446 -0.4856 -1.1735
 1277TIP3    H2 3789   7.063   0.731   1.253  0.5712 -0.8121  0.7483
 1278TIP3   OH2 3790   5.435   6.299   5.114 -0.1085 -0.2249 -0.2390
 1278TIP3    H1 3791   5.406   6.363   5.179  0.6280  1.4458 -1.4634
 1278TIP3    H2 3792   5.408   6.338   5.030 -1.8796 -2.7347 -0.9556
 1279TIP3   OH2 3793   2.403   7.585   2.669  0.0118 -0.4101  0.4940
 1279TIP3    H1 3794   2.434   7.568   2.581 -0.1523  0.7631  0.2025
 1279TIP3    H2 3795   2.482   7.594   2.722  0.1116 -1.7858  0.6247
 1280TIP3   OH2 3796   7.938   0.399   1.837  0.8411  0.1597 -0.2322
 1280TIP3    H1 3797   7.861   0.344   1.847  0.4680  0.5500 -0.9491
 1280TIP3    H2 3798   7.948   0.442   1.923 -0.0327  0.4932 -0.2888
 1281TIP3   OH2 3799   4.357   6.324   5.372 -0.3197  0.3492  0.1249
 1281TIP3    H1 3800   4.416   6.249   5.365 -2.7978 -1.6279 -2.0256
 1281TIP3    H2 3801   4.414   6.400   5.362  2.0186 -1.3373 -0.3612
 1282TIP3   OH2 3802   5.127   5.506   3.668 -0.4872  0.6081  0.4536
 1282TIP3    H1 3803   5.100   5.472   3.754  0.0457 -1.6084 -0.1779
 1282TIP3    H2 3804   5.061   5.471   3.608  0.8593 -0.5397 -0.4126
 1283TIP3   OH2 3805   2.745   7.042   1.481 -0.0537 -0.0969 -0.2343
 1283TIP3    H1 3806   2.756   7.107   1.550  2.2606 -1.4555  0.7932
 1283TIP3    H2 3807   2.831   7.037   1.439 -0.4366 -1.8506 -0.8751
 1284TIP3   OH2 3808   6.749   6.082   1.155  0.3040  0.3663  0.0262
 1284TIP3    H1 3809   6.682   6.101   1.221 -0.3549  2.9380 -1.2688
 1284TIP3    H2 3810   6.827   6.127   1.187  0.2434  0.8310 -0.4666
 1285TIP3   OH2 3811   3.017   0.701   2.198 -0.0863 -0.2324  0.1046
 1285TIP3    H1 3812   2.923   0.704   2.215 -0.3521  3.2635 -1.1372
 1285TIP3    H2 3813   3.045   0.793   2.197  2.9774 -1.0224 -1.4617
 1286TIP3   OH2 3814   5.782   6.596   3.371 -0.0547  0.6215 -0.3285
 1286TIP3    H1 3815   5.844   6.659   3.407 -0.0958  0.3386  0.2553
 1286TIP3    H2 3816   5.744   6.553   3.448 -1.4596  1.2347 -0.6380
 1287TIP3   OH2 3817   2.841   2.282   0.681  0.5612  0.1332 -0.2494
 1287TIP3    H1 3818   2.751   2.315   0.669  0.4976 -0.5795 -2.0950
 1287TIP3    H2 3819   2.885   2.351   0.730 -1.2627  0.0162  1.7471
 1288TIP3   OH2 3820   0.359   7.329   4.302 -0.4647 -0.1495 -0.1113
 1288TIP3    H1 3821   0.404   7.328   4.386 -2.0597  0.0083  0.7645
 1288TIP3    H2 3822   0.386   7.412   4.261 -0.6501  0.3515  0.7762
 1289TIP3   OH2 3823   1.044   6.729   0.681 -0.1384  0.8842 -1.0036
 1289TIP3    H1 3824   1.057   6.637   0.658 -0.8931  0.9307 -1.6702
 1289TIP3    H2 3825   1.045   6.774   0.596 -2.5590  1.1270 -0.9628
 1290TIP3   OH2 3826   0.744   6.829   4.906 -0.2053 -0.2534  0.3659
 1290TIP3    H1 3827   0.818   6.877   4.868 -1.2724  0.3406 -1.0593
 1290TIP3    H2 3828   0.674   6.894   4.913 -0.7677 -0.9243  1.1884
 1291TIP3   OH2 3829   0.875   1.901   4.735 -0.0567  0.0604 -0.2632
 1291TIP3    H1 3830   0.856   1.873   4.646 -1.0368  1.2757 -0.4550
 1291TIP3    H2 3831   0.850   1.826   4.789  0.6594 -0.7325 -0.9936
 1292TIP3   OH2 3832   2.526   6.561   1.997 -0.4168  0.1292 -0.8578
 1292TIP3    H1 3833   2.516   6.540   1.904  1.7171 -1.2249 -0.8620
 1292TIP3    H2 3834   2.550   6.654   1.998 -0.3783  0.1329 -1.6720
 1293TIP3   OH2 3835   1.545   4.522   4.654  0.0727 -0.3493 -0.3209
 1293TIP3    H1 3836   1.580   4.519   4.565  2.2951 -1.1731  0.5029
 1293TIP3    H2 3837   1.496   4.604   4.658  0.4169 -0.0134 -2.1221
 1294TIP3   OH2 3838   3.505   4.780   1.037  0.3453  0.3953  0.4565
 1294TIP3    H1 3839   3.569   4.849   1.055 -0.5799  1.8159 -1.2599
 1294TIP3    H2 3840   3.437   4.792   1.104  0.3389  0.9934  0.3523
 1295TIP3   OH2 3841   7.599   2.683   4.481 -0.4058  0.3221 -0.1111
 1295TIP3    H1 3842   7.608   2.591   4.506 -0.1422  0.9264  2.2429
 1295TIP3    H2 3843   7.653   2.692   4.402  0.3330 -1.3287  0.1667
 1296TIP3   OH2 3844   5.162   0.528   6.163 -0.2693 -0.3502 -0.1600
 1296TIP3    H1 3845   5.075   0.568   6.165  0.0509  0.3261  1.0742
 1296TIP3    H2 3846   5.169   0.481   6.245  0.7358  0.0779  0.0133
 1297TIP3   OH2 3847   3.573   1.705   5.975  0.0702 -0.1465 -0.2695
 1297TIP3    H1 3848   3.638   1.711   6.046  0.8501 -0.3067 -0.9585
 1297TIP3    H2 3849   3.621   1.729   5.896 -1.0951  1.2565 -0.5925
 1298TIP3   OH2 3850   4.729   6.453   0.108 -0.3495  0.4086 -0.1294
 1298TIP3    H1 3851   4.720   6.456   0.013 -3.3716 -0.0556  0.0588
 1298TIP3    H2 3852   4.683   6.531   0.139 -1.1497 -0.4708  0.9842
 1299TIP3   OH2 3853   1.859   2.840   0.166  0.3101 -0.4050 -0.0791
 1299TIP3    H1 3854   1.764   2.827   0.174  0.2819 -0.3520 -0.3226
 1299TIP3    H2 3855   1.895   2.751   0.170  0.1681 -0.5199 -1.0504
 1300TIP3   OH2 3856   1.771   7.385   3.231 -0.4615 -0.6491 -0.5050
 1300TIP3    H1 3857   1.827   7.394   3.308 -1.3800  1.7375 -0.0293
 1300TIP3    H2 3858   1.740   7.294   3.233  1.8233 -1.4686  0.2695
 1301TIP3   OH2 3859   7.005   5.601   0.625  0.4003  0.5312  0.1463
 1301TIP3    H1 3860   6.948   5.666   0.585 -0.8623 -0.1311  0.7934
 1301TIP3    H2 3861   7.092   5.621   0.592 -0.0518  2.1739 -0.1121
 1302TIP3   OH2 3862   5.167   2.700   3.206 -0.9616 -0.3699  0.0193
 1302TIP3    H1 3863   5.096   2.654   3.251 -1.3889  0.4211  0.1769
 1302TIP3    H2 3864   5.239   2.637   3.203 -0.9902 -0.5196  1.6377
 1303TIP3   OH2 3865   0.585   4.944   4.034 -0.1932 -0.0472 -0.1545
 1303TIP3    H1 3866   0.668   4.904   4.006  1.4389  2.9669 -0.0897
 1303TIP3    H2 3867   0.521   4.873   4.030  1.5823 -1.6883 -3.7236
 1304TIP3   OH2 3868   1.168   3.889   4.784  0.4179 -0.0966 -0.0067
 1304TIP3    H1 3869   1.205   3.941   4.712 -0.5281 -2.3505 -2.2851
 1304TIP3    H2 3870   1.241   3.836   4.815  0.3937 -0.5819 -0.7425
 1305TIP3   OH2 3871   1.937   5.645   6.626  0.0679 -0.1270 -0.1720
 1305TIP3    H1 3872   1.859   5.602   6.591  0.6358  0.6522 -2.6242
 1305TIP3    H2 3873   1.911   5.678   6.712 -1.9941 -0.6980 -0.5399
 1306TIP3   OH2 3874   0.465   7.721   5.861 -0.2027  0.3653  0.0549
 1306TIP3    H1 3875   0.398   7.784   5.886 -1.1737 -0.8349  0.6160
 1306TIP3    H2 3876   0.507   7.697   5.944 -0.0784  0.0235 -0.1055
 1307TIP3   OH2 3877   6.499   5.871   5.703 -0.1386 -0.0735 -0.6852
 1307TIP3    H1 3878   6.423   5.885   5.760 -0.7806 -2.1861 -0.9201
 1307TIP3    H2 3879   6.462   5.836   5.622  1.0471 -0.8873 -0.9061
 1308TIP3   OH2 3880   5.431   5.513   6.618 -0.0074  0.1122 -0.0452
 1308TIP3    H1 3881   5.472   5.517   6.704 -1.4989 -0.5273  0.7227
 1308TIP3    H2 3882   5.346   5.473   6.633 -0.4679  0.3503 -1.7641
 1309TIP3   OH2 3883   3.939   6.666   5.914 -0.3357  0.1669  0.4329
 1309TIP3    H1 3884   3.965   6.685   6.004  0.0304 -0.7356  0.5271
 1309TIP3    H2 3885   3.874   6.596   5.922  0.3327 -0.5315 -0.0425
 1310TIP3   OH2 3886   0.901   2.869   3.675  0.4223  0.4585  0.0370
 1310TIP3    H1 3887   0.921   2.910   3.591 -1.3024 -1.2657 -1.3103
 1310TIP3    H2 3888   0.848   2.934   3.721  0.9814  1.2314 -0.3898
 1311TIP3   OH2 3889   1.372   7.544   3.532  0.1256  0.0524 -0.1529
 1311TIP3    H1 3890   1.393   7.618   3.475  0.8175 -0.9570 -1.2467
 1311TIP3    H2 3891   1.456   7.501   3.548 -0.2358 -0.3817  0.6500
 1312TIP3   OH2 3892   0.375   0.304   6.529 -0.0213 -0.0240 -0.4280
 1312TIP3    H1 3893   0.308   0.253   6.484 -0.1236 -0.9396  0.7130
 1312TIP3    H2 3894   0.453   0.250   6.525  0.0856  0.0864  0.0788
 1313TIP3   OH2 3895   1.662   2.368   2.601  0.7239  0.1677  0.2354
 1313TIP3    H1 3896   1.757   2.363   2.591  0.6017 -0.4499 -0.8139
 1313TIP3    H2 3897   1.636   2.280   2.626  0.7370  1.0905  4.1667
 1314TIP3   OH2 3898   0.215   5.125   1.355  0.5338  0.0986  0.2450
 1314TIP3    H1 3899   0.265   5.137   1.436 -0.1412 -0.4837  0.7608
 1314TIP3    H2 3900   0.254   5.049   1.313  0.0154 -0.4174  0.6979
 1315TIP3   OH2 3901   3.475   0.575   1.205 -0.8394 -0.2052 -0.5615
 1315TIP3    H1 3902   3.486   0.493   1.252 -1.1634 -1.2154 -2.1774
 1315TIP3    H2 3903   3.556   0.585   1.155 -1.5477 -0.5697 -1.8446
 1316TIP3   OH2 3904   1.717   5.920   3.669  0.1707 -0.3008 -0.7061
 1316TIP3    H1 3905   1.642   5.888   3.619 -1.0482  0.9757  0.2068
 1316TIP3    H2 3906   1.788   5.926   3.606 -1.2668  1.0782 -2.2963
 1317TIP3   OH2 3907   3.151   0.803   2.662  0.6405  0.8099 -0.2668
 1317TIP3    H1 3908   3.196   0.860   2.599  1.4582  1.5836  0.9791
 1317TIP3    H2 3909   3.220   0.773   2.721  0.2523 -1.5868 -0.9207
 1318TIP3   OH2 3910   0.154   0.359   1.825 -0.1208  0.0380 -0.1436
 1318TIP3    H1 3911   0.061   0.381   1.835  0.2850  1.8299  0.1834
 1318TIP3    H2 3912   0.175   0.308   1.904 -0.7863 -0.2527 -0.1468
 1319TIP3   OH2 3913   1.057   2.075   6.822  0.2368 -0.8046  0.6948
 1319TIP3    H1 3914   1.085   2.121   6.743  1.6263 -1.2036  0.9191
 1319TIP3    H2 3915   1.019   1.993   6.790 -1.7786  0.2303  0.3246
 1320TIP3   OH2 3916   1.752   3.881   1.156  0.2316  0.2955  0.2562
 1320TIP3    H1 3917   1.780   3.936   1.083  0.6649  0.1299  0.3012
 1320TIP3    H2 3918   1.657   3.893   1.159  0.2344  0.4403 -0.2214
 1321TIP3   OH2 3919   3.883   5.897   0.906 -0.8975  0.5683  0.0056
 1321TIP3    H1 3920   3.918   5.836   0.841 -0.4968  0.3708  0.4106
 1321TIP3    H2 3921   3.959   5.928   0.955 -1.2453  0.3779  0.6771
 1322TIP3   OH2 3922   7.695   7.486   5.541  0.5520 -0.0414  0.0792
 1322TIP3    H1 3923   7.653   7.402   5.562 -0.0594  0.8078  2.5464
 1322TIP3    H2 3924   7.635   7.552   5.576  3.3373  1.2601  2.8382
 1323TIP3   OH2 3925   7.248   1.063   2.925 -0.2560 -0.2917  0.5086
 1323TIP3    H1 3926   7.178   1.088   2.864  0.1463 -0.0323  0.1460
 1323TIP3    H2 3927   7.253   1.137   2.986  1.0350  0.6167 -0.6535
 1324TIP3   OH2 3928   1.952   3.088   5.749  0.4624 -0.0833 -0.6352
 1324TIP3    H1 3929   1.929   2.998   5.726  0.9907 -0.8664  1.6316
 1324TIP3    H2 3930   2.027   3.079   5.809 -0.8193  1.7156  1.3764
 1325TIP3   OH2 3931   7.428   3.875   0.327  0.2484  0.0985 -0.5247
 1325TIP3    H1 3932   7.431   3.780   0.338 -1.0200 -0.0528 -1.3478
 1325TIP3    H2 3933   7.358   3.904   0.386  0.8713  0.5807 -0.0054
 1326TIP3   OH2 3934   6.661   0.509   1.132  0.3281  0.4777 -0.0286
 1326TIP3    H1 3935   6.657   0.571   1.205  0.6369  0.3295  0.1170
 1326TIP3    H2 3936   6.570   0.499   1.104  0.2892  1.0733 -0.1215
 1327TIP3   OH2 3937   4.633   6.719   0.064 -0.5989 -0.5586 -0.5494
 1327TIP3    H1 3938   4.718   6.749   0.096 -1.4317  0.9772  0.3340
 1327TIP3    H2 3939   4.606   6.786   0.002 -0.9805 -1.2688 -1.1663
 1328TIP3   OH2 3940   8.111   4.094   6.534  0.7857 -0.1914  0.6104
 1328TIP3    H1 3941   8.085   4.183   6.510  0.2103 -0.0721  1.6394
 1328TIP3    H2 3942   8.181   4.105   6.598 -0.6266 -0.4174  2.2604
 1329TIP3   OH2 3943   3.912   2.005   5.527 -0.7050 -0.0132  0.3261
 1329TIP3    H1 3944   3.870   1.929   5.488 -1.5955  2.0930 -3.3177
 1329TIP3    H2 3945   3.850   2.035   5.594 -1.9971 -0.5904 -0.5750
 1330TIP3   OH2 3946   1.679   3.903   5.159  0.5435  0.2113  0.2333
 1330TIP3    H1 3947   1.586   3.925   5.153  0.0753 -1.6806 -0.1990
 1330TIP3    H2 3948   1.680   3.811   5.186  2.3638  0.9744  3.2279
 1331TIP3   OH2 3949   1.847   0.290   2.453 -0.1124  0.1346 -0.7469
 1331TIP3    H1 3950   1.799   0.320   2.376 -0.2730  2.3003  0.1233
 1331TIP3    H2 3951   1.936   0.273   2.421 -0.4455 -0.0099 -1.6044
 1332TIP3   OH2 3952   4.704   2.723   5.928 -0.2207  0.1411  0.4570
 1332TIP3    H1 3953   4.793   2.728   5.962 -0.7555 -1.2852  2.2037
 1332TIP3    H2 3954   4.654   2.785   5.981 -0.6706 -0.6306  0.9549
 1333TIP3   OH2 3955   5.970   4.322   4.847 -0.2295 -0.3323  0.4213
 1333TIP3    H1 3956   5.997   4.294   4.935  0.4874 -0.7832  0.0622
 1333TIP3    H2 3957   5.996   4.251   4.790  0.7638  0.6485 -0.3849
 1334TIP3   OH2 3958   0.828   7.308   1.421 -0.4287  0.2290 -0.0982
 1334TIP3    H1 3959   0.858   7.399   1.422  2.0928 -0.5309  0.0733
 1334TIP3    H2 3960   0.748   7.309   1.369 -0.3617  2.5076 -0.2331
 1335TIP3   OH2 3961   4.914   7.029   3.856 -0.0440  0.0299  0.0265
 1335TIP3    H1 3962   4.861   6.950   3.860 -0.0632  0.0341 -0.1377
 1335TIP3    H2 3963   5.000   6.999   3.826  0.6230 -0.2689  2.0446
 1336TIP3   OH2 3964   8.289   5.191   6.002 -0.2713 -0.0657 -0.3578
 1336TIP3    H1 3965   8.212   5.141   5.973 -0.4245 -0.0795  0.0644
 1336TIP3    H2 3966   8.314   5.150   6.085  1.6403 -1.6420 -1.5979
 1337TIP3   OH2 3967   1.825   1.224   6.026  0.2913  0.4031  0.1208
 1337TIP3    H1 3968   1.902   1.184   6.066 -1.3430 -2.1522  0.9624
 1337TIP3    H2 3969   1.804   1.298   6.083  0.9395 -0.1055  1.0417
 1338TIP3   OH2 3970   5.023   6.284   1.180 -0.1376 -0.2499 -0.0150
 1338TIP3    H1 3971   5.026   6.376   1.209  0.9472 -0.7124  1.5095
 1338TIP3    H2 3972   5.018   6.234   1.262 -0.7890 -1.5626 -0.8278
 1339TIP3   OH2 3973   6.130   0.276   0.065 -0.4671 -0.2799  0.1874
 1339TIP3    H1 3974   6.040   0.276   0.031 -0.8304  1.3544  1.0252
 1339TIP3    H2 3975   6.175   0.342   0.012  0.0968 -0.7157  0.1234
 1340TIP3   OH2 3976   8.099   1.540   6.630 -0.1820  0.2702 -0.2989
 1340TIP3    H1 3977   8.178   1.594   6.625 -1.1390  1.7677  0.3769
 1340TIP3    H2 3978   8.031   1.592   6.589 -1.7163  0.7610  2.6589
 1341TIP3   OH2 3979   5.656   5.183   3.969  0.5232  0.5071  0.1295
 1341TIP3    H1 3980   5.620   5.121   4.032 -1.4036  2.6549  1.3198
 1341TIP3    H2 3981   5.750   5.184   3.986  0.5695 -1.7573  0.2721
 1342TIP3   OH2 3982   2.987   6.860   3.911 -0.0533 -0.8276  0.2156
 1342TIP3    H1 3983   2.913   6.801   3.922  0.1570 -1.2366 -0.5116
 1342TIP3    H2 3984   3.044   6.816   3.849  0.6179 -0.3382  0.4707
 1343TIP3   OH2 3985   0.082   6.894   0.634 -0.7789  0.0712  0.3955
 1343TIP3    H1 3986   0.152   6.959   0.625 -0.6635 -0.0818  0.1624
 1343TIP3    H2 3987   0.002   6.942   0.612 -0.7026  0.1518  0.2898
 1344TIP3   OH2 3988   7.867   1.039   5.480  0.3850  0.1173  0.1530
 1344TIP3    H1 3989   7.780   1.035   5.440  1.2584 -1.5221 -1.7829
 1344TIP3    H2 3990   7.891   1.131   5.475 -0.9446  0.4792  0.0286
 1345TIP3   OH2 3991   7.750   1.129   4.502  0.3354 -0.1038 -0.1025
 1345TIP3    H1 3992   7.680   1.183   4.465 -0.3691 -1.7472 -1.2714
 1345TIP3    H2 3993   7.728   1.122   4.595 -2.3321 -2.2943 -0.7741
 1346TIP3   OH2 3994   3.776   1.729   2.980 -0.2423 -0.3809 -0.1404
 1346TIP3    H1 3995   3.683   1.735   3.000 -0.2923 -2.0259  0.2840
 1346TIP3    H2 3996   3.811   1.667   3.045  0.8578 -0.8824 -1.1710
 1347TIP3   OH2 3997   1.374   7.266   0.619 -0.0283  0.2467  0.1493
 1347TIP3    H1 3998   1.435   7.194   0.600 -1.3846 -1.1460  0.7895
 1347TIP3    H2 3999   1.408   7.340   0.569  1.5930 -0.7516 -0.3235
 1348TIP3   OH2 4000   7.049   2.563   4.082  0.0325  0.3214 -0.4068
 1348TIP3    H1 4001   7.016   2.496   4.021  0.8064  0.1142 -0.6055
 1348TIP3    H2 4002   7.129   2.595   4.042  0.6727  0.0331  0.6111
 1349TIP3   OH2 4003   0.341   4.189   4.445 -0.1089  0.0884  0.3595
 1349TIP3    H1 4004   0.367   4.254   4.510  0.3699  0.0727  0.1868
 1349TIP3    H2 4005   0.404   4.118   4.455 -0.5979 -0.3293  0.5146
 1350TIP3   OH2 4006   4.173   5.874   6.166 -0.4521 -0.1324 -0.4659
 1350TIP3    H1 4007   4.218   5.793   6.141 -0.4857  0.0773 -1.2225
 1350TIP3    H2 4008   4.237   5.943   6.152 -0.9944  0.1649 -1.5270
 1351TIP3   OH2 4009   6.918   6.320   1.507  0.2609 -0.5555 -0.3283
 1351TIP3    H1 4010   6.877   6.241   1.541  1.9747 -1.8476 -1.0776
 1351TIP3    H2 4011   6.943   6.369   1.585 -1.4788 -0.3507  0.1401
 1352TIP3   OH2 4012   3.003   2.741   1.681 -0.1761 -0.5868 -0.0892
 1352TIP3    H1 4013   2.971   2.824   1.716 -0.2674 -0.5671 -0.2208
 1352TIP3    H2 4014   2.989   2.746   1.587  1.5809  0.0291 -0.3591
 1353TIP3   OH2 4015   5.163   4.280   2.674  0.0746 -0.8366 -0.0282
 1353TIP3    H1 4016   5.256   4.254   2.674  0.0981 -1.0732  3.0754
 1353TIP3    H2 4017   5.158   4.351   2.737 -1.3497  1.8236 -2.8603
 1354TIP3   OH2 4018   0.722   3.110   2.427  0.0481 -0.1723 -0.4141
 1354TIP3    H1 4019   0.677   3.064   2.498  0.5508  0.0683  0.0595
 1354TIP3    H2 4020   0.813   3.080   2.432  0.1737  0.1537 -0.7020
 1355TIP3   OH2 4021   7.298   2.671   3.949 -0.4637  0.6532  0.0872
 1355TIP3    H1 4022   7.323   2.737   4.014 -1.2825  0.8340  0.2346
 1355TIP3    H2 4023   7.350   2.692   3.871  1.8115 -0.5750  1.1688
 1356TIP3   OH2 4024   2.049   5.801   2.844  0.2242 -0.0621  0.1890
 1356TIP3    H1 4025   2.023   5.776   2.933 -0.9712  2.5231  0.6702
 1356TIP3    H2 4026   1.989   5.754   2.787  0.2722 -0.8970  0.8138
 1357TIP3   OH2 4027   8.172   4.970   3.377 -0.1052  0.0702  0.6237
 1357TIP3    H1 4028   8.081   4.990   3.352 -0.8205 -1.4372  1.8890
 1357TIP3    H2 4029   8.222   4.987   3.297 -1.6616 -0.1643 -0.4637
 1358TIP3   OH2 4030   3.805   4.861   6.749 -0.0704  0.1626  0.1256
 1358TIP3    H1 4031   3.779   4.946   6.785 -1.1796 -0.9074  2.0171
 1358TIP3    H2 4032   3.892   4.845   6.785  1.1907  1.4488 -2.0972
 1359TIP3   OH2 4033   6.109   4.735   1.112  0.1898 -0.0036 -0.4894
 1359TIP3    H1 4034   6.156   4.805   1.157 -2.3476  1.2044  0.5145
 1359TIP3    H2 4035   6.046   4.781   1.056 -0.6287 -1.4987 -0.8527
 1360TIP3   OH2 4036   2.979   1.750   2.625 -0.4635  0.1882  0.1892
 1360TIP3    H1 4037   3.014   1.662   2.635  1.4166  0.7929 -0.8104
 1360TIP3    H2 4038   3.018   1.800   2.697 -2.0621  0.1124  1.1813
 1361TIP3   OH2 4039   0.146   7.409   6.117  0.1295 -0.0756 -0.0238
 1361TIP3    H1 4040   0.212   7.399   6.048 -0.0949  1.5683 -0.5295
 1361TIP3    H2 4041   0.191   7.457   6.186 -0.6066  1.4223 -0.5430
 1362TIP3   OH2 4042   6.519   5.403   0.452 -0.1873 -0.2255 -0.0830
 1362TIP3    H1 4043   6.584   5.393   0.383  0.5017  0.2189  0.4841
 1362TIP3    H2 4044   6.540   5.332   0.514 -0.9015 -0.7227 -0.3993
 1363TIP3   OH2 4045   0.301   6.128   6.664  0.6372  0.1356 -0.8494
 1363TIP3    H1 4046   0.313   6.188   6.591  1.3384  0.8849 -0.1349
 1363TIP3    H2 4047   0.241   6.061   6.631 -1.1138  1.8524 -1.3175
 1364TIP3   OH2 4048   4.782   0.177   5.270 -0.5062 -0.1665  0.5923
 1364TIP3    H1 4049   4.823   0.154   5.186  1.9883 -2.1276  2.2086
 1364TIP3    H2 4050   4.719   0.107   5.286  0.1171 -0.6389  1.0266
 1365TIP3   OH2 4051   2.951   3.099   0.765  0.0766 -0.1203  0.2967
 1365TIP3    H1 4052   2.963   3.164   0.835 -0.1422  0.7363 -0.4551
 1365TIP3    H2 4053   3.020   3.034   0.781 -0.5619 -0.4616  1.8748
 1366TIP3   OH2 4054   0.601   0.764   2.335 -0.4644 -0.6349 -0.2772
 1366TIP3    H1 4055   0.650   0.787   2.256 -1.2248 -0.5748 -0.7457
 1366TIP3    H2 4056   0.644   0.813   2.405  1.6240 -2.3595 -0.2283
 1367TIP3   OH2 4057   4.367   6.471   2.595 -0.2275 -0.4104  0.2490
 1367TIP3    H1 4058   4.450   6.424   2.590  0.1593  0.4009 -1.4721
 1367TIP3    H2 4059   4.391   6.563   2.596 -1.0720 -0.1788  1.2695
 1368TIP3   OH2 4060   7.699   4.957   0.509 -0.6226 -0.2290  0.7259
 1368TIP3    H1 4061   7.648   4.916   0.439  0.2397 -0.4808  0.2376
 1368TIP3    H2 4062   7.699   5.050   0.487  1.0882 -0.4975 -0.5854
 1369TIP3   OH2 4063   2.315   4.325   4.807  0.8254 -0.3816  0.2530
 1369TIP3    H1 4064   2.273   4.239   4.809  0.2027 -0.0785  1.8074
 1369TIP3    H2 4065   2.314   4.350   4.714 -1.2282 -0.9651  0.0796
 1370TIP3   OH2 4066   7.946   1.244   6.366 -0.1290 -0.4928  0.1929
 1370TIP3    H1 4067   8.032   1.265   6.402 -0.2836  1.3629 -0.3910
 1370TIP3    H2 4068   7.900   1.200   6.437  1.7813 -2.9760  0.0194
 1371TIP3   OH2 4069   4.182   1.292   2.486 -0.1810  0.1214  0.0895
 1371TIP3    H1 4070   4.159   1.335   2.568 -0.7001  1.4297 -0.7103
 1371TIP3    H2 4071   4.098   1.268   2.446  0.0547 -0.2715 -0.1853
 1372TIP3   OH2 4072   3.137   4.094   1.149  0.0842  0.3144  0.0587
 1372TIP3    H1 4073   3.156   4.108   1.056 -1.1765 -0.2737 -0.2960
 1372TIP3    H2 4074   3.215   4.129   1.194  1.7080 -1.3563 -1.2935
 1373TIP3   OH2 4075   2.236   7.430   4.990 -0.0230 -0.4110  0.1343
 1373TIP3    H1 4076   2.276   7.497   4.935 -1.7329  0.6925  0.1664
 1373TIP3    H2 4077   2.279   7.348   4.964 -0.0217  0.2369 -2.0574
 1374TIP3   OH2 4078   5.331   4.623   0.610  0.4086 -0.1439 -0.5292
 1374TIP3    H1 4079   5.399   4.665   0.557  1.0511  1.4507  1.4326
 1374TIP3    H2 4080   5.257   4.684   0.606  0.9274  0.6685  1.3996
 1375TIP3   OH2 4081   7.627   4.497   2.620  0.2285  0.2942 -0.2859
 1375TIP3    H1 4082   7.553   4.462   2.570 -0.3364  2.2788 -0.9055
 1375TIP3    H2 4083   7.613   4.464   2.709  1.4264 -3.6009 -1.3340
 1376TIP3   OH2 4084   1.693   0.670   1.508 -0.6502  0.3723  0.6450
 1376TIP3    H1 4085   1.747   0.727   1.563  0.9796 -1.1163  0.6725
 1376TIP3    H2 4086   1.605   0.680   1.544 -0.0442  1.2347  2.0095
 1377TIP3   OH2 4087   7.507   6.830   4.723 -0.1520  0.0443 -0.0044
 1377TIP3    H1 4088   7.524   6.780   4.803  0.0057 -0.0161 -0.0745
 1377TIP3    H2 4089   7.424   6.796   4.690 -0.1163 -0.0729  0.0254
 1378TIP3   OH2 4090   0.746   0.412   2.423  0.3104  0.7646  0.5283
 1378TIP3    H1 4091   0.796   0.488   2.452  0.1578  0.7691  0.7836
 1378TIP3    H2 4092   0.658   0.426   2.459  0.5302 -0.0239  1.4357
 1379TIP3   OH2 4093   1.924   2.664   1.178 -0.1403 -0.8316  0.3124
 1379TIP3    H1 4094   1.831   2.673   1.199 -0.3537 -2.3024  0.1105
 1379TIP3    H2 4095   1.928   2.588   1.120  0.9084  0.6931 -1.7319
 1380TIP3   OH2 4096   5.880   2.726   3.052  0.6820 -0.6397  0.3318
 1380TIP3    H1 4097   5.790   2.743   3.025  0.7776 -3.2458 -2.0622
 1380TIP3    H2 4098   5.875   2.717   3.148 -1.2998  0.5458  0.3984
 1381TIP3   OH2 4099   3.640   2.792   4.056  0.0865  0.1967 -0.3050
 1381TIP3    H1 4100   3.622   2.885   4.069 -0.2899  0.0878 -0.0447
 1381TIP3    H2 4101   3.723   2.777   4.101  0.3854  0.5038 -0.7420
 1382TIP3   OH2 4102   0.188   3.804   2.227  0.0129  0.3579  0.8405
 1382TIP3    H1 4103   0.104   3.787   2.185 -0.3998  0.9818  1.3934
 1382TIP3    H2 4104   0.228   3.873   2.174  0.8921 -0.9996 -0.3435
 1383TIP3   OH2 4105   2.787   2.617   5.933  0.1116  0.2589  0.0109
 1383TIP3    H1 4106   2.761   2.530   5.964  1.5121 -0.5563 -1.0062
 1383TIP3    H2 4107   2.707   2.652   5.893 -0.6050 -0.3560  0.8602
 1384TIP3   OH2 4108   3.786   5.125   4.189 -0.0001  0.3142  0.3099
 1384TIP3    H1 4109   3.870   5.082   4.208 -1.1469 -1.6161  1.3425
 1384TIP3    H2 4110   3.806   5.186   4.118  2.2934  0.0222  0.6098
 1385TIP3   OH2 4111   2.385   1.182   5.185 -0.0980  0.0131 -0.5208
 1385TIP3    H1 4112   2.418   1.118   5.122 -0.3380 -0.0983 -0.5311
 1385TIP3    H2 4113   2.327   1.238   5.135 -0.8208 -0.4868 -0.2602
 1386TIP3   OH2 4114   1.019   6.395   6.059 -0.5931 -0.5776 -0.0406
 1386TIP3    H1 4115   1.004   6.362   5.970  0.4873 -1.1144 -0.0307
 1386TIP3    H2 4116   1.089   6.460   6.049  0.4826 -1.6070  0.5957
 1387TIP3   OH2 4117   7.908   6.202   5.472  0.2227 -0.3980  0.8310
 1387TIP3    H1 4118   7.929   6.264   5.403 -0.0713 -0.4198  0.7213
 1387TIP3    H2 4119   7.813   6.199   5.474  0.2343 -1.1918  0.5297
 1388TIP3   OH2 4120   1.672   6.241   2.480 -0.4387  0.4765 -0.5604
 1388TIP3    H1 4121   1.594   6.214   2.431 -1.6047 -0.8358  1.8182
 1388TIP3    H2 4122   1.745   6.227   2.420 -1.9194  0.9040 -2.5702
 1389TIP3   OH2 4123   1.123   2.708   5.210  0.0330 -0.0590 -0.1478
 1389TIP3    H1 4124   1.177   2.786   5.206  0.3322 -0.2913 -0.7679
 1389TIP3    H2 4125   1.069   2.711   5.131  0.9605 -1.1112 -0.8693
 1390TIP3   OH2 4126   3.362   7.144   5.199  0.4861 -0.1356  0.5372
 1390TIP3    H1 4127   3.274   7.109   5.211 -0.2505  1.2566 -0.5248
 1390TIP3    H2 4128   3.349   7.229   5.158  2.3387  0.0785  0.2962
 1391TIP3   OH2 4129   3.621   4.546   2.194 -0.4517  0.5227  0.0550
 1391TIP3    H1 4130   3.571   4.604   2.138  0.9304 -0.8806 -2.8829
 1391TIP3    H2 4131   3.572   4.463   2.193  1.1972 -0.5467 -2.0245
 1392TIP3   OH2 4132   3.738   6.584   1.317  0.5534  0.1402  0.1772
 1392TIP3    H1 4133   3.735   6.515   1.383  0.7597  2.0543  2.3073
 1392TIP3    H2 4134   3.828   6.586   1.287  0.6666 -0.1578  0.4961
 1393TIP3   OH2 4135   6.865   7.517   3.713 -0.2402 -0.3729 -0.1162
 1393TIP3    H1 4136   6.895   7.551   3.797 -0.9692 -0.6401  0.2510
 1393TIP3    H2 4137   6.771   7.502   3.724 -0.3412 -0.4309 -0.9666
 1394TIP3   OH2 4138   2.471   7.442   3.423 -0.1325  0.0353 -0.0231
 1394TIP3    H1 4139   2.496   7.500   3.495 -0.2505  0.2478 -0.1507
 1394TIP3    H2 4140   2.424   7.499   3.361  1.6005  0.2880 -1.1895
 1395TIP3   OH2 4141   4.263   0.645   2.534 -0.1541 -0.3116  0.1344
 1395TIP3    H1 4142   4.286   0.640   2.627 -2.3129 -1.5694  0.6789
 1395TIP3    H2 4143   4.340   0.683   2.492  0.6067  0.9946  2.5257
 1396TIP3   OH2 4144   0.836   3.540   1.799 -0.2895  0.0617  0.2197
 1396TIP3    H1 4145   0.812   3.629   1.776 -1.0199 -0.3957 -0.8741
 1396TIP3    H2 4146   0.789   3.485   1.736  0.1426 -1.0955  0.8680
 1397TIP3   OH2 4147   5.530   7.292   2.501  0.0451  0.2834 -0.0868
 1397TIP3    H1 4148   5.522   7.337   2.417 -1.2248 -0.4361 -0.3817
 1397TIP3    H2 4149   5.557   7.203   2.478  1.0444  0.4481  0.3834
 1398TIP3   OH2 4150   3.504   2.628   0.692 -0.2648 -0.2718 -0.0292
 1398TIP3    H1 4151   3.468   2.667   0.771  0.6590  0.8648 -0.1376
 1398TIP3    H2 4152   3.454   2.667   0.621  1.0282  1.2683 -0.1764
 1399TIP3   OH2 4153   1.374   2.705   4.393 -0.1534  0.0257 -0.0586
 1399TIP3    H1 4154   1.279   2.693   4.395 -0.0665 -0.7608  2.4116
 1399TIP3    H2 4155   1.386   2.795   4.361 -1.6783 -0.0592 -0.9585
 1400TIP3   OH2 4156   5.743   6.924   5.547 -0.6433 -0.6656  0.9025
 1400TIP3    H1 4157   5.816   6.903   5.489 -1.6048 -2.5691  0.2912
 1400TIP3    H2 4158   5.764   7.011   5.582  1.2651 -0.6202 -0.2191
 1401TIP3   OH2 4159   0.181   5.749   3.236 -0.3992  0.1827 -0.3843
 1401TIP3    H1 4160   0.181   5.845   3.241 -2.6272  0.3584 -2.0713
 1401TIP3    H2 4161   0.114   5.729   3.171 -0.0324 -2.5523 -0.0217
 1402TIP3   OH2 4162   2.866   1.137   3.897 -0.1156 -0.1162  0.1683
 1402TIP3    H1 4163   2.940   1.182   3.855  0.2999 -0.4920  0.4938
 1402TIP3    H2 4164   2.903   1.057   3.933 -0.8489 -0.7080 -0.3680
 1403TIP3   OH2 4165   7.616   3.906   6.240 -0.8313 -0.3332 -0.0746
 1403TIP3    H1 4166   7.580   3.867   6.319 -0.0207 -1.0289 -0.0396
 1403TIP3    H2 4167   7.590   3.848   6.170  2.1124 -2.2033  0.2082
 1404TIP3   OH2 4168   0.873   4.040   1.332  0.7099 -0.5320  0.5691
 1404TIP3    H1 4169   0.932   4.112   1.311  0.8319 -1.2447 -1.8227
 1404TIP3    H2 4170   0.841   4.009   1.247 -1.4246 -1.5807  1.6738
 1405TIP3   OH2 4171   3.518   7.207   4.567  0.1556 -0.5917  0.0249
 1405TIP3    H1 4172   3.444   7.244   4.520  0.3637 -0.3114 -0.0884
 1405TIP3    H2 4173   3.567   7.283   4.599  1.3129 -0.7026 -1.3386
 1406TIP3   OH2 4174   1.779   4.513   5.150 -0.1993  0.8585  0.4148
 1406TIP3    H1 4175   1.802   4.560   5.231 -2.7762 -0.1556  1.8647
 1406TIP3    H2 4176   1.828   4.431   5.156 -1.3057  0.2419  1.6555
 1407TIP3   OH2 4177   2.037   5.817   3.925 -0.3115 -0.5241 -0.1735
 1407TIP3    H1 4178   2.087   5.789   4.002 -1.1722  0.1075  0.6386
 1407TIP3    H2 4179   2.000   5.736   3.890  1.0644 -0.9737 -0.6565
 1408TIP3   OH2 4180   7.599   5.786   1.578  0.0801  0.6251 -0.4250
 1408TIP3    H1 4181   7.539   5.789   1.504 -0.2636 -2.2853 -0.3788
 1408TIP3    H2 4182   7.684   5.767   1.540 -0.1693 -1.2888 -0.1257
 1409TIP3   OH2 4183   1.377   3.244   5.964 -0.2140 -0.1999  0.0413
 1409TIP3    H1 4184   1.375   3.173   6.027  1.5525 -2.2122 -2.0244
 1409TIP3    H2 4185   1.444   3.304   5.996 -1.1050  0.1639  1.3263
 1410TIP3   OH2 4186   7.784   6.849   4.848 -0.4058 -0.0821 -0.2228
 1410TIP3    H1 4187   7.752   6.860   4.937 -1.7803 -0.4694 -0.6389
 1410TIP3    H2 4188   7.713   6.882   4.793  0.5032  0.3506 -1.1799
 1411TIP3   OH2 4189   6.044   0.122   4.521 -0.0666  0.3535  0.0680
 1411TIP3    H1 4190   6.038   0.198   4.579  0.6131  0.1088  0.4600
 1411TIP3    H2 4191   5.960   0.122   4.474 -1.1806 -0.1595  1.9301
 1412TIP3   OH2 4192   7.116   1.387   0.202 -0.0811 -0.1426 -0.3746
 1412TIP3    H1 4193   7.135   1.296   0.222 -0.6055 -0.0218  0.7870
 1412TIP3    H2 4194   7.021   1.390   0.190 -0.0040  0.1570 -0.9656
 1413TIP3   OH2 4195   6.209   4.921   6.707  0.1029  0.1445  0.0290
 1413TIP3    H1 4196   6.148   4.849   6.728  0.4978 -0.1072  0.3222
 1413TIP3    H2 4197   6.257   4.890   6.630  0.9347 -0.3159  0.7165
 1414TIP3   OH2 4198   3.860   6.847   5.499 -0.1944  0.5721 -0.2840
 1414TIP3    H1 4199   3.838   6.804   5.582 -1.7050  1.6110 -0.0938
 1414TIP3    H2 4200   3.937   6.899   5.519 -0.0128  0.1197  0.2265
 1415TIP3   OH2 4201   7.696   3.410   3.323  0.0150  0.1952  0.0680
 1415TIP3    H1 4202   7.684   3.489   3.269 -0.9777 -0.8064 -1.2493
 1415TIP3    H2 4203   7.633   3.420   3.394  0.5677  1.0239  0.4584
 1416TIP3   OH2 4204   2.679   7.731   4.639  0.3753  0.5109 -0.1309
 1416TIP3    H1 4205   2.616   7.803   4.630 -0.8508 -0.5100 -0.0540
 1416TIP3    H2 4206   2.645   7.678   4.711  0.8344 -0.5517 -0.6672
 1417TIP3   OH2 4207   4.057   6.835   1.776 -0.1684 -0.3757 -0.0203
 1417TIP3    H1 4208   4.108   6.916   1.770  0.2103 -0.4968  1.2737
 1417TIP3    H2 4209   4.046   6.806   1.685  1.5935 -0.0598 -0.3573
 1418TIP3   OH2 4210   1.960   0.314   1.384  0.2872  0.9206 -0.2686
 1418TIP3    H1 4211   1.993   0.231   1.419  1.6437  1.9823  1.1218
 1418TIP3    H2 4212   1.963   0.302   1.289  1.5436 -0.2403 -0.1284
 1419TIP3   OH2 4213   3.860   4.455   5.706 -0.5037  0.0423  0.2024
 1419TIP3    H1 4214   3.771   4.474   5.678 -0.0010  1.5745 -0.4412
 1419TIP3    H2 4215   3.915   4.513   5.654  0.8374 -0.4959  0.9612
 1420TIP3   OH2 4216   1.498   0.610   5.139  0.2310 -0.3383  0.1903
 1420TIP3    H1 4217   1.549   0.593   5.219 -0.1242 -0.1653  0.4560
 1420TIP3    H2 4218   1.408   0.591   5.164 -0.0704  1.0772  0.2483
 1421TIP3   OH2 4219   4.944   6.688   4.350 -0.5339 -0.7887 -0.4651
 1421TIP3    H1 4220   4.892   6.670   4.272 -1.9745 -1.4179  0.5766
 1421TIP3    H2 4221   4.994   6.766   4.329 -2.9692  0.7155 -1.0987
 1422TIP3   OH2 4222   7.070   1.962   2.096 -0.0838 -0.1679 -0.2908
 1422TIP3    H1 4223   6.982   1.971   2.059 -0.5489  0.2060  0.8829
 1422TIP3    H2 4224   7.070   2.019   2.172  1.2265 -0.0664 -0.3444
 1423TIP3   OH2 4225   2.854   4.538   3.643  0.0622 -0.1424  0.3045
 1423TIP3    H1 4226   2.906   4.618   3.644  0.9312 -0.6947  0.2917
 1423TIP3    H2 4227   2.889   4.487   3.570  0.4437 -1.1178  1.1336
 1424TIP3   OH2 4228   5.096   3.217   2.147  0.0098  0.2646 -0.1347
 1424TIP3    H1 4229   5.087   3.184   2.237 -1.4984 -1.2744 -0.7886
 1424TIP3    H2 4230   5.039   3.294   2.143 -0.2798  0.0674  0.1231
 1425TIP3   OH2 4231   2.380   1.031   6.116  0.6954  0.2968 -0.3468
 1425TIP3    H1 4232   2.447   1.100   6.114 -0.5527  1.6118  0.8790
 1425TIP3    H2 4233   2.418   0.963   6.173  0.2133  1.9875  2.1594
 1426TIP3   OH2 4234   1.259   0.588   0.381  0.3418  0.2589  0.4358
 1426TIP3    H1 4235   1.210   0.645   0.322  0.6254  1.5065  1.3593
 1426TIP3    H2 4236   1.202   0.514   0.397 -0.8557  1.2163  0.7212
 1427TIP3   OH2 4237   0.801   6.823   0.208 -0.6731  0.1984  0.1630
 1427TIP3    H1 4238   0.849   6.798   0.129 -0.6094 -1.2066  0.6177
 1427TIP3    H2 4239   0.709   6.822   0.182 -0.6444 -0.1158  0.0758
 1428TIP3   OH2 4240   0.330   3.479   3.291  0.2085 -0.4364  0.3221
 1428TIP3    H1 4241   0.327   3.483   3.196  1.4911 -0.4010  0.2602
 1428TIP3    H2 4242   0.417   3.514   3.313 -0.4068  0.3996  1.5511
 1429TIP3   OH2 4243   2.736   0.821   1.185 -0.9129  0.1694  0.6227
 1429TIP3    H1 4244   2.671   0.752   1.171 -0.3217 -0.0327 -1.5934
 1429TIP3    H2 4245   2.819   0.775   1.197 -0.8947  0.4650  1.7594
 1430TIP3   OH2 4246   6.315   1.267   5.311  0.0956 -0.3297 -0.0579
 1430TIP3    H1 4247   6.324   1.205   5.238 -1.6098  0.1661 -0.7553
 1430TIP3    H2 4248   6.271   1.216   5.379  1.9247 -0.8674  0.7672
 1431TIP3   OH2 4249   6.785   5.088   1.432  0.6649 -0.2561  0.5403
 1431TIP3    H1 4250   6.878   5.078   1.413  0.3447 -0.8792 -0.7567
 1431TIP3    H2 4251   6.744   5.012   1.392 -0.1419 -1.4229  3.3165
 1432TIP3   OH2 4252   3.196   6.776   4.108 -0.1678 -0.5709  0.2694
 1432TIP3    H1 4253   3.255   6.752   4.037 -1.4146 -2.2759 -0.2659
 1432TIP3    H2 4254   3.125   6.823   4.064 -0.4498 -0.7509  0.5307
 1433TIP3   OH2 4255   7.109   1.484   3.314 -0.1798  0.1173  0.2546
 1433TIP3    H1 4256   7.069   1.453   3.232 -0.9759  1.0610  0.2706
 1433TIP3    H2 4257   7.170   1.552   3.287  0.2685 -0.2362  0.3695
 1434TIP3   OH2 4258   4.399   1.607   3.534 -0.4152  0.3211  0.5255
 1434TIP3    H1 4259   4.457   1.682   3.520  0.7802 -0.4329  1.2964
 1434TIP3    H2 4260   4.393   1.598   3.629 -3.1595  1.3709  0.5369
 1435TIP3   OH2 4261   5.516   1.771   2.849 -0.2961 -0.1290 -0.5013
 1435TIP3    H1 4262   5.554   1.699   2.899  0.0143  1.6440  1.9907
 1435TIP3    H2 4263   5.423   1.767   2.871 -0.1537  0.6703  0.3074
 1436TIP3   OH2 4264   6.667   1.583   2.088 -0.1275 -0.4519  0.0673
 1436TIP3    H1 4265   6.745   1.621   2.129 -0.1688 -0.5310  0.2186
 1436TIP3    H2 4266   6.601   1.585   2.157 -0.2745 -0.3383 -0.0758
 1437TIP3   OH2 4267   5.628   3.209   1.638  0.1750  0.3632 -0.3396
 1437TIP3    H1 4268   5.611   3.299   1.611  0.2977 -0.0979 -2.0683
 1437TIP3    H2 4269   5.573   3.196   1.715  1.2590  2.3570  0.8664
 1438TIP3   OH2 4270   4.906   3.441   1.449 -0.0515  0.1894  0.1594
 1438TIP3    H1 4271   4.943   3.354   1.460 -1.0704 -0.1554  0.9262
 1438TIP3    H2 4272   4.983   3.499   1.445  0.6073 -0.6101  0.8234
 1439TIP3   OH2 4273   7.106   4.540   1.366 -0.2182  0.0816  0.0937
 1439TIP3    H1 4274   7.188   4.558   1.322 -0.7402  0.1651 -0.8669
 1439TIP3    H2 4275   7.130   4.483   1.439  0.5530 -0.8356 -0.8488
 1440TIP3   OH2 4276   7.570   3.310   2.864  0.3731  0.1388  0.3728
 1440TIP3    H1 4277   7.615   3.257   2.929  0.1718  0.6067  0.8947
 1440TIP3    H2 4278   7.478   3.284   2.870  0.3785  0.0629  0.1558
 1441TIP3   OH2 4279   2.664   6.255   4.075 -0.2306 -0.0139 -0.1392
 1441TIP3    H1 4280   2.678   6.292   3.988 -1.4506 -0.7025 -0.6555
 1441TIP3    H2 4281   2.570   6.263   4.089 -0.5363 -2.6989 -0.2085
 1442TIP3   OH2 4282   5.812   6.303   2.512 -0.2941  0.3471 -0.4094
 1442TIP3    H1 4283   5.832   6.254   2.432  3.0891  1.4460 -0.3876
 1442TIP3    H2 4284   5.843   6.391   2.495 -3.7109  1.9143  0.5791
 1443TIP3   OH2 4285   3.540   0.663   4.761 -0.7765 -0.2915  0.2505
 1443TIP3    H1 4286   3.549   0.744   4.710 -0.3012 -0.5405 -0.0668
 1443TIP3    H2 4287   3.620   0.614   4.743 -0.7803 -0.5581  0.9382
 1444TIP3   OH2 4288   3.613   0.777   2.784 -0.2026 -0.2549  0.7476
 1444TIP3    H1 4289   3.691   0.807   2.830 -0.1830  1.5290 -0.3701
 1444TIP3    H2 4290   3.643   0.700   2.735  1.2067  1.0867 -0.5997
 1445TIP3   OH2 4291   2.514   5.363   5.889  0.2543 -0.0670 -0.0608
 1445TIP3    H1 4292   2.487   5.439   5.940 -0.3515 -0.1356 -0.2758
 1445TIP3    H2 4293   2.607   5.352   5.909  0.0395 -0.0570  0.9682
 1446TIP3   OH2 4294   8.084   1.680   3.726  0.5378  0.0515 -0.2937
 1446TIP3    H1 4295   8.163   1.715   3.767 -0.4887  0.5635  1.3647
 1446TIP3    H2 4296   8.068   1.738   3.652  0.7549  1.0520  0.4093
 1447TIP3   OH2 4297   3.561   1.956   4.278  0.1518  0.6219  0.1775
 1447TIP3    H1 4298   3.471   1.925   4.269 -0.2868  1.8206  0.1935
 1447TIP3    H2 4299   3.607   1.886   4.323 -0.2677 -0.8783 -1.5919
 1448TIP3   OH2 4300   6.809   5.883   4.227  0.5245  0.4473 -0.4704
 1448TIP3    H1 4301   6.865   5.826   4.174 -0.6106  0.4321 -1.7057
 1448TIP3    H2 4302   6.829   5.860   4.318  0.5518 -1.4696 -0.9322
 1449TIP3   OH2 4303   1.414   2.358   4.918 -0.4680 -0.6817  0.3493
 1449TIP3    H1 4304   1.494   2.374   4.868 -0.0492 -0.9155  0.9319
 1449TIP3    H2 4305   1.378   2.446   4.932 -0.8274 -0.6464 -0.7281
 1450TIP3   OH2 4306   6.155   5.274   4.179 -0.2349 -0.6618  0.5589
 1450TIP3    H1 4307   6.196   5.200   4.224  0.6819  0.0393  0.9082
 1450TIP3    H2 4308   6.183   5.351   4.229 -3.5556 -0.2375  2.0345
 1451TIP3   OH2 4309   7.754   3.601   5.105  0.1832  0.2906  0.5575
 1451TIP3    H1 4310   7.713   3.662   5.044 -0.7851  0.3738  1.2689
 1451TIP3    H2 4311   7.682   3.545   5.135  0.5678  0.4955  1.9172
 1452TIP3   OH2 4312   6.612   2.870   1.146  0.2941 -0.3989  0.0833
 1452TIP3    H1 4313   6.546   2.886   1.214 -0.4962 -0.8181 -0.5541
 1452TIP3    H2 4314   6.682   2.823   1.191 -0.0837 -0.4117  0.6760
 1453TIP3   OH2 4315   3.518   1.427   5.988 -0.8609 -0.1088 -0.0643
 1453TIP3    H1 4316   3.559   1.393   5.908  1.3254  1.7092  0.1714
 1453TIP3    H2 4317   3.531   1.522   5.982  0.0629  0.0397  2.7740
 1454TIP3   OH2 4318   2.381   0.416   5.930  0.0034 -0.4299  0.5917
 1454TIP3    H1 4319   2.385   0.333   5.978 -0.7550 -0.5503  0.4694
 1454TIP3    H2 4320   2.393   0.391   5.839 -2.7806 -0.8023  0.2153
 1455TIP3   OH2 4321   6.047   1.587   2.942  0.2388  0.9478  0.1094
 1455TIP3    H1 4322   6.019   1.627   3.024  0.5404  0.8425  0.2658
 1455TIP3    H2 4323   5.977   1.525   2.920  0.8103 -0.0327  1.0105
 1456TIP3   OH2 4324   3.230   4.616   5.342  0.6896 -0.0036  0.4409
 1456TIP3    H1 4325   3.193   4.546   5.289 -0.2919  2.1360 -1.9097
 1456TIP3    H2 4326   3.174   4.620   5.420  0.1470 -1.1272  0.1275
 1457TIP3   OH2 4327   7.454   0.398   4.186  0.1546 -0.1091 -0.1811
 1457TIP3    H1 4328   7.509   0.393   4.264 -0.6519  2.6637  0.6897
 1457TIP3    H2 4329   7.497   0.463   4.131  0.8483 -2.2179 -2.2563
 1458TIP3   OH2 4330   6.828   3.088   2.940  0.0172 -0.1940  0.4141
 1458TIP3    H1 4331   6.837   3.176   2.975  0.7408  0.2855 -0.9282
 1458TIP3    H2 4332   6.734   3.080   2.920 -0.1129  0.1348  0.8909
 1459TIP3   OH2 4333   7.675   0.525   5.647 -0.5987  0.2239 -0.4321
 1459TIP3    H1 4334   7.657   0.494   5.736 -2.0814  0.5071 -0.6082
 1459TIP3    H2 4335   7.632   0.461   5.590  0.3410  0.0432 -0.9627
 1460TIP3   OH2 4336   1.769   5.071   0.818  0.4746  0.1338  0.2524
 1460TIP3    H1 4337   1.699   5.111   0.870  1.6552  1.3659  0.9737
 1460TIP3    H2 4338   1.760   5.110   0.731  1.4769  1.9458  0.8874
 1461TIP3   OH2 4339   2.261   4.070   3.742  0.0699  0.5947 -0.4730
 1461TIP3    H1 4340   2.217   4.003   3.690 -1.0372 -1.7083  3.0145
 1461TIP3    H2 4341   2.354   4.057   3.724 -0.2511 -0.3841 -1.5425
 1462TIP3   OH2 4342   1.041   5.951   1.396  0.1641  0.2922  0.1832
 1462TIP3    H1 4343   1.029   5.928   1.488  1.1055 -0.7434  0.0652
 1462TIP3    H2 4344   1.124   5.999   1.394 -1.2483  2.9081  0.2627
 1463TIP3   OH2 4345   7.677   2.686   3.035  0.0311 -0.7828  0.3362
 1463TIP3    H1 4346   7.597   2.720   2.993  0.3741  0.2248  0.4537
 1463TIP3    H2 4347   7.665   2.591   3.036 -1.5182 -0.6198  1.0382
 1464TIP3   OH2 4348   5.897   5.155   5.749  0.4818 -0.3851  0.1756
 1464TIP3    H1 4349   5.802   5.164   5.759  0.3551  0.0037 -1.2545
 1464TIP3    H2 4350   5.924   5.106   5.827 -0.9284 -0.7990  0.4382
 1465TIP3   OH2 4351   2.798   2.623   5.211  0.1485  0.1762 -0.0261
 1465TIP3    H1 4352   2.834   2.710   5.193  1.1329  0.2403  1.9268
 1465TIP3    H2 4353   2.723   2.616   5.153  0.9182  1.7210 -1.3057
 1466TIP3   OH2 4354   3.051   7.755   5.420 -0.0554  0.7905  0.2677
 1466TIP3    H1 4355   3.107   7.831   5.431  0.9683 -0.1824  2.4511
 1466TIP3    H2 4356   3.047   7.715   5.507  1.5055 -3.0212 -1.1711
 1467TIP3   OH2 4357   1.040   2.732   2.503  0.0427  0.5505  0.3363
 1467TIP3    H1 4358   1.017   2.639   2.499 -1.6044  0.9081  0.5348
 1467TIP3    H2 4359   1.121   2.735   2.553 -0.1243 -0.7407  0.7255
 1468TIP3   OH2 4360   8.318   1.135   4.766 -0.4332  0.2352  0.7605
 1468TIP3    H1 4361   8.323   1.197   4.694 -0.9070 -1.1184 -0.4953
 1468TIP3    H2 4362   8.224   1.121   4.780 -0.3387 -0.1737  1.0271
 1469TIP3   OH2 4363   5.402   2.207   6.241 -0.4445 -0.3525  0.2188
 1469TIP3    H1 4364   5.462   2.219   6.168  0.1334 -1.9295  0.3880
 1469TIP3    H2 4365   5.315   2.220   6.203 -0.0594  2.3202  0.0523
 1470TIP3   OH2 4366   1.316   1.477   1.158  0.1511  0.3405  0.0503
 1470TIP3    H1 4367   1.253   1.549   1.148 -0.1361  0.0045 -0.5953
 1470TIP3    H2 4368   1.311   1.429   1.076 -1.4274 -1.8389  1.3369
 1471TIP3   OH2 4369   3.096   1.019   1.436 -0.3442  0.2784  0.0617
 1471TIP3    H1 4370   3.165   0.997   1.498 -1.1114 -0.1384  0.7870
 1471TIP3    H2 4371   3.143   1.045   1.357  0.6828  1.2913  0.9459
 1472TIP3   OH2 4372   8.305   3.388   2.441  0.5503  0.1001  0.6955
 1472TIP3    H1 4373   8.239   3.359   2.378 -0.1144  0.4798  1.2047
 1472TIP3    H2 4374   8.389   3.365   2.401  0.1059 -0.4396  0.0666
 1473TIP3   OH2 4375   3.972   2.844   6.017  0.0804  0.0009 -0.0546
 1473TIP3    H1 4376   3.892   2.845   5.964  0.8002  0.6574 -1.1800
 1473TIP3    H2 4377   4.004   2.753   6.011  1.2016  0.4641 -2.4740
 1474TIP3   OH2 4378   8.175   4.376   0.738  0.0227  0.2420  0.0892
 1474TIP3    H1 4379   8.167   4.465   0.705 -0.5790  0.9353  1.9613
 1474TIP3    H2 4380   8.199   4.387   0.830 -0.2935 -1.5186  0.4122
 1475TIP3   OH2 4381   5.007   6.561   1.196  0.3639 -0.4736  0.0469
 1475TIP3    H1 4382   4.923   6.553   1.151 -0.2020 -1.2337  1.1848
 1475TIP3    H2 4383   4.990   6.619   1.269  0.7186 -0.9524  0.5204
 1476TIP3   OH2 4384   2.860   4.687   4.238  0.6573 -0.3912  0.9679
 1476TIP3    H1 4385   2.909   4.712   4.159 -0.7381 -0.1764  0.1194
 1476TIP3    H2 4386   2.774   4.663   4.204 -0.0476 -0.0481  2.4798
 1477TIP3   OH2 4387   3.545   4.938   3.767  0.5917 -0.0761 -0.2854
 1477TIP3    H1 4388   3.575   5.023   3.800 -0.3532  0.7986 -1.5750
 1477TIP3    H2 4389   3.449   4.947   3.762  0.4639 -1.2714 -0.3050
 1478TIP3   OH2 4390   5.282   5.387   2.043  0.2268  0.2501 -0.4362
 1478TIP3    H1 4391   5.277   5.320   1.976  0.5964  0.1310 -0.3470
 1478TIP3    H2 4392   5.374   5.387   2.071 -0.1522 -0.5689  0.9398
 1479TIP3   OH2 4393   3.802   2.440   3.035  0.2182  0.8606 -0.0536
 1479TIP3    H1 4394   3.861   2.476   2.968  0.2521 -0.3222 -0.6886
 1479TIP3    H2 4395   3.851   2.366   3.072  0.3864  1.7577  1.6212
 1480TIP3   OH2 4396   7.684   7.442   3.420 -0.6195 -0.0714 -0.0236
 1480TIP3    H1 4397   7.623   7.515   3.412 -0.0794  0.4745  0.7446
 1480TIP3    H2 4398   7.722   7.433   3.332 -0.0183  1.1690  0.0854
 1481TIP3   OH2 4399   1.647   7.100   1.533 -0.3894 -0.2946  0.4688
 1481TIP3    H1 4400   1.685   7.182   1.500  1.2569 -1.8733 -1.8880
 1481TIP3    H2 4401   1.671   7.098   1.625  2.0071  0.6405 -0.0541
 1482TIP3   OH2 4402   4.189   3.036   4.699  0.6933 -0.4648 -0.3889
 1482TIP3    H1 4403   4.206   2.942   4.703  1.5934 -0.3746 -1.5528
 1482TIP3    H2 4404   4.238   3.066   4.623  0.3902  0.9503 -0.0575
 1483TIP3   OH2 4405   7.744   0.991   6.296  0.3378  0.1990  0.2052
 1483TIP3    H1 4406   7.782   0.973   6.211  2.1105 -0.1363  1.0303
 1483TIP3    H2 4407   7.792   0.936   6.357 -1.5005 -0.2606  1.3409
 1484TIP3   OH2 4408   7.274   5.672   1.424  0.1092 -0.3884 -0.1270
 1484TIP3    H1 4409   7.201   5.671   1.363 -0.4851  1.7385  0.4772
 1484TIP3    H2 4410   7.245   5.728   1.496  1.5997 -1.0965  1.0822
 1485TIP3   OH2 4411   8.268   5.276   4.936 -0.2722 -0.2241 -0.3908
 1485TIP3    H1 4412   8.361   5.276   4.956 -0.0401  0.6002 -1.3513
 1485TIP3    H2 4413   8.238   5.364   4.962 -0.7260 -0.3998 -0.3116
 1486TIP3   OH2 4414   2.097   5.079   2.170  0.1086 -0.2399 -0.3602
 1486TIP3    H1 4415   2.014   5.093   2.124  0.8359 -0.7623 -1.8917
 1486TIP3    H2 4416   2.075   5.091   2.263 -1.8923 -1.3496 -0.6345
 1487TIP3   OH2 4417   5.161   5.614   5.431 -0.6916 -0.3595 -0.2466
 1487TIP3    H1 4418   5.113   5.638   5.351 -1.2795 -0.9111 -0.0770
 1487TIP3    H2 4419   5.154   5.518   5.434 -2.0927 -0.2575  1.3144
 1488TIP3   OH2 4420   6.905   1.163   4.818 -0.1606  0.0830 -0.3339
 1488TIP3    H1 4421   6.930   1.171   4.726  3.7236 -1.5568  0.3465
 1488TIP3    H2 4422   6.970   1.215   4.865 -2.9697  2.1642  1.5490
 1489TIP3   OH2 4423   0.642   3.480   2.590  0.4223  0.2960 -0.5339
 1489TIP3    H1 4424   0.591   3.449   2.515  1.0180 -0.1518 -0.7652
 1489TIP3    H2 4425   0.618   3.420   2.661  0.6564  0.0568 -0.6549
 1490TIP3   OH2 4426   6.186   6.606   3.952  0.4067 -0.6548 -0.2778
 1490TIP3    H1 4427   6.232   6.598   4.035  0.7261 -1.4883 -0.5283
 1490TIP3    H2 4428   6.153   6.518   3.934 -1.9058  0.0170  0.2400
 1491TIP3   OH2 4429   0.308   3.075   0.064 -0.6521  0.5655  0.3501
 1491TIP3    H1 4430   0.350   3.156   0.034 -0.8387  1.2390  1.8002
 1491TIP3    H2 4431   0.283   3.029  -0.016  1.7935  0.6814 -0.5482
 1492TIP3   OH2 4432   0.419   6.380   2.741 -0.3173  0.0859 -0.7498
 1492TIP3    H1 4433   0.388   6.334   2.663 -2.0929  0.5938 -0.4034
 1492TIP3    H2 4434   0.365   6.344   2.812  1.0848 -0.1844  0.2181
 1493TIP3   OH2 4435   7.260   7.135   0.695 -0.0418 -0.0341 -0.2082
 1493TIP3    H1 4436   7.219   7.057   0.657 -0.5764  0.2241 -0.1696
 1493TIP3    H2 4437   7.192   7.173   0.751 -0.1985  1.1041 -1.1264
 1494TIP3   OH2 4438   0.220   1.973   5.606  0.0656  0.6359 -0.6703
 1494TIP3    H1 4439   0.218   1.878   5.615  0.5808  0.6891  0.0871
 1494TIP3    H2 4440   0.282   2.002   5.672  1.1472  1.3786 -1.9565
 1495TIP3   OH2 4441   0.727   3.756   3.890  0.0835  0.0029 -0.0587
 1495TIP3    H1 4442   0.775   3.799   3.961  2.6132  0.7293 -2.1058
 1495TIP3    H2 4443   0.747   3.663   3.900  0.9162  0.1682 -0.1608
 1496TIP3   OH2 4444   0.867   0.469   5.385  0.1282 -0.1396  0.0371
 1496TIP3    H1 4445   0.774   0.492   5.387  0.6111  2.1498 -0.9074
 1496TIP3    H2 4446   0.884   0.448   5.293  1.0246  1.8957 -0.3080
 1497TIP3   OH2 4447   7.413   1.601   1.812  0.0183  0.2449  0.3532
 1497TIP3    H1 4448   7.469   1.605   1.889  0.7041  0.2981 -0.1342
 1497TIP3    H2 4449   7.468   1.562   1.744 -0.0348  1.6168 -0.5375
 1498TIP3   OH2 4450   6.028   7.779   5.872 -0.1194  0.0813  0.6798
 1498TIP3    H1 4451   5.953   7.832   5.847 -0.0876 -0.2277 -0.0920
 1498TIP3    H2 4452   6.095   7.842   5.897 -0.2633  0.3894  0.2950
 1499TIP3   OH2 4453   3.157   5.785   1.811 -0.0195 -0.0523  0.2398
 1499TIP3    H1 4454   3.183   5.727   1.739 -0.0190 -1.3712  1.2549
 1499TIP3    H2 4455   3.201   5.868   1.792  0.8477 -0.6999 -0.7193
 1500TIP3   OH2 4456   5.542   2.216   2.924 -0.4434 -0.3198 -0.0178
 1500TIP3    H1 4457   5.597   2.138   2.926 -0.4756 -0.4007 -1.3692
 1500TIP3    H2 4458   5.599   2.286   2.956 -0.6720 -1.0046  2.0329
 1501TIP3   OH2 4459   5.292   1.025   1.513 -0.5951 -0.1121 -0.4327
 1501TIP3    H1 4460   5.251   1.109   1.531  1.7080  0.7524  1.2990
 1501TIP3    H2 4461   5.333   1.036   1.427  0.1085  0.7457 -0.0012
 1502TIP3   OH2 4462   6.891   1.603   3.482  0.2538  0.1879 -0.8674
 1502TIP3    H1 4463   6.814   1.554   3.452  0.3489 -0.9329  0.5654
 1502TIP3    H2 4464   6.964   1.542   3.471  0.8521  1.0194 -1.6245
 1503TIP3   OH2 4465   3.653   1.838   1.379  0.2439  0.3748 -0.0725
 1503TIP3    H1 4466   3.648   1.933   1.369 -0.6613  0.2465 -1.1700
 1503TIP3    H2 4467   3.745   1.816   1.367  0.4175  1.0987 -0.0570
 1504TIP3   OH2 4468   6.348   0.549   4.628  0.1339 -0.6663 -0.3148
 1504TIP3    H1 4469   6.410   0.538   4.556  0.8405  0.6116  0.0661
 1504TIP3    H2 4470   6.389   0.506   4.703 -0.2635 -1.3482 -0.4763
 1505TIP3   OH2 4471   2.481   4.563   5.916 -0.1928 -0.6123  0.8786
 1505TIP3    H1 4472   2.495   4.634   5.979 -3.2832  1.1080 -0.2067
 1505TIP3    H2 4473   2.457   4.488   5.970  0.2039 -0.0395  1.8863
 1506TIP3   OH2 4474   6.172   5.016   3.443 -0.2820 -0.2805  0.2939
 1506TIP3    H1 4475   6.202   5.097   3.486 -1.0713 -0.7338  1.7765
 1506TIP3    H2 4476   6.216   4.946   3.491  0.6016 -0.7647 -1.1485
 1507TIP3   OH2 4477   1.817   5.406   1.566 -0.0026 -0.1942  0.2323
 1507TIP3    H1 4478   1.751   5.339   1.549  0.6247 -0.4292 -1.4286
 1507TIP3    H2 4479   1.899   5.368   1.534  0.5290  0.9944  0.1222
 1508TIP3   OH2 4480   7.007   0.152   4.007 -0.8880 -0.1408  0.0280
 1508TIP3    H1 4481   7.048   0.228   4.048 -0.3451 -0.3035 -0.2110
 1508TIP3    H2 4482   6.913   0.173   4.007 -0.8299  0.1303  0.7730
 1509TIP3   OH2 4483   5.267   5.904   1.472 -0.0849 -0.3336  0.0653
 1509TIP3    H1 4484   5.326   5.975   1.495  0.4043 -1.5534  3.0285
 1509TIP3    H2 4485   5.179   5.938   1.492 -0.0017  0.0482 -0.2296
 1510TIP3   OH2 4486   7.427   1.309   1.757  0.0543 -0.5188 -0.1001
 1510TIP3    H1 4487   7.336   1.336   1.771  0.4962  1.1479 -0.1426
 1510TIP3    H2 4488   7.424   1.214   1.753 -2.0071 -0.4450 -2.3344
 1511TIP3   OH2 4489   3.332   2.974   3.115  0.0868 -0.8117 -0.0029
 1511TIP3    H1 4490   3.354   2.905   3.052 -0.1624 -0.6435 -0.2801
 1511TIP3    H2 4491   3.416   3.001   3.152  0.3434 -0.2716 -0.9499
 1512TIP3   OH2 4492   7.886   2.475   6.567  0.2384 -0.5386 -0.5254
 1512TIP3    H1 4493   7.898   2.406   6.502 -0.1126  0.2800 -1.4833
 1512TIP3    H2 4494   7.922   2.554   6.526 -0.0675  0.0112  0.2278
 1513TIP3   OH2 4495   5.318   5.682   1.940  0.4912 -0.2373  0.5778
 1513TIP3    H1 4496   5.240   5.714   1.896  1.1120  1.3465  0.5481
 1513TIP3    H2 4497   5.293   5.677   2.033  0.3216  0.1814  0.5583
 1514TIP3   OH2 4498   7.759   1.987   5.589  0.1309 -0.5133 -0.1449
 1514TIP3    H1 4499   7.678   1.937   5.590 -0.7348  0.8261  0.3647
 1514TIP3    H2 4500   7.800   1.966   5.505  0.6244 -3.2558  0.6715
 1515TIP3   OH2 4501   4.577   0.380   2.813  0.3925 -0.3220 -0.2020
 1515TIP3    H1 4502   4.527   0.381   2.732 -0.4547  3.1614  0.2097
 1515TIP3    H2 4503   4.514   0.358   2.881  0.1349  0.8520 -0.0496
 1516TIP3   OH2 4504   1.698   5.853   4.919  0.0575  0.4185 -0.1998
 1516TIP3    H1 4505   1.612   5.811   4.911  0.0252  0.6907 -1.4060
 1516TIP3    H2 4506   1.739   5.808   4.993 -0.7260 -0.4023 -0.2417
 1517TIP3   OH2 4507   7.102   1.729   2.452 -0.3480  0.5375  0.4310
 1517TIP3    H1 4508   7.143   1.649   2.484  0.2683 -0.5368 -2.6996
 1517TIP3    H2 4509   7.136   1.798   2.509  2.3674 -0.9022  0.7314
 1518TIP3   OH2 4510   2.725   3.221   0.659  0.2420  0.8834  0.2605
 1518TIP3    H1 4511   2.748   3.290   0.721 -0.2940  1.0359  0.2911
 1518TIP3    H2 4512   2.794   3.155   0.670 -0.0255  0.7541  1.2589
 1519TIP3   OH2 4513   3.387   6.986   2.083 -0.2663 -0.0437  0.2559
 1519TIP3    H1 4514   3.417   7.068   2.121 -2.1648  0.6526  0.3547
 1519TIP3    H2 4515   3.414   6.990   1.992  1.3510 -0.2110  0.7061
 1520TIP3   OH2 4516   6.557   2.534   6.388 -0.3419  0.4702 -0.2774
 1520TIP3    H1 4517   6.580   2.569   6.302  0.0354  0.6006 -0.1253
 1520TIP3    H2 4518   6.638   2.539   6.439 -0.3465 -0.3617 -0.1656
 1521TIP3   OH2 4519   2.827   6.678   2.491 -0.0338 -0.1922  0.1113
 1521TIP3    H1 4520   2.868   6.601   2.451  1.1711 -0.2830  1.4643
 1521TIP3    H2 4521   2.761   6.641   2.550 -0.9460 -0.0875 -0.7987
 1522TIP3   OH2 4522   6.962   1.037   1.067 -0.9038 -0.7834  0.0543
 1522TIP3    H1 4523   6.914   0.973   1.119  0.2670 -1.8795 -0.1792
 1522TIP3    H2 4524   7.054   1.015   1.080 -0.5325 -0.2203 -1.3835
 1523TIP3   OH2 4525   2.340   1.426   4.885 -0.7997 -0.4254 -0.4131
 1523TIP3    H1 4526   2.416   1.415   4.828 -1.3940  3.4786 -2.2581
 1523TIP3    H2 4527   2.377   1.459   4.968 -0.3493  0.2044 -0.8547
 1524TIP3   OH2 4528   2.309   1.481   1.064  0.3526 -0.4427 -0.5729
 1524TIP3    H1 4529   2.327   1.393   1.097 -1.3757 -1.0548 -1.1732
 1524TIP3    H2 4530   2.387   1.503   1.013  1.3783 -1.0501  0.6539
 1525TIP3   OH2 4531   1.268   4.646   5.909  0.0385  0.1294 -0.0324
 1525TIP3    H1 4532   1.190   4.598   5.880 -0.5192  0.1631  1.3127
 1525TIP3    H2 4533   1.237   4.699   5.983  1.8931 -2.1031  2.5282
 1526TIP3   OH2 4534   2.982   6.241   6.723  0.0373  0.1908 -0.3425
 1526TIP3    H1 4535   3.011   6.154   6.748 -0.8574 -0.4403 -1.3959
 1526TIP3    H2 4536   3.058   6.282   6.684  0.0625 -0.7222 -1.3017
 1527TIP3   OH2 4537   1.510   1.474   3.944  0.5610 -0.1340  0.9207
 1527TIP3    H1 4538   1.590   1.421   3.937  1.2457  1.0574 -0.9345
 1527TIP3    H2 4539   1.539   1.558   3.978  0.0872  0.2621  0.3696
 1528TIP3   OH2 4540   4.722   7.435   2.480 -0.5959  0.1384 -0.8754
 1528TIP3    H1 4541   4.758   7.360   2.433 -0.4024 -0.5879  0.3826
 1528TIP3    H2 4542   4.746   7.420   2.572 -0.6559  1.6765 -0.5695
 1529TIP3   OH2 4543   3.334   6.076   6.450  0.0331  0.0451 -0.1062
 1529TIP3    H1 4544   3.249   6.042   6.425  0.1256  0.0257 -0.4040
 1529TIP3    H2 4545   3.326   6.171   6.440  0.6786 -0.0719 -2.2225
 1530TIP3   OH2 4546   1.356   5.083   5.366  0.4337 -0.1009  0.4546
 1530TIP3    H1 4547   1.445   5.076   5.332  0.6600 -2.0942  1.2929
 1530TIP3    H2 4548   1.368   5.095   5.461 -0.1945  3.8450  0.2088
 1531TIP3   OH2 4549   5.240   3.564   3.205  0.1970  0.0611  0.2006
 1531TIP3    H1 4550   5.161   3.609   3.235  0.4356  0.5976  0.0434
 1531TIP3    H2 4551   5.290   3.632   3.159 -0.0434 -0.6724 -1.2162
 1532TIP3   OH2 4552   8.019   1.430   4.104  1.1565 -0.6525 -0.1081
 1532TIP3    H1 4553   7.962   1.506   4.092 -0.1124 -1.6572 -0.6314
 1532TIP3    H2 4554   8.016   1.383   4.021  3.5406 -0.2618 -0.4972
 1533TIP3   OH2 4555   8.124   6.450   6.156 -0.4186 -0.2050 -0.2069
 1533TIP3    H1 4556   8.136   6.365   6.112  1.0868 -0.1608  0.0879
 1533TIP3    H2 4557   8.202   6.500   6.134 -0.5249  0.5183  0.9740
 1534TIP3   OH2 4558   3.648   1.544   4.795  0.0871 -0.0654  0.0438
 1534TIP3    H1 4559   3.679   1.634   4.789 -1.7477  0.5275 -2.0751
 1534TIP3    H2 4560   3.575   1.547   4.857 -0.5589  0.1464 -0.7008
 1535TIP3   OH2 4561   2.900   1.835   4.184  0.0245 -0.0738 -0.2655
 1535TIP3    H1 4562   2.805   1.837   4.191  0.0068  1.4256 -0.5034
 1535TIP3    H2 4563   2.928   1.918   4.223  1.2765 -0.7758  0.3743
 1536TIP3   OH2 4564   1.587   6.315   3.147 -0.0510 -0.7399 -0.0554
 1536TIP3    H1 4565   1.590   6.399   3.100 -0.4720 -0.4431  0.4410
 1536TIP3    H2 4566   1.506   6.274   3.117 -0.1271 -0.7187  0.1202
 1537TIP3   OH2 4567   6.287   6.140   2.851  0.7372  0.1239 -0.2550
 1537TIP3    H1 4568   6.357   6.107   2.794  0.3732  0.2912 -0.8091
 1537TIP3    H2 4569   6.215   6.077   2.839  1.0750 -0.4978  0.9299
 1538TIP3   OH2 4570   2.950   7.645   4.829  0.0270 -0.1570  0.5702
 1538TIP3    H1 4571   3.000   7.587   4.887 -2.9122 -1.7753  1.6963
 1538TIP3    H2 4572   2.912   7.587   4.763  1.1957  1.3203 -1.5144
 1539TIP3   OH2 4573   4.443   3.238   6.416  0.2786  0.1319 -0.1486
 1539TIP3    H1 4574   4.428   3.301   6.487  0.6972 -2.9407  2.9318
 1539TIP3    H2 4575   4.531   3.260   6.383  0.5538  0.9539  1.0535
 1540TIP3   OH2 4576   2.526   5.930   5.214 -0.4242  0.3273  0.0173
 1540TIP3    H1 4577   2.455   5.936   5.149  0.8830  1.2398 -1.3967
 1540TIP3    H2 4578   2.526   5.838   5.240 -3.2020  0.5946  1.3692
 1541TIP3   OH2 4579   4.325   5.092   3.976 -0.1732  0.0268  0.1820
 1541TIP3    H1 4580   4.367   5.115   4.059  0.9030 -1.7833  0.1758
 1541TIP3    H2 4581   4.252   5.036   4.000 -1.5473  1.6719  0.0498
 1542TIP3   OH2 4582   3.418   5.177   4.791 -0.7476 -0.1651 -0.1343
 1542TIP3    H1 4583   3.362   5.104   4.817  0.8604 -0.4474  3.1175
 1542TIP3    H2 4584   3.373   5.255   4.825 -0.4786 -0.1142  0.1129
 1543TIP3   OH2 4585   2.769   6.068   6.352  0.6501 -0.6522 -0.2236
 1543TIP3    H1 4586   2.741   6.007   6.284  3.3052 -1.4218 -0.7086
 1543TIP3    H2 4587   2.780   6.151   6.307  1.6977 -0.9894 -0.6184
 1544TIP3   OH2 4588   3.757   0.164   5.404  0.0578  0.0796  0.0955
 1544TIP3    H1 4589   3.820   0.132   5.468  1.8412 -0.2992 -1.7532
 1544TIP3    H2 4590   3.731   0.250   5.437  3.0784  1.1402 -0.0186
 1545TIP3   OH2 4591   6.426   4.938   0.740  0.6570  0.1839  0.2047
 1545TIP3    H1 4592   6.462   4.921   0.827 -0.8342  1.2855  1.0839
 1545TIP3    H2 4593   6.456   5.026   0.717 -0.4087  0.6114  0.4028
 1546TIP3   OH2 4594   2.950   4.414   0.261  0.2478 -0.0727 -0.0965
 1546TIP3    H1 4595   3.009   4.489   0.265  1.3101 -0.9170  0.6216
 1546TIP3    H2 4596   2.982   4.362   0.187 -1.0172  0.5711 -1.1471
 1547TIP3   OH2 4597   6.082   5.935   2.888  0.0674 -0.1555  0.4512
 1547TIP3    H1 4598   6.068   5.866   2.823  3.2619 -0.9410  0.4157
 1547TIP3    H2 4599   6.109   5.888   2.967  0.6929  0.9671  0.9287
 1548TIP3   OH2 4600   3.393   5.953   0.400  0.1305 -0.1739  0.7747
 1548TIP3    H1 4601   3.367   5.867   0.367  0.2852 -0.1551  0.6023
 1548TIP3    H2 4602   3.410   6.004   0.321 -0.1169  0.0631  0.8755
 1549TIP3   OH2 4603   3.160   1.519   0.381  0.0161 -0.0361 -0.0143
 1549TIP3    H1 4604   3.215   1.582   0.428  0.4333  0.0094 -0.5611
 1549TIP3    H2 4605   3.094   1.493   0.445  1.4470 -1.1029  1.1167
 1550TIP3   OH2 4606   2.734   0.968   4.631 -0.4434  0.4341  0.2585
 1550TIP3    H1 4607   2.664   0.909   4.604 -1.2774  0.8068  1.4885
 1550TIP3    H2 4608   2.812   0.936   4.586 -0.9190 -1.4463  0.6987
 1551TIP3   OH2 4609   7.285   6.362   3.835  0.1633 -0.0289 -0.0198
 1551TIP3    H1 4610   7.379   6.346   3.844  0.1812 -0.9271 -1.5843
 1551TIP3    H2 4611   7.279   6.456   3.817  0.7038  0.1486  0.6697
 1552TIP3   OH2 4612   0.083   3.752   0.065 -0.9633  0.5184 -0.2427
 1552TIP3    H1 4613   0.020   3.801   0.012 -3.1488 -0.0299  1.6619
 1552TIP3    H2 4614   0.074   3.789   0.153 -0.4857 -1.2617  0.5951
 1553TIP3   OH2 4615   0.577   7.387   6.078 -0.5208  0.5054  0.2451
 1553TIP3    H1 4616   0.538   7.363   5.994  0.4223  1.6831 -0.5479
 1553TIP3    H2 4617   0.652   7.329   6.087 -0.5418  0.4735  0.2147
 1554TIP3   OH2 4618   0.436   1.893   2.773  0.1875  0.6749 -0.0762
 1554TIP3    H1 4619   0.521   1.933   2.791 -0.2934  2.3359 -1.2148
 1554TIP3    H2 4620   0.380   1.922   2.845  0.4169  0.0797  0.3502
 1555TIP3   OH2 4621   7.030   6.333   5.033  0.0366 -0.0842 -0.1640
 1555TIP3    H1 4622   6.994   6.277   5.101  1.2240  0.2009  0.7331
 1555TIP3    H2 4623   7.119   6.301   5.021 -0.7586 -1.5217 -3.1377
 1556TIP3   OH2 4624   4.077   3.760   0.689  0.0920  0.3105 -0.4305
 1556TIP3    H1 4625   4.042   3.781   0.776  0.4750 -1.4197  0.1724
 1556TIP3    H2 4626   4.000   3.754   0.633 -0.4709 -1.5129  0.4657
 1557TIP3   OH2 4627   2.656   7.243   5.978  0.2006  0.7483  0.2551
 1557TIP3    H1 4628   2.655   7.150   5.957 -1.8536  0.6210  0.7098
 1557TIP3    H2 4629   2.703   7.283   5.905 -1.4869 -0.3387 -1.5227
 1558TIP3   OH2 4630   5.343   1.036   5.082 -0.0546  0.4253  0.3158
 1558TIP3    H1 4631   5.375   1.062   5.168  1.8735  0.3811 -0.3409
 1558TIP3    H2 4632   5.274   1.099   5.062 -1.3132 -0.2256  2.3257
 1559TIP3   OH2 4633   6.229   4.884   2.923 -0.0101  0.3880 -0.9318
 1559TIP3    H1 4634   6.267   4.867   3.010  2.3587 -0.4171 -2.0161
 1559TIP3    H2 4635   6.135   4.882   2.937  0.2654  2.3627  1.9782
 1560TIP3   OH2 4636   7.513   1.543   3.325  0.6724 -0.1010  0.4987
 1560TIP3    H1 4637   7.496   1.472   3.387  0.6539 -0.8488 -0.3571
 1560TIP3    H2 4638   7.529   1.500   3.242  0.4196  0.9112 -0.0933
 1561TIP3   OH2 4639   2.641   6.185   5.101  0.1946  0.2566  0.0079
 1561TIP3    H1 4640   2.621   6.098   5.133  0.1367  0.4278  0.4443
 1561TIP3    H2 4641   2.726   6.176   5.057 -0.5630 -0.3596 -1.3890
 1562TIP3   OH2 4642   0.959   5.965   4.404 -0.4257  0.1084 -0.0643
 1562TIP3    H1 4643   1.053   5.982   4.401 -0.8347  2.9159  0.4278
 1562TIP3    H2 4644   0.929   5.984   4.316 -0.8972  2.2170  0.4967
 1563TIP3   OH2 4645   2.401   5.961   0.581 -0.2796  0.4180  0.8648
 1563TIP3    H1 4646   2.340   6.033   0.563 -3.3695 -1.6557  2.2856
 1563TIP3    H2 4647   2.383   5.936   0.671  1.6739 -1.3009  0.8438
 1564TIP3   OH2 4648   3.799   2.706   5.414 -0.0652  0.0879  0.3868
 1564TIP3    H1 4649   3.886   2.745   5.410  1.0715 -2.0318  1.8655
 1564TIP3    H2 4650   3.761   2.739   5.496 -0.7797  1.1857 -0.3671
 1565TIP3   OH2 4651   3.226   5.983   4.188  0.0143  0.4658  1.0822
 1565TIP3    H1 4652   3.214   6.077   4.204  2.0426  0.9837 -0.0581
 1565TIP3    H2 4653   3.307   5.961   4.233  0.1387 -0.4902  0.4233
 1566TIP3   OH2 4654   2.214   4.734   6.693  0.0328  0.6474  0.4997
 1566TIP3    H1 4655   2.198   4.767   6.781 -2.2052  1.9008 -0.3144
 1566TIP3    H2 4656   2.204   4.811   6.636  0.2550 -0.3605 -0.9575
 1567TIP3   OH2 4657   8.163   6.286   6.694 -0.0048  0.5708 -0.0614
 1567TIP3    H1 4658   8.222   6.291   6.619  0.2540  0.0747  0.1034
 1567TIP3    H2 4659   8.215   6.242   6.762  0.2051  2.1347  0.8347
 1568TIP3   OH2 4660   3.888   2.560   5.183 -0.1775 -0.4488 -0.3659
 1568TIP3    H1 4661   3.971   2.513   5.189  0.3866  0.6470  1.2037
 1568TIP3    H2 4662   3.879   2.602   5.269 -2.5079 -0.7858 -0.3809
 1569TIP3   OH2 4663   0.415   6.107   1.391 -0.3975 -0.2987 -0.4371
 1569TIP3    H1 4664   0.455   6.127   1.306 -0.3183 -1.3414 -0.6621
 1569TIP3    H2 4665   0.383   6.017   1.382 -0.3645 -0.4354  0.6569
 1570TIP3   OH2 4666   8.121   3.457   0.728  0.4264  0.0435 -0.7401
 1570TIP3    H1 4667   8.194   3.510   0.761  1.9319 -0.9830 -2.2658
 1570TIP3    H2 4668   8.052   3.467   0.794  2.2316  0.4078  1.1742
 1571TIP3   OH2 4669   0.503   5.877   1.900 -0.3220 -0.0223  0.2307
 1571TIP3    H1 4670   0.516   5.826   1.821 -1.9271 -0.2986  0.1289
 1571TIP3    H2 4671   0.408   5.885   1.909 -0.1383  2.1377  0.7588
 1572TIP3   OH2 4672   1.612   1.537   6.708  0.2490 -0.0905  0.2242
 1572TIP3    H1 4673   1.604   1.569   6.619 -0.4228 -1.0425 -0.0736
 1572TIP3    H2 4674   1.659   1.454   6.700  1.3490  0.4331  0.9039
 1573TIP3   OH2 4675   6.761   7.433   4.141  0.1362  0.7175  0.0632
 1573TIP3    H1 4676   6.825   7.384   4.088 -0.6174 -0.4733  0.2063
 1573TIP3    H2 4677   6.779   7.525   4.121 -0.1958  0.3341 -2.3772
 1574TIP3   OH2 4678   6.187   2.729   0.138 -0.2519 -0.0411  0.5270
 1574TIP3    H1 4679   6.092   2.716   0.130 -0.3744  0.7853  0.5282
 1574TIP3    H2 4680   6.223   2.690   0.059 -0.8264  1.7469 -0.6790
 1575TIP3   OH2 4681   4.903   0.062   0.044  0.0184  0.0439  0.0298
 1575TIP3    H1 4682   4.908  -0.005  -0.024  1.0416  0.7813 -0.6533
 1575TIP3    H2 4683   4.867   0.139  -0.000  1.9209  0.9439 -0.0582
 1576TIP3   OH2 4684   8.035   4.280   5.018 -0.1509 -0.1276 -0.1895
 1576TIP3    H1 4685   7.991   4.272   4.934 -2.9704 -0.4576  1.2053
 1576TIP3    H2 4686   7.997   4.358   5.058 -1.6701 -1.9328  2.2102
 1577TIP3   OH2 4687   3.217   5.144   2.195  0.5329 -0.8059 -0.3689
 1577TIP3    H1 4688   3.254   5.214   2.142 -0.5457 -0.3499 -0.5378
 1577TIP3    H2 4689   3.142   5.113   2.145 -0.0285 -0.9061  0.5198
 1578TIP3   OH2 4690   5.174   3.073   4.587  0.0871 -0.0149 -0.7696
 1578TIP3    H1 4691   5.263   3.037   4.585  0.3769  0.6912 -0.8618
 1578TIP3    H2 4692   5.123   3.008   4.636  0.9527  0.2267  0.5157
 1579TIP3   OH2 4693   2.370   1.511   2.957 -0.2458  0.1513  0.7271
 1579TIP3    H1 4694   2.306   1.469   3.014 -0.6109 -0.0734  0.1648
 1579TIP3    H2 4695   2.408   1.581   3.010 -1.4071  0.6909  0.8750
 1580TIP3   OH2 4696   1.048   1.240   3.176  0.0364 -0.0455 -0.1744
 1580TIP3    H1 4697   1.050   1.300   3.251  0.7819 -1.7648  1.2582
 1580TIP3    H2 4698   0.992   1.284   3.112 -1.4408  1.0710  1.7590
 1581TIP3   OH2 4699   4.302   3.020   6.624  0.1088 -0.3862 -0.3723
 1581TIP3    H1 4700   4.380   3.015   6.569 -0.5649 -0.0450 -1.3815
 1581TIP3    H2 4701   4.269   3.109   6.611  0.4726  0.0406  1.3619
 1582TIP3   OH2 4702   7.247   7.399   2.864 -0.1566  0.6959 -0.0153
 1582TIP3    H1 4703   7.289   7.418   2.779 -0.0252  1.3427  0.1852
 1582TIP3    H2 4704   7.314   7.419   2.929  0.1853 -1.0759  0.2025
 1583TIP3   OH2 4705   4.766   4.222   3.627  0.0739  0.0750 -0.6669
 1583TIP3    H1 4706   4.770   4.127   3.617  1.3906  0.1139 -0.7389
 1583TIP3    H2 4707   4.823   4.256   3.558  1.9087  0.7568  1.0607
 1584TIP3   OH2 4708   3.472   5.066   0.822 -0.0438 -0.0727 -0.1205
 1584TIP3    H1 4709   3.382   5.062   0.856 -1.0417  1.7975 -2.2251
 1584TIP3    H2 4710   3.527   5.070   0.900 -1.8343 -0.4992  1.2411
 1585TIP3   OH2 4711   3.342   2.327   0.134 -0.0565 -0.0400  0.1107
 1585TIP3    H1 4712   3.360   2.247   0.183 -1.4618 -0.0592  0.6223
 1585TIP3    H2 4713   3.390   2.316   0.052 -0.2141 -1.4010  0.1761
 1586TIP3   OH2 4714   4.421   6.762   5.305  0.3510 -0.1933  0.1717
 1586TIP3    H1 4715   4.459   6.762   5.217  0.1905 -0.3063  0.1022
 1586TIP3    H2 4716   4.495   6.780   5.362  0.1604  1.6705 -0.1040
 1587TIP3   OH2 4717   2.656   4.915   5.557  0.0238 -0.2557 -0.1979
 1587TIP3    H1 4718   2.601   4.990   5.536 -0.7582 -0.8863 -0.4594
 1587TIP3    H2 4719   2.595   4.846   5.582  0.5321 -1.5776 -2.3445
 1588TIP3   OH2 4720   1.304   2.753   5.470 -0.5192  0.0004 -0.6728
 1588TIP3    H1 4721   1.284   2.779   5.560  1.1657  0.7435 -0.4874
 1588TIP3    H2 4722   1.293   2.658   5.469  0.0013 -0.0750  0.4638
 1589TIP3   OH2 4723   3.339   4.794   1.278 -0.0597  0.2677 -0.3058
 1589TIP3    H1 4724   3.294   4.839   1.350  0.0271  0.6284 -0.4722
 1589TIP3    H2 4725   3.430   4.789   1.306  0.2219  1.5241 -0.9076
 1590TIP3   OH2 4726   0.782   6.573   2.210  0.5495  0.0611 -0.1851
 1590TIP3    H1 4727   0.730   6.580   2.291  1.3158  1.1791  0.2506
 1590TIP3    H2 4728   0.800   6.664   2.186 -0.6899 -0.1955 -2.3333
 1591TIP3   OH2 4729   3.113   7.821   6.160 -0.3226 -0.4427 -0.2327
 1591TIP3    H1 4730   3.204   7.849   6.172 -0.3997 -0.5980  0.8669
 1591TIP3    H2 4731   3.120   7.732   6.124 -0.0167 -0.6136  0.2232
 1592TIP3   OH2 4732   7.482   3.842   0.874  0.0619  0.3425 -0.5031
 1592TIP3    H1 4733   7.521   3.773   0.822  1.7545  1.9177 -1.4448
 1592TIP3    H2 4734   7.499   3.922   0.825  0.2400  1.7247  1.6599
 1593TIP3   OH2 4735   0.023   3.305   4.420  0.3407  0.7017  0.5690
 1593TIP3    H1 4736   0.074   3.362   4.363 -0.9250  0.8497 -0.4686
 1593TIP3    H2 4737  -0.021   3.244   4.360 -0.7195  0.6025  1.4096
 1594TIP3   OH2 4738   1.036   0.952   5.373 -0.1003  0.3551  0.3555
 1594TIP3    H1 4739   1.069   1.017   5.436 -0.1863  1.0108 -0.2586
 1594TIP3    H2 4740   1.094   0.877   5.384  0.1052  0.5932  0.9674
 1595TIP3   OH2 4741   3.629   4.593   0.120 -0.8130  0.0992  0.5346
 1595TIP3    H1 4742   3.701   4.623   0.177  0.2279  0.0765 -0.7294
 1595TIP3    H2 4743   3.673   4.552   0.046 -2.1661 -1.0500  0.3221
 1596TIP3   OH2 4744   7.482   3.242   6.700 -0.1136  0.5917 -0.4689
 1596TIP3    H1 4745   7.426   3.267   6.774 -0.5015  1.1502 -0.9301
 1596TIP3    H2 4746   7.563   3.291   6.713  0.8617 -1.2645  0.9403
 1597TIP3   OH2 4747   4.061   7.362   1.559 -0.0105  0.3562  0.2160
 1597TIP3    H1 4748   4.010   7.418   1.500  0.6168  0.1193 -0.5749
 1597TIP3    H2 4749   4.126   7.421   1.597  0.7694  0.1562 -0.7590
 1598TIP3   OH2 4750   1.272   7.083   5.774 -0.4245  0.2873  0.3667
 1598TIP3    H1 4751   1.272   7.171   5.735 -0.4419  0.5935  1.0394
 1598TIP3    H2 4752   1.238   7.026   5.706 -0.5473  0.8295 -0.0295
 1599TIP3   OH2 4753   3.045   2.009   4.572  0.2022 -0.1972 -0.4559
 1599TIP3    H1 4754   3.052   2.085   4.629  1.1299  0.4772 -1.4317
 1599TIP3    H2 4755   3.048   2.045   4.483  2.0274 -1.4551 -0.9512
 1600TIP3   OH2 4756   1.027   6.603   4.599 -0.0382 -1.0209 -0.5894
 1600TIP3    H1 4757   1.087   6.606   4.674 -1.5879 -2.0958  0.7512
 1600TIP3    H2 4758   1.043   6.517   4.559  0.1229 -0.8297 -0.9424
 1601TIP3   OH2 4759   7.931   2.754   6.488 -0.1156  0.2794  0.1181
 1601TIP3    H1 4760   7.919   2.785   6.578  1.9078  0.9801  0.1899
 1601TIP3    H2 4761   7.842   2.744   6.454 -0.9059  0.5670  1.9983
 1602TIP3   OH2 4762   2.859   0.129   1.517 -0.2324  0.0829 -0.0325
 1602TIP3    H1 4763   2.893   0.212   1.483  1.1410 -0.2638  0.4076
 1602TIP3    H2 4764   2.906   0.062   1.467 -1.2315 -0.4377 -0.2934
 1603TIP3   OH2 4765   1.177   4.326   4.472  0.1663 -0.2713 -1.6458
 1603TIP3    H1 4766   1.126   4.378   4.533  2.7389  1.5762 -0.8873
 1603TIP3    H2 4767   1.117   4.305   4.401 -2.2877 -0.4987  0.3653
 1604TIP3   OH2 4768   4.509   5.386   3.720  0.3193 -0.0145 -0.2273
 1604TIP3    H1 4769   4.548   5.336   3.648  0.0492 -0.4247 -0.0925
 1604TIP3    H2 4770   4.584   5.421   3.767  0.5260  2.8966 -2.4726
 1605TIP3   OH2 4771   0.192   3.758   4.117  0.1061 -0.1681 -0.4171
 1605TIP3    H1 4772   0.251   3.818   4.163  0.0429  2.5770 -3.5812
 1605TIP3    H2 4773   0.248   3.686   4.088  1.2080  0.7261 -0.5664
 1606TIP3   OH2 4774   3.622   0.598   3.379 -1.0092  0.3499 -0.5119
 1606TIP3    H1 4775   3.650   0.515   3.340 -0.4323  0.1604  0.2909
 1606TIP3    H2 4776   3.605   0.655   3.304  0.3370  0.0739 -1.0642
 1607TIP3   OH2 4777   4.273   4.610   3.723  0.0987 -0.6594 -0.0415
 1607TIP3    H1 4778   4.203   4.666   3.689  1.2852  0.5726 -0.5385
 1607TIP3    H2 4779   4.340   4.611   3.654  2.6645  2.0338  2.2295
 1608TIP3   OH2 4780   5.352   0.139   3.928 -0.6857  0.1606 -0.2285
 1608TIP3    H1 4781   5.300   0.065   3.895  0.9918 -0.2092 -2.1978
 1608TIP3    H2 4782   5.401   0.102   4.002 -1.1341 -0.2070 -0.1061
 1609TIP3   OH2 4783   1.813   5.968   6.272 -0.0238 -0.6056 -0.0422
 1609TIP3    H1 4784   1.782   5.932   6.355 -3.4030  1.2406 -0.3045
 1609TIP3    H2 4785   1.850   6.053   6.296  0.5628 -0.7976 -0.2616
 1610TIP3   OH2 4786   5.700   2.192   5.437  0.2560  0.3968  0.2933
 1610TIP3    H1 4787   5.783   2.226   5.472 -0.5456  1.8719  0.8526
 1610TIP3    H2 4788   5.673   2.125   5.501  0.4172  0.7735  0.7626
 1611TIP3   OH2 4789   3.905   4.966   5.344 -0.0341  0.2640  0.4018
 1611TIP3    H1 4790   3.852   5.045   5.329  0.9152  0.7406 -0.5604
 1611TIP3    H2 4791   3.940   4.945   5.258  1.1939 -0.1434  0.9902
 1612TIP3   OH2 4792   0.233   2.444   3.524  0.0642  0.4854  0.7606
 1612TIP3    H1 4793   0.205   2.482   3.607  1.7187  1.3228  0.9765
 1612TIP3    H2 4794   0.296   2.376   3.548 -0.4187 -0.1648  0.2323
 1613TIP3   OH2 4795   3.492   6.035   3.963  0.3951 -0.8494  0.5695
 1613TIP3    H1 4796   3.446   6.086   3.896  1.4872 -0.2921  0.2167
 1613TIP3    H2 4797   3.584   6.038   3.936  0.9775  0.0525  2.5087
 1614TIP3   OH2 4798   6.632   6.250   4.135 -0.0314 -0.1433  0.2994
 1614TIP3    H1 4799   6.725   6.227   4.147 -0.2749 -0.8093  1.0098
 1614TIP3    H2 4800   6.596   6.178   4.083  0.0971  0.7033 -1.0049
 1615TIP3   OH2 4801   2.725   1.543   0.266 -0.5677  0.6797 -0.0018
 1615TIP3    H1 4802   2.729   1.593   0.347  0.4108  2.5663 -1.1369
 1615TIP3    H2 4803   2.632   1.545   0.240 -0.6849  1.0903  0.4551
 1616TIP3   OH2 4804   4.906   7.822   3.641  0.0553  0.4301 -0.1046
 1616TIP3    H1 4805   4.951   7.858   3.718  0.1232  1.6779 -0.7103
 1616TIP3    H2 4806   4.937   7.731   3.637 -1.8228 -0.4666  2.7424
 1617TIP3   OH2 4807   7.878   5.947   3.155  0.0146 -0.1680  0.0629
 1617TIP3    H1 4808   7.829   5.865   3.148  0.3778 -0.5539  1.6395
 1617TIP3    H2 4809   7.904   5.952   3.247  0.2907  1.5604 -0.0705
 1618TIP3   OH2 4810   0.245   1.919   2.963  0.0622  0.1498  0.1684
 1618TIP3    H1 4811   0.194   1.974   3.024  0.0195  0.1011  0.1769
 1618TIP3    H2 4812   0.186   1.904   2.890  1.1308  2.7516 -1.3486
 1619TIP3   OH2 4813   8.226   1.207   5.368  0.4643 -0.2915 -0.2046
 1619TIP3    H1 4814   8.297   1.249   5.320  0.5782 -0.0088  0.2035
 1619TIP3    H2 4815   8.210   1.264   5.443  0.6671 -1.0059  0.3985
 1620TIP3   OH2 4816   5.964   2.780   3.571  0.0300  0.5014  0.2454
 1620TIP3    H1 4817   5.899   2.807   3.636  0.6770 -0.4542  1.3193
 1620TIP3    H2 4818   5.982   2.688   3.591  1.2599  0.5760 -0.4197
 1621TIP3   OH2 4819   7.336   3.536   1.258  0.6402  0.0770 -0.2288
 1621TIP3    H1 4820   7.431   3.526   1.261  0.5913 -0.4803 -0.4362
 1621TIP3    H2 4821   7.315   3.540   1.164  0.5229  0.8647 -0.1740
 1622TIP3   OH2 4822   5.784   6.144   6.254 -0.9863 -0.0689 -0.0197
 1622TIP3    H1 4823   5.736   6.079   6.202 -0.7895 -0.4908  0.3166
 1622TIP3    H2 4824   5.875   6.112   6.254 -0.7140  0.6850 -0.5913
 1623TIP3   OH2 4825   0.695   4.536   0.512  0.0223  0.0530  0.3444
 1623TIP3    H1 4826   0.778   4.582   0.498 -0.3288  0.2214 -1.3929
 1623TIP3    H2 4827   0.690   4.525   0.607  1.3859  1.2202  0.5938
 1624TIP3   OH2 4828   4.158   2.727   4.704 -0.1449 -0.7065  0.2284
 1624TIP3    H1 4829   4.082   2.758   4.753  0.0356  1.5661 -0.7642
 1624TIP3    H2 4830   4.127   2.725   4.613  0.7467 -0.4855 -0.0849
 1625TIP3   OH2 4831   7.034   2.744   0.756  0.2850  0.2382  0.0807
 1625TIP3    H1 4832   6.953   2.760   0.805  0.2832  0.6022 -0.0405
 1625TIP3    H2 4833   7.015   2.779   0.668  1.6708  3.2872  0.8701
 1626TIP3   OH2 4834   5.542   6.002   5.830  0.4084  0.1792 -0.0039
 1626TIP3    H1 4835   5.509   6.090   5.848  0.9356  0.2518  0.6421
 1626TIP3    H2 4836   5.619   5.993   5.886  0.1075 -0.8555  0.2676
 1627TIP3   OH2 4837   3.466   0.341   1.346  0.5618  0.3038  0.4061
 1627TIP3    H1 4838   3.497   0.251   1.341 -2.1223 -0.6776  0.2805
 1627TIP3    H2 4839   3.421   0.347   1.430 -1.1726  0.8499 -0.5212
 1628TIP3   OH2 4840   7.000   6.653   2.876 -0.6041 -0.5861 -0.0457
 1628TIP3    H1 4841   6.912   6.621   2.894  0.0022 -1.9756  0.5719
 1628TIP3    H2 4842   7.009   6.731   2.930 -1.1277 -0.9696  0.5959
 1629TIP3   OH2 4843   4.764   3.151   2.565 -1.0498 -1.3921 -0.1306
 1629TIP3    H1 4844   4.774   3.226   2.623  0.1477 -1.5020 -0.1777
 1629TIP3    H2 4845   4.687   3.104   2.599 -0.4264 -1.4025  1.3161
 1630TIP3   OH2 4846   1.178   4.971   4.081 -0.3800 -0.2951  0.1838
 1630TIP3    H1 4847   1.224   4.955   4.163 -2.5697  0.7324  1.7088
 1630TIP3    H2 4848   1.121   4.895   4.071 -0.2787 -0.3115 -0.2836
 1631TIP3   OH2 4849   3.927   3.860   1.946  0.3658 -0.0470  0.3774
 1631TIP3    H1 4850   3.993   3.869   2.014  1.0665  1.8597 -0.4792
 1631TIP3    H2 4851   3.844   3.858   1.993  0.8787  0.5597  1.3318
 1632TIP3   OH2 4852   0.370   5.756   3.442  0.0883  0.3370 -0.5504
 1632TIP3    H1 4853   0.295   5.788   3.392  0.6689 -0.8312 -2.2683
 1632TIP3    H2 4854   0.381   5.820   3.512 -2.7568  0.3209  0.0333
 1633TIP3   OH2 4855   0.042   6.233   5.146  0.1464  0.1200  0.8095
 1633TIP3    H1 4856   0.078   6.264   5.063 -1.0460 -0.3569  0.0953
 1633TIP3    H2 4857   0.114   6.246   5.209  0.5551  1.9406  0.0528
 1634TIP3   OH2 4858   3.501   3.015   1.730 -0.1902 -0.7756  0.6679
 1634TIP3    H1 4859   3.539   2.981   1.811 -1.1492 -2.3305  0.5117
 1634TIP3    H2 4860   3.575   3.039   1.676  0.5042  1.6734  2.4986
 1635TIP3   OH2 4861   1.851   4.004   6.615 -0.0441  0.3780  0.0152
 1635TIP3    H1 4862   1.923   3.974   6.671 -0.7568 -0.0171  0.7384
 1635TIP3    H2 4863   1.815   4.080   6.661 -1.0097 -0.3037  0.4158
 1636TIP3   OH2 4864   3.597   2.218   3.569  0.5354 -0.1130  0.7217
 1636TIP3    H1 4865   3.511   2.196   3.607  0.3764  0.6748  0.8454
 1636TIP3    H2 4866   3.595   2.313   3.561  0.6071 -0.2439 -1.1903
 1637TIP3   OH2 4867   7.895   2.129   1.281 -0.0810  0.0966  0.3283
 1637TIP3    H1 4868   7.979   2.105   1.244  0.1564  0.0471  0.8906
 1637TIP3    H2 4869   7.835   2.130   1.206  0.8366  2.2351 -0.4517
 1638TIP3   OH2 4870   2.904   3.103   5.872  0.0341 -0.3499 -0.3998
 1638TIP3    H1 4871   2.876   3.033   5.813  1.1241 -0.4437 -0.8331
 1638TIP3    H2 4872   2.943   3.169   5.815  1.2676 -0.5171  0.2160
 1639TIP3   OH2 4873   2.243   2.870   0.128  0.0122  0.7866  0.2330
 1639TIP3    H1 4874   2.307   2.829   0.070 -0.5097  0.7020 -0.2956
 1639TIP3    H2 4875   2.233   2.959   0.094 -1.6506  0.1917 -0.9759
 1640TIP3   OH2 4876   8.232   3.185   3.594  0.5649  0.5810  0.3078
 1640TIP3    H1 4877   8.257   3.277   3.601 -0.9045  0.8986  1.9153
 1640TIP3    H2 4878   8.205   3.175   3.503 -0.1286  1.9926  0.3303
 1641TIP3   OH2 4879   5.532   5.264   6.041 -0.1308 -0.1203 -0.2699
 1641TIP3    H1 4880   5.535   5.168   6.040 -1.2598 -0.1790  0.1650
 1641TIP3    H2 4881   5.496   5.286   6.127  0.6786  0.7241 -0.1350
 1642TIP3   OH2 4882   5.023   1.888   0.106  0.4572  0.9953 -0.4199
 1642TIP3    H1 4883   5.083   1.815   0.090  1.0186  1.5530 -0.8843
 1642TIP3    H2 4884   5.080   1.965   0.114  0.0393  1.1353  1.8944
 1643TIP3   OH2 4885   4.706   7.829   1.212  0.4894 -0.0582 -0.0816
 1643TIP3    H1 4886   4.769   7.777   1.263 -1.0602 -1.9194  0.0549
 1643TIP3    H2 4887   4.656   7.877   1.278 -0.4587 -1.2393  0.1019
 1644TIP3   OH2 4888   2.588   0.042   5.779 -0.5682 -0.3341 -0.0912
 1644TIP3    H1 4889   2.581  -0.039   5.829  0.4512  0.8405  2.1179
 1644TIP3    H2 4890   2.642   0.020   5.703 -0.4669 -1.7464  0.3749
 1645TIP3   OH2 4891   1.694   2.284   0.424 -0.7622  0.1792 -0.2331
 1645TIP3    H1 4892   1.730   2.361   0.380 -0.5843 -0.1345 -0.6489
 1645TIP3    H2 4893   1.726   2.210   0.372  1.9486 -0.4598  2.0991
 1646TIP3   OH2 4894   1.396   5.363   1.883 -0.2025 -0.0297  0.1193
 1646TIP3    H1 4895   1.437   5.295   1.829  0.0751  0.0629  0.2123
 1646TIP3    H2 4896   1.327   5.318   1.931 -0.6696 -0.0506 -0.5572
 1647TIP3   OH2 4897   5.477   3.242   0.489  0.0348 -0.4397 -0.4086
 1647TIP3    H1 4898   5.487   3.189   0.410 -0.7832 -2.1835  0.5831
 1647TIP3    H2 4899   5.384   3.236   0.510  0.2312  0.0012  0.6675
 1648TIP3   OH2 4900   5.459   3.671   4.012  0.0396 -0.0589  0.6979
 1648TIP3    H1 4901   5.414   3.744   3.969  1.3421 -0.0556 -0.7566
 1648TIP3    H2 4902   5.517   3.712   4.076  1.0762  0.2397 -0.4083
 1649TIP3   OH2 4903   5.800   6.645   5.423 -0.2132 -0.4275  0.6549
 1649TIP3    H1 4904   5.832   6.559   5.451  0.1256 -0.0619  1.4345
 1649TIP3    H2 4905   5.750   6.627   5.343  0.0471 -1.3144  0.6731
 1650TIP3   OH2 4906   1.444   7.188   4.540 -0.2482  0.5451  0.4877
 1650TIP3    H1 4907   1.353   7.213   4.553 -0.1627  0.2515  1.6987
 1650TIP3    H2 4908   1.494   7.246   4.596  0.1968 -0.2141  0.8983
 1651TIP3   OH2 4909   2.462   1.774   5.931  0.3164  0.0055  0.3246
 1651TIP3    H1 4910   2.422   1.701   5.882  1.3055 -0.2774 -0.0918
 1651TIP3    H2 4911   2.463   1.744   6.022  1.8720 -1.0738 -0.0086
 1652TIP3   OH2 4912   3.993   1.451   6.601 -0.4814  0.0898 -0.7297
 1652TIP3    H1 4913   3.976   1.502   6.680 -0.1013 -0.4994 -0.2551
 1652TIP3    H2 4914   3.964   1.507   6.529  0.8816  1.4023 -0.3087
 1653TIP3   OH2 4915   4.297   4.117   1.724  0.0314 -0.0834 -0.4980
 1653TIP3    H1 4916   4.213   4.101   1.766 -1.2139  0.4650 -2.6028
 1653TIP3    H2 4917   4.303   4.049   1.656  0.6497  0.6906 -1.2417
 1654TIP3   OH2 4918   2.501   3.921   1.076  0.1159 -0.9339  0.1013
 1654TIP3    H1 4919   2.554   3.957   1.004 -0.5903  0.7008  0.3427
 1654TIP3    H2 4920   2.511   3.985   1.147 -0.8687 -1.4467  0.7248
 1655TIP3   OH2 4921   6.564   0.480   4.348 -0.1303 -0.0919  0.1408
 1655TIP3    H1 4922   6.640   0.535   4.369 -0.4141  0.7414 -0.9382
 1655TIP3    H2 4923   6.598   0.414   4.288 -0.3743  0.7057 -0.9055
 1656TIP3   OH2 4924   1.275   5.397   1.611 -0.2741  0.1489  0.0292
 1656TIP3    H1 4925   1.322   5.365   1.534 -0.2666  0.9644 -0.3081
 1656TIP3    H2 4926   1.336   5.380   1.684 -0.5729 -1.2836 -0.0233
 1657TIP3   OH2 4927   5.830   3.519   1.835 -0.2753  0.1670 -0.4138
 1657TIP3    H1 4928   5.772   3.446   1.856  1.2022 -0.6307  1.1557
 1657TIP3    H2 4929   5.787   3.595   1.874 -0.9659 -0.1661 -0.5109
 1658TIP3   OH2 4930   1.036   2.534   3.899  0.1458  0.2304  0.8068
 1658TIP3    H1 4931   0.957   2.538   3.953 -0.9110  2.7820 -0.7461
 1658TIP3    H2 4932   1.107   2.557   3.959 -0.8714  2.0573  1.4147
 1659TIP3   OH2 4933   7.372   1.439   6.100  0.1591 -0.0259 -0.8749
 1659TIP3    H1 4934   7.431   1.512   6.119  0.4556 -0.2426 -0.9583
 1659TIP3    H2 4935   7.408   1.366   6.150 -1.3836  0.4168  1.0210
 1660TIP3   OH2 4936   2.498   6.789   1.139 -0.1878 -0.1888 -0.0943
 1660TIP3    H1 4937   2.563   6.853   1.107 -1.3116  0.3694 -1.3461
 1660TIP3    H2 4938   2.525   6.771   1.229  2.0710 -0.4563 -0.7620
 1661TIP3   OH2 4939   5.296   3.168   1.401 -0.0515 -0.0792 -0.0937
 1661TIP3    H1 4940   5.335   3.245   1.443 -0.5114 -0.7019  1.5683
 1661TIP3    H2 4941   5.288   3.104   1.472 -0.3582 -1.4002 -1.2817
 1662TIP3   OH2 4942   5.187   1.255   0.489 -0.8797  0.1018  0.2872
 1662TIP3    H1 4943   5.281   1.243   0.482 -0.9170  0.5782 -2.2759
 1662TIP3    H2 4944   5.160   1.199   0.561  1.0912 -1.7810 -0.3325
 1663TIP3   OH2 4945   0.911   6.948   4.607 -0.0712 -0.1888  0.0597
 1663TIP3    H1 4946   0.878   6.928   4.519  0.9238  1.2427 -0.6778
 1663TIP3    H2 4947   0.969   6.874   4.628 -0.8572 -0.8842 -0.1789
 1664TIP3   OH2 4948   1.752   0.015   3.524 -0.1289 -0.1955 -0.1670
 1664TIP3    H1 4949   1.694  -0.006   3.598  0.5437 -0.3611  0.3242
 1664TIP3    H2 4950   1.793   0.098   3.549 -2.1293  1.3637 -1.7153
 1665TIP3   OH2 4951   4.181   7.725   6.540  0.1987  0.7608 -0.3456
 1665TIP3    H1 4952   4.209   7.810   6.505  3.6634 -0.4204 -0.8518
 1665TIP3    H2 4953   4.155   7.675   6.463 -1.2208  1.0821 -0.1104
 1666TIP3   OH2 4954   3.211   6.417   5.490 -0.0069  0.1940  0.0439
 1666TIP3    H1 4955   3.186   6.336   5.535  1.2182  0.2233  0.8567
 1666TIP3    H2 4956   3.129   6.459   5.468 -0.6705 -0.3816  1.2854
 1667TIP3   OH2 4957   3.825   6.579   5.513  0.2241 -0.0199 -0.0025
 1667TIP3    H1 4958   3.850   6.665   5.478 -0.5393  0.3261  0.2733
 1667TIP3    H2 4959   3.734   6.590   5.539  0.4230 -0.6078  1.0085
 1668TIP3   OH2 4960   2.381   1.172   6.482 -0.2984 -0.0848 -0.0560
 1668TIP3    H1 4961   2.383   1.082   6.513 -0.7965  0.6881  2.5176
 1668TIP3    H2 4962   2.292   1.185   6.450 -0.2132 -0.5140 -0.4656
 1669TIP3   OH2 4963   5.688   2.712   0.674  0.6900 -0.2259  0.2378
 1669TIP3    H1 4964   5.606   2.747   0.640  1.0753 -0.0331 -0.5073
 1669TIP3    H2 4965   5.664   2.629   0.715  0.4036 -1.1683 -1.7218
 1670TIP3   OH2 4966   3.443   4.326   2.146  0.0387 -0.2057 -0.2242
 1670TIP3    H1 4967   3.379   4.338   2.216  0.2011 -0.9637  0.0686
 1670TIP3    H2 4968   3.396   4.280   2.077 -0.3718  1.3329 -1.0161
 1671TIP3   OH2 4969   7.291   5.113   4.457  0.0856 -0.5058 -0.9001
 1671TIP3    H1 4970   7.312   5.183   4.518 -1.6203  0.4088 -1.2876
 1671TIP3    H2 4971   7.314   5.149   4.371 -1.1991 -0.2104 -1.1426
 1672TIP3   OH2 4972   7.507   1.327   1.325 -0.0441 -0.5395 -0.1513
 1672TIP3    H1 4973   7.577   1.330   1.390 -0.4988 -2.2876  0.4914
 1672TIP3    H2 4974   7.525   1.400   1.266  0.8680  0.5776  1.4422
 1673TIP3   OH2 4975   3.848   1.389   4.854  0.0740 -0.1717 -0.0213
 1673TIP3    H1 4976   3.766   1.429   4.825 -0.2560 -0.5813  0.3405
 1673TIP3    H2 4977   3.853   1.306   4.807  1.5692  0.9723 -2.0451
 1674TIP3   OH2 4978   3.615   7.457   6.432 -0.1735 -0.5183  0.1689
 1674TIP3    H1 4979   3.626   7.534   6.488 -0.8371  0.4102 -0.9166
 1674TIP3    H2 4980   3.704   7.426   6.416  0.1185  0.0988  0.5376
 1675TIP3   OH2 4981   3.245   0.713   5.637  0.2202 -0.5277  0.1801
 1675TIP3    H1 4982   3.160   0.749   5.611 -0.7372 -1.0465  2.3979
 1675TIP3    H2 4983   3.238   0.699   5.731  2.3109 -1.8559  0.2108
 1676TIP3   OH2 4984   7.392   7.542   0.380  0.3921 -0.4948 -0.1989
 1676TIP3    H1 4985   7.437   7.595   0.446  0.2086 -1.5368  0.8053
 1676TIP3    H2 4986   7.377   7.602   0.307 -0.3389  0.9919  1.1154
 1677TIP3   OH2 4987   1.353   6.075   2.584 -0.6453  0.2176  0.1037
 1677TIP3    H1 4988   1.292   6.145   2.608 -0.1657  0.4167  0.7525
 1677TIP3    H2 4989   1.369   6.028   2.665  2.1456  1.7863  0.5897
 1678TIP3   OH2 4990   1.238   3.872   3.793  0.1992 -0.3105 -0.9672
 1678TIP3    H1 4991   1.222   3.817   3.716 -0.0103 -0.9114 -0.5070
 1678TIP3    H2 4992   1.309   3.930   3.767  0.1069 -0.4883 -1.6261
 1679TIP3   OH2 4993   5.649   6.606   0.090  0.2829 -0.2254  0.6564
 1679TIP3    H1 4994   5.642   6.566   0.177 -1.3959  0.3682  0.8166
 1679TIP3    H2 4995   5.610   6.542   0.031  0.1067  0.0010  0.5294
 1680TIP3   OH2 4996   6.100   0.417   5.565  0.5317  0.0731  0.0476
 1680TIP3    H1 4997   6.122   0.483   5.631  1.0677 -0.6482  0.6131
 1680TIP3    H2 4998   6.086   0.467   5.485  1.3865  0.8397  0.3568
 1681TIP3   OH2 4999   5.797   4.441   3.454 -0.0229  0.3780  0.2981
 1681TIP3    H1 5000   5.893   4.437   3.458 -0.0779 -0.4803  1.1465
 1681TIP3    H2 5001   5.770   4.350   3.440 -0.6852  0.7462 -0.9541
 1682TIP3   OH2 5002   7.119   4.516   2.047  0.5399  0.3438 -0.4178
 1682TIP3    H1 5003   7.074   4.577   1.989  0.2663  0.1349 -0.4264
 1682TIP3    H2 5004   7.198   4.563   2.075  0.0326  0.9385  0.0492
 1683TIP3   OH2 5005   3.097   3.732   1.443 -1.1186 -0.2173  0.8296
 1683TIP3    H1 5006   3.170   3.736   1.505 -1.1007  0.5186  0.7732
 1683TIP3    H2 5007   3.034   3.673   1.483 -0.9452 -0.0412  1.3659
 1684TIP3   OH2 5008   3.320   4.442   3.533 -0.3127  0.2687  0.5072
 1684TIP3    H1 5009   3.306   4.357   3.575 -0.4591 -0.4596 -0.9622
 1684TIP3    H2 5010   3.345   4.500   3.605  2.3265 -1.5841  1.2161
 1685TIP3   OH2 5011   4.966   6.229   0.509 -0.1881  0.1680 -0.0745
 1685TIP3    H1 5012   4.982   6.165   0.579  0.4006  1.3284  0.8889
 1685TIP3    H2 5013   4.895   6.283   0.542 -0.9790 -0.2327 -1.0727
 1686TIP3   OH2 5014   3.335   1.458   1.464  0.2165 -0.0630 -0.5697
 1686TIP3    H1 5015   3.420   1.495   1.488  0.4585 -0.6917 -0.4435
 1686TIP3    H2 5016   3.342   1.437   1.371  0.2467 -0.2460 -0.5259
 1687TIP3   OH2 5017   3.231   2.172   6.650 -0.4311  0.3579  0.4104
 1687TIP3    H1 5018   3.247   2.208   6.737  0.3464 -1.5747  1.1087
 1687TIP3    H2 5019   3.312   2.187   6.603 -1.1012  2.0817 -0.2844
 1688TIP3   OH2 5020   2.919   0.066   3.084 -0.0649 -0.2099 -0.4183
 1688TIP3    H1 5021   2.856   0.122   3.037 -0.6134  0.3155  0.9022
 1688TIP3    H2 5022   2.991   0.124   3.107  1.3865 -0.9952 -2.6790
 1689TIP3   OH2 5023   0.195   1.278   5.959  0.1864 -0.4552  0.1154
 1689TIP3    H1 5024   0.154   1.301   5.876  0.7303 -0.3786 -0.1368
 1689TIP3    H2 5025   0.272   1.335   5.965  2.5285 -3.2025 -1.3145
 1690TIP3   OH2 5026   6.288   6.418   2.111 -0.4517  0.6226  0.0060
 1690TIP3    H1 5027   6.341   6.477   2.057 -2.4872  0.9676 -1.7433
 1690TIP3    H2 5028   6.351   6.356   2.148  0.9848 -0.4801 -3.8430
 1691TIP3   OH2 5029   2.376   0.153   0.875 -0.1458  0.0560 -0.4906
 1691TIP3    H1 5030   2.387   0.058   0.884 -0.0661 -0.1541 -2.3369
 1691TIP3    H2 5031   2.408   0.189   0.957  3.2343 -1.2914 -1.0637
 1692TIP3   OH2 5032   5.702   0.355   3.166  0.6151  0.2284  0.0546
 1692TIP3    H1 5033   5.795   0.329   3.165  1.2991  2.4531 -0.1874
 1692TIP3    H2 5034   5.693   0.415   3.091 -1.1547 -0.3273 -0.2123
 1693TIP3   OH2 5035   5.243   0.367   3.604  0.2525  0.2053 -0.7693
 1693TIP3    H1 5036   5.173   0.432   3.612 -0.2774 -0.2356 -1.6429
 1693TIP3    H2 5037   5.279   0.382   3.516  1.4138  0.5690 -0.2504
 1694TIP3   OH2 5038   0.722   2.777   3.936  0.2872  0.6995  0.4530
 1694TIP3    H1 5039   0.782   2.724   3.883  1.4377  1.8249  0.5837
 1694TIP3    H2 5040   0.749   2.867   3.921 -1.2473  1.2425  0.7054
 1695TIP3   OH2 5041   1.290   1.149   1.284  0.1796 -0.7700 -0.3998
 1695TIP3    H1 5042   1.200   1.171   1.309  0.9498 -0.4878  2.6200
 1695TIP3    H2 5043   1.339   1.231   1.296  1.2405 -1.5073  0.6390
 1696TIP3   OH2 5044   0.917   4.235   3.856  0.0724  0.2627  0.0758
 1696TIP3    H1 5045   0.880   4.177   3.923 -0.6445  0.4298 -0.1592
 1696TIP3    H2 5046   1.010   4.213   3.853 -0.3920 -1.7562 -0.8848
 1697TIP3   OH2 5047   4.885   4.086   0.277  0.2578 -0.1491 -0.5954
 1697TIP3    H1 5048   4.897   4.093   0.371  0.6991  0.4289 -0.6913
 1697TIP3    H2 5049   4.912   3.997   0.255 -1.0560 -0.7216 -0.0029
 1698TIP3   OH2 5050   4.625   1.088   0.728 -0.4251  0.6538 -0.4159
 1698TIP3    H1 5051   4.597   1.146   0.657  1.1637  1.9892 -0.0170
 1698TIP3    H2 5052   4.614   0.999   0.692 -0.7316  1.2593 -1.8966
 1699TIP3   OH2 5053   7.184   5.042   3.412 -0.2659 -0.1216  0.0439
 1699TIP3    H1 5054   7.218   5.014   3.498 -0.0703  1.7770  0.6226
 1699TIP3    H2 5055   7.222   5.128   3.399  0.8542 -0.9238 -2.6436
 1700TIP3   OH2 5056   1.727  -0.011   0.820 -0.4246 -0.3512  0.2009
 1700TIP3    H1 5057   1.790   0.046   0.776 -0.1249 -0.2299  0.7706
 1700TIP3    H2 5058   1.759  -0.016   0.911 -0.3974 -1.5011  0.1365
 1701TIP3   OH2 5059   8.091   6.587   2.050  0.6415  0.0120 -0.6879
 1701TIP3    H1 5060   8.014   6.533   2.066  1.1444 -0.5987 -0.2763
 1701TIP3    H2 5061   8.087   6.609   1.957 -0.3306  0.4686 -0.5484
 1702TIP3   OH2 5062   3.743   6.500   5.957  0.2906 -0.3559 -0.0618
 1702TIP3    H1 5063   3.690   6.428   5.924 -1.1564 -0.6771  2.6612
 1702TIP3    H2 5064   3.685   6.547   6.017  1.9025  1.7274 -0.0385
 1703TIP3   OH2 5065   2.546   5.959   5.632 -0.8353 -0.2980 -0.0572
 1703TIP3    H1 5066   2.468   6.006   5.601 -0.3114  0.9582  0.4448
 1703TIP3    H2 5067   2.609   5.968   5.561 -0.8916 -0.6789 -0.1583
 1704TIP3   OH2 5068   5.429   0.297   5.499  0.1219 -0.3547 -0.2682
 1704TIP3    H1 5069   5.506   0.254   5.536 -1.4406 -1.7855  1.5468
 1704TIP3    H2 5070   5.386   0.337   5.575 -2.1536 -1.6102 -0.8254
 1705TIP3   OH2 5071   0.668   5.035   4.716 -0.0620 -0.4496  0.4908
 1705TIP3    H1 5072   0.701   5.115   4.676 -2.0593 -0.1978 -0.8075
 1705TIP3    H2 5073   0.579   5.056   4.743 -0.5192 -2.1195  0.4212
 1706TIP3   OH2 5074   5.312   4.678   1.576 -0.1684  0.9805  0.1809
 1706TIP3    H1 5075   5.344   4.621   1.646  0.0882  1.6354  0.5995
 1706TIP3    H2 5076   5.227   4.640   1.552  0.1117  0.2727  0.2733
 1707TIP3   OH2 5077   0.713   6.976   5.596 -0.1571  0.4060  0.0713
 1707TIP3    H1 5078   0.807   6.982   5.613 -0.0214 -1.0589 -0.0382
 1707TIP3    H2 5079   0.674   7.039   5.657  0.9200  1.4877 -0.3152
 1708TIP3   OH2 5080   5.053   1.516   1.970 -0.1330  0.4172  0.1079
 1708TIP3    H1 5081   5.045   1.422   1.982 -0.4790  0.1622 -1.7333
 1708TIP3    H2 5082   5.132   1.540   2.017  0.1663 -0.8693  0.2929
 1709TIP3   OH2 5083   3.039   3.350   6.061  0.2982 -0.0029  0.5351
 1709TIP3    H1 5084   3.119   3.318   6.020 -0.0005  0.3954 -0.3805
 1709TIP3    H2 5085   3.036   3.305   6.146  1.3642 -0.1922  0.4832
 1710TIP3   OH2 5086   5.875   4.857   1.795 -0.1440 -0.8701 -0.0890
 1710TIP3    H1 5087   5.927   4.915   1.738 -0.0950  0.9276  1.6425
 1710TIP3    H2 5088   5.791   4.848   1.751  0.2890 -0.4959 -1.0120
 1711TIP3   OH2 5089   4.186   4.017   3.726  0.1794  0.5634  0.3382
 1711TIP3    H1 5090   4.258   4.007   3.790 -0.2503  1.0200  0.9051
 1711TIP3    H2 5091   4.192   4.108   3.698  1.1223  0.0559 -1.2162
 1712TIP3   OH2 5092   2.743   4.902   4.859  0.2055  0.1224 -0.0980
 1712TIP3    H1 5093   2.771   4.967   4.794 -0.0807  0.3207 -0.0243
 1712TIP3    H2 5094   2.819   4.891   4.917 -0.4860  2.1373  1.3044
 1713TIP3   OH2 5095   3.297   1.693   1.041 -0.3859 -0.2691  0.0251
 1713TIP3    H1 5096   3.362   1.654   0.983  0.0811 -1.8557  1.5255
 1713TIP3    H2 5097   3.338   1.692   1.128 -1.0582  2.0285  0.4437
 1714TIP3   OH2 5098   2.728   1.614   4.338 -0.0480 -0.0169  0.2450
 1714TIP3    H1 5099   2.649   1.560   4.330 -0.0085  0.0391 -0.5461
 1714TIP3    H2 5100   2.696   1.701   4.361 -0.1944 -0.0692  0.2367
 1715TIP3   OH2 5101   1.822   0.938   3.165  0.6491 -0.0992  0.0289
 1715TIP3    H1 5102   1.772   0.970   3.241 -2.2105 -0.8695 -1.3715
 1715TIP3    H2 5103   1.823   1.012   3.104  0.0141 -0.5035 -0.4814
 1716TIP3   OH2 5104   1.861   5.191   2.904 -0.2902  0.3715 -0.3035
 1716TIP3    H1 5105   1.799   5.136   2.855  0.4720 -0.1793 -0.6611
 1716TIP3    H2 5106   1.813   5.273   2.919 -0.9742  0.0941 -0.9098
 1717TIP3   OH2 5107   4.810   2.209   6.347  0.1712 -0.4154  0.0556
 1717TIP3    H1 5108   4.777   2.122   6.322  0.1072 -0.3495 -0.0925
 1717TIP3    H2 5109   4.734   2.254   6.384  0.1405 -0.3289 -0.1135
 1718TIP3   OH2 5110   7.989   2.241   0.375 -0.0022 -0.0666 -0.2742
 1718TIP3    H1 5111   7.953   2.156   0.400  0.8980 -0.0982  1.0425
 1718TIP3    H2 5112   7.969   2.299   0.449  0.7972  0.4439 -0.4377
 1719TIP3   OH2 5113   3.710   5.429   4.377 -0.2030  0.3415 -0.2504
 1719TIP3    H1 5114   3.671   5.510   4.410 -1.5683 -0.5782  0.5176
 1719TIP3    H2 5115   3.641   5.363   4.389  1.0994 -1.0678 -0.2126
 1720TIP3   OH2 5116   0.247   0.411   3.185 -0.7569 -0.0418 -0.8253
 1720TIP3    H1 5117   0.277   0.340   3.128 -2.2878  0.2357 -2.0490
 1720TIP3    H2 5118   0.296   0.487   3.155  0.3672 -0.3911  0.0225
 1721TIP3   OH2 5119   0.847   4.331   2.651 -0.1384 -0.0961  0.6976
 1721TIP3    H1 5120   0.915   4.279   2.694  0.5809  1.1314  1.0676
 1721TIP3    H2 5121   0.765   4.289   2.677  0.4650 -2.8188 -1.3222
 1722TIP3   OH2 5122   2.189   0.540   6.746 -0.0735  0.0871  0.1925
 1722TIP3    H1 5123   2.261   0.593   6.782 -0.6527  0.5739  0.6544
 1722TIP3    H2 5124   2.193   0.458   6.796 -0.4032  0.4686  0.8572
 1723TIP3   OH2 5125   2.527   0.970   5.535 -0.5509  0.2226  0.5853
 1723TIP3    H1 5126   2.470   1.018   5.475 -0.9728 -0.9431  0.0265
 1723TIP3    H2 5127   2.614   1.007   5.519 -0.3599 -1.0835 -1.9063
 1724TIP3   OH2 5128   7.109   5.222   5.120 -0.7591 -0.0798  0.4347
 1724TIP3    H1 5129   7.107   5.167   5.041  1.1810  1.9380 -1.1587
 1724TIP3    H2 5130   7.026   5.269   5.119 -0.0510  1.2630 -1.5342
 1725TIP3   OH2 5131   3.641   1.121   4.634 -0.2350  0.1858  0.2760
 1725TIP3    H1 5132   3.666   1.200   4.587  2.3421  0.3623  1.7591
 1725TIP3    H2 5133   3.615   1.152   4.721 -1.7311 -0.4086  0.0724
 1726TIP3   OH2 5134   2.706   5.094   3.296  0.5436  0.1269 -0.1092
 1726TIP3    H1 5135   2.666   5.143   3.224  1.5597  2.7262  0.9673
 1726TIP3    H2 5136   2.792   5.068   3.262 -0.2269 -1.5372 -0.8886
 1727TIP3   OH2 5137   0.510   0.965   0.940  0.3332 -0.1542  0.2729
 1727TIP3    H1 5138   0.527   1.041   0.997 -2.1844  1.0364 -0.3947
 1727TIP3    H2 5139   0.479   0.897   0.999  0.0536  0.2607  0.6134
 1728TIP3   OH2 5140   1.054   0.541   1.682 -0.7144 -0.1084 -0.1647
 1728TIP3    H1 5141   0.992   0.612   1.697  0.4981  0.6253  1.7108
 1728TIP3    H2 5142   1.007   0.462   1.709 -1.3245  0.2417 -0.1771
 1729TIP3   OH2 5143   7.381   3.416   3.412  0.2720 -0.1186 -0.1459
 1729TIP3    H1 5144   7.428   3.346   3.457 -1.1412 -0.5125  0.7933
 1729TIP3    H2 5145   7.315   3.370   3.359  2.0135  0.3141 -2.8955
 1730TIP3   OH2 5146   2.630   1.386   3.006 -0.0696 -0.0635  0.6860
 1730TIP3    H1 5147   2.679   1.410   2.928 -0.9540 -2.8876 -0.8633
 1730TIP3    H2 5148   2.539   1.395   2.981 -0.4080 -2.7843  0.6581
 1731TIP3   OH2 5149   0.379   7.473   3.906  0.4813 -0.0321 -0.1363
 1731TIP3    H1 5150   0.393   7.566   3.886 -1.1853  0.2567 -0.0475
 1731TIP3    H2 5151   0.294   7.452   3.867  1.1088 -1.7100 -0.7137
 1732TIP3   OH2 5152   6.331   4.555   2.391  0.5646 -0.6365  0.2526
 1732TIP3    H1 5153   6.299   4.474   2.430  1.0871 -1.0585 -0.1850
 1732TIP3    H2 5154   6.425   4.541   2.378  0.9335  0.5219  1.3775
 1733TIP3   OH2 5155   6.184   7.785   2.126  0.6490  0.5548  0.4356
 1733TIP3    H1 5156   6.135   7.722   2.073  0.8934  1.4171 -0.8602
 1733TIP3    H2 5157   6.273   7.783   2.089  1.3459 -0.1548  2.0177
 1734TIP3   OH2 5158   3.047   5.894   2.514 -0.1637  0.3383 -0.4545
 1734TIP3    H1 5159   3.045   5.983   2.550 -1.1038  0.4581 -0.7734
 1734TIP3    H2 5160   3.080   5.904   2.425 -0.0489  0.3425 -0.4108
 1735TIP3   OH2 5161   0.269   4.353   0.273  0.6677  0.1706 -0.3392
 1735TIP3    H1 5162   0.364   4.360   0.283  0.5686  0.0391  0.9551
 1735TIP3    H2 5163   0.249   4.263   0.297  0.2661  0.0540 -1.1063
 1736TIP3   OH2 5164   5.044   0.407   5.200  0.0499  0.3910 -0.1262
 1736TIP3    H1 5165   5.088   0.323   5.189 -3.7612 -2.1277  1.7409
 1736TIP3    H2 5166   5.061   0.431   5.292 -1.3198  0.0229  0.2449
 1737TIP3   OH2 5167   1.229   0.854   3.992  0.2593  0.2537 -0.1210
 1737TIP3    H1 5168   1.241   0.942   3.956 -0.6043  0.3914 -0.0750
 1737TIP3    H2 5169   1.168   0.866   4.065 -0.2446 -0.4626 -0.4236
 1738TIP3   OH2 5170   2.495   0.515   0.348 -0.2269 -0.3494  0.3328
 1738TIP3    H1 5171   2.464   0.434   0.388  2.2322 -1.2836  0.5162
 1738TIP3    H2 5172   2.496   0.496   0.254 -2.1464  0.4430  0.1064
 1739TIP3   OH2 5173   5.235   7.469   2.526  0.6694  0.4765 -0.4121
 1739TIP3    H1 5174   5.148   7.490   2.492  1.0011  0.4069 -1.3459
 1739TIP3    H2 5175   5.289   7.545   2.503  1.2492 -0.2025 -1.4234
 1740TIP3   OH2 5176   2.398   1.688   3.176 -0.0972 -0.3366 -0.2290
 1740TIP3    H1 5177   2.402   1.682   3.271 -0.5941  0.2411 -0.1669
 1740TIP3    H2 5178   2.477   1.737   3.151 -0.6159  0.6460  0.0013
 1741TIP3   OH2 5179   2.839   7.640   2.990 -0.8660  0.4373 -0.1083
 1741TIP3    H1 5180   2.821   7.654   3.083 -0.1327  0.0099  0.1058
 1741TIP3    H2 5181   2.830   7.545   2.979 -1.6869  0.5704 -0.6375
 1742TIP3   OH2 5182   7.683   2.499   4.765  0.4455 -0.0869 -0.6733
 1742TIP3    H1 5183   7.615   2.442   4.802  1.6654 -0.8344  0.5291
 1742TIP3    H2 5184   7.692   2.471   4.674 -1.3928  0.5802 -1.1047
 1743TIP3   OH2 5185   4.587   4.121   4.793 -0.7673  0.7110 -0.0167
 1743TIP3    H1 5186   4.600   4.088   4.704 -1.3705  0.6316 -0.0741
 1743TIP3    H2 5187   4.509   4.175   4.787  0.5426  2.7071 -0.0683
 1744TIP3   OH2 5188   7.359   4.603   1.292  0.2609 -0.1899 -0.2013
 1744TIP3    H1 5189   7.393   4.690   1.273 -0.5986  0.1362 -0.3125
 1744TIP3    H2 5190   7.405   4.576   1.371  0.9291  0.1344 -0.4699
 1745TIP3   OH2 5191   0.742   0.927   6.460 -0.1958  0.6708 -0.0641
 1745TIP3    H1 5192   0.677   0.863   6.434 -1.4529  2.3078 -1.1586
 1745TIP3    H2 5193   0.739   0.994   6.392  2.7438  0.7726 -0.2428
 1746TIP3   OH2 5194   1.862   4.230   0.638 -0.0279  0.1017 -0.1375
 1746TIP3    H1 5195   1.871   4.227   0.733 -1.7892  0.6980  0.0920
 1746TIP3    H2 5196   1.891   4.317   0.613  0.9987 -0.2547 -0.2462
 1747TIP3   OH2 5197   7.983   5.400   2.940 -0.0548 -0.2020  0.0516
 1747TIP3    H1 5198   7.914   5.384   3.004 -0.3261 -1.1956 -0.4746
 1747TIP3    H2 5199   7.937   5.432   2.863  0.3672  2.1204  0.6782
 1748TIP3   OH2 5200   1.582   2.193   6.189  0.3036  0.3941 -0.7011
 1748TIP3    H1 5201   1.674   2.217   6.203 -0.3704  1.8082  2.1867
 1748TIP3    H2 5202   1.584   2.101   6.164  2.5545  0.7463 -2.0070
 1749TIP3   OH2 5203   1.630   7.828   6.346  0.0823 -0.9298 -0.3611
 1749TIP3    H1 5204   1.703   7.875   6.308 -0.5831 -0.2573 -0.8293
 1749TIP3    H2 5205   1.671   7.756   6.395  1.0016 -1.2140 -1.4948
 1750TIP3   OH2 5206   1.970   7.351   3.850  0.7589  0.0375 -0.6229
 1750TIP3    H1 5207   1.966   7.318   3.760 -0.8219 -0.5023 -0.3861
 1750TIP3    H2 5208   2.030   7.291   3.894 -2.0824 -2.7855 -0.1947
 1751TIP3   OH2 5209   1.266   7.615   4.910  0.2008  0.4530 -0.1882
 1751TIP3    H1 5210   1.275   7.537   4.964  0.3514  0.4157 -0.2674
 1751TIP3    H2 5211   1.269   7.583   4.820  0.4291  0.5655 -0.2226
 1752TIP3   OH2 5212   1.179   3.823   4.042  0.6498 -0.7260  0.1949
 1752TIP3    H1 5213   1.168   3.727   4.042 -2.8358 -0.4599  0.0832
 1752TIP3    H2 5214   1.204   3.844   3.953  0.7592 -1.4798  0.0351
 1753TIP3   OH2 5215   4.070   0.469   0.480  0.1447  0.1251 -0.2273
 1753TIP3    H1 5216   3.975   0.469   0.497  0.3084  1.2734  0.8688
 1753TIP3    H2 5217   4.080   0.417   0.401 -1.1953 -1.7016  0.7201
 1754TIP3   OH2 5218   0.425   0.232   2.426  0.0921  0.0157 -0.5630
 1754TIP3    H1 5219   0.480   0.309   2.436  0.0527  0.6725 -4.2309
 1754TIP3    H2 5220   0.482   0.158   2.447  0.4729  0.8705  1.7587
 1755TIP3   OH2 5221   4.292   3.231   6.171 -0.3287  0.4790 -0.1810
 1755TIP3    H1 5222   4.341   3.235   6.254 -1.8752  0.9039  0.7435
 1755TIP3    H2 5223   4.312   3.313   6.127  0.3734  0.3212 -0.1686
 1756TIP3   OH2 5224   1.287   3.557   4.290 -0.2089  0.3967  0.3922
 1756TIP3    H1 5225   1.287   3.478   4.344  2.0609 -1.1901 -1.7005
 1756TIP3    H2 5226   1.280   3.523   4.200 -0.7071  2.7156 -0.5076
 1757TIP3   OH2 5227   5.037   6.375   1.784 -0.2255  0.0352 -0.1569
 1757TIP3    H1 5228   4.985   6.455   1.790 -0.6874 -0.2855  0.1323
 1757TIP3    H2 5229   5.122   6.399   1.821 -0.8129  0.0111  1.2317
 1758TIP3   OH2 5230   7.992   4.093   3.759  0.1933  0.3701 -0.0357
 1758TIP3    H1 5231   7.997   4.157   3.831  1.3048 -0.1245  0.3643
 1758TIP3    H2 5232   8.031   4.014   3.796  0.0912 -0.1170 -0.9544
 1759TIP3   OH2 5233   6.929   0.545   5.979 -0.2998 -0.3110  0.1079
 1759TIP3    H1 5234   6.849   0.516   5.935 -1.5711  0.2682  1.9108
 1759TIP3    H2 5235   6.996   0.481   5.954 -2.5130 -3.9191  2.5089
 1760TIP3   OH2 5236   3.088   1.382   2.881 -0.4546 -0.2422  0.3329
 1760TIP3    H1 5237   3.058   1.298   2.848 -0.9265 -0.1531  0.5291
 1760TIP3    H2 5238   3.163   1.361   2.936 -0.8350 -0.5783  0.7286
 1761TIP3   OH2 5239   7.418   0.867   1.934  0.2184 -0.0653  0.3647
 1761TIP3    H1 5240   7.354   0.813   1.981  1.9012 -2.4475  0.1262
 1761TIP3    H2 5241   7.488   0.882   1.998  0.5257  0.4393 -0.0847
 1762TIP3   OH2 5242   1.925   4.723   0.713  0.3237  0.1757  0.4790
 1762TIP3    H1 5243   1.965   4.685   0.791  0.1968 -0.6368  0.1606
 1762TIP3    H2 5244   1.926   4.652   0.649  0.3470  0.8078 -0.2304
 1763TIP3   OH2 5245   6.951   7.334   2.222  0.2983  0.1439 -0.2162
 1763TIP3    H1 5246   6.887   7.353   2.154  1.0970  0.3451 -0.9325
 1763TIP3    H2 5247   6.899   7.305   2.297 -0.8554  2.8100  0.1475
 1764TIP3   OH2 5248   2.276   4.685   6.333  0.0096 -0.3528  0.0752
 1764TIP3    H1 5249   2.274   4.600   6.289 -0.9735 -0.0939 -0.3911
 1764TIP3    H2 5250   2.188   4.696   6.369  0.9411 -0.8753  2.7578
 1765TIP3   OH2 5251   3.370   7.386   3.505  0.6446  0.2892 -0.1355
 1765TIP3    H1 5252   3.454   7.406   3.546  1.4128  0.2772 -1.6424
 1765TIP3    H2 5253   3.389   7.380   3.412 -0.7701 -1.1519 -0.3778
 1766TIP3   OH2 5254   3.195   4.614   0.447  0.3785 -0.1884 -0.3350
 1766TIP3    H1 5255   3.223   4.695   0.489 -1.7632  0.3097  0.2950
 1766TIP3    H2 5256   3.181   4.638   0.355  1.0072 -0.2007 -0.4384
 1767TIP3   OH2 5257   3.112   6.239   1.287  0.5021  0.6525  0.1728
 1767TIP3    H1 5258   3.032   6.289   1.304 -0.6957 -1.4031  0.8778
 1767TIP3    H2 5259   3.093   6.189   1.208  1.7268  1.3292 -0.5824
 1768TIP3   OH2 5260   2.532   0.407   4.625 -0.1398  0.4873 -0.1904
 1768TIP3    H1 5261   2.442   0.424   4.650 -0.7196 -0.3099 -1.6137
 1768TIP3    H2 5262   2.567   0.351   4.694 -0.4997  1.3965  0.7365
 1769TIP3   OH2 5263   3.469   0.996   2.846  0.3888  0.1018  0.1864
 1769TIP3    H1 5264   3.523   1.013   2.923 -0.6756  2.2096  0.5608
 1769TIP3    H2 5265   3.523   0.940   2.790  1.3035 -1.2550  2.3055
 1770TIP3   OH2 5266   7.093   1.360   4.910  0.2755  0.1834  0.4724
 1770TIP3    H1 5267   7.120   1.307   4.985 -1.3969  1.2172  1.8762
 1770TIP3    H2 5268   7.066   1.443   4.948  0.3132  1.0995 -1.4049
 1771TIP3   OH2 5269   5.418   1.671   2.497  0.4452  0.3549 -0.3482
 1771TIP3    H1 5270   5.465   1.650   2.416  0.6954 -1.9676  0.3325
 1771TIP3    H2 5271   5.369   1.592   2.517 -1.2590  1.6079  0.7141
 1772TIP3   OH2 5272   4.441   5.577   0.833  0.3307 -0.0951  0.2042
 1772TIP3    H1 5273   4.422   5.570   0.926  1.0082 -1.7186  0.2481
 1772TIP3    H2 5274   4.364   5.620   0.795  0.6089  1.8278  1.6751
 1773TIP3   OH2 5275   1.571   4.943   3.562  0.3149  0.1212  0.0145
 1773TIP3    H1 5276   1.652   4.917   3.517  0.4868  0.1692  0.2945
 1773TIP3    H2 5277   1.556   5.033   3.533 -0.8087 -0.5710 -1.7263
 1774TIP3   OH2 5278   7.210   6.420   3.208  0.2123  0.0652  0.1493
 1774TIP3    H1 5279   7.153   6.490   3.242 -0.7691 -0.5682 -0.1364
 1774TIP3    H2 5280   7.261   6.462   3.138 -0.7719  0.3788 -0.4046
 1775TIP3   OH2 5281   7.511   0.554   1.487 -0.1139  0.1325  0.2190
 1775TIP3    H1 5282   7.478   0.477   1.442  0.3107 -0.9518  1.6652
 1775TIP3    H2 5283   7.548   0.520   1.569 -1.0683  2.0179  1.5055
 1776TIP3   OH2 5284   6.409   4.644   1.540 -0.3490 -0.2287  0.4216
 1776TIP3    H1 5285   6.453   4.688   1.613 -0.2235 -1.4882  1.1231
 1776TIP3    H2 5286   6.382   4.559   1.575 -2.2792  0.0175 -0.3494
 1777TIP3   OH2 5287   1.061   3.672   4.416 -0.3401 -0.1299 -0.1094
 1777TIP3    H1 5288   1.142   3.631   4.385 -0.2774 -1.0734  1.2523
 1777TIP3    H2 5289   1.029   3.615   4.486 -0.9191  1.4706  1.0007
 1778TIP3   OH2 5290   4.649   0.605   1.062 -0.4403  0.0634  0.0781
 1778TIP3    H1 5291   4.707   0.675   1.029  2.1668 -1.2830  1.4538
 1778TIP3    H2 5292   4.672   0.598   1.155 -3.8703  0.3024  1.0730
 1779TIP3   OH2 5293   1.509   4.992   1.075 -0.1701  0.3189  0.1527
 1779TIP3    H1 5294   1.428   5.035   1.048 -0.4963  0.8219  1.7772
 1779TIP3    H2 5295   1.568   5.065   1.096  0.8906 -0.0343 -1.4260
 1780TIP3   OH2 5296   2.575   1.192   6.667  0.2910 -0.8366  0.3368
 1780TIP3    H1 5297   2.514   1.204   6.594  2.3771  0.4734 -1.3155
 1780TIP3    H2 5298   2.564   1.270   6.721  1.2716 -0.0076 -0.6148
 1781TIP3   OH2 5299   7.980   7.648   5.502  0.5285  0.1529 -0.1535
 1781TIP3    H1 5300   7.974   7.561   5.542  1.5494  0.5131  0.8236
 1781TIP3    H2 5301   7.950   7.635   5.412 -1.7465 -0.7048  0.6475
 1782TIP3   OH2 5302   8.071   2.397   2.919  0.0190  0.4619 -0.2161
 1782TIP3    H1 5303   8.104   2.359   2.838  1.7453  1.8480 -0.2321
 1782TIP3    H2 5304   8.123   2.357   2.989 -1.1687 -0.4084  0.2126
 1783TIP3   OH2 5305   3.694   3.375   1.414  0.1073  0.0250  0.5782
 1783TIP3    H1 5306   3.789   3.385   1.409 -0.0375  1.0190 -0.3350
 1783TIP3    H2 5307   3.659   3.434   1.348 -1.1287 -0.9119  0.3537
 1784TIP3   OH2 5308   8.133   3.186   3.302 -0.1848 -0.7999  0.2148
 1784TIP3    H1 5309   8.176   3.146   3.226  0.7676  1.4250 -0.4828
 1784TIP3    H2 5310   8.047   3.214   3.269 -0.4162 -1.2634  0.4113
 1785TIP3   OH2 5311   4.204   5.626   0.684 -0.3158 -0.2981 -0.4494
 1785TIP3    H1 5312   4.163   5.540   0.675 -1.0487 -0.2431  1.7668
 1785TIP3    H2 5313   4.131   5.685   0.706  0.3744  0.5934 -0.5173
 1786TIP3   OH2 5314   6.765   6.998   2.119 -0.1987 -0.4639 -0.1051
 1786TIP3    H1 5315   6.790   7.016   2.028 -0.4801  1.3253  0.1283
 1786TIP3    H2 5316   6.696   7.062   2.138 -1.2546 -1.8354  0.8998
 1787TIP3   OH2 5317   1.821   5.174   3.447  0.3582  0.2743 -0.2864
 1787TIP3    H1 5318   1.853   5.208   3.363  0.6039 -1.0768 -0.7670
 1787TIP3    H2 5319   1.730   5.151   3.431  0.1723  0.7574  0.0560
 1788TIP3   OH2 5320   3.291   4.439   4.865 -0.6208  0.5406 -0.2430
 1788TIP3    H1 5321   3.275   4.393   4.947 -1.6026  1.0935 -0.1164
 1788TIP3    H2 5322   3.204   4.451   4.827 -0.2777  1.3361 -0.7997
 1789TIP3   OH2 5323   6.519   0.241   2.592 -0.9313  0.3494 -0.5671
 1789TIP3    H1 5324   6.610   0.212   2.596 -0.8724  0.5020 -0.7738
 1789TIP3    H2 5325   6.474   0.170   2.545 -1.0186  0.0353 -0.0139
 1790TIP3   OH2 5326   7.252   0.816   0.667  0.0343  0.0435 -0.3164
 1790TIP3    H1 5327   7.322   0.882   0.666 -0.9819  1.2259 -3.1702
 1790TIP3    H2 5328   7.173   0.865   0.690 -0.1963 -0.9421  1.1134
 1791TIP3   OH2 5329   4.979   4.525   3.946  0.6363  0.1544 -0.0971
 1791TIP3    H1 5330   4.895   4.565   3.967  1.2263  1.4600 -0.0989
 1791TIP3    H2 5331   4.985   4.529   3.850  0.8006  0.2816 -0.0821
 1792TIP3   OH2 5332   4.020   5.027   6.495 -0.6671  0.1203  0.6303
 1792TIP3    H1 5333   3.957   5.083   6.451 -0.6549 -1.1489 -1.1181
 1792TIP3    H2 5334   4.011   4.942   6.453  2.7691  0.0608 -0.3447
 1793TIP3   OH2 5335   3.376   5.300   5.971  0.2420  0.2296  0.3758
 1793TIP3    H1 5336   3.372   5.246   5.892  1.0973 -0.3206  0.6941
 1793TIP3    H2 5337   3.301   5.271   6.023  1.1544 -1.2680  0.9099
 1794TIP3   OH2 5338   1.287   4.956   6.279 -0.2459  0.5338 -0.1681
 1794TIP3    H1 5339   1.225   4.967   6.352  1.8755 -1.3895  2.0804
 1794TIP3    H2 5340   1.240   4.901   6.216 -0.6343 -1.6022  1.8666
 1795TIP3   OH2 5341   8.287   6.845   1.968  0.0392  0.4887  0.2725
 1795TIP3    H1 5342   8.255   6.935   1.963 -0.2378  0.5001  1.7048
 1795TIP3    H2 5343   8.208   6.792   1.966  0.0621  0.3922  1.3929
 1796TIP3   OH2 5344   2.681   6.504   6.449  0.0705 -0.6429 -0.2088
 1796TIP3    H1 5345   2.689   6.589   6.405  3.8523 -1.6355 -1.8196
 1796TIP3    H2 5346   2.602   6.466   6.413 -0.6720  1.4041 -0.9028
 1797TIP3   OH2 5347   1.158   7.036   4.445  0.5434  0.0841 -0.9021
 1797TIP3    H1 5348   1.120   6.959   4.403  1.6101 -1.0092  0.0211
 1797TIP3    H2 5349   1.109   7.046   4.527  0.0071  0.7767 -1.2980
 1798TIP3   OH2 5350   7.248   3.780   2.841  0.3724 -0.1417 -0.0195
 1798TIP3    H1 5351   7.201   3.798   2.922  2.9708  0.9508  1.3761
 1798TIP3    H2 5352   7.309   3.709   2.864  0.4715 -0.5050 -1.3069
 1799TIP3   OH2 5353   8.291   4.645   2.230 -0.0600  0.1797  0.0726
 1799TIP3    H1 5354   8.232   4.604   2.167 -0.4450  0.6915  0.0837
 1799TIP3    H2 5355   8.245   4.636   2.314 -0.5643  1.3715 -0.0543
 1800TIP3   OH2 5356   7.261   1.224   1.327 -0.3370 -0.5833 -0.0358
 1800TIP3    H1 5357   7.286   1.138   1.361 -0.4514 -1.3988 -1.9359
 1800TIP3    H2 5358   7.342   1.274   1.328  0.4926 -1.7947 -1.9981
 1801TIP3   OH2 5359   6.896   5.796   1.705  0.0610 -0.7423  0.3405
 1801TIP3    H1 5360   6.896   5.765   1.615 -2.4818 -0.7632  0.2956
 1801TIP3    H2 5361   6.915   5.718   1.757  0.0453 -1.0416 -0.0969
 1802TIP3   OH2 5362   4.914   5.739   1.543 -0.2923  0.0038 -0.5245
 1802TIP3    H1 5363   4.874   5.735   1.455 -1.4721  1.5079 -0.1026
 1802TIP3    H2 5364   4.947   5.829   1.549 -1.7237  0.4726  1.1504
 1803TIP3   OH2 5365   6.643   5.131   0.522 -0.3491 -0.2425  0.2855
 1803TIP3    H1 5366   6.729   5.110   0.486 -0.0975 -0.1689  0.8264
 1803TIP3    H2 5367   6.582   5.076   0.473 -0.0861  0.2576 -0.6329
 1804TIP3   OH2 5368   3.862   0.937   3.582 -0.1495  0.0032 -0.1128
 1804TIP3    H1 5369   3.822   0.851   3.591  1.7203 -0.8685  0.4577
 1804TIP3    H2 5370   3.872   0.969   3.672  0.0129  0.3827 -0.2625
 1805TIP3   OH2 5371   1.155   4.738   1.623  0.1555  0.2787  0.5227
 1805TIP3    H1 5372   1.061   4.719   1.632  0.6592 -1.8967  1.8209
 1805TIP3    H2 5373   1.194   4.655   1.597  1.7842  1.0870  0.2658
 1806TIP3   OH2 5374   4.731   0.982   3.045  0.2178  0.0156  0.1014
 1806TIP3    H1 5375   4.819   1.015   3.027  0.6025 -0.9503  0.1079
 1806TIP3    H2 5376   4.722   0.906   2.986 -1.2043  0.9888 -1.0183
 1807TIP3   OH2 5377   2.941   2.682   3.790 -0.0595 -0.2381  0.0002
 1807TIP3    H1 5378   2.855   2.660   3.753  0.3042 -2.8418  0.5125
 1807TIP3    H2 5379   2.929   2.673   3.885  0.5255  0.3677  0.1349
 1808TIP3   OH2 5380   1.626   3.954   1.869  0.2525  0.1386 -0.0210
 1808TIP3    H1 5381   1.557   3.947   1.934 -0.9458  1.6597 -1.0711
 1808TIP3    H2 5382   1.704   3.921   1.913 -0.6407  0.5923  1.9860
 1809TIP3   OH2 5383   7.056   7.083   6.578 -0.1012 -0.1271 -0.1550
 1809TIP3    H1 5384   7.104   7.090   6.496  0.5644  0.9560  0.3075
 1809TIP3    H2 5385   6.966   7.062   6.552 -0.1481  1.2876 -1.2375
 1810TIP3   OH2 5386   1.392   3.280   0.343  0.0578 -0.5106  0.2385
 1810TIP3    H1 5387   1.407   3.199   0.392 -0.5253 -0.1886  0.9702
 1810TIP3    H2 5388   1.364   3.251   0.256  0.4078 -1.0924  0.3169
 1811TIP3   OH2 5389   7.283   1.294   2.631  0.1712  0.0359  0.6855
 1811TIP3    H1 5390   7.337   1.217   2.613  0.8367  0.5126  0.6281
 1811TIP3    H2 5391   7.195   1.268   2.604  0.5694 -0.3694 -0.2540
 1812TIP3   OH2 5392  -0.030   4.669   3.693 -0.6824 -0.6625  0.1879
 1812TIP3    H1 5393   0.007   4.738   3.747 -1.7799  0.4942 -0.4758
 1812TIP3    H2 5394   0.045   4.631   3.646 -0.2965  1.6747 -1.2105
 1813TIP3   OH2 5395   5.999   0.820   6.300 -0.8949  0.8033 -0.2231
 1813TIP3    H1 5396   5.905   0.825   6.280 -0.9145  1.0527 -0.0802
 1813TIP3    H2 5397   6.040   0.801   6.216 -1.1900 -0.8372 -0.0237
 1814TIP3   OH2 5398   0.123   6.763   5.391  0.9323  0.3903 -0.1105
 1814TIP3    H1 5399   0.158   6.795   5.474  1.2166 -1.8185  0.6853
 1814TIP3    H2 5400   0.166   6.679   5.378 -0.6827 -0.2801 -1.4617
 1815TIP3   OH2 5401   0.358   4.683   5.690  0.2770 -0.0357 -0.1516
 1815TIP3    H1 5402   0.351   4.656   5.599  1.1210  0.2705 -0.3132
 1815TIP3    H2 5403   0.268   4.686   5.721  0.0393 -1.1663 -0.6714
 1816TIP3   OH2 5404   8.075   6.843   2.688 -0.7370  0.3320  0.0940
 1816TIP3    H1 5405   8.057   6.863   2.780 -2.2801  0.6670 -0.2639
 1816TIP3    H2 5406   8.018   6.902   2.639 -1.4648 -1.2654 -1.0493
 1817TIP3   OH2 5407   2.922   6.447   4.806  0.2110  0.2743  0.5414
 1817TIP3    H1 5408   2.827   6.446   4.819 -0.0610 -0.0918 -1.2111
 1817TIP3    H2 5409   2.933   6.469   4.714  1.9222  2.4775  1.1984
 1818TIP3   OH2 5410   5.351   7.060   1.372  0.3206  0.2918  0.3099
 1818TIP3    H1 5411   5.391   6.975   1.393 -0.4423 -0.3872 -0.8327
 1818TIP3    H2 5412   5.314   7.090   1.455  4.0058  1.4931  1.6919
 1819TIP3   OH2 5413   6.790   1.281   2.586 -0.7166  0.3760 -0.6384
 1819TIP3    H1 5414   6.737   1.213   2.627  0.6780  0.4236  1.3504
 1819TIP3    H2 5415   6.856   1.233   2.537 -0.5510  0.3008 -0.3425
 1820TIP3   OH2 5416  -0.009   6.729   5.652 -0.0444  0.5230 -0.4948
 1820TIP3    H1 5417   0.083   6.753   5.664  0.3057 -0.7275 -0.5870
 1820TIP3    H2 5418  -0.007   6.654   5.592 -0.9917 -0.6616  0.9022
 1821TIP3   OH2 5419   4.050   7.584   4.127 -0.2313 -0.5051  0.1387
 1821TIP3    H1 5420   4.119   7.640   4.163  0.6485 -0.5842 -1.3126
 1821TIP3    H2 5421   3.984   7.645   4.096  0.2110 -0.3084 -0.4363
 1822TIP3   OH2 5422   1.060   3.902   5.573  0.3082  0.1996 -0.0477
 1822TIP3    H1 5423   0.996   3.930   5.508 -1.0868 -2.0016  0.2537
 1822TIP3    H2 5424   1.122   3.847   5.525  0.7154  0.5559  0.0598
 1823TIP3   OH2 5425   3.408   6.876   1.538  0.2573 -0.1052  0.1608
 1823TIP3    H1 5426   3.347   6.873   1.465 -1.4905  2.0140  1.4110
 1823TIP3    H2 5427   3.398   6.791   1.581  0.1917 -0.7872 -1.1729
 1824TIP3   OH2 5428   5.855   4.396   1.850 -0.4694 -0.3746  0.7602
 1824TIP3    H1 5429   5.791   4.406   1.780 -1.8744  0.1740  2.0806
 1824TIP3    H2 5430   5.831   4.315   1.894 -1.6668  0.8932  2.5881
 1825TIP3   OH2 5431   4.517   4.118   3.333  0.8860  0.2765 -0.3064
 1825TIP3    H1 5432   4.515   4.122   3.429 -0.0592 -1.4411 -0.2216
 1825TIP3    H2 5433   4.566   4.039   3.313 -0.3680 -0.3180 -1.1848
 1826TIP3   OH2 5434   2.033   6.305   4.422 -0.0127  0.3807 -0.3885
 1826TIP3    H1 5435   1.961   6.326   4.482  0.4024 -0.0833  0.2788
 1826TIP3    H2 5436   2.072   6.390   4.401 -0.3908  0.5799 -0.2981
 1827TIP3   OH2 5437   6.076   4.428   2.389 -0.2689  0.1536 -0.2595
 1827TIP3    H1 5438   6.050   4.358   2.449 -0.3794  1.4680  1.2866
 1827TIP3    H2 5439   6.013   4.424   2.318 -1.3224 -0.2398  0.6714
 1828TIP3   OH2 5440   1.980   2.145   5.947 -0.3626  0.0141  0.4079
 1828TIP3    H1 5441   1.936   2.111   6.025 -0.4362 -0.4169  0.1838
 1828TIP3    H2 5442   2.015   2.067   5.904 -1.6464  0.0641 -0.8027
 1829TIP3   OH2 5443   4.670   1.083   6.103  0.4839 -0.4078 -0.2837
 1829TIP3    H1 5444   4.598   1.138   6.070  0.0839 -1.3404 -1.0459
 1829TIP3    H2 5445   4.683   1.019   6.033 -1.0938 -3.1433  1.7342
 1830TIP3   OH2 5446   7.713   5.993   2.462  0.6034 -0.0635 -0.4536
 1830TIP3    H1 5447   7.761   5.912   2.479 -0.0243 -0.1334  1.1248
 1830TIP3    H2 5448   7.648   5.998   2.532 -0.0780  1.2725 -1.1337
 1831TIP3   OH2 5449   6.803   4.138   4.113  0.2576 -0.2658 -0.1753
 1831TIP3    H1 5450   6.896   4.150   4.096 -0.0772  1.3338 -1.0595
 1831TIP3    H2 5451   6.787   4.046   4.092  1.3649 -0.2021 -1.4656
 1832TIP3   OH2 5452   2.316   2.654   6.369  0.3244 -0.6135  0.2324
 1832TIP3    H1 5453   2.247   2.691   6.314 -0.6448  0.0576  1.8014
 1832TIP3    H2 5454   2.269   2.614   6.442  1.5566 -1.3768  0.6343
 1833TIP3   OH2 5455   7.294   4.109   5.174 -0.7559 -0.1955  0.4371
 1833TIP3    H1 5456   7.208   4.144   5.153 -1.5869 -1.4474  1.6112
 1833TIP3    H2 5457   7.303   4.032   5.118 -0.5364 -0.2522  0.5487
 1834TIP3   OH2 5458   0.375   0.258   1.371  0.3148 -0.3141  0.1164
 1834TIP3    H1 5459   0.356   0.254   1.465  1.8659 -1.0098  0.4256
 1834TIP3    H2 5460   0.316   0.193   1.332 -0.7130  0.3568  0.5239
 1835TIP3   OH2 5461   3.258   7.800   2.927  0.2012 -0.4075  0.6668
 1835TIP3    H1 5462   3.316   7.814   2.852  0.3596  0.1600  0.8876
 1835TIP3    H2 5463   3.172   7.829   2.897 -0.0759 -1.7037  0.1818
 1836TIP3   OH2 5464   6.884   1.186   0.846  0.3584  0.3831  0.1540
 1836TIP3    H1 5465   6.937   1.265   0.857 -0.7113  0.9990  1.0978
 1836TIP3    H2 5466   6.914   1.127   0.915  2.7965 -1.0615 -1.9442
 1837TIP3   OH2 5467   6.045   1.764   4.674  0.9707 -0.2225  0.2874
 1837TIP3    H1 5468   6.119   1.745   4.732  0.9563  2.7180  1.4670
 1837TIP3    H2 5469   5.994   1.830   4.721 -1.9224 -1.4229 -0.9134
 1838TIP3   OH2 5470   1.633   4.620   1.351  0.4178 -0.0522  0.3714
 1838TIP3    H1 5471   1.579   4.648   1.424  2.6709 -0.2669  2.2491
 1838TIP3    H2 5472   1.718   4.599   1.391  1.2273 -1.8814 -2.0571
 1839TIP3   OH2 5473   8.288   5.335   2.089 -0.7635 -0.0536  0.7591
 1839TIP3    H1 5474   8.349   5.409   2.093 -2.4710  1.3774  3.8237
 1839TIP3    H2 5475   8.286   5.311   1.996  1.8860  1.9689  0.0403
 1840TIP3   OH2 5476   4.711   7.485   3.419 -0.2520 -0.2920 -0.6544
 1840TIP3    H1 5477   4.680   7.480   3.510  3.4048 -1.0826  0.7663
 1840TIP3    H2 5478   4.646   7.437   3.369 -1.6607 -1.1720  1.8267
 1841TIP3   OH2 5479   7.993   5.745   2.265  0.2580 -0.1567 -0.6208
 1841TIP3    H1 5480   7.902   5.774   2.261  0.2374 -0.1934 -0.4107
 1841TIP3    H2 5481   7.997   5.669   2.206 -0.3751 -1.5651  1.0732
 1842TIP3   OH2 5482   2.503   4.188   5.811  0.4627 -0.7148 -0.0067
 1842TIP3    H1 5483   2.521   4.094   5.804 -0.2640 -0.9079  0.5274
 1842TIP3    H2 5484   2.587   4.231   5.794  1.0061 -1.4960  0.6616
 1843TIP3   OH2 5485   5.003   3.648   1.958  0.6312  0.2441 -0.2774
 1843TIP3    H1 5486   4.928   3.666   2.014  0.3927  0.0589 -0.5307
 1843TIP3    H2 5487   4.980   3.567   1.912 -0.3293  1.6724 -2.5333
 1844TIP3   OH2 5488   5.143   5.997   0.239  0.2359  0.3472  0.6321
 1844TIP3    H1 5489   5.057   6.009   0.200  0.3793  1.9219  0.7334
 1844TIP3    H2 5490   5.125   5.971   0.330 -0.1250  0.4812  0.5977
 1845TIP3   OH2 5491   3.593   0.342   0.731 -0.3596  0.1015 -0.2764
 1845TIP3    H1 5492   3.546   0.305   0.806  0.6681  1.4971  1.1043
 1845TIP3    H2 5493   3.534   0.328   0.657 -2.2414  0.3542  1.1065
 1846TIP3   OH2 5494   4.503   1.799   2.230 -0.3454  0.5829  0.2815
 1846TIP3    H1 5495   4.450   1.785   2.152  1.2025 -1.4902 -0.4896
 1846TIP3    H2 5496   4.463   1.742   2.296 -0.0828  0.3188  0.2117
 1847TIP3   OH2 5497   2.430   5.027   1.759 -0.1916  1.0383 -0.5110
 1847TIP3    H1 5498   2.367   5.079   1.708 -0.5736  0.0059 -1.1166
 1847TIP3    H2 5499   2.378   4.987   1.828  0.0028  1.0217 -0.3730
 1848TIP3   OH2 5500   4.910   1.345   5.864 -0.1615  0.6438  0.3722
 1848TIP3    H1 5501   4.823   1.337   5.825 -0.6439  1.9850  1.1032
 1848TIP3    H2 5502   4.947   1.257   5.859 -1.7433 -0.0541  0.4704
 1849TIP3   OH2 5503   2.486   3.335   4.007  0.0223 -0.3837  0.0382
 1849TIP3    H1 5504   2.451   3.283   3.934  0.8699 -1.4386  0.3583
 1849TIP3    H2 5505   2.439   3.305   4.084  0.0426 -0.1952  0.1262
 1850TIP3   OH2 5506   7.158   0.044   2.693  0.1181  0.2395  0.6848
 1850TIP3    H1 5507   7.179  -0.038   2.650 -0.4888  1.5822 -2.4029
 1850TIP3    H2 5508   7.242   0.080   2.720  0.5572 -0.4217  0.2082
 1851TIP3   OH2 5509   3.803   3.880   6.580  0.5497  0.5128 -0.2402
 1851TIP3    H1 5510   3.742   3.887   6.653 -0.4376 -0.8541 -0.8936
 1851TIP3    H2 5511   3.871   3.944   6.599 -1.3530  2.4977  0.2400
 1852TIP3   OH2 5512   7.036   1.406   0.910  0.3495  0.5019  0.2697
 1852TIP3    H1 5513   7.115   1.410   0.964  1.7491 -1.8874 -1.4068
 1852TIP3    H2 5514   7.037   1.488   0.861  2.4067  0.1088 -0.4557
 1853TIP3   OH2 5515   6.395   0.630   6.685 -0.0524 -0.2829 -0.0127
 1853TIP3    H1 5516   6.469   0.683   6.714 -0.3201  0.4008 -0.5373
 1853TIP3    H2 5517   6.403   0.627   6.590  0.2442 -1.6456  0.0403
 1854TIP3   OH2 5518   7.313   1.802   4.994  0.8951  0.9884 -0.9031
 1854TIP3    H1 5519   7.325   1.756   4.911 -0.3870 -1.4289  0.1635
 1854TIP3    H2 5520   7.251   1.873   4.973  1.2731  0.9780 -2.1599
 1855TIP3   OH2 5521   8.257   7.262   0.707 -0.1651  0.5887 -0.4422
 1855TIP3    H1 5522   8.309   7.340   0.726 -0.7478  0.5388  1.6104
 1855TIP3    H2 5523   8.235   7.226   0.793  0.2484 -1.9776 -1.3194
 1856TIP3   OH2 5524   5.635   6.516   4.325  0.8333 -0.7192 -0.2833
 1856TIP3    H1 5525   5.598   6.530   4.413  1.2763  0.0272 -0.2030
 1856TIP3    H2 5526   5.729   6.522   4.338  0.9111 -0.8841 -0.7701
 1857TIP3   OH2 5527   6.197   2.950   1.225 -0.5369  0.2836  0.5205
 1857TIP3    H1 5528   6.228   3.027   1.177 -1.1476  0.5318  0.5239
 1857TIP3    H2 5529   6.276   2.915   1.267 -0.5672  2.0395  2.1669
 1858TIP3   OH2 5530   5.084   1.936   3.420  0.3225  0.3404 -0.4074
 1858TIP3    H1 5531   5.115   2.021   3.452  1.4303  0.5310 -1.8552
 1858TIP3    H2 5532   5.067   1.950   3.327 -0.1947 -0.8391 -0.5060
 1859TIP3   OH2 5533   6.801   7.634   3.446  0.2984  0.3963 -0.3767
 1859TIP3    H1 5534   6.731   7.699   3.445  1.0056  1.1728 -0.4667
 1859TIP3    H2 5535   6.810   7.611   3.539 -0.1972  0.1533 -0.3871
 1860TIP3   OH2 5536   3.946   6.629   2.604  0.1798  0.1845  0.2649
 1860TIP3    H1 5537   4.034   6.660   2.581  0.1023 -0.5290 -1.1249
 1860TIP3    H2 5538   3.887   6.683   2.550 -0.2838  0.9557  1.5028
 1861TIP3   OH2 5539   5.232   1.313   2.893 -0.0898 -0.3079 -0.0052
 1861TIP3    H1 5540   5.287   1.377   2.848  1.8114 -0.8247  1.4419
 1861TIP3    H2 5541   5.185   1.365   2.959 -1.0489  0.0627 -0.9498
 1862TIP3   OH2 5542   6.751   7.442   4.951  0.1668  0.2569  0.3626
 1862TIP3    H1 5543   6.680   7.486   4.904  0.0292 -1.0489 -0.7100
 1862TIP3    H2 5544   6.810   7.513   4.976 -0.9415  1.2407  0.2912
 1863TIP3   OH2 5545   3.275   6.252   5.141  1.4417 -0.6363  0.4161
 1863TIP3    H1 5546   3.233   6.167   5.131  0.2455 -0.1630  1.2261
 1863TIP3    H2 5547   3.242   6.304   5.069  1.3307 -0.5368  0.5376
 1864TIP3   OH2 5548   2.248   2.160   4.877  0.2677  0.2359  0.1192
 1864TIP3    H1 5549   2.251   2.187   4.786 -0.5344 -1.0557 -0.3086
 1864TIP3    H2 5550   2.169   2.107   4.885 -0.3208  1.2683  1.8499
 1865TIP3   OH2 5551   3.173   1.864   5.337 -0.2492  0.9132  0.4955
 1865TIP3    H1 5552   3.269   1.859   5.337 -0.1512  2.3302  0.1258
 1865TIP3    H2 5553   3.145   1.774   5.325  1.0700  0.6649 -1.2050
 1866TIP3   OH2 5554   5.827   3.786   3.316 -0.0303 -0.4776 -0.0582
 1866TIP3    H1 5555   5.816   3.776   3.410  1.8899 -0.4460  0.2058
 1866TIP3    H2 5556   5.801   3.877   3.299  2.8014  0.6644  1.0647
 1867TIP3   OH2 5557   6.597   0.153   3.482  0.2181  0.3427  0.2836
 1867TIP3    H1 5558   6.664   0.085   3.476 -0.6838 -0.5395  0.0531
 1867TIP3    H2 5559   6.537   0.134   3.410 -0.8535  0.4863  1.1191
 1868TIP3   OH2 5560   1.116   5.520   2.485 -0.1100  0.0388 -0.2435
 1868TIP3    H1 5561   1.096   5.612   2.472 -0.7346  0.2484  1.8837
 1868TIP3    H2 5562   1.199   5.520   2.533  1.2383 -0.6443 -2.3768
 1869TIP3   OH2 5563   2.720   3.920   4.209 -0.1177  0.0160  0.5452
 1869TIP3    H1 5564   2.749   3.849   4.266 -0.7441  0.3302  1.2807
 1869TIP3    H2 5565   2.764   3.998   4.243  1.3244 -0.1515 -0.8569
 1870TIP3   OH2 5566   6.624   0.420   6.197  0.4152  0.4832  0.2372
 1870TIP3    H1 5567   6.683   0.378   6.260 -0.6035 -0.4494  0.5978
 1870TIP3    H2 5568   6.671   0.414   6.113  0.8971 -0.1124  0.5406
 1871TIP3   OH2 5569   2.678   4.300   0.813  0.3456 -0.3198  0.3340
 1871TIP3    H1 5570   2.743   4.329   0.878  0.8621 -1.5303  0.3765
 1871TIP3    H2 5571   2.726   4.299   0.731 -0.0095  0.1184  0.1137
 1872TIP3   OH2 5572   7.816   6.135   0.919  0.2761 -0.1840  0.7357
 1872TIP3    H1 5573   7.787   6.052   0.957 -1.4125  0.1664  0.2798
 1872TIP3    H2 5574   7.877   6.109   0.849 -1.1373 -1.1274 -0.1959
 1873TIP3   OH2 5575   6.822   0.858   4.308 -0.3953  0.1290 -0.1511
 1873TIP3    H1 5576   6.903   0.890   4.348 -0.0736  1.4383 -1.7391
 1873TIP3    H2 5577   6.753   0.889   4.367  0.1021  1.3575 -0.1640
 1874TIP3   OH2 5578   5.036   5.628   0.612  0.4062 -0.0760 -0.3805
 1874TIP3    H1 5579   5.015   5.550   0.663 -0.3020 -0.6364 -1.4844
 1874TIP3    H2 5580   4.958   5.645   0.560  0.1156  2.0868  0.6746
 1875TIP3   OH2 5581   4.764   5.700   1.251  0.4618  0.3196  0.1161
 1875TIP3    H1 5582   4.711   5.622   1.267  1.2683 -0.5769 -1.3485
 1875TIP3    H2 5583   4.812   5.680   1.171  1.3499  1.9884  0.1913
 1876TIP3   OH2 5584   0.250   2.009   1.816 -0.6407  0.0142  0.0831
 1876TIP3    H1 5585   0.164   1.971   1.835  0.0947 -0.8254  2.0865
 1876TIP3    H2 5586   0.298   1.939   1.773  0.1512 -0.8624  2.2275
 1877TIP3   OH2 5587   3.636   6.928   3.819 -0.4878 -0.1145 -0.1011
 1877TIP3    H1 5588   3.654   6.980   3.898 -0.2630 -0.5189  0.1200
 1877TIP3    H2 5589   3.676   6.978   3.748  0.0643 -0.1685  0.1633
 1878TIP3   OH2 5590   2.670   0.505   2.781 -0.7504  0.1795 -0.3731
 1878TIP3    H1 5591   2.727   0.544   2.848 -0.6794  1.5346 -1.1957
 1878TIP3    H2 5592   2.584   0.501   2.823 -0.5297  0.2243  0.0908
 1879TIP3   OH2 5593   4.482   7.261   6.750  0.6535 -0.5454 -0.4327
 1879TIP3    H1 5594   4.438   7.289   6.830 -1.2679 -1.2829 -1.1755
 1879TIP3    H2 5595   4.464   7.332   6.687 -1.1197 -1.6672 -1.2655
 1880TIP3   OH2 5596   1.695   0.970   2.753  0.1791  0.8759 -0.2083
 1880TIP3    H1 5597   1.787   0.963   2.778  0.1851  0.0951 -0.4377
 1880TIP3    H2 5598   1.698   1.002   2.662  0.2313  0.5808 -0.3114
 1881TIP3   OH2 5599   6.987   1.292   4.571 -0.0026  0.7975 -0.0881
 1881TIP3    H1 5600   6.923   1.330   4.510 -0.1010  0.5112 -0.1649
 1881TIP3    H2 5601   7.070   1.296   4.524 -0.0299  0.8287 -0.1334
 1882TIP3   OH2 5602   0.440   0.505   5.094  0.3505 -0.1392 -0.4812
 1882TIP3    H1 5603   0.386   0.430   5.119 -0.5231  0.7763  0.4908
 1882TIP3    H2 5604   0.443   0.501   4.999  0.9749 -1.8411 -0.4288
 1883TIP3   OH2 5605   5.863   0.271   1.195  0.0920 -0.2801  0.4974
 1883TIP3    H1 5606   5.920   0.280   1.119 -0.0504 -1.2858  0.2488
 1883TIP3    H2 5607   5.786   0.224   1.162 -0.4176  0.1420  1.0523
 1884TIP3   OH2 5608   3.478   2.194   5.907  0.5230  0.0583 -0.3085
 1884TIP3    H1 5609   3.455   2.101   5.911 -0.9783  0.4339  2.3667
 1884TIP3    H2 5610   3.426   2.229   5.835 -1.7614 -0.5549  0.9433
 1885TIP3   OH2 5611   2.209   5.875   0.153  0.6516 -0.5143 -0.0363
 1885TIP3    H1 5612   2.153   5.913   0.085  0.0677  1.8947  1.6403
 1885TIP3    H2 5613   2.149   5.855   0.224  1.4066 -1.8895  0.2448
 1886TIP3   OH2 5614   5.411   6.142   3.034  0.6541 -0.1392  0.7260
 1886TIP3    H1 5615   5.317   6.126   3.033  0.5094  0.6341 -0.4695
 1886TIP3    H2 5616   5.428   6.185   3.118  0.0680 -0.8424  1.2223
 1887TIP3   OH2 5617   7.568   1.952   2.266 -0.5112 -0.3450  0.0742
 1887TIP3    H1 5618   7.504   1.888   2.297  0.1229 -1.0790 -0.1042
 1887TIP3    H2 5619   7.598   1.917   2.181 -1.8728  1.3712 -1.1950
 1888TIP3   OH2 5620   0.954   0.361   5.070  0.1548 -0.0771  0.1635
 1888TIP3    H1 5621   1.031   0.413   5.092  0.3132  0.1579 -0.8956
 1888TIP3    H2 5622   0.978   0.316   4.989  0.2934 -2.3672  1.3666
 1889TIP3   OH2 5623   2.540   6.822   2.460  0.7251 -0.0948 -0.5679
 1889TIP3    H1 5624   2.562   6.794   2.549 -1.8449  0.1290  0.2067
 1889TIP3    H2 5625   2.608   6.886   2.438  1.7653 -0.6077  0.9766
 1890TIP3   OH2 5626   0.768   5.802   2.054 -0.3301  0.3203 -0.2426
 1890TIP3    H1 5627   0.845   5.844   2.017 -0.9356  1.0914 -0.6609
 1890TIP3    H2 5628   0.800   5.757   2.132  0.7082 -0.1667 -0.9373
 1891TIP3   OH2 5629   1.557   2.925   5.485 -0.0047  0.0368 -0.5434
 1891TIP3    H1 5630   1.583   2.936   5.576 -0.8796  1.5613 -0.4408
 1891TIP3    H2 5631   1.463   2.944   5.484 -0.5713 -2.4430 -1.3802
 1892TIP3   OH2 5632   2.100   3.242   6.141  0.0426 -0.2233 -0.2991
 1892TIP3    H1 5633   2.084   3.313   6.203 -0.4787 -0.0985 -0.5720
 1892TIP3    H2 5634   2.190   3.214   6.160 -0.1251 -0.2220  0.5468
 1893TIP3   OH2 5635   4.047   0.704   2.354 -0.9627 -0.0692 -0.5191
 1893TIP3    H1 5636   3.956   0.674   2.352 -0.6519 -1.0163 -1.2519
 1893TIP3    H2 5637   4.061   0.732   2.445 -1.6069 -1.1613 -0.0582
 1894TIP3   OH2 5638   3.590   4.721   6.653 -0.0223  0.5686 -0.6793
 1894TIP3    H1 5639   3.601   4.719   6.558  0.0520 -0.9389 -0.6531
 1894TIP3    H2 5640   3.649   4.791   6.682  1.3853 -0.2066 -1.5674
 1895TIP3   OH2 5641   5.516   5.799   0.520 -0.0140 -0.1417  0.2394
 1895TIP3    H1 5642   5.472   5.859   0.460 -0.8517  0.0485  1.0152
 1895TIP3    H2 5643   5.564   5.857   0.580  0.4008 -0.3083  0.0703
 1896TIP3   OH2 5644   2.457   2.608   3.148 -0.0877 -0.3311  0.8224
 1896TIP3    H1 5645   2.384   2.666   3.170  1.3006  1.0301  2.0111
 1896TIP3    H2 5646   2.491   2.642   3.066 -0.4915 -0.7053  0.4915
 1897TIP3   OH2 5647   5.032   5.997   5.771 -0.2348  0.3503  0.2271
 1897TIP3    H1 5648   4.991   5.932   5.828  0.4398 -0.3107 -0.0429
 1897TIP3    H2 5649   5.016   5.965   5.682  2.7416 -1.0994  0.1326
 1898TIP3   OH2 5650   5.501   4.251   5.063  0.5207 -0.1787  0.0893
 1898TIP3    H1 5651   5.472   4.291   5.145  0.8297 -0.8316  0.5273
 1898TIP3    H2 5652   5.436   4.279   4.998  0.4120  0.5443  0.5020
 1899TIP3   OH2 5653   2.088   6.924   5.792  0.1342 -0.8715 -0.0269
 1899TIP3    H1 5654   2.130   6.848   5.831 -1.1486 -1.1488  0.8808
 1899TIP3    H2 5655   2.073   6.983   5.866  0.9510  0.2042 -0.6897
 1900TIP3   OH2 5656   5.827   2.292   2.529  0.0364  0.3448 -0.5897
 1900TIP3    H1 5657   5.873   2.283   2.446 -0.0085 -2.4304 -0.3905
 1900TIP3    H2 5658   5.738   2.319   2.505  0.0610 -0.3063 -1.4348
 1901TIP3   OH2 5659   1.907   5.678   5.433 -0.1653 -0.1888 -0.2737
 1901TIP3    H1 5660   1.901   5.589   5.397 -0.2887 -0.3712  0.1771
 1901TIP3    H2 5661   1.911   5.735   5.357 -0.4090 -0.5640 -0.5715
 1902TIP3   OH2 5662   2.451   3.832   0.605  0.4287  0.2790  0.3608
 1902TIP3    H1 5663   2.386   3.890   0.565 -0.5936 -0.6626  0.5942
 1902TIP3    H2 5664   2.436   3.747   0.564  0.9095 -0.1601  1.0703
 1903TIP3   OH2 5665   4.816   4.247   5.418  0.1999  0.3650  0.0705
 1903TIP3    H1 5666   4.746   4.310   5.433 -0.2435 -0.0913 -0.0363
 1903TIP3    H2 5667   4.882   4.268   5.485  1.1281  2.3959 -1.3899
 1904TIP3   OH2 5668   4.798   0.500   1.704 -0.2696 -0.5771  0.0994
 1904TIP3    H1 5669   4.797   0.426   1.644  1.3041  0.1233 -0.8602
 1904TIP3    H2 5670   4.753   0.570   1.656 -1.0760 -0.6753  0.6932
 1905TIP3   OH2 5671   7.002   0.147   4.409  0.6050 -0.6942 -0.4850
 1905TIP3    H1 5672   7.044   0.151   4.495  0.9401  0.2419 -0.6799
 1905TIP3    H2 5673   6.908   0.151   4.428  0.6733 -0.5903 -0.1564
 1906TIP3   OH2 5674   5.747   3.162   4.770 -0.2452 -0.4126 -0.5514
 1906TIP3    H1 5675   5.783   3.075   4.791  0.5013  0.2723  1.1591
 1906TIP3    H2 5676   5.658   3.144   4.740 -0.5391 -1.6787  0.9716
 1907TIP3   OH2 5677   6.805   0.852   3.902  0.2043  0.0141  0.1285
 1907TIP3    H1 5678   6.765   0.887   3.823  0.6971 -0.8606 -0.5243
 1907TIP3    H2 5679   6.749   0.883   3.973 -0.9196 -0.1528 -0.6532
 1908TIP3   OH2 5680   7.940   7.708   0.889  0.1142 -0.3543 -0.2305
 1908TIP3    H1 5681   7.968   7.712   0.980 -1.4780 -1.2158  0.3386
 1908TIP3    H2 5682   8.015   7.671   0.842  1.5569  1.5915  0.4009
 1909TIP3   OH2 5683   7.613   6.269   2.042  0.2224 -0.0083  0.0863
 1909TIP3    H1 5684   7.690   6.214   2.024 -0.0331 -1.0641  1.9950
 1909TIP3    H2 5685   7.584   6.241   2.129 -0.6855  2.2893  0.5780
 1910TIP3   OH2 5686   5.077   1.750   0.569 -0.1300  0.3284  0.1118
 1910TIP3    H1 5687   5.112   1.661   0.562 -0.2635  0.2206  0.7228
 1910TIP3    H2 5688   5.005   1.753   0.506 -0.9445 -0.4093  0.9761
 1911TIP3   OH2 5689   7.282   2.174   0.285 -0.3370  0.1328  0.4803
 1911TIP3    H1 5690   7.332   2.177   0.203 -3.1905  1.5701 -1.3454
 1911TIP3    H2 5691   7.289   2.083   0.314  0.7755 -0.4137 -1.3220
 1912TIP3   OH2 5692   0.395   1.623   0.919  0.4409  0.3024 -1.1271
 1912TIP3    H1 5693   0.333   1.684   0.878  0.3576  0.2126 -1.1360
 1912TIP3    H2 5694   0.363   1.536   0.894  0.2498  0.2379 -0.6723
 1913TIP3   OH2 5695   7.616   4.465   3.210  0.0549 -0.0161 -0.1102
 1913TIP3    H1 5696   7.590   4.522   3.283  1.2256  2.3869 -1.4362
 1913TIP3    H2 5697   7.708   4.447   3.224  0.1796  0.0958 -0.7406
 1914TIP3   OH2 5698   3.175   3.830   2.537  0.0322 -0.3107 -0.2158
 1914TIP3    H1 5699   3.083   3.816   2.557  0.1374  1.3018  1.7436
 1914TIP3    H2 5700   3.176   3.912   2.488  0.4538  0.0741  0.4188
 1915TIP3   OH2 5701   6.534   7.661   6.638  0.2550 -0.1913  0.0513
 1915TIP3    H1 5702   6.628   7.647   6.623  0.0552 -0.6738 -0.7858
 1915TIP3    H2 5703   6.494   7.651   6.552 -0.5492  0.2043  0.3698
 1916TIP3   OH2 5704   3.418   2.564   0.292  0.4297 -0.2651  0.4197
 1916TIP3    H1 5705   3.482   2.547   0.222  1.1044  0.3123  0.8815
 1916TIP3    H2 5706   3.333   2.556   0.248  0.7762 -1.7806 -0.0400
 1917TIP3   OH2 5707   7.618   5.400   4.345 -0.1964  0.5576 -0.1085
 1917TIP3    H1 5708   7.654   5.321   4.386 -0.1756  1.1055  0.9623
 1917TIP3    H2 5709   7.688   5.430   4.286  0.1471  0.2632  0.1399
 1918TIP3   OH2 5710   6.486   0.250   3.760 -0.3862 -0.0642  0.2133
 1918TIP3    H1 5711   6.502   0.253   3.666  1.0872  0.3593  0.4494
 1918TIP3    H2 5712   6.495   0.157   3.783 -0.3703 -0.1161 -0.0003
 1919TIP3   OH2 5713   1.758   3.313   4.243  0.0964  0.0287 -0.0387
 1919TIP3    H1 5714   1.760   3.407   4.261 -1.2947 -0.2129  1.5803
 1919TIP3    H2 5715   1.785   3.272   4.325 -2.8083 -1.0374  0.5117
 1920TIP3   OH2 5716   6.856   5.401   2.251 -0.1737  0.6949  0.5725
 1920TIP3    H1 5717   6.913   5.447   2.189 -0.0964 -1.6380 -1.2384
 1920TIP3    H2 5718   6.779   5.377   2.199 -0.7225 -0.1576  1.7361
 1921TIP3   OH2 5719   3.904   1.094   0.435  0.1521 -0.3549 -0.3049
 1921TIP3    H1 5720   3.859   1.176   0.414  1.7481  0.6395 -0.0260
 1921TIP3    H2 5721   3.959   1.115   0.510  0.3339 -1.7863 -0.0115
 1922TIP3   OH2 5722   6.650   6.390   3.350  0.3728  0.2366 -0.0825
 1922TIP3    H1 5723   6.723   6.368   3.293  0.8927 -1.7260  1.2394
 1922TIP3    H2 5724   6.583   6.425   3.291  0.9451 -1.5013 -1.8885
 1923TIP3   OH2 5725   8.285   3.394   1.676  0.1426 -0.4037  0.0536
 1923TIP3    H1 5726   8.241   3.442   1.746 -0.5383  1.5110 -1.6056
 1923TIP3    H2 5727   8.271   3.447   1.598 -0.1965 -3.0538 -1.8148
 1924TIP3   OH2 5728   1.779   6.122   3.052 -0.1707 -1.1383  0.0607
 1924TIP3    H1 5729   1.752   6.053   2.991 -0.5170 -0.9756  0.0308
 1924TIP3    H2 5730   1.700   6.140   3.104 -0.0045 -0.9501  0.2470
 1925TIP3   OH2 5731   7.469   5.608   1.752  0.3429 -0.4363 -0.1467
 1925TIP3    H1 5732   7.376   5.596   1.769  0.1087  2.3930  1.0189
 1925TIP3    H2 5733   7.474   5.684   1.694  1.9524 -0.4991 -0.1477
 1926TIP3   OH2 5734   5.347   6.104   3.559 -0.3256 -0.4693  0.0261
 1926TIP3    H1 5735   5.359   6.040   3.629  0.6988  1.3541  1.6107
 1926TIP3    H2 5736   5.273   6.157   3.588 -0.4758 -0.2469 -0.7448
 1927TIP3   OH2 5737   3.318   7.396   1.134  0.0650 -0.0740  0.0041
 1927TIP3    H1 5738   3.336   7.483   1.170 -1.2058  0.7814 -1.3014
 1927TIP3    H2 5739   3.235   7.370   1.174  0.2601 -0.5344  0.1136
 1928TIP3   OH2 5740   6.195   0.566   3.709 -0.3858 -0.0063 -0.1565
 1928TIP3    H1 5741   6.274   0.613   3.683 -0.1023 -0.4878 -0.1700
 1928TIP3    H2 5742   6.125   0.606   3.657  0.3293 -1.7692 -2.6810
 1929TIP3   OH2 5743   5.728   1.561   4.051 -0.1425 -0.6778  0.2349
 1929TIP3    H1 5744   5.690   1.606   3.976 -1.5274 -0.7452  0.8720
 1929TIP3    H2 5745   5.741   1.471   4.021 -2.1227 -1.1070  0.4858
 1930TIP3   OH2 5746   4.392   0.051   4.362 -0.2464 -0.3602 -0.2018
 1930TIP3    H1 5747   4.428   0.068   4.449 -1.0638 -0.6188  0.1953
 1930TIP3    H2 5748   4.336   0.127   4.344  0.1831 -0.1473 -0.6452
 1931TIP3   OH2 5749   1.467   3.672   0.288  0.4264  0.0291 -0.0300
 1931TIP3    H1 5750   1.481   3.577   0.293  0.0885 -0.1854 -2.2069
 1931TIP3    H2 5751   1.384   3.686   0.333  0.0287 -0.8501 -0.4706
 1932TIP3   OH2 5752   4.590   0.255   3.556  0.5533 -0.8109 -0.1504
 1932TIP3    H1 5753   4.524   0.321   3.576  0.3670 -1.6639  2.3506
 1932TIP3    H2 5754   4.547   0.172   3.576  2.3281 -1.3981  1.5007
 1933TIP3   OH2 5755   6.800   5.894   3.585  0.7379 -0.2390 -0.8508
 1933TIP3    H1 5756   6.818   5.964   3.648  1.2111 -0.8206 -0.3309
 1933TIP3    H2 5757   6.719   5.854   3.617  1.8766 -1.6503  0.4193
 1934TIP3   OH2 5758   1.576   4.046   1.346  0.2896  0.0474  0.1581
 1934TIP3    H1 5759   1.598   4.090   1.428 -0.4058  0.3828  0.1793
 1934TIP3    H2 5760   1.508   3.983   1.371 -0.7056  0.8888 -0.3064
 1935TIP3   OH2 5761   2.742   1.797   0.682 -0.2049  0.3081 -0.1810
 1935TIP3    H1 5762   2.762   1.887   0.707 -0.7753 -0.2341  2.5764
 1935TIP3    H2 5763   2.661   1.804   0.630  0.3767  1.4411 -0.9835
 1936TIP3   OH2 5764   2.304   5.599   3.701 -0.1056  0.1480 -0.8148
 1936TIP3    H1 5765   2.235   5.569   3.761  0.5819 -0.6784 -0.4130
 1936TIP3    H2 5766   2.385   5.562   3.736  0.4634  0.5595 -1.6437
 1937TIP3   OH2 5767   0.696   0.335   0.739  0.5207 -0.1255  0.2898
 1937TIP3    H1 5768   0.779   0.318   0.784  0.3663  1.9298  1.4694
 1937TIP3    H2 5769   0.657   0.408   0.787 -1.3972 -0.2211 -1.0083
 1938TIP3   OH2 5770   3.145   1.781   4.720  0.0490 -0.2868 -0.0288
 1938TIP3    H1 5771   3.107   1.847   4.778  2.1868  0.9202  0.1002
 1938TIP3    H2 5772   3.121   1.811   4.632  0.0444  0.0251  0.0763
 1939TIP3   OH2 5773   6.983   3.716   5.192  0.5525  0.1457  0.2751
 1939TIP3    H1 5774   6.969   3.647   5.127  2.3547  2.5742 -3.0328
 1939TIP3    H2 5775   6.965   3.674   5.276 -3.1120 -2.9966 -1.7136
 1940TIP3   OH2 5776   5.496   7.315   0.243 -0.6457 -0.1688 -0.4667
 1940TIP3    H1 5777   5.542   7.259   0.181  0.8565  0.9322 -0.4054
 1940TIP3    H2 5778   5.556   7.324   0.317 -1.3260  0.6060  0.0137
 1941TIP3   OH2 5779   5.733   4.481   2.752 -0.1961  0.3762  0.4859
 1941TIP3    H1 5780   5.682   4.531   2.815  0.7788  0.3382  1.3414
 1941TIP3    H2 5781   5.821   4.479   2.790  0.0731 -0.8909 -0.1657
 1942TIP3   OH2 5782   4.694   3.149   5.586 -0.2289  0.1487 -0.6564
 1942TIP3    H1 5783   4.776   3.157   5.634 -0.5215  0.0393 -0.1364
 1942TIP3    H2 5784   4.651   3.234   5.597 -0.1108  0.2660 -1.0732
 1943TIP3   OH2 5785   3.112   2.578   1.101  0.3236 -0.0825 -0.1345
 1943TIP3    H1 5786   3.134   2.507   1.161 -1.0822 -0.8060 -0.4221
 1943TIP3    H2 5787   3.107   2.656   1.156 -1.8335 -0.8833  0.9238
 1944TIP3   OH2 5788   8.172   2.489   6.667  0.1776  0.5666 -0.4026
 1944TIP3    H1 5789   8.163   2.427   6.595 -1.7083 -0.0209  0.2622
 1944TIP3    H2 5790   8.261   2.476   6.699  0.5327 -0.2537 -1.6345
 1945TIP3   OH2 5791   5.144   7.572   0.287  0.1352 -0.8018 -0.3226
 1945TIP3    H1 5792   5.171   7.501   0.229  3.4846 -0.0306  0.0686
 1945TIP3    H2 5793   5.169   7.652   0.241  0.4671 -0.0749  1.0529
 1946TIP3   OH2 5794   6.884   7.071   6.016 -0.3088 -0.1914  0.2110
 1946TIP3    H1 5795   6.865   7.053   6.108 -0.2981  0.2221  0.2971
 1946TIP3    H2 5796   6.819   7.137   5.991  1.2576  1.5727  0.6270
 1947TIP3   OH2 5797   3.175   0.251   5.730  0.2999 -0.0349  0.3522
 1947TIP3    H1 5798   3.106   0.283   5.672  1.7143  0.6750 -1.0604
 1947TIP3    H2 5799   3.132   0.190   5.789 -1.2175 -1.0055 -1.6329
 1948TIP3   OH2 5800   1.513   3.869   2.861  0.2206 -0.5755 -0.0471
 1948TIP3    H1 5801   1.575   3.908   2.923 -0.8385 -1.4662  1.6059
 1948TIP3    H2 5802   1.552   3.888   2.775  1.6018  0.8939  0.8381
 1949TIP3   OH2 5803   5.103   5.874   0.501 -0.3355  0.1060 -0.2063
 1949TIP3    H1 5804   5.155   5.871   0.581  1.0559  2.3276 -0.9198
 1949TIP3    H2 5805   5.044   5.799   0.507  0.6712 -0.5766  2.2238
 1950TIP3   OH2 5806   0.697   1.667   3.545 -0.3188  0.1706 -0.7429
 1950TIP3    H1 5807   0.755   1.740   3.563 -1.4068  0.7423  0.5969
 1950TIP3    H2 5808   0.671   1.679   3.454 -0.7905  1.6913 -0.4329
 1951TIP3   OH2 5809   3.500   4.905   2.702 -0.0515  0.4484 -0.3224
 1951TIP3    H1 5810   3.549   4.986   2.693  1.4152 -0.0519  2.2822
 1951TIP3    H2 5811   3.527   4.852   2.626  0.0285  1.8198 -1.2806
 1952TIP3   OH2 5812   7.545   0.838   2.580 -0.0724  0.0686 -0.5301
 1952TIP3    H1 5813   7.637   0.844   2.606 -0.5130  0.0039  1.2236
 1952TIP3    H2 5814   7.546   0.793   2.496  1.4558 -0.5429 -0.2179
 1953TIP3   OH2 5815   0.488   4.151   3.690  0.3045  0.2677 -0.8056
 1953TIP3    H1 5816   0.500   4.061   3.722 -0.0998  0.9740  1.4506
 1953TIP3    H2 5817   0.402   4.177   3.722  1.2091  2.1145  0.2357
 1954TIP3   OH2 5818   6.637   4.077   5.899 -0.1643 -0.5306  0.0151
 1954TIP3    H1 5819   6.600   4.057   5.813 -1.3253 -1.0923  0.6225
 1954TIP3    H2 5820   6.688   4.000   5.923 -0.6568 -0.7798  0.2603
 1955TIP3   OH2 5821   7.431   1.220   0.257  0.0621  0.0264 -0.0551
 1955TIP3    H1 5822   7.390   1.268   0.186  0.6508  1.0549  0.2837
 1955TIP3    H2 5823   7.359   1.172   0.299 -1.0319  2.5670  1.1580
 1956TIP3   OH2 5824   0.408   5.423   3.431 -0.4159 -0.4758  0.5948
 1956TIP3    H1 5825   0.461   5.384   3.361 -0.3612  1.4867 -0.5019
 1956TIP3    H2 5826   0.353   5.351   3.461  1.0223 -1.9067 -0.0161
 1957TIP3   OH2 5827   7.661   5.259   2.977  0.3310  0.5815 -0.1122
 1957TIP3    H1 5828   7.635   5.200   2.907  0.2597 -0.9200  1.1176
 1957TIP3    H2 5829   7.619   5.342   2.956 -0.2714 -0.0416 -1.4572
 1958TIP3   OH2 5830   2.506   6.996   5.095  0.5438  0.0457 -0.2728
 1958TIP3    H1 5831   2.568   6.996   5.167  1.5135 -0.3690 -1.0718
 1958TIP3    H2 5832   2.547   6.941   5.028 -0.3102  0.4361 -1.1485
 1959TIP3   OH2 5833   7.037   3.687   5.505  0.1407 -0.4654 -0.0678
 1959TIP3    H1 5834   6.946   3.659   5.511  0.5018 -1.3968  1.5344
 1959TIP3    H2 5835   7.074   3.670   5.592  1.9895 -0.5977 -0.8234
 1960TIP3   OH2 5836   7.900   0.300   0.027  0.0070  0.0765  0.2154
 1960TIP3    H1 5837   7.888   0.227   0.087  0.2666  0.1818  0.3935
 1960TIP3    H2 5838   7.829   0.361   0.048 -1.1971 -0.8217 -0.9835
 1961TIP3   OH2 5839   7.781   7.344   2.027 -0.0714  0.0001 -0.3529
 1961TIP3    H1 5840   7.761   7.427   2.070  0.3208 -0.6535  1.1780
 1961TIP3    H2 5841   7.867   7.358   1.987  0.8568 -0.1563  1.4408
 1962TIP3   OH2 5842   7.664   6.406   4.694  0.0618  0.1183  1.0380
 1962TIP3    H1 5843   7.717   6.485   4.709 -0.9180  1.5189 -2.0211
 1962TIP3    H2 5844   7.574   6.438   4.690 -0.4757 -1.3561  0.7735
 1963TIP3   OH2 5845   7.865   1.312   5.473 -0.0546 -0.0308 -0.0830
 1963TIP3    H1 5846   7.815   1.340   5.550  1.2282 -1.0158  1.1545
 1963TIP3    H2 5847   7.931   1.380   5.460 -0.0636 -0.0271 -0.1103
 1964TIP3   OH2 5848   0.584   3.855   2.678 -0.3453 -0.5496 -0.3501
 1964TIP3    H1 5849   0.626   3.773   2.705 -0.8947 -1.4724 -2.1085
 1964TIP3    H2 5850   0.655   3.906   2.637  0.7749  1.3714  3.5313
 1965TIP3   OH2 5851   4.298   5.556   2.943  0.2818 -0.6523 -0.0904
 1965TIP3    H1 5852   4.365   5.498   2.979 -0.9911 -1.7360  0.5863
 1965TIP3    H2 5853   4.262   5.508   2.869 -0.5724 -0.5973  0.2849
 1966TIP3   OH2 5854   1.300   1.990   6.247 -0.0455  0.5674 -0.2695
 1966TIP3    H1 5855   1.393   1.978   6.227  0.0219 -0.8183  0.7075
 1966TIP3    H2 5856   1.286   1.939   6.327 -1.3335  1.9746  0.4482
 1967TIP3   OH2 5857   3.070   5.554   5.685 -0.2229  0.5788  0.3322
 1967TIP3    H1 5858   3.159   5.541   5.718  0.5382  0.3701 -1.6375
 1967TIP3    H2 5859   3.024   5.474   5.708 -0.4592  1.3598  2.8727
 1968TIP3   OH2 5860   7.206   5.726   3.798 -0.1356  0.1099 -0.1059
 1968TIP3    H1 5861   7.241   5.779   3.727 -1.1872  2.4159  0.9858
 1968TIP3    H2 5862   7.255   5.755   3.875 -1.4669  0.2897  0.7012
 1969TIP3   OH2 5863   3.051   5.489   4.824 -0.3559  0.2033 -0.2166
 1969TIP3    H1 5864   3.051   5.498   4.919 -0.5705 -2.2383  0.0936
 1969TIP3    H2 5865   3.091   5.403   4.809  1.2170  1.2409 -2.4423
 1970TIP3   OH2 5866   6.100   0.476   0.379 -0.1289 -0.2996 -0.8236
 1970TIP3    H1 5867   6.043   0.489   0.303  0.3136 -1.4297 -1.3817
 1970TIP3    H2 5868   6.052   0.514   0.452 -0.8011  0.3447 -1.5774
 1971TIP3   OH2 5869   0.026   6.818   3.968 -0.3059 -0.1730 -0.9385
 1971TIP3    H1 5870   0.048   6.725   3.969 -0.7200 -0.2705 -0.3472
 1971TIP3    H2 5871   0.081   6.855   3.899 -0.7607 -1.0162 -1.7935
 1972TIP3   OH2 5872   1.997   4.218   0.057  0.2011  0.1319  0.1717
 1972TIP3    H1 5873   1.945   4.284   0.011  1.0347  1.2143  0.7387
 1972TIP3    H2 5874   2.088   4.236   0.031  0.5638 -0.0001  1.2785
 1973TIP3   OH2 5875   5.031   3.095   2.396  0.0478  0.5692  0.2142
 1973TIP3    H1 5876   5.118   3.080   2.432  0.3125 -0.2422 -0.7164
 1973TIP3    H2 5877   4.973   3.097   2.473  0.6949 -0.3623  0.7442
 1974TIP3   OH2 5878   2.118   2.647   5.255  0.0659 -0.5929  0.3596
 1974TIP3    H1 5879   2.040   2.592   5.247 -0.2575 -0.3563  1.6856
 1974TIP3    H2 5880   2.163   2.613   5.332  0.7163 -0.0369  0.2336
 1975TIP3   OH2 5881   8.235   0.999   0.607 -0.4062  0.2760 -0.0048
 1975TIP3    H1 5882   8.152   1.013   0.652 -1.5197 -0.5893 -1.6741
 1975TIP3    H2 5883   8.220   1.029   0.518  0.9038 -0.3683 -0.4763
 1976TIP3   OH2 5884   1.644   5.086   2.746  0.2355 -0.3612  0.0053
 1976TIP3    H1 5885   1.550   5.100   2.751  0.3048 -0.2571  1.3665
 1976TIP3    H2 5886   1.672   5.137   2.670 -0.3620  2.3543  1.4894
 1977TIP3   OH2 5887   8.156   3.582   1.469 -0.3574 -0.2045  0.2475
 1977TIP3    H1 5888   8.063   3.598   1.453 -0.2758 -0.9856 -1.1853
 1977TIP3    H2 5889   8.200   3.637   1.404  0.1466 -0.5715  0.2769
 1978TIP3   OH2 5890   3.965   3.521   6.021  0.2889 -0.3566  0.0426
 1978TIP3    H1 5891   3.989   3.462   5.949  0.7197 -0.3532  0.1798
 1978TIP3    H2 5892   4.046   3.533   6.070 -0.3510 -1.8654  1.6279
 1979TIP3   OH2 5893   4.376   0.470   3.262  0.0501 -0.6093 -0.4684
 1979TIP3    H1 5894   4.389   0.381   3.229  0.8885 -0.9190  0.6418
 1979TIP3    H2 5895   4.414   0.469   3.350  0.0757  0.8494 -0.4387
 1980TIP3   OH2 5896   3.480   1.697   0.328  0.4371 -0.1157  0.1619
 1980TIP3    H1 5897   3.503   1.666   0.241 -1.8122  1.7028 -1.1875
 1980TIP3    H2 5898   3.481   1.619   0.383 -0.1418 -1.6845 -1.9509
 1981TIP3   OH2 5899   8.191   4.143   1.093 -0.3770 -0.4206 -0.2371
 1981TIP3    H1 5900   8.254   4.115   1.026 -1.3634 -0.0722 -1.3472
 1981TIP3    H2 5901   8.144   4.063   1.116 -0.6890 -0.3656 -0.6766
 1982TIP3   OH2 5902   2.697   6.972   6.163  0.1017 -0.3244 -0.6085
 1982TIP3    H1 5903   2.668   6.985   6.073 -1.8170  0.8245  0.1097
 1982TIP3    H2 5904   2.697   7.059   6.202 -2.3858 -1.0629  1.3675
 1983TIP3   OH2 5905   2.289   5.441   1.108 -0.5637  0.3053  0.0185
 1983TIP3    H1 5906   2.233   5.370   1.139 -0.1534  0.5680  1.3972
 1983TIP3    H2 5907   2.376   5.403   1.104 -0.4454  0.5607  0.1743
 1984TIP3   OH2 5908   0.651   1.154   6.318 -0.5723  0.0164 -0.5583
 1984TIP3    H1 5909   0.560   1.179   6.306 -0.4284  0.0851 -1.5915
 1984TIP3    H2 5910   0.690   1.227   6.367 -0.9852  0.1428 -0.4155
 1985TIP3   OH2 5911   7.099   3.529   2.692  0.1351  0.2763 -0.2602
 1985TIP3    H1 5912   7.051   3.591   2.747 -0.1236  1.0953 -1.3805
 1985TIP3    H2 5913   7.039   3.508   2.621  0.9753  0.3485 -1.0076
 1986TIP3   OH2 5914   1.015   3.487   3.474  0.0870 -0.5201  0.1544
 1986TIP3    H1 5915   1.106   3.474   3.499  0.0039  0.4560  1.0054
 1986TIP3    H2 5916   1.019   3.547   3.399  0.1338 -0.3077  0.3264
 1987TIP3   OH2 5917   5.576   4.154   1.928 -0.1451  0.1717 -0.5046
 1987TIP3    H1 5918   5.648   4.158   1.991 -0.9296 -2.1503  0.6548
 1987TIP3    H2 5919   5.614   4.117   1.849 -0.0932 -1.4942  0.2605
 1988TIP3   OH2 5920   0.638   4.033   2.897 -0.6483 -0.3129  0.9321
 1988TIP3    H1 5921   0.732   4.018   2.906 -0.1173  0.7233 -1.8138
 1988TIP3    H2 5922   0.610   3.968   2.831 -0.7010  2.5766 -2.1462
 1989TIP3   OH2 5923   6.351   3.652   3.172 -0.1436 -0.4461  0.2029
 1989TIP3    H1 5924   6.257   3.669   3.169 -0.1286 -0.2036  0.9648
 1989TIP3    H2 5925   6.373   3.651   3.265  1.2741  3.2229  0.0724
 1990TIP3   OH2 5926   2.570   3.732   6.688 -0.0099  0.3615 -0.4669
 1990TIP3    H1 5927   2.616   3.812   6.662  0.4529  0.0005 -0.7772
 1990TIP3    H2 5928   2.597   3.667   6.623  0.3818 -0.3050  0.3539
 1991TIP3   OH2 5929   6.872   2.484   5.051 -0.7421  0.0029  0.3432
 1991TIP3    H1 5930   6.862   2.539   4.973  0.1606 -1.4253 -0.8432
 1991TIP3    H2 5931   6.882   2.546   5.123  0.3276  1.3915 -0.9325
 1992TIP3   OH2 5932   7.622   3.463   1.281 -0.6712 -0.3658 -0.3530
 1992TIP3    H1 5933   7.640   3.423   1.196  0.7123 -1.1410  0.2530
 1992TIP3    H2 5934   7.696   3.435   1.336 -1.3535  0.3947  1.0033
 1993TIP3   OH2 5935   5.577   2.606   6.193  0.3772  0.4552 -0.3357
 1993TIP3    H1 5936   5.582   2.511   6.182  1.6534  0.6380 -1.5915
 1993TIP3    H2 5937   5.488   2.629   6.165 -0.0762 -0.3938  0.3548
 1994TIP3   OH2 5938   4.532   5.703   2.720 -0.3655 -0.0110  0.1323
 1994TIP3    H1 5939   4.468   5.702   2.649 -0.3829 -2.0980  0.1200
 1994TIP3    H2 5940   4.498   5.641   2.784  1.8671 -1.6073 -0.1132
 1995TIP3   OH2 5941   0.674   0.169   4.351  0.3553 -0.1768  0.7288
 1995TIP3    H1 5942   0.652   0.194   4.261 -0.7180 -0.7681  0.8118
 1995TIP3    H2 5943   0.767   0.192   4.360  0.3654  0.2893 -0.3848
 1996TIP3   OH2 5944   6.605   3.133   0.342  0.4102 -0.0794  0.5364
 1996TIP3    H1 5945   6.681   3.182   0.375  2.9021 -2.1651 -1.6568
 1996TIP3    H2 5946   6.566   3.192   0.277  0.6790  0.6842  1.0505
 1997TIP3   OH2 5947   7.337   6.642   4.613  0.4520 -0.5993 -1.0354
 1997TIP3    H1 5948   7.343   6.546   4.615  0.0632 -0.6169  0.7278
 1997TIP3    H2 5949   7.310   6.662   4.524  0.7712 -2.1165 -1.5053
 1998TIP3   OH2 5950   6.130   5.500   2.577  0.0559  0.6235  0.1065
 1998TIP3    H1 5951   6.043   5.527   2.608 -0.2714  0.2316 -0.4523
 1998TIP3    H2 5952   6.188   5.572   2.602 -0.8343  2.0357 -1.6196
 1999TIP3   OH2 5953   1.621   1.062   3.946 -0.2281  0.2185  0.0545
 1999TIP3    H1 5954   1.715   1.045   3.948 -0.4771 -1.2555 -0.2533
 1999TIP3    H2 5955   1.581   0.976   3.937 -1.5477  0.9457 -1.5127
 2000TIP3   OH2 5956   5.188   3.220   2.787 -0.2339  0.5674 -0.6415
 2000TIP3    H1 5957   5.237   3.201   2.866 -0.7763  0.0132 -0.4250
 2000TIP3    H2 5958   5.242   3.185   2.716 -1.0151 -1.5213 -0.2825
 2001TIP3   OH2 5959   6.965   4.624   3.880 -0.3974 -0.5637 -0.1706
 2001TIP3    H1 5960   7.035   4.599   3.820 -1.2371 -0.4086 -1.2509
 2001TIP3    H2 5961   7.010   4.665   3.954  0.6511 -0.5259 -0.8115
 2002TIP3   OH2 5962   5.667   2.381   1.353  0.3276 -0.1292  0.4484
 2002TIP3    H1 5963   5.717   2.307   1.386 -0.4647 -0.5072  0.8286
 2002TIP3    H2 5964   5.595   2.392   1.416  0.0341  0.5160  0.0197
 2003TIP3   OH2 5965   7.054   0.609   6.482  0.4480 -0.0527 -0.1644
 2003TIP3    H1 5966   7.021   0.595   6.394 -0.7676 -1.4409  0.4627
 2003TIP3    H2 5967   7.092   0.697   6.481 -2.5519  1.3522 -1.1640
 2004TIP3   OH2 5968   5.981   2.064   1.623  0.7036  0.0207 -0.0656
 2004TIP3    H1 5969   5.934   2.147   1.611  1.1826  0.0542 -2.2301
 2004TIP3    H2 5970   6.064   2.089   1.664  0.4366  0.4935  0.1873
 2005TIP3   OH2 5971   7.843   5.266   2.470  0.0391  0.3411  0.2072
 2005TIP3    H1 5972   7.913   5.330   2.462  0.6301 -0.4274 -1.0996
 2005TIP3    H2 5973   7.875   5.201   2.532  0.2611  0.2887  0.0393
 2006TIP3   OH2 5974   1.436   0.241   4.032 -0.2507  0.2172  0.8283
 2006TIP3    H1 5975   1.345   0.258   4.011  0.0863  0.4863 -0.5258
 2006TIP3    H2 5976   1.470   0.194   3.956  1.0559  1.2216  0.7504
 2007TIP3   OH2 5977   7.893   4.438   3.212 -0.2948  0.2841  0.3323
 2007TIP3    H1 5978   7.955   4.507   3.233  3.7183 -2.8554 -0.0587
 2007TIP3    H2 5979   7.890   4.435   3.117  0.7416 -0.9209  0.3086
 2008TIP3   OH2 5980   2.729   5.103   0.229  0.6404  0.2085 -0.0779
 2008TIP3    H1 5981   2.683   5.067   0.153  1.5892  1.6416 -1.4032
 2008TIP3    H2 5982   2.661   5.112   0.296 -0.1818 -1.2777 -0.6653
 2009TIP3   OH2 5983   2.333   7.842   0.227 -0.0890  0.0716 -0.1849
 2009TIP3    H1 5984   2.254   7.868   0.180  0.5368 -1.0703 -1.9681
 2009TIP3    H2 5985   2.374   7.775   0.171  1.5261 -0.2255  1.2508
 2010TIP3   OH2 5986   2.580   6.508   3.151 -0.4433 -0.2036 -0.5728
 2010TIP3    H1 5987   2.518   6.560   3.101 -1.4796 -1.7961 -1.0098
 2010TIP3    H2 5988   2.550   6.513   3.241 -1.6914 -1.5739 -0.8859
 2011TIP3   OH2 5989   7.340   4.706   2.505  0.4040  0.1351 -0.7773
 2011TIP3    H1 5990   7.329   4.612   2.487 -0.2195  0.4744 -2.3096
 2011TIP3    H2 5991   7.356   4.710   2.600 -2.1350 -1.3421 -0.1807
 2012TIP3   OH2 5992   0.252   5.229   5.011  0.1656  0.5016  0.6347
 2012TIP3    H1 5993   0.267   5.182   4.929  0.2642 -0.1719  1.0386
 2012TIP3    H2 5994   0.327   5.288   5.018  0.3302  0.3215  0.4121
 2013TIP3   OH2 5995   4.189   4.125   2.771 -1.2699  0.0372  0.6405
 2013TIP3    H1 5996   4.119   4.156   2.828 -0.8118  0.5974  0.9067
 2013TIP3    H2 5997   4.161   4.150   2.683 -0.9417  1.1671  0.8406
 2014TIP3   OH2 5998   1.850   6.039   3.418  0.0492 -0.2802  0.2706
 2014TIP3    H1 5999   1.761   6.067   3.396 -0.2627 -0.1234  1.6337
 2014TIP3    H2 6000   1.853   5.947   3.390 -0.0166  0.1326 -1.1822
 2015TIP3   OH2 6001   1.904   3.061   0.341 -0.4576 -0.0444  0.1646
 2015TIP3    H1 6002   1.954   3.134   0.304 -2.1406  1.1374  0.1406
 2015TIP3    H2 6003   1.915   2.990   0.277 -0.2453  0.7518 -0.7111
 2016TIP3   OH2 6004   0.034   6.520   6.641  0.1037  0.3008  0.1716
 2016TIP3    H1 6005  -0.001   6.549   6.726 -1.7094 -0.9492 -0.1014
 2016TIP3    H2 6006   0.048   6.426   6.651  0.3374  0.2264 -0.7639
 2017TIP3   OH2 6007   4.328   1.137   0.777 -0.0779  0.2952 -0.3875
 2017TIP3    H1 6008   4.355   1.096   0.859 -1.1926 -0.2146 -0.2526
 2017TIP3    H2 6009   4.402   1.125   0.718  0.2184 -0.5312  0.1423
 2018TIP3   OH2 6010   2.611   6.615   0.673 -0.0543 -0.3111  0.2736
 2018TIP3    H1 6011   2.547   6.686   0.681  0.3848  0.0361  0.7274
 2018TIP3    H2 6012   2.559   6.535   0.675 -0.4213 -0.0626  1.4188
 2019TIP3   OH2 6013   6.933   4.550   4.657 -0.8704 -0.0152 -1.2483
 2019TIP3    H1 6014   6.984   4.630   4.653 -1.8974  0.6945 -0.7845
 2019TIP3    H2 6015   6.997   4.481   4.675 -0.1509  0.9235 -0.0498
 2020TIP3   OH2 6016   3.158   0.087   1.545  0.3579 -0.0611 -0.1675
 2020TIP3    H1 6017   3.173   0.021   1.612  1.9841  0.0484 -0.3952
 2020TIP3    H2 6018   3.242   0.098   1.502  0.4522  2.9206  0.5465
 2021TIP3   OH2 6019   8.174   4.850   5.961 -0.5872 -0.4387  0.0408
 2021TIP3    H1 6020   8.188   4.845   6.055 -1.1773  0.1151  0.1676
 2021TIP3    H2 6021   8.193   4.941   5.938 -0.0761 -0.6613 -0.4430
 2022TIP3   OH2 6022   6.878   6.249   6.081  0.4049 -0.3010  0.4724
 2022TIP3    H1 6023   6.816   6.197   6.132 -0.2044 -0.4210 -0.3678
 2022TIP3    H2 6024   6.833   6.333   6.067 -0.4252 -1.0774 -1.8163
 2023TIP3   OH2 6025   0.595   6.501   4.182  0.4419 -0.2307 -0.0756
 2023TIP3    H1 6026   0.594   6.580   4.128 -0.1341  0.8128  1.3882
 2023TIP3    H2 6027   0.503   6.488   4.208  0.5058 -1.4727 -0.4060
 2024TIP3   OH2 6028   1.384   7.237   0.223 -0.0532  0.0593 -0.3409
 2024TIP3    H1 6029   1.440   7.161   0.206 -0.5977 -0.2942 -0.5525
 2024TIP3    H2 6030   1.310   7.202   0.271  0.1881  0.6287  0.4590
 2025TIP3   OH2 6031   3.870   1.660   4.608 -0.3994 -0.1847  0.3083
 2025TIP3    H1 6032   3.965   1.652   4.596 -0.5112 -0.7990 -0.2291
 2025TIP3    H2 6033   3.860   1.694   4.697  0.3539  1.3862 -0.1743
 2026TIP3   OH2 6034   4.497   1.619   0.884 -0.3046 -0.3225  0.0091
 2026TIP3    H1 6035   4.545   1.542   0.917 -0.8979 -0.3848  0.7220
 2026TIP3    H2 6036   4.509   1.686   0.951  3.3258  1.5450 -2.1574
 2027TIP3   OH2 6037   0.678   3.153   4.877 -0.2161  0.0949  0.3659
 2027TIP3    H1 6038   0.653   3.168   4.968  0.1930 -3.0540  1.0819
 2027TIP3    H2 6039   0.597   3.164   4.827 -0.7231  0.4835  1.2545
 2028TIP3   OH2 6040   6.338   2.357   6.540 -0.2951  0.0760  0.1343
 2028TIP3    H1 6041   6.287   2.424   6.586  0.4989  0.0217  1.1410
 2028TIP3    H2 6042   6.390   2.406   6.476 -1.1894  0.1851 -0.5299
 2029TIP3   OH2 6043   3.425   0.982   1.308 -0.1749  0.4216 -0.3375
 2029TIP3    H1 6044   3.463   1.057   1.261  0.7056 -0.2459 -0.7073
 2029TIP3    H2 6045   3.401   1.017   1.394  0.5271  1.0502 -0.3873
 2030TIP3   OH2 6046   5.473   7.445   0.925  0.0995  0.1127 -0.0533
 2030TIP3    H1 6047   5.507   7.502   0.994  0.0314 -0.4289  0.4355
 2030TIP3    H2 6048   5.420   7.503   0.870  2.0656  1.0520 -1.0438
 2031TIP3   OH2 6049   1.249   0.620   0.766 -0.3989  0.8376  0.2927
 2031TIP3    H1 6050   1.237   0.560   0.839 -1.5324 -0.4537 -0.8769
 2031TIP3    H2 6051   1.336   0.658   0.779 -0.1830 -0.0820  1.7570
 2032TIP3   OH2 6052   7.157   1.995   4.814  0.0853 -0.2763 -0.5952
 2032TIP3    H1 6053   7.176   2.083   4.780 -0.1977 -0.0267 -0.1268
 2032TIP3    H2 6054   7.080   2.008   4.869  1.2616 -0.4033  1.1776
 2033TIP3   OH2 6055   6.560   0.920   5.795  0.5398  0.5823 -0.1576
 2033TIP3    H1 6056   6.547   0.826   5.805  0.4939  0.7095  1.1506
 2033TIP3    H2 6057   6.531   0.939   5.706  1.3503 -0.7628 -0.7355
 2034TIP3   OH2 6058   0.974   5.762   0.481 -0.2160  0.6480 -0.0251
 2034TIP3    H1 6059   0.928   5.712   0.414 -0.3345  1.7811 -0.8322
 2034TIP3    H2 6060   0.906   5.812   0.525 -0.1019  0.1209  0.7638
 2035TIP3   OH2 6061   6.022   7.172   5.312 -0.5452  0.1345 -0.0680
 2035TIP3    H1 6062   5.984   7.088   5.335 -2.0536  0.6967 -0.4138
 2035TIP3    H2 6063   6.009   7.227   5.389  0.0407  0.1956 -0.0030
 2036TIP3   OH2 6064   1.362   3.251   1.679  0.0601 -0.3329  0.3218
 2036TIP3    H1 6065   1.373   3.157   1.664  0.5127 -0.0667 -1.0697
 2036TIP3    H2 6066   1.291   3.277   1.620 -2.0907 -0.2897  2.7116
 2037TIP3   OH2 6067   6.544   1.164   6.292  0.6366 -0.0022  0.2669
 2037TIP3    H1 6068   6.449   1.162   6.282  0.8422 -0.1191 -2.2940
 2037TIP3    H2 6069   6.568   1.255   6.275  0.9052  0.4207  2.5810
 2038TIP3   OH2 6070   6.225   2.973   2.910  0.1631 -0.5498  0.0858
 2038TIP3    H1 6071   6.225   3.048   2.849 -0.4777  0.0831  0.8518
 2038TIP3    H2 6072   6.142   2.979   2.956  0.5382 -1.1643  0.8678
 2039TIP3   OH2 6073   7.977   6.754   3.212 -0.6667  0.0469  0.4717
 2039TIP3    H1 6074   7.963   6.660   3.203 -0.2866 -0.0268  0.6077
 2039TIP3    H2 6075   7.891   6.793   3.200 -0.6080 -0.2194 -1.0130
 2040TIP3   OH2 6076   0.868   0.183   0.518  0.2245 -0.3878  0.4160
 2040TIP3    H1 6077   0.903   0.184   0.607  0.4850  1.8964  0.3513
 2040TIP3    H2 6078   0.946   0.189   0.462 -0.0005 -0.5689  0.0808
 2041TIP3   OH2 6079   6.704   1.901   4.269 -0.3958 -0.0253  0.0492
 2041TIP3    H1 6080   6.709   1.944   4.354 -1.6813 -1.9959  1.2243
 2041TIP3    H2 6081   6.643   1.828   4.283  0.9607 -1.6862 -2.0059
 2042TIP3   OH2 6082   3.934   6.834   6.464 -0.0935 -0.7790 -0.2261
 2042TIP3    H1 6083   3.865   6.780   6.504 -0.3975 -2.2610 -2.5417
 2042TIP3    H2 6084   4.015   6.790   6.485  0.0663  0.1986  1.3323
 2043TIP3   OH2 6085   1.314   1.160   4.629  0.2141 -0.1824 -0.1188
 2043TIP3    H1 6086   1.348   1.125   4.546  0.6210 -1.3863  0.5377
 2043TIP3    H2 6087   1.239   1.215   4.603  0.6636 -0.1106 -1.3187
 2044TIP3   OH2 6088   4.545   7.430   0.165  0.0381 -0.1932  0.4513
 2044TIP3    H1 6089   4.601   7.400   0.237  0.3550  0.8748  0.6653
 2044TIP3    H2 6090   4.496   7.504   0.202  0.9262  1.0098 -0.7036
 2045TIP3   OH2 6091   2.271   4.637   3.284 -0.0463 -0.5254  0.2020
 2045TIP3    H1 6092   2.322   4.558   3.268  0.1019 -0.4679  0.3853
 2045TIP3    H2 6093   2.283   4.690   3.205 -0.0175 -0.6163  0.1452
 2046TIP3   OH2 6094   4.667   1.027   6.410 -0.4601 -0.1340  0.4788
 2046TIP3    H1 6095   4.631   1.116   6.412  0.1983  0.1342  0.5171
 2046TIP3    H2 6096   4.656   1.000   6.319  2.1756  1.1885 -0.3302
 2047TIP3   OH2 6097   4.558   6.438   3.101 -0.0796  0.0579  0.1611
 2047TIP3    H1 6098   4.552   6.349   3.067 -1.5180  0.1125  0.1949
 2047TIP3    H2 6099   4.551   6.494   3.023  3.4331  0.1910 -0.1922
 2048TIP3   OH2 6100   0.312   5.586   3.667 -0.2190  0.0500  0.5018
 2048TIP3    H1 6101   0.242   5.648   3.689 -0.7073 -0.5402  0.6746
 2048TIP3    H2 6102   0.345   5.557   3.753 -1.6838 -1.7710  0.5342
 2049TIP3   OH2 6103   2.500   4.962   4.537  0.2781  0.0333 -0.4579
 2049TIP3    H1 6104   2.581   4.913   4.552  0.6965  0.9983  0.5593
 2049TIP3    H2 6105   2.442   4.936   4.609  0.8984  1.7918  0.7404
 2050TIP3   OH2 6106   4.181   6.763   2.553  0.2686  0.2821  0.0243
 2050TIP3    H1 6107   4.258   6.708   2.569 -1.7615 -2.1724  2.2762
 2050TIP3    H2 6108   4.198   6.843   2.603  1.1435 -0.4638  0.9653
 2051TIP3   OH2 6109   5.726   6.967   1.270  0.0265 -0.5433  0.6153
 2051TIP3    H1 6110   5.696   6.905   1.336  0.0113 -1.2776 -0.0616
 2051TIP3    H2 6111   5.705   6.925   1.187 -0.0309  0.4027  0.1424
 2052TIP3   OH2 6112   6.781   7.184   6.292  0.0960 -0.2333 -0.0257
 2052TIP3    H1 6113   6.861   7.234   6.309 -0.7174  0.7587  1.0343
 2052TIP3    H2 6114   6.768   7.132   6.371 -1.4042  1.1947  0.7320
 2053TIP3   OH2 6115   3.103   2.533   2.141 -0.3894 -0.0808 -0.8285
 2053TIP3    H1 6116   3.129   2.530   2.049  1.1796  0.9382 -0.4479
 2053TIP3    H2 6117   3.053   2.614   2.148  1.5232  1.1102 -0.3279
 2054TIP3   OH2 6118   6.689   7.071   1.813  0.0849 -0.2594 -0.1975
 2054TIP3    H1 6119   6.774   7.076   1.769  0.2101 -0.1039  0.0631
 2054TIP3    H2 6120   6.631   7.127   1.760  0.3874  0.4201  0.1830
 2055TIP3   OH2 6121   1.867   0.498   2.630  0.2207  0.1828 -0.2778
 2055TIP3    H1 6122   1.775   0.523   2.632  0.2432  0.2791 -0.4653
 2055TIP3    H2 6123   1.875   0.442   2.552  0.4681  0.7361 -0.6523
 2056TIP3   OH2 6124   5.751   0.785   2.582  0.0484  0.0272  0.0867
 2056TIP3    H1 6125   5.671   0.834   2.600  0.0063  0.0691 -0.2108
 2056TIP3    H2 6126   5.721   0.697   2.562 -0.0465  0.3950 -1.4949
 2057TIP3   OH2 6127   2.675   2.845   1.479 -0.3361  0.0697  0.4929
 2057TIP3    H1 6128   2.651   2.901   1.553  2.1502  1.9199  0.0370
 2057TIP3    H2 6129   2.692   2.906   1.407 -1.3174 -1.5847 -1.2542
 2058TIP3   OH2 6130   2.920   6.627   5.873  0.0972  0.1205  0.0977
 2058TIP3    H1 6131   2.956   6.540   5.856  0.2472  0.1049  0.4947
 2058TIP3    H2 6132   2.976   6.687   5.823 -0.2317 -0.0429 -0.4753
 2059TIP3   OH2 6133   7.120   0.850   1.902  0.4539 -0.3806 -0.0011
 2059TIP3    H1 6134   7.113   0.798   1.822 -0.5274 -0.7562  0.3174
 2059TIP3    H2 6135   7.150   0.787   1.969  0.7561 -0.1857  0.0506
 2060TIP3   OH2 6136   6.399   4.689   3.420  0.0511 -0.1956 -0.0204
 2060TIP3    H1 6137   6.460   4.622   3.389  1.4663 -0.1073  2.3288
 2060TIP3    H2 6138   6.317   4.671   3.373  1.0731 -2.0668 -1.1988
 2061TIP3   OH2 6139   4.766   4.641   3.734 -0.2506  0.0520 -0.4619
 2061TIP3    H1 6140   4.734   4.731   3.739 -0.8354 -0.1877  0.2287
 2061TIP3    H2 6141   4.692   4.587   3.762  0.3397 -0.5983 -0.1191
 2062TIP3   OH2 6142   1.678   5.617   0.336 -0.3819 -0.0069  0.6159
 2062TIP3    H1 6143   1.758   5.565   0.327  0.0137  0.4758  1.1709
 2062TIP3    H2 6144   1.660   5.650   0.248  1.3620  1.7471  0.8330
 2063TIP3   OH2 6145   6.034   3.908   4.002  0.0578 -0.3163  0.1640
 2063TIP3    H1 6146   6.116   3.862   4.017  0.0211 -0.7974 -1.0230
 2063TIP3    H2 6147   6.004   3.932   4.090  1.2416 -0.5093  0.6414
 2064TIP3   OH2 6148   5.497   3.474   0.319  0.2005 -0.1897  0.4215
 2064TIP3    H1 6149   5.425   3.477   0.256 -0.0518  0.8510  0.7465
 2064TIP3    H2 6150   5.470   3.408   0.383  0.6916 -1.6477 -0.8006
 2065TIP3   OH2 6151   5.472   2.417   0.397  0.3005  0.4411  0.4088
 2065TIP3    H1 6152   5.402   2.474   0.430  1.5834  1.6242  1.2530
 2065TIP3    H2 6153   5.431   2.332   0.383 -1.5210  1.3751 -0.1420
 2066TIP3   OH2 6154   1.882   0.368   2.901  0.8361  0.6722 -0.3163
 2066TIP3    H1 6155   1.867   0.427   2.828 -0.7816  0.7892  0.0792
 2066TIP3    H2 6156   1.834   0.288   2.877  2.9110 -0.5209 -0.8125
 2067TIP3   OH2 6157   0.270   5.876   5.013 -0.0440 -0.5518 -0.2055
 2067TIP3    H1 6158   0.195   5.863   5.072  0.4329 -0.7365  0.3724
 2067TIP3    H2 6159   0.332   5.927   5.065  0.3891 -0.7304 -0.5425
 2068TIP3   OH2 6160   6.897   1.402   4.316 -0.1169  0.2841  0.2325
 2068TIP3    H1 6161   6.960   1.455   4.268 -2.4160  0.6693 -2.6826
 2068TIP3    H2 6162   6.811   1.438   4.291 -1.7452 -3.6718 -0.6396
 2069TIP3   OH2 6163   3.111   2.920   3.462  0.5107  0.3564 -0.1167
 2069TIP3    H1 6164   3.204   2.944   3.467 -0.0662  3.0421 -0.6799
 2069TIP3    H2 6165   3.075   2.979   3.395 -2.2358  1.6864  2.2952
 2070TIP3   OH2 6166   7.713   5.026   4.237 -0.1618 -0.2701  0.5743
 2070TIP3    H1 6167   7.696   5.080   4.314  1.0587  1.0158 -0.0281
 2070TIP3    H2 6168   7.804   4.999   4.246  0.2414  0.5655 -0.8186
 2071TIP3   OH2 6169   2.121   3.821   0.136  0.1762  0.1049 -0.0991
 2071TIP3    H1 6170   2.181   3.885   0.098 -0.8343  0.3181 -1.4006
 2071TIP3    H2 6171   2.166   3.790   0.215  0.6554  2.4543  0.6252
 2072TIP3   OH2 6172   2.269   7.721   2.270  0.3885 -0.0213 -0.0790
 2072TIP3    H1 6173   2.296   7.748   2.182 -0.3726  0.9668 -0.0283
 2072TIP3    H2 6174   2.185   7.764   2.283 -0.5232 -1.8284  0.3425
 2073TIP3   OH2 6175   6.425   2.947   1.413 -1.0378 -0.2997 -0.3620
 2073TIP3    H1 6176   6.458   3.036   1.405 -0.0284 -0.7365 -1.4244
 2073TIP3    H2 6177   6.490   2.902   1.467  0.2620 -1.1846 -2.5259
 2074TIP3   OH2 6178   8.083   2.178   1.663 -0.2645  0.6576  0.2154
 2074TIP3    H1 6179   8.126   2.252   1.706  1.9311 -0.5729  0.2888
 2074TIP3    H2 6180   8.144   2.151   1.594 -2.0688  0.3162 -1.3266
 2075TIP3   OH2 6181   5.012   1.103   2.969  0.1085  0.1362  0.4252
 2075TIP3    H1 6182   4.948   1.078   2.903  0.9146 -0.1448 -0.2742
 2075TIP3    H2 6183   5.074   1.159   2.922  2.2933 -2.3099  0.1697
 2076TIP3   OH2 6184   6.365   5.978   5.948 -0.0266 -0.2820  0.4706
 2076TIP3    H1 6185   6.426   5.907   5.964 -0.3829 -0.4700  1.0188
 2076TIP3    H2 6186   6.381   6.041   6.018 -0.4948 -0.3578  0.6524
 2077TIP3   OH2 6187   4.094   7.747   2.537  0.1852 -0.1741 -0.8348
 2077TIP3    H1 6188   4.082   7.692   2.614 -3.7803  0.1085 -1.0328
 2077TIP3    H2 6189   4.076   7.836   2.567 -1.4002 -0.0528 -2.0064
 2078TIP3   OH2 6190   3.384   1.340   4.517 -0.6086 -0.3717  0.0164
 2078TIP3    H1 6191   3.299   1.365   4.479 -0.8479  0.0545  0.8238
 2078TIP3    H2 6192   3.373   1.353   4.611  0.3991 -0.2059  0.1129
 2079TIP3   OH2 6193   2.428   3.845   4.749  0.2965 -0.2526  0.2034
 2079TIP3    H1 6194   2.456   3.930   4.782 -0.6908  0.7934 -1.4819
 2079TIP3    H2 6195   2.392   3.800   4.825  2.2211  0.1937  1.4462
 2080TIP3   OH2 6196   1.064   6.015   5.395 -0.3792  0.7388 -0.4766
 2080TIP3    H1 6197   1.007   6.067   5.339  0.3356  0.0856 -1.8660
 2080TIP3    H2 6198   1.059   5.926   5.359 -1.7891 -0.2796  1.9953
 2081TIP3   OH2 6199   0.773   4.116   1.059  0.0986  0.8155 -0.5677
 2081TIP3    H1 6200   0.864   4.118   1.027 -0.1347 -0.3546 -1.3529
 2081TIP3    H2 6201   0.731   4.046   1.008 -0.6311 -0.2765  1.4319
 2082TIP3   OH2 6202   5.635   7.112   4.480 -0.1355 -0.4693 -0.0145
 2082TIP3    H1 6203   5.645   7.056   4.404  0.7608 -0.0311 -0.2293
 2082TIP3    H2 6204   5.661   7.057   4.554  0.4345 -0.4439 -0.1910
 2083TIP3   OH2 6205   4.347   2.795   0.624 -0.0078 -0.3586 -0.1637
 2083TIP3    H1 6206   4.437   2.796   0.656 -0.3539 -1.5039  0.9745
 2083TIP3    H2 6207   4.355   2.783   0.530  1.0360 -0.8925 -0.0237
 2084TIP3   OH2 6208   3.721   3.291   4.925  0.6675  0.0334  0.6100
 2084TIP3    H1 6209   3.743   3.313   4.835  0.1963  1.3227  0.7927
 2084TIP3    H2 6210   3.676   3.207   4.918  0.6141  0.1289 -0.3591
 2085TIP3   OH2 6211   5.483   5.276   6.306 -0.3547 -0.4685  0.3168
 2085TIP3    H1 6212   5.513   5.309   6.390  2.0223 -1.4695 -0.0658
 2085TIP3    H2 6213   5.512   5.185   6.304  0.0530 -0.3417 -1.7711
 2086TIP3   OH2 6214   4.333   6.297   0.860  0.4317  0.2379  0.3971
 2086TIP3    H1 6215   4.428   6.288   0.855  0.2184 -2.5268 -0.4020
 2086TIP3    H2 6216   4.307   6.329   0.774  0.4546 -2.4924 -0.7372
 2087TIP3   OH2 6217   4.299   4.798   4.583 -0.1759  0.5567 -0.6280
 2087TIP3    H1 6218   4.286   4.885   4.620  1.6299  0.2943  0.7526
 2087TIP3    H2 6219   4.279   4.738   4.655 -0.5988 -0.1565 -1.3191
 2088TIP3   OH2 6220   2.250   4.400   1.313  0.2141  0.4941  0.2719
 2088TIP3    H1 6221   2.284   4.310   1.314 -1.7296 -0.2804 -0.0919
 2088TIP3    H2 6222   2.281   4.438   1.395 -2.1959 -1.8282  2.4487
 2089TIP3   OH2 6223   5.296   0.987   6.325 -0.2348 -0.5099  0.3264
 2089TIP3    H1 6224   5.333   0.946   6.402 -1.3589 -1.0535  0.6056
 2089TIP3    H2 6225   5.318   0.928   6.253  0.1300 -0.4173  0.3641
 2090TIP3   OH2 6226   6.348   0.922   6.550  0.8542 -0.5469 -0.5683
 2090TIP3    H1 6227   6.371   0.861   6.480  0.3449  0.5631 -1.7453
 2090TIP3    H2 6228   6.419   0.987   6.549  0.0109  0.3931 -1.2012
 2091TIP3   OH2 6229   7.937   4.553   5.709  0.4355 -0.5985 -0.2037
 2091TIP3    H1 6230   7.851   4.560   5.668 -0.0120 -0.1672  0.7528
 2091TIP3    H2 6231   7.963   4.644   5.724  0.7513 -0.7417  0.1329
 2092TIP3   OH2 6232  -0.030   1.483   2.096  0.4657 -0.0871 -0.8273
 2092TIP3    H1 6233   0.038   1.434   2.050  0.1932 -0.7336 -0.5628
 2092TIP3    H2 6234   0.008   1.569   2.112  1.2540 -0.4665 -0.6090
 2093TIP3   OH2 6235   6.389   1.050   3.084 -0.4845 -0.7663 -0.1622
 2093TIP3    H1 6236   6.433   1.001   3.154 -2.2038 -1.7407  0.2983
 2093TIP3    H2 6237   6.316   0.995   3.058 -0.9319  0.3931 -1.5205
 2094TIP3   OH2 6238   4.318   2.071   1.076  0.0478  0.5771  0.5891
 2094TIP3    H1 6239   4.251   2.078   1.009 -1.0667  0.0799  1.6141
 2094TIP3    H2 6240   4.385   2.134   1.050  0.4863 -0.8127 -1.8994
 2095TIP3   OH2 6241   2.950   1.432   1.239  0.0166 -0.4482 -0.3677
 2095TIP3    H1 6242   3.009   1.375   1.287  0.4613 -0.3403 -0.7866
 2095TIP3    H2 6243   2.863   1.409   1.273  0.4313  0.9402  1.8977
 2096TIP3   OH2 6244   2.352   3.136   3.522 -0.5083  0.2208 -0.5170
 2096TIP3    H1 6245   2.369   3.158   3.430  2.3204  0.7025  0.0088
 2096TIP3    H2 6246   2.328   3.043   3.521 -2.7605  0.7350 -1.8761
 2097TIP3   OH2 6247   1.377   5.431   0.581 -0.7990  0.3769 -0.5733
 2097TIP3    H1 6248   1.302   5.481   0.613 -1.4982  0.6945 -2.5504
 2097TIP3    H2 6249   1.394   5.466   0.494  1.6418  0.2630 -0.2374
 2098TIP3   OH2 6250   5.818   6.046   3.054 -0.0345  0.2357 -0.1693
 2098TIP3    H1 6251   5.894   6.005   3.013 -0.3935 -1.6908  0.9611
 2098TIP3    H2 6252   5.744   5.992   3.027 -0.6406  0.5901  0.7423
 2099TIP3   OH2 6253   3.307   0.719   1.362 -0.0324 -0.1104 -0.1116
 2099TIP3    H1 6254   3.353   0.804   1.358 -0.1004 -0.0714 -0.0698
 2099TIP3    H2 6255   3.357   0.662   1.303  0.9816 -0.4965  1.0714
 2100TIP3   OH2 6256   7.221   6.402   1.648  0.3409 -0.1373  0.1106
 2100TIP3    H1 6257   7.276   6.424   1.572 -0.6640 -0.2385 -0.6787
 2100TIP3    H2 6258   7.195   6.487   1.684 -0.8908 -0.0147 -0.9677
 2101TIP3   OH2 6259   4.021   4.626   4.172 -0.2853 -0.1550 -0.2697
 2101TIP3    H1 6260   4.117   4.617   4.170 -0.1762  0.9200 -0.6913
 2101TIP3    H2 6261   3.991   4.577   4.096  0.1985  1.9372 -1.9208
 2102TIP3   OH2 6262   7.898   0.990   4.158 -0.0107  0.2439  0.9940
 2102TIP3    H1 6263   7.806   1.013   4.167  0.2642  1.6295  0.5422
 2102TIP3    H2 6264   7.916   1.003   4.065  0.5837 -0.2425  1.0381
 2103TIP3   OH2 6265   5.384   4.378   4.234 -0.4917  0.5630 -0.0966
 2103TIP3    H1 6266   5.290   4.390   4.238 -0.9536 -1.4856 -2.4530
 2103TIP3    H2 6267   5.420   4.466   4.233 -2.5571  1.4607 -1.7871
 2104TIP3   OH2 6268   4.218   5.435   6.285 -0.1727 -0.1102  0.1395
 2104TIP3    H1 6269   4.230   5.418   6.378 -0.7319 -1.4566 -0.0104
 2104TIP3    H2 6270   4.228   5.350   6.243  0.8748  0.6063 -1.1384
 2105TIP3   OH2 6271   7.723   3.018   0.031  0.6106 -0.4906  0.1923
 2105TIP3    H1 6272   7.788   3.082   0.062 -0.9625  1.2122  0.1878
 2105TIP3    H2 6273   7.775   2.950  -0.011  2.3882  0.8129  0.1289
 2106TIP3   OH2 6274   0.625   3.380   3.193  0.3109 -0.7142  0.3616
 2106TIP3    H1 6275   0.656   3.461   3.233  0.1940 -0.4031 -0.1704
 2106TIP3    H2 6276   0.701   3.345   3.147 -0.2989  0.5060 -1.6915
 2107TIP3   OH2 6277   2.820   0.196   1.785  0.2217  0.3257  0.1270
 2107TIP3    H1 6278   2.750   0.259   1.770 -1.0051 -0.6599  1.4395
 2107TIP3    H2 6279   2.860   0.183   1.699 -1.9519  0.0680 -0.9062
 2108TIP3   OH2 6280   0.821   4.859   2.296  0.2830 -0.0425 -0.0110
 2108TIP3    H1 6281   0.901   4.891   2.337  0.0428  0.3403  0.1593
 2108TIP3    H2 6282   0.850   4.783   2.245  0.6808 -0.1828  0.4064
 2109TIP3   OH2 6283   0.242   3.111   2.147  0.0742  0.2551  0.9125
 2109TIP3    H1 6284   0.251   3.182   2.082 -2.1899  1.7666  2.0908
 2109TIP3    H2 6285   0.291   3.142   2.223 -0.6421  0.4445  1.3105
 2110TIP3   OH2 6286   8.097   7.058   6.593  0.1972  0.3630  0.4224
 2110TIP3    H1 6287   8.145   7.007   6.659  0.9898  0.3648 -0.1397
 2110TIP3    H2 6288   8.162   7.116   6.556 -0.0373 -0.2124 -0.9441
 2111TIP3   OH2 6289   5.949   5.406   6.604 -0.3476  0.2036 -0.2587
 2111TIP3    H1 6290   5.915   5.495   6.609  0.7765  0.6925 -0.8167
 2111TIP3    H2 6291   5.873   5.349   6.616 -0.9732  1.2308  0.8036
 2112TIP3   OH2 6292   5.092   1.892   2.821  0.0318 -0.0461  0.0181
 2112TIP3    H1 6293   5.010   1.854   2.789  0.0033  0.0807 -0.0579
 2112TIP3    H2 6294   5.152   1.818   2.825  0.2104  0.0355 -0.8997
 2113TIP3   OH2 6295   0.338   5.117   3.303  0.5575 -0.3691  0.2773
 2113TIP3    H1 6296   0.287   5.120   3.383 -1.0707 -1.8271 -0.6361
 2113TIP3    H2 6297   0.331   5.205   3.266 -0.8513 -0.3876  0.4707
 2114TIP3   OH2 6298   7.085   5.894   4.810  0.1229 -0.3330  0.4259
 2114TIP3    H1 6299   7.069   5.817   4.865 -0.4911 -0.7814 -0.3577
 2114TIP3    H2 6300   7.180   5.903   4.809  0.2642 -1.6661 -0.2332
 2115TIP3   OH2 6301   4.475   2.609   5.256 -0.0865  0.0907  0.0159
 2115TIP3    H1 6302   4.392   2.602   5.303 -0.9196  2.6098 -0.9016
 2115TIP3    H2 6303   4.541   2.588   5.322 -1.3719 -3.5133  0.3840
 2116TIP3   OH2 6304   6.121   4.598   2.151  0.0921  0.1135  0.6026
 2116TIP3    H1 6305   6.148   4.623   2.240 -1.0862 -0.7577  1.2434
 2116TIP3    H2 6306   6.161   4.512   2.138  1.0654  0.6633 -0.1122
 2117TIP3   OH2 6307   6.649   6.173   2.484 -0.5729 -0.2174 -0.3004
 2117TIP3    H1 6308   6.717   6.211   2.428 -0.4778 -0.2205 -0.1871
 2117TIP3    H2 6309   6.656   6.079   2.471  0.6708 -0.3509  1.1097
 2118TIP3   OH2 6310   7.292   4.347   5.362  0.2857  0.0650 -0.1786
 2118TIP3    H1 6311   7.340   4.268   5.335 -1.0825 -0.9805  0.3452
 2118TIP3    H2 6312   7.348   4.420   5.334  1.5444 -1.0810 -0.7506
 2119TIP3   OH2 6313   5.158   2.401   2.245 -0.1306 -0.1977 -0.0645
 2119TIP3    H1 6314   5.166   2.473   2.308  1.4616  0.4408 -0.9456
 2119TIP3    H2 6315   5.151   2.444   2.160 -1.1067 -1.0684 -0.4367
 2120TIP3   OH2 6316   2.099   6.496   4.005  0.0697 -0.3149 -0.0286
 2120TIP3    H1 6317   2.034   6.427   3.992  0.8734 -1.5417  2.0379
 2120TIP3    H2 6318   2.104   6.507   4.100  2.0960  0.5186 -0.1807
 2121TIP3   OH2 6319   8.091   5.032   1.915  0.4777 -0.1699  0.0481
 2121TIP3    H1 6320   8.100   4.948   1.869  0.9956 -0.5321  0.7737
 2121TIP3    H2 6321   8.089   5.008   2.008  0.9769  0.6377  0.2833
 2122TIP3   OH2 6322   3.057   6.370   5.821 -0.1735 -0.4623 -0.1655
 2122TIP3    H1 6323   3.070   6.288   5.868  0.2217 -0.3819 -0.1303
 2122TIP3    H2 6324   3.140   6.385   5.776 -0.0656  0.1916  0.2497
 2123TIP3   OH2 6325   5.002   2.438   1.761  0.3879  0.1507  0.3978
 2123TIP3    H1 6326   5.018   2.384   1.684  0.6287 -0.4634  0.8654
 2123TIP3    H2 6327   4.957   2.515   1.728 -2.9557 -1.7672  0.0970
 2124TIP3   OH2 6328   6.529   6.517   2.875 -0.2544  0.4296  0.4722
 2124TIP3    H1 6329   6.462   6.573   2.914 -0.9116  0.1468 -0.2373
 2124TIP3    H2 6330   6.576   6.575   2.815  0.0916  0.6087  0.9122
 2125TIP3   OH2 6331   5.205   4.226   1.207  0.4589 -0.1695 -0.3867
 2125TIP3    H1 6332   5.220   4.296   1.270  0.0123 -0.5194  0.1195
 2125TIP3    H2 6333   5.282   4.226   1.151 -0.2286  1.7912 -1.4164
 2126TIP3   OH2 6334   4.738   5.027   5.612  0.0546 -0.0529  0.2358
 2126TIP3    H1 6335   4.821   5.040   5.565  0.9352 -0.1968  1.7025
 2126TIP3    H2 6336   4.680   4.989   5.546  1.7313 -1.7318 -0.3656
 2127TIP3   OH2 6337   8.294   2.602   0.884  0.2263  0.2535 -0.0942
 2127TIP3    H1 6338   8.308   2.654   0.963  3.1090  0.2593 -0.4845
 2127TIP3    H2 6339   8.247   2.659   0.825 -0.7499  0.7360  1.1024
 2128TIP3   OH2 6340   1.264   1.831   2.398  0.1116  0.5419  0.7447
 2128TIP3    H1 6341   1.303   1.819   2.311 -0.9878  0.1429  0.2897
 2128TIP3    H2 6342   1.299   1.915   2.428 -0.3061  1.2067 -0.5357
 2129TIP3   OH2 6343   1.444   0.081   5.174  0.2198  0.4881 -0.2399
 2129TIP3    H1 6344   1.499   0.005   5.152  0.6396  1.3565 -2.3845
 2129TIP3    H2 6345   1.495   0.130   5.238 -0.7263 -1.7583  2.4513
 2130TIP3   OH2 6346   0.314   4.146   0.664 -0.4934  0.0989  0.0379
 2130TIP3    H1 6347   0.313   4.052   0.646 -0.0649  0.0418  0.2954
 2130TIP3    H2 6348   0.402   4.175   0.641 -1.3925  0.9861 -2.6663
 2131TIP3   OH2 6349   1.981   1.756   6.321  0.1172  0.0461 -0.2478
 2131TIP3    H1 6350   2.043   1.689   6.349 -0.0045  0.1507  0.2839
 2131TIP3    H2 6351   1.917   1.761   6.393  0.8253  1.6043  0.3079
 2132TIP3   OH2 6352   4.240   7.579   4.810 -0.0256  0.0429 -0.3284
 2132TIP3    H1 6353   4.236   7.668   4.844  1.7797  0.8224 -1.9987
 2132TIP3    H2 6354   4.315   7.578   4.751  0.8550 -2.9604  0.6506
 2133TIP3   OH2 6355   2.208   4.066   4.794  0.1917 -0.1572 -0.0678
 2133TIP3    H1 6356   2.131   4.065   4.738 -0.1557  0.6996  0.3662
 2133TIP3    H2 6357   2.187   4.006   4.866 -0.4685  0.7343  0.5226
 2134TIP3   OH2 6358   0.466   1.003   2.514  0.1189  0.7095  0.1119
 2134TIP3    H1 6359   0.447   1.040   2.601  0.1645 -1.3834  1.0819
 2134TIP3    H2 6360   0.555   0.969   2.522 -0.1328 -0.1209 -0.5191
 2135TIP3   OH2 6361   5.165   1.191   6.167  0.0445  0.6593  0.4805
 2135TIP3    H1 6362   5.196   1.129   6.234  2.2049  0.6062 -0.5082
 2135TIP3    H2 6363   5.070   1.179   6.167  0.0626 -0.0888  2.7895
 2136TIP3   OH2 6364   6.882   3.109   2.279  0.0769  0.3617  0.2829
 2136TIP3    H1 6365   6.884   3.022   2.240  0.5422  0.0738  0.9323
 2136TIP3    H2 6366   6.974   3.133   2.288 -0.0557  1.3279 -0.7674
 2137TIP3   OH2 6367   3.896   4.014   5.306 -0.1349 -0.2783  0.1747
 2137TIP3    H1 6368   3.882   4.026   5.212  3.0767 -1.1206 -0.5058
 2137TIP3    H2 6369   3.976   3.963   5.313 -0.8254 -1.1630  3.4018
 2138TIP3   OH2 6370   5.417   5.752   1.302  0.1912  0.2653 -0.5175
 2138TIP3    H1 6371   5.511   5.766   1.319 -0.2008  1.9706  0.5346
 2138TIP3    H2 6372   5.376   5.762   1.388 -0.6348 -5.0922  0.0637
 2139TIP3   OH2 6373   7.612   4.248   5.544  0.0371  0.0259 -0.2186
 2139TIP3    H1 6374   7.646   4.261   5.456  1.7525 -2.0654  0.0419
 2139TIP3    H2 6375   7.520   4.226   5.530  0.4480 -1.0259 -1.6036
 2140TIP3   OH2 6376   1.562   4.939   5.523  0.8820 -0.1517 -0.4681
 2140TIP3    H1 6377   1.623   4.936   5.449 -0.9937 -1.5796 -2.0572
 2140TIP3    H2 6378   1.525   4.851   5.528 -0.7316  0.5306  0.7087
 2141TIP3   OH2 6379   1.468   4.195   2.626  0.3937 -0.1404  0.1654
 2141TIP3    H1 6380   1.402   4.245   2.578  0.0809  1.0316  1.7201
 2141TIP3    H2 6381   1.521   4.262   2.669  1.3368 -1.1179  0.5699
 2142TIP3   OH2 6382   3.981   4.158   0.279  0.2931  0.1020  0.2482
 2142TIP3    H1 6383   3.888   4.134   0.284  0.3068 -0.1754 -0.6865
 2142TIP3    H2 6384   3.981   4.253   0.289 -0.3883  0.4836 -2.4992
 2143TIP3   OH2 6385   2.174   0.773   0.730  0.0816  0.1812  0.1742
 2143TIP3    H1 6386   2.184   0.740   0.820  0.2194 -1.1978 -0.3298
 2143TIP3    H2 6387   2.126   0.703   0.685 -1.3830  1.5306 -0.4489
 2144TIP3   OH2 6388   1.274   7.672   4.500 -0.0335 -0.3654 -0.0258
 2144TIP3    H1 6389   1.320   7.744   4.542  1.3478 -0.8705 -0.6177
 2144TIP3    H2 6390   1.322   7.657   4.419 -2.3190  0.2546 -1.6005
 2145TIP3   OH2 6391   1.027   4.149   0.958  0.1410  0.1332 -0.0028
 2145TIP3    H1 6392   1.076   4.114   0.883 -0.0805  0.9508 -0.5388
 2145TIP3    H2 6393   1.059   4.238   0.968 -0.5182  0.3416  0.2808
 2146TIP3   OH2 6394   2.729   3.791   2.111 -0.4243  0.9460 -0.0316
 2146TIP3    H1 6395   2.676   3.740   2.049  0.5819 -0.6186  0.3254
 2146TIP3    H2 6396   2.675   3.796   2.190 -0.8494  1.0822 -0.3318
 2147TIP3   OH2 6397   3.952   2.962   0.193 -0.4793 -0.0087  0.2531
 2147TIP3    H1 6398   3.962   3.020   0.269 -1.6483 -0.1186  0.5043
 2147TIP3    H2 6399   3.952   2.874   0.230 -0.1674 -0.1097  0.0205
 2148TIP3   OH2 6400   5.278   0.051   1.716  0.0741  0.1170  0.4347
 2148TIP3    H1 6401   5.279  -0.038   1.683 -1.4630 -0.1912  1.1495
 2148TIP3    H2 6402   5.309   0.104   1.643 -3.6697 -0.4618 -1.8407
 2149TIP3   OH2 6403   2.086   7.818   5.536  0.5406 -0.2296  0.5106
 2149TIP3    H1 6404   2.020   7.751   5.518  1.6752 -1.0078 -1.0179
 2149TIP3    H2 6405   2.069   7.887   5.472  0.3755  0.2099  1.0191
 2150TIP3   OH2 6406   6.891   5.550   1.829  0.0005 -0.7495  0.0593
 2150TIP3    H1 6407   6.801   5.578   1.846 -0.5046 -1.3432 -1.4463
 2150TIP3    H2 6408   6.934   5.551   1.915 -1.6851 -1.3061  0.9453
 2151TIP3   OH2 6409   6.455   3.457   4.533 -0.1102  0.5410  0.7466
 2151TIP3    H1 6410   6.446   3.490   4.444 -0.9676  0.6229  0.8616
 2151TIP3    H2 6411   6.509   3.379   4.524 -2.0690 -0.7716 -0.1467
 2152TIP3   OH2 6412   4.304   7.031   0.739 -0.1783  0.0034  0.3140
 2152TIP3    H1 6413   4.388   6.988   0.750  1.0847  2.1500 -0.3067
 2152TIP3    H2 6414   4.246   6.963   0.705  1.3717 -1.4531  0.4833
 2153TIP3   OH2 6415   5.559   4.094   5.836  0.1138  0.1840 -0.0656
 2153TIP3    H1 6416   5.638   4.146   5.850  0.5805 -0.4327 -0.3219
 2153TIP3    H2 6417   5.497   4.154   5.794  0.4660  0.6575  0.0874
 2154TIP3   OH2 6418   0.355   2.799   6.343 -0.1197 -0.4087 -0.1580
 2154TIP3    H1 6419   0.426   2.741   6.372  1.1844  0.7779 -0.8301
 2154TIP3    H2 6420   0.315   2.754   6.269 -0.9746 -1.6969  1.0378
 2155TIP3   OH2 6421   2.378   1.208   3.307 -0.4363  0.1185  0.2690
 2155TIP3    H1 6422   2.354   1.199   3.399  0.0735 -0.1102  0.3843
 2155TIP3    H2 6423   2.451   1.270   3.307  1.2878 -1.8064  0.3157
 2156TIP3   OH2 6424   3.848   0.073   5.992  0.0322 -0.0236 -0.3137
 2156TIP3    H1 6425   3.910   0.093   5.922 -0.6795  0.2176 -0.8937
 2156TIP3    H2 6426   3.843  -0.022   5.994  2.4202 -0.2138  1.5472
 2157TIP3   OH2 6427   6.928   1.787   6.358 -0.0698 -0.1160 -0.7218
 2157TIP3    H1 6428   6.938   1.784   6.263 -0.0847  0.5617 -0.7519
 2157TIP3    H2 6429   6.837   1.813   6.372 -0.0065  0.0038 -0.5274
 2158TIP3   OH2 6430   3.395   3.997   0.472  0.0925 -0.0910 -0.1859
 2158TIP3    H1 6431   3.395   3.945   0.392 -2.5365 -1.0069  0.3013
 2158TIP3    H2 6432   3.355   4.080   0.447  0.4366  0.1083 -0.0821
 2159TIP3   OH2 6433   3.183   3.184   2.891 -0.3135 -0.1053  0.2393
 2159TIP3    H1 6434   3.146   3.272   2.893 -0.3393 -0.0873 -0.6115
 2159TIP3    H2 6435   3.267   3.193   2.936  0.1385  0.5818 -0.7103
 2160TIP3   OH2 6436   4.674   2.687   0.990 -0.4267  0.4414  0.1040
 2160TIP3    H1 6437   4.601   2.717   1.044 -0.5859 -0.8185  0.6199
 2160TIP3    H2 6438   4.738   2.655   1.054 -1.2291 -2.4717 -0.4448
 2161TIP3   OH2 6439   3.987   6.053   4.646 -0.8168  0.2420 -0.2511
 2161TIP3    H1 6440   3.932   6.077   4.571 -3.7512 -0.2540  1.5953
 2161TIP3    H2 6441   4.014   6.136   4.683 -1.3880  0.5440 -0.4876
 2162TIP3   OH2 6442   0.115   2.861   3.093  0.2966  0.2214  0.2623
 2162TIP3    H1 6443   0.128   2.830   3.003  0.7735 -0.8380  0.6800
 2162TIP3    H2 6444   0.020   2.867   3.103  0.2331  0.0516 -0.2197
 2163TIP3   OH2 6445   7.611   2.464   6.694  0.2337 -0.3471 -0.0794
 2163TIP3    H1 6446   7.638   2.453   6.785  0.1091 -0.2252 -0.0269
 2163TIP3    H2 6447   7.693   2.466   6.645  0.5350  2.6286  0.3575
 2164TIP3   OH2 6448   5.464   3.253   4.360  0.0424 -0.1546 -0.0084
 2164TIP3    H1 6449   5.455   3.176   4.416 -0.7016  0.5714  0.9099
 2164TIP3    H2 6450   5.399   3.241   4.292  0.9484 -1.0419 -0.7484
 2165TIP3   OH2 6451   4.320   2.411   0.804  0.2733 -0.0407  0.3738
 2165TIP3    H1 6452   4.325   2.446   0.715 -1.3829 -1.5259 -0.3713
 2165TIP3    H2 6453   4.411   2.410   0.835  0.7715  1.3591 -0.9386
 2166TIP3   OH2 6454   6.761   4.094   6.805  0.4156 -0.1221  0.4471
 2166TIP3    H1 6455   6.725   4.006   6.788 -0.0548  0.0401  0.5742
 2166TIP3    H2 6456   6.730   4.147   6.731  1.3615 -0.2364 -0.0502
 2167TIP3   OH2 6457   2.747   0.098   6.756  0.0339 -0.3221 -0.2235
 2167TIP3    H1 6458   2.658   0.132   6.744  0.3392  0.5954  0.0248
 2167TIP3    H2 6459   2.757   0.087   6.850  0.4037  0.2044 -0.1967
 2168TIP3   OH2 6460   8.218   2.578   5.762  0.4996 -0.5297 -0.0464
 2168TIP3    H1 6461   8.253   2.569   5.673  0.4954  0.2871 -0.1384
 2168TIP3    H2 6462   8.211   2.488   5.794 -0.7140 -0.9467 -1.3389
 2169TIP3   OH2 6463   5.297   0.039   2.360 -0.6977  0.5312  0.4888
 2169TIP3    H1 6464   5.319   0.049   2.453 -0.2012 -2.2762  0.7578
 2169TIP3    H2 6465   5.213  -0.007   2.359 -0.6615  0.4545 -0.4428
 2170TIP3   OH2 6466   5.299   0.314   1.008 -0.2129  0.2963 -0.1267
 2170TIP3    H1 6467   5.222   0.270   0.973  0.4788 -0.9539 -0.1264
 2170TIP3    H2 6468   5.345   0.348   0.931  0.3982 -0.9389 -0.3369
 2171TIP3   OH2 6469   8.184   1.356   5.596 -0.5920 -0.3872 -0.4427
 2171TIP3    H1 6470   8.280   1.355   5.594 -0.5005  0.6578  1.4294
 2171TIP3    H2 6471   8.161   1.290   5.662 -1.1565 -0.4274 -0.6773
 2172TIP3   OH2 6472   3.017   7.805   2.004 -0.1599 -0.4272 -0.1372
 2172TIP3    H1 6473   2.962   7.788   2.080 -0.4202 -1.4277 -0.5344
 2172TIP3    H2 6474   2.994   7.894   1.977 -1.5746 -0.8090 -0.2776
 2173TIP3   OH2 6475   1.172   5.558   5.173 -0.1497 -0.0727 -0.6472
 2173TIP3    H1 6476   1.253   5.576   5.221  0.5205  0.6609 -2.0166
 2173TIP3    H2 6477   1.163   5.462   5.178  1.7936 -0.3912 -1.9713
 2174TIP3   OH2 6478   0.188   4.592   3.544 -0.3944 -0.4490  0.2344
 2174TIP3    H1 6479   0.210   4.504   3.515 -3.7341 -1.5463  0.6669
 2174TIP3    H2 6480   0.195   4.646   3.465  0.1345 -1.4128 -0.3988
 2175TIP3   OH2 6481   5.666   4.208   1.007 -0.0081  0.4595 -0.4478
 2175TIP3    H1 6482   5.760   4.220   1.023  0.3692 -1.7548 -0.6066
 2175TIP3    H2 6483   5.645   4.125   1.051 -2.1409  1.4046  0.4374
 2176TIP3   OH2 6484   6.528   2.049   0.861  0.1952 -0.3670 -0.2238
 2176TIP3    H1 6485   6.580   2.011   0.791  1.4828  0.6240  0.1449
 2176TIP3    H2 6486   6.592   2.071   0.929 -0.9279 -0.6566  0.9680
 2177TIP3   OH2 6487   1.208   0.940   2.044  0.0919  0.2310  0.0813
 2177TIP3    H1 6488   1.164   0.982   1.970  1.3105  1.0634 -0.2015
 2177TIP3    H2 6489   1.170   0.982   2.121 -0.5552 -0.0111 -0.1044
 2178TIP3   OH2 6490   3.941   1.211   2.344  0.2296 -0.0452  0.2282
 2178TIP3    H1 6491   3.931   1.118   2.325 -0.1670  0.0654 -0.1012
 2178TIP3    H2 6492   3.920   1.219   2.437 -1.8722  0.0369 -0.2183
 2179TIP3   OH2 6493   6.745   4.388   0.460  0.1761  0.0098 -0.4506
 2179TIP3    H1 6494   6.785   4.373   0.374 -0.6753 -1.1064 -0.6781
 2179TIP3    H2 6495   6.699   4.471   0.450  0.3991  0.0792 -0.9603
 2180TIP3   OH2 6496   1.696   4.572   0.223  0.8668  0.3837 -0.3939
 2180TIP3    H1 6497   1.726   4.632   0.155  2.1647 -0.6585 -0.7740
 2180TIP3    H2 6498   1.601   4.586   0.227  0.7197  0.3134 -2.5648
 2181TIP3   OH2 6499   0.662   1.931   0.893 -0.4600  0.0647  0.0975
 2181TIP3    H1 6500   0.743   1.936   0.843 -0.2833  1.4164  0.4746
 2181TIP3    H2 6501   0.640   1.838   0.894  1.6972 -0.4938  0.9669
 2182TIP3   OH2 6502   5.756   1.208   6.044  0.2615 -0.3845  0.0535
 2182TIP3    H1 6503   5.829   1.150   6.064  1.1168  0.1047 -1.4806
 2182TIP3    H2 6504   5.729   1.243   6.129  2.8320  0.6344  0.5440
 2183TIP3   OH2 6505   7.145   3.989   6.301 -0.3506  0.0073  0.8089
 2183TIP3    H1 6506   7.106   3.903   6.316 -0.8689  0.2039  0.6077
 2183TIP3    H2 6507   7.205   3.976   6.228 -0.1975 -0.2488  0.9784
 2184TIP3   OH2 6508   7.133   1.413   1.577 -0.2489 -0.4746 -0.6598
 2184TIP3    H1 6509   7.202   1.450   1.522  1.1266  0.2736  1.4687
 2184TIP3    H2 6510   7.136   1.319   1.558  0.0533 -0.2193 -1.9686
 2185TIP3   OH2 6511   4.393   7.217   0.543  0.3104 -0.0005  0.1593
 2185TIP3    H1 6512   4.474   7.166   0.541  0.0512 -0.4717 -2.4692
 2185TIP3    H2 6513   4.327   7.155   0.575  0.3221 -0.8842 -1.3959
 2186TIP3   OH2 6514   6.472   7.053   4.462  0.2794  0.4775 -0.5068
 2186TIP3    H1 6515   6.548   6.996   4.472 -0.8182 -1.1061 -0.7572
 2186TIP3    H2 6516   6.509   7.141   4.451  2.0119 -0.0905  0.4217
 2187TIP3   OH2 6517   1.448   5.964   5.878 -0.1753  0.0016  0.7011
 2187TIP3    H1 6518   1.375   6.017   5.845 -0.5543  0.0880  1.6431
 2187TIP3    H2 6519   1.406   5.891   5.923  0.3034 -2.2706 -2.2462
 2188TIP3   OH2 6520   6.380   1.974   1.990  0.1762  0.0110  0.2744
 2188TIP3    H1 6521   6.472   1.976   2.017 -0.4482 -1.1611  2.7740
 2188TIP3    H2 6522   6.365   1.884   1.960 -0.0541  0.3287 -0.5916
 2189TIP3   OH2 6523   0.350   4.030   2.205 -0.2021 -0.5724  0.1002
 2189TIP3    H1 6524   0.402   3.963   2.160 -1.7346 -1.2038 -0.8483
 2189TIP3    H2 6525   0.344   4.101   2.142  1.0960  0.3414  0.9606
 2190TIP3   OH2 6526   1.532   4.903   3.819  0.5684 -0.0733 -0.0603
 2190TIP3    H1 6527   1.561   4.984   3.861 -0.9941  0.8371 -0.6234
 2190TIP3    H2 6528   1.550   4.917   3.726 -1.8567  0.7044 -0.4918
 2191TIP3   OH2 6529   7.855   0.550   2.885  0.2385 -0.8576 -0.1855
 2191TIP3    H1 6530   7.768   0.565   2.920 -0.4204 -2.9836 -0.7728
 2191TIP3    H2 6531   7.906   0.519   2.960 -0.0265 -1.3782 -0.2158
 2192TIP3   OH2 6532   0.334   1.573   2.600  0.0500 -0.0590  0.1791
 2192TIP3    H1 6533   0.381   1.639   2.649  2.1479 -2.2666  1.3771
 2192TIP3    H2 6534   0.387   1.560   2.520 -0.2511 -0.3666  0.0253
 2193TIP3   OH2 6535   6.573   3.771   5.848  0.5116  0.4325  0.1469
 2193TIP3    H1 6536   6.540   3.708   5.784  3.6584 -0.7531 -0.4874
 2193TIP3    H2 6537   6.544   3.737   5.933 -3.0799  1.6236 -0.4587
 2194TIP3   OH2 6538   1.549   7.161   5.921 -0.1871 -0.0547  0.3533
 2194TIP3    H1 6539   1.557   7.073   5.958  1.0703 -0.3039 -0.4450
 2194TIP3    H2 6540   1.496   7.148   5.842 -0.4898  0.0060  0.5454
 2195TIP3   OH2 6541   2.321   7.253   6.149 -0.0528 -0.2117 -0.2585
 2195TIP3    H1 6542   2.260   7.300   6.093  2.7076  0.8471 -2.6739
 2195TIP3    H2 6543   2.350   7.178   6.096  1.8171  0.1809  0.1358
 2196TIP3   OH2 6544   5.213   5.008   0.810  0.6774 -0.5052  0.5473
 2196TIP3    H1 6545   5.173   5.033   0.893 -1.1039 -0.7423 -0.1805
 2196TIP3    H2 6546   5.263   4.929   0.829 -0.5777 -1.1624  1.2071
 2197TIP3   OH2 6547   6.362   7.074   4.722 -0.1527  0.3569  0.3318
 2197TIP3    H1 6548   6.422   7.070   4.647 -1.4954  1.2903 -0.8591
 2197TIP3    H2 6549   6.418   7.080   4.798  1.2723  0.7835 -0.7157
 2198TIP3   OH2 6550   6.102   5.193   6.786 -0.4423 -0.4845  1.0076
 2198TIP3    H1 6551   6.119   5.253   6.713 -0.7235  0.1683  1.4666
 2198TIP3    H2 6552   6.136   5.108   6.756 -0.2201 -0.1432  0.2686
 2199TIP3   OH2 6553   6.973   6.576   2.420  0.3218  0.2361 -0.1302
 2199TIP3    H1 6554   6.942   6.645   2.362  0.7777  0.4824 -0.0860
 2199TIP3    H2 6555   6.999   6.620   2.500  2.3526  0.2891 -0.7532
 2200TIP3   OH2 6556   4.884   6.467   3.071 -0.6050 -0.1423 -0.1382
 2200TIP3    H1 6557   4.811   6.461   3.133 -0.1555  1.6203  0.6314
 2200TIP3    H2 6558   4.956   6.504   3.122  0.4810 -0.7432 -1.1845
 2201TIP3   OH2 6559   5.998   0.087   5.001  0.6078  0.2886  0.4691
 2201TIP3    H1 6560   5.938   0.091   4.927 -0.3671 -1.2995  1.1141
 2201TIP3    H2 6561   5.942   0.094   5.078  1.1341 -1.6078  1.0937
 2202TIP3   OH2 6562   3.439   6.334   5.374 -0.0782  0.4335  0.2671
 2202TIP3    H1 6563   3.407   6.300   5.291 -0.6531  2.3684 -0.3524
 2202TIP3    H2 6564   3.360   6.363   5.420  0.3621  0.7314  0.8462
 2203TIP3   OH2 6565   4.115   4.277   2.486  0.1901  0.3673  0.5876
 2203TIP3    H1 6566   4.078   4.342   2.426  3.5017  1.4434 -0.5287
 2203TIP3    H2 6567   4.109   4.319   2.572 -3.4820 -0.6713  0.9677
 2204TIP3   OH2 6568   6.620   1.233   4.869 -0.0238  0.4581 -0.1031
 2204TIP3    H1 6569   6.564   1.190   4.804 -0.0226 -0.6702  0.6258
 2204TIP3    H2 6570   6.709   1.205   4.847 -0.0794 -0.3913  0.7258
 2205TIP3   OH2 6571   1.133   1.453   3.677 -0.5487 -0.0310 -0.0350
 2205TIP3    H1 6572   1.060   1.487   3.728  0.1236  0.5843  0.5267
 2205TIP3    H2 6573   1.199   1.522   3.679 -0.2234 -0.2935 -1.1314
 2206TIP3   OH2 6574   3.792   7.063   6.418  0.7270  0.0354  0.1279
 2206TIP3    H1 6575   3.847   6.991   6.447  1.0811  0.5460  0.7336
 2206TIP3    H2 6576   3.787   7.052   6.323 -0.4046 -1.6267  0.3217
 2207TIP3   OH2 6577   3.229   5.375   2.880 -0.2278 -0.3877 -0.2416
 2207TIP3    H1 6578   3.303   5.339   2.928  0.4779  0.1435 -0.9177
 2207TIP3    H2 6579   3.161   5.308   2.888 -0.1072 -0.3614  1.4082
 2208TIP3   OH2 6580   3.365   3.151   2.406 -0.4839 -0.5260  0.1256
 2208TIP3    H1 6581   3.357   3.161   2.501  2.6970 -0.9611  0.5288
 2208TIP3    H2 6582   3.362   3.056   2.391 -0.6249 -0.4768 -0.1770
 2209TIP3   OH2 6583   3.368   3.651   0.323 -0.1912  0.8880  0.0772
 2209TIP3    H1 6584   3.378   3.742   0.294  0.8114  0.5518 -0.7021
 2209TIP3    H2 6585   3.274   3.639   0.331 -0.3538  1.8782 -0.2124
 2210TIP3   OH2 6586   2.076   2.356   5.083 -0.3193  0.4641  0.0005
 2210TIP3    H1 6587   2.036   2.366   5.170 -0.8624 -0.9808 -0.0614
 2210TIP3    H2 6588   2.043   2.272   5.051  2.2714 -0.5198 -0.3190
 2211TIP3   OH2 6589   5.051   0.568   3.653 -0.1249  0.3776 -0.3206
 2211TIP3    H1 6590   4.960   0.593   3.635 -0.3106 -0.0349  0.0326
 2211TIP3    H2 6591   5.074   0.617   3.732  0.2221  1.0915 -0.8616
 2212TIP3   OH2 6592   2.236   3.603   1.300 -0.4725  0.4229  0.6185
 2212TIP3    H1 6593   2.151   3.644   1.283 -0.3988  0.4720  0.3481
 2212TIP3    H2 6594   2.221   3.510   1.284  0.0126  0.6557 -1.5180
 2213TIP3   OH2 6595   1.384   3.110   0.829 -0.3959  0.3286  1.0770
 2213TIP3    H1 6596   1.445   3.039   0.807  0.7466  2.1004 -2.2277
 2213TIP3    H2 6597   1.437   3.174   0.875 -0.7905  0.1765  1.7557
 2214TIP3   OH2 6598   1.569   0.139   6.495  0.4417  0.1877 -0.1248
 2214TIP3    H1 6599   1.611   0.120   6.579  0.6342 -0.0959 -0.2851
 2214TIP3    H2 6600   1.480   0.104   6.504  0.5671 -0.1436 -0.1570
 2215TIP3   OH2 6601   2.027   3.279   0.225  0.0245  0.0304 -0.0593
 2215TIP3    H1 6602   2.087   3.274   0.300 -0.9877  1.8199  0.9660
 2215TIP3    H2 6603   2.020   3.373   0.208 -0.9356 -0.2754 -1.4499
 2216TIP3   OH2 6604   4.078   4.062   0.007 -0.1798  0.4721 -0.4408
 2216TIP3    H1 6605   4.107   4.118   0.079  0.2358  0.2684 -0.4489
 2216TIP3    H2 6606   4.128   3.981   0.017 -2.7331 -1.0420  1.2375
 2217TIP3   OH2 6607   1.551   1.327   2.905  0.0052  0.5225  0.1519
 2217TIP3    H1 6608   1.578   1.409   2.863  0.7857  0.6967  0.9592
 2217TIP3    H2 6609   1.456   1.335   2.913 -0.1740  0.4703 -1.5534
 2218TIP3   OH2 6610   3.140   0.276   1.757  0.7338  0.1654  0.7387
 2218TIP3    H1 6611   3.084   0.249   1.684  2.2773 -0.3100 -0.3020
 2218TIP3    H2 6612   3.180   0.195   1.788  3.0644  0.7887 -0.4393
 2219TIP3   OH2 6613   0.937   0.491   3.878  0.2854  0.1651 -0.3572
 2219TIP3    H1 6614   1.014   0.451   3.918 -0.3683 -0.1292  0.6513
 2219TIP3    H2 6615   0.897   0.542   3.948 -0.1828  0.6972 -0.9960
 2220TIP3   OH2 6616   1.476   3.777   5.956 -0.0212  0.3642  0.3777
 2220TIP3    H1 6617   1.492   3.852   5.899  0.2305  0.1143  0.1111
 2220TIP3    H2 6618   1.511   3.804   6.041  0.4109  0.4157  0.1896
 2221TIP3   OH2 6619   0.153   4.671   6.278 -0.3632  0.1021 -0.4706
 2221TIP3    H1 6620   0.174   4.722   6.356 -0.3863 -3.1148  1.8213
 2221TIP3    H2 6621   0.238   4.652   6.238 -0.3589  1.8475 -1.4014
 2222TIP3   OH2 6622   4.973   7.584   5.139 -0.1486 -0.5815 -0.0428
 2222TIP3    H1 6623   4.978   7.488   5.142  1.1638 -0.5187  0.9193
 2222TIP3    H2 6624   4.957   7.604   5.047 -0.1979 -1.7232 -0.3027
 2223TIP3   OH2 6625   5.630   2.764   2.910  0.0447 -0.2090 -0.4740
 2223TIP3    H1 6626   5.535   2.771   2.924 -0.3585 -2.9321 -1.2267
 2223TIP3    H2 6627   5.648   2.826   2.839 -1.2969 -0.1663 -0.8033
 2224TIP3   OH2 6628   5.507   4.426   5.685  0.3554  0.1524 -0.1156
 2224TIP3    H1 6629   5.432   4.369   5.702  0.8371 -0.4998 -0.1288
 2224TIP3    H2 6630   5.469   4.511   5.664 -0.3728 -0.1342  0.0368
 2225TIP3   OH2 6631   3.820   5.989   5.042  0.3213  0.1243  0.0846
 2225TIP3    H1 6632   3.851   5.937   5.116 -1.6193 -1.0793  0.0973
 2225TIP3    H2 6633   3.835   5.934   4.965  0.0140  0.3314 -0.1266
 2226TIP3   OH2 6634   5.972   5.995   2.503 -0.0564  0.4409  0.6194
 2226TIP3    H1 6635   5.971   5.957   2.415  2.7250  0.1704  0.6148
 2226TIP3    H2 6636   5.961   5.920   2.561  0.7631  0.2485  0.5326
 2227TIP3   OH2 6637   1.701   7.300   0.072  0.1391 -0.0308  0.0937
 2227TIP3    H1 6638   1.618   7.289   0.025 -1.0919  2.5180  1.4759
 2227TIP3    H2 6639   1.747   7.369   0.024  0.1945  0.5116  0.9102
 2228TIP3   OH2 6640   1.378   2.066   1.210 -0.0745  0.0866 -0.3492
 2228TIP3    H1 6641   1.295   2.026   1.236 -1.0134  1.1029 -1.5980
 2228TIP3    H2 6642   1.421   2.089   1.292 -1.1172 -0.3110  0.3223
 2229TIP3   OH2 6643   4.461   3.485   3.817 -0.4602 -0.0881  0.4902
 2229TIP3    H1 6644   4.439   3.402   3.776  0.1967  0.9138 -2.1048
 2229TIP3    H2 6645   4.387   3.543   3.795 -0.3144  0.3685  1.1576
 2230TIP3   OH2 6646   6.422   0.526   1.004  0.5529  0.1976 -0.3840
 2230TIP3    H1 6647   6.343   0.482   0.973 -0.3419  0.7409  1.0261
 2230TIP3    H2 6648   6.411   0.617   0.978  0.7008  0.2795 -0.1686
 2231TIP3   OH2 6649   1.278   2.137   1.900  0.0811 -0.2965  0.3262
 2231TIP3    H1 6650   1.213   2.077   1.937 -0.6332 -0.2866 -0.8634
 2231TIP3    H2 6651   1.247   2.224   1.925 -0.1470 -0.3111  0.0973
 2232TIP3   OH2 6652   6.152   2.330   1.586 -0.2432  0.5081  0.2286
 2232TIP3    H1 6653   6.158   2.364   1.675 -0.8743 -0.1671  0.5337
 2232TIP3    H2 6654   6.237   2.289   1.570 -0.3194  0.1596  0.7153
 2233TIP3   OH2 6655   7.938   1.702   4.043  0.1155  0.4518  0.0273
 2233TIP3    H1 6656   7.898   1.782   4.008 -0.6465 -0.1049 -0.3945
 2233TIP3    H2 6657   8.029   1.726   4.059 -0.1696  1.4891  0.1780
 2234TIP3   OH2 6658   7.052   3.498   6.199  0.1159 -0.0540  0.6190
 2234TIP3    H1 6659   7.130   3.554   6.194 -0.4561  0.7533  0.5723
 2234TIP3    H2 6660   7.085   3.415   6.232  1.2460 -0.2004 -0.7825
 2235TIP3   OH2 6661   7.034   6.469   0.060  0.0879  0.0554 -0.4711
 2235TIP3    H1 6662   7.045   6.422  -0.023  0.2071  0.2274 -0.5538
 2235TIP3    H2 6663   7.123   6.490   0.087 -0.0093  1.2088 -0.9996
 2236TIP3   OH2 6664   0.689   2.463   5.393  0.2210 -0.2754 -0.5619
 2236TIP3    H1 6665   0.662   2.554   5.391  0.2654 -0.2510 -0.2107
 2236TIP3    H2 6666   0.613   2.416   5.430  0.3489 -0.3210 -0.3532
 2237TIP3   OH2 6667   2.537   4.501   5.072  0.6403  0.0043  0.0734
 2237TIP3    H1 6668   2.569   4.458   5.151 -0.3572 -0.0013  0.4764
 2237TIP3    H2 6669   2.473   4.440   5.035 -0.3112  0.8340  0.3023
 2238TIP3   OH2 6670   1.525   2.815   0.392  0.4882 -0.3688 -0.3839
 2238TIP3    H1 6671   1.589   2.759   0.437 -0.5957 -0.0523  1.6584
 2238TIP3    H2 6672   1.569   2.839   0.310  2.3400 -1.4345  0.2151
 2239TIP3   OH2 6673   1.094   5.159   2.280  0.6793 -0.0243 -0.2583
 2239TIP3    H1 6674   1.174   5.211   2.272  1.7403 -1.2079  1.8086
 2239TIP3    H2 6675   1.046   5.177   2.199  2.9797  0.7992 -1.5571
 2240TIP3   OH2 6676   4.756   3.686   1.477 -0.3457  0.3569 -0.0030
 2240TIP3    H1 6677   4.795   3.599   1.472 -0.0949  0.5021 -0.6434
 2240TIP3    H2 6678   4.746   3.702   1.571  2.5858  0.9327  0.3390
 2241TIP3   OH2 6679   0.475   0.016   6.301 -0.3140 -1.0420  0.3888
 2241TIP3    H1 6680   0.404   0.075   6.276  0.0780 -0.8888 -0.3917
 2241TIP3    H2 6681   0.431  -0.057   6.345 -0.7017  0.4416  2.6330
 2242TIP3   OH2 6682   5.116   4.058   4.835  0.4059 -0.2004 -0.3499
 2242TIP3    H1 6683   5.043   4.040   4.775  0.6238  0.0511 -0.6944
 2242TIP3    H2 6684   5.191   4.070   4.778  0.9547 -1.5253  0.0552
 2243TIP3   OH2 6685   6.417   4.349   3.601 -0.0785  0.6352 -0.1397
 2243TIP3    H1 6686   6.339   4.335   3.654 -0.1634  1.1822 -0.1145
 2243TIP3    H2 6687   6.463   4.265   3.602 -0.5946  0.3529 -0.0385
 2244TIP3   OH2 6688   1.248   0.691   2.862  0.5249  0.5583  0.1322
 2244TIP3    H1 6689   1.248   0.699   2.766  1.0087 -0.6498  0.0143
 2244TIP3    H2 6690   1.242   0.781   2.893 -0.3581  0.9225 -1.0319
 2245TIP3   OH2 6691   6.292   0.929   4.958  0.4216 -0.2220  0.2493
 2245TIP3    H1 6692   6.359   0.873   4.997 -0.3389 -1.2137  0.2003
 2245TIP3    H2 6693   6.268   0.884   4.877  1.8151  1.6852 -1.2869
 2246TIP3   OH2 6694   3.432   6.119   6.010 -0.6518 -0.4512 -0.1402
 2246TIP3    H1 6695   3.463   6.166   5.932  0.6416 -0.3365  0.4225
 2246TIP3    H2 6696   3.509   6.074   6.043 -1.3396 -1.0279  0.7147
 2247TIP3   OH2 6697   2.972   1.626   1.826 -0.2972  0.1894 -0.4533
 2247TIP3    H1 6698   2.933   1.605   1.741 -1.1052  1.0944 -0.3299
 2247TIP3    H2 6699   3.036   1.694   1.806  1.1033 -1.1358 -0.6217
 2248TIP3   OH2 6700   4.558   7.189   2.305 -0.6515 -0.0233  0.2008
 2248TIP3    H1 6701   4.601   7.217   2.224  0.8505 -1.2779  0.5061
 2248TIP3    H2 6702   4.471   7.160   2.277  0.5606 -2.5165 -1.4233
 2249TIP3   OH2 6703   3.696   0.841   6.623  0.3174 -0.2294 -0.2879
 2249TIP3    H1 6704   3.740   0.888   6.694  0.0645 -0.8146  0.2637
 2249TIP3    H2 6705   3.610   0.883   6.616  1.0578  1.1678 -1.6214
 2250TIP3   OH2 6706   4.143   4.911   4.862  0.2539 -0.0986 -0.1058
 2250TIP3    H1 6707   4.069   4.942   4.809  0.7835  0.4153 -0.5529
 2250TIP3    H2 6708   4.158   4.822   4.830  0.9412  0.4122 -1.2423
 2251TIP3   OH2 6709   1.681   1.148   6.271  0.4904  0.1192 -0.5732
 2251TIP3    H1 6710   1.669   1.243   6.276 -0.0745  0.0499 -0.5245
 2251TIP3    H2 6711   1.593   1.114   6.255  0.9706 -0.2685 -2.5759
 2252TIP3   OH2 6712   0.812   5.764   4.498  0.1377  0.2413  0.2563
 2252TIP3    H1 6713   0.839   5.704   4.429  1.1466  0.5139  0.3907
 2252TIP3    H2 6714   0.869   5.841   4.487  1.1413 -0.1768  2.0834
 2253TIP3   OH2 6715   1.662   5.772   5.243  0.8722  0.5170  0.0451
 2253TIP3    H1 6716   1.712   5.845   5.281 -0.9573  1.8232  0.0892
 2253TIP3    H2 6717   1.682   5.697   5.299  1.9720  1.2388  0.6569
 2254TIP3   OH2 6718   2.720   0.989   4.909 -0.0760 -0.1514 -0.2187
 2254TIP3    H1 6719   2.797   0.991   4.966  1.0850 -0.9837 -1.6725
 2254TIP3    H2 6720   2.754   0.956   4.826 -2.0621 -0.7249 -0.8378
 2255TIP3   OH2 6721   4.136   5.851   6.593 -0.5794  0.0718 -0.2133
 2255TIP3    H1 6722   4.219   5.824   6.555 -0.6822 -1.1992  0.4296
 2255TIP3    H2 6723   4.080   5.774   6.586 -1.3068  0.5205  0.4979
 2256TIP3   OH2 6724   2.372   1.510   2.442  0.8247 -0.3698  0.5650
 2256TIP3    H1 6725   2.404   1.573   2.506  0.1512  1.2840 -0.6464
 2256TIP3    H2 6726   2.337   1.439   2.494 -0.4068  1.2660  2.0973
 2257TIP3   OH2 6727   6.766   0.674   3.644  0.2277 -0.6477 -0.6525
 2257TIP3    H1 6728   6.745   0.731   3.718  0.6225  0.5548 -1.4417
 2257TIP3    H2 6729   6.682   0.657   3.602  0.1398 -0.4634 -0.5493
 2258TIP3   OH2 6730   4.961   3.155   5.154  0.6049 -0.5346  0.1901
 2258TIP3    H1 6731   4.977   3.190   5.241 -0.6505  1.2814 -0.2669
 2258TIP3    H2 6732   4.893   3.088   5.167 -0.5021  0.6100  0.4793
 2259TIP3   OH2 6733   0.083   2.643   5.962  0.0693  0.3201 -0.1830
 2259TIP3    H1 6734   0.167   2.648   5.916  0.4237  1.6549  0.5513
 2259TIP3    H2 6735   0.021   2.613   5.896  0.9227  0.3827 -1.0351
 2260TIP3   OH2 6736   4.600   7.025   5.164 -0.1048 -0.5932  0.6451
 2260TIP3    H1 6737   4.668   7.087   5.189  0.8568 -1.3080 -0.1113
 2260TIP3    H2 6738   4.588   6.970   5.242  0.3123 -0.5821  0.7155
 2261TIP3   OH2 6739   2.306   1.154   0.731  0.0367 -0.4470  0.0643
 2261TIP3    H1 6740   2.369   1.091   0.696 -2.3158 -3.4758  0.8470
 2261TIP3    H2 6741   2.344   1.183   0.814  0.9336 -1.3368 -0.0166
 2262TIP3   OH2 6742   6.531   2.612   0.012  0.6527 -0.0360  0.3523
 2262TIP3    H1 6743   6.577   2.674   0.069  1.6579 -0.5901  0.1653
 2262TIP3    H2 6744   6.583   2.532   0.016  1.0864  0.0723 -1.7696
 2263TIP3   OH2 6745   5.821   3.115   2.175  0.1640  0.1968  0.5136
 2263TIP3    H1 6746   5.865   3.167   2.108  0.7679  1.0392  1.5286
 2263TIP3    H2 6747   5.729   3.114   2.148  0.5245 -0.2244 -0.7742
 2264TIP3   OH2 6748   7.581   1.025   0.939 -1.3029 -0.5190  0.2598
 2264TIP3    H1 6749   7.576   1.027   1.035  0.8893  1.0700  0.4136
 2264TIP3    H2 6750   7.634   0.947   0.920 -0.7670 -0.2118  0.4449
 2265TIP3   OH2 6751   6.957   2.646   1.839 -0.1799 -0.3154 -0.2881
 2265TIP3    H1 6752   6.992   2.621   1.753  1.4824 -0.0660  0.2888
 2265TIP3    H2 6753   6.886   2.583   1.854  1.5341 -2.4118 -0.4805
 2266TIP3   OH2 6754   4.588   1.517   3.904 -0.2814 -0.2114 -0.6221
 2266TIP3    H1 6755   4.672   1.473   3.918  0.1137  0.7121 -0.0106
 2266TIP3    H2 6756   4.611   1.601   3.865 -0.6089  1.3914  2.3215
 2267TIP3   OH2 6757   6.040   0.981   5.177 -0.3431  0.0665  0.1029
 2267TIP3    H1 6758   6.103   0.973   5.105 -0.9104  0.2931 -0.4235
 2267TIP3    H2 6759   5.990   0.900   5.173 -0.7071  0.3011 -0.0734
 2268TIP3   OH2 6760   1.985   0.443   1.129 -0.3257  0.1422  0.2227
 2268TIP3    H1 6761   1.895   0.461   1.100 -0.3690 -2.2209 -1.4623
 2268TIP3    H2 6762   2.035   0.519   1.101 -1.8568  1.8773  1.8801
 2269TIP3   OH2 6763   5.776   5.456   2.570  0.0642 -0.0550  0.3162
 2269TIP3    H1 6764   5.803   5.467   2.478 -0.2918  0.8757  0.3128
 2269TIP3    H2 6765   5.828   5.521   2.617  0.8920 -1.1152  0.9197
 2270TIP3   OH2 6766   0.039   5.772   1.648  0.5156  0.4177 -0.1287
 2270TIP3    H1 6767  -0.046   5.805   1.679  0.4777 -0.3181  0.5911
 2270TIP3    H2 6768   0.048   5.808   1.560 -1.8281 -1.7128 -1.3457
 2271TIP3   OH2 6769   6.886   2.777   5.759 -0.2283  0.5297  0.1842
 2271TIP3    H1 6770   6.931   2.806   5.838 -1.0556 -1.2550  1.3390
 2271TIP3    H2 6771   6.957   2.752   5.699  0.3890  1.6981  0.3848
 2272TIP3   OH2 6772   1.583   5.716   1.044 -0.0716  0.4193  0.5485
 2272TIP3    H1 6773   1.569   5.754   0.957  0.8986  0.1957  0.2808
 2272TIP3    H2 6774   1.545   5.780   1.104  0.8396  1.4598  0.0598
 2273TIP3   OH2 6775   8.265   4.798   3.101 -0.3054 -0.3000  0.0948
 2273TIP3    H1 6776   8.208   4.809   3.025 -1.1380 -2.8558  0.2555
 2273TIP3    H2 6777   8.328   4.870   3.094 -4.2065  3.5479  0.6831
 2274TIP3   OH2 6778   4.446   2.498   1.119 -0.2307 -0.4296  0.0197
 2274TIP3    H1 6779   4.445   2.431   1.188 -0.7958  0.3679  0.8030
 2274TIP3    H2 6780   4.355   2.505   1.092  0.1110 -1.3869 -1.4744
 2275TIP3   OH2 6781   7.664   5.812   2.187 -0.1205 -0.5125 -0.4401
 2275TIP3    H1 6782   7.670   5.899   2.149  1.5843 -0.5459 -0.3245
 2275TIP3    H2 6783   7.660   5.752   2.112  2.4468 -0.5291 -0.6527
 2276TIP3   OH2 6784   0.541   5.139   2.642 -0.3060  0.2892 -0.4736
 2276TIP3    H1 6785   0.531   5.225   2.684 -1.1880 -0.8065  1.6918
 2276TIP3    H2 6786   0.627   5.108   2.672 -0.9620 -0.5245  0.6128
 2277TIP3   OH2 6787   5.960   5.477   4.824  0.1045  0.3451 -0.6674
 2277TIP3    H1 6788   5.884   5.437   4.866  0.7434 -0.5759 -0.3489
 2277TIP3    H2 6789   5.941   5.472   4.730 -0.5128  0.7333 -0.5713
 2278TIP3   OH2 6790   1.044   6.071   5.685  0.5969 -0.3797 -0.6778
 2278TIP3    H1 6791   1.052   6.086   5.591  1.8824  1.0598 -0.3831
 2278TIP3    H2 6792   1.103   5.997   5.703 -0.1100 -1.0489 -1.0777
 2279TIP3   OH2 6793   3.534   2.943   6.341 -0.5035  0.3826 -0.7035
 2279TIP3    H1 6794   3.580   3.006   6.396 -0.2693  1.3209 -1.9157
 2279TIP3    H2 6795   3.442   2.964   6.352 -0.4122  1.1929 -1.3597
 2280TIP3   OH2 6796   1.775   5.195   1.778  0.0738  0.1165  0.5991
 2280TIP3    H1 6797   1.848   5.167   1.723  1.0501  0.6220  1.6048
 2280TIP3    H2 6798   1.698   5.184   1.723  0.8441 -0.9151 -0.3133
 2281TIP3   OH2 6799   5.876   6.500   6.084 -0.6381  0.0860  0.1428
 2281TIP3    H1 6800   5.792   6.481   6.042  0.0260 -1.1656 -0.6830
 2281TIP3    H2 6801   5.906   6.581   6.041  0.3097 -1.4790 -2.3613
 2282TIP3   OH2 6802   2.519   2.543   2.572  0.7994  0.3472  0.3728
 2282TIP3    H1 6803   2.574   2.589   2.508 -0.2814  0.0602 -0.8171
 2282TIP3    H2 6804   2.443   2.601   2.584  0.5128 -0.0683  0.5996
 2283TIP3   OH2 6805   2.918   6.907   5.114  0.4098 -0.5821  0.2357
 2283TIP3    H1 6806   2.887   6.816   5.117 -0.6566 -0.2214  0.5627
 2283TIP3    H2 6807   2.957   6.915   5.026 -0.0732 -1.1684 -0.0445
 2284TIP3   OH2 6808   5.653   5.435   5.621 -0.2702  0.5356  0.8674
 2284TIP3    H1 6809   5.567   5.471   5.597 -1.3985 -0.2458  3.3464
 2284TIP3    H2 6810   5.686   5.497   5.687  1.9004  1.7113 -1.1712
 2285TIP3   OH2 6811   0.059   1.521   1.158 -0.0981  0.0887  0.4316
 2285TIP3    H1 6812   0.024   1.569   1.233 -2.6677 -0.8206 -0.0668
 2285TIP3    H2 6813   0.005   1.442   1.153  0.2563 -0.0839 -2.0979
 2286TIP3   OH2 6814   2.397   7.247   2.351  0.1929 -0.4964 -0.4466
 2286TIP3    H1 6815   2.481   7.248   2.397  0.9705 -1.9839 -1.7660
 2286TIP3    H2 6816   2.360   7.161   2.370 -0.2592 -0.4829 -1.2403
 2287TIP3   OH2 6817   3.172   5.542   4.584  0.0146 -0.4827 -0.5031
 2287TIP3    H1 6818   3.147   5.629   4.554  1.9478 -0.1033 -1.1713
 2287TIP3    H2 6819   3.135   5.536   4.673 -0.6444  0.7760 -0.6683
 2288TIP3   OH2 6820   5.142   6.241   3.676  0.2312  0.1047 -0.1916
 2288TIP3    H1 6821   5.147   6.261   3.769 -1.9641 -0.8525  0.2037
 2288TIP3    H2 6822   5.071   6.176   3.669  0.2640  0.2276 -2.5283
 2289TIP3   OH2 6823   6.938   1.836   4.088 -0.0014 -1.0433  0.1282
 2289TIP3    H1 6824   6.992   1.909   4.117 -0.6375 -0.6389  0.3099
 2289TIP3    H2 6825   6.892   1.807   4.167  0.1955 -1.5960  0.0433
 2290TIP3   OH2 6826   5.866   0.574   2.266  0.2245  0.0436  0.0011
 2290TIP3    H1 6827   5.777   0.585   2.299  0.3532 -2.1022  1.2658
 2290TIP3    H2 6828   5.920   0.567   2.345  1.0554 -1.6193 -0.6660
 2291TIP3   OH2 6829   1.828   4.493   3.245  0.6786  0.2426  0.0682
 2291TIP3    H1 6830   1.791   4.576   3.216 -0.5770 -0.4827 -0.4907
 2291TIP3    H2 6831   1.809   4.490   3.339 -0.5168 -0.0099 -0.1643
 2292TIP3   OH2 6832   4.420   0.933   2.131 -0.0403 -0.0792 -0.2105
 2292TIP3    H1 6833   4.470   0.894   2.060  0.7936  1.8054 -0.7368
 2292TIP3    H2 6834   4.331   0.899   2.120  0.5436 -1.4791 -0.8232
 2293TIP3   OH2 6835   0.034   7.226   3.258 -0.0827 -0.1951 -0.0308
 2293TIP3    H1 6836  -0.041   7.169   3.245 -0.4747 -0.0645  1.4467
 2293TIP3    H2 6837   0.093   7.175   3.314  1.0476 -0.3782 -1.3430
 2294TIP3   OH2 6838   4.638   1.574   2.774  0.0388 -0.2860  0.6067
 2294TIP3    H1 6839   4.570   1.508   2.761 -0.6981  0.4994  0.3749
 2294TIP3    H2 6840   4.705   1.553   2.709 -0.7197 -0.1330 -0.2508
 2295TIP3   OH2 6841   4.909   4.117   0.574 -0.4619  0.2843 -0.2421
 2295TIP3    H1 6842   4.909   4.069   0.657 -0.6455  0.3267 -0.2188
 2295TIP3    H2 6843   4.973   4.188   0.588 -0.1249 -0.0034 -0.3072
 2296TIP3   OH2 6844   6.860   2.754   6.169  0.0133 -0.3584  0.0909
 2296TIP3    H1 6845   6.850   2.759   6.264  1.6540 -2.6323  0.4682
 2296TIP3    H2 6846   6.780   2.710   6.138 -0.7465  0.8225  0.3212
 2297TIP3   OH2 6847   2.937   5.374   4.027  0.3605  0.0313 -0.7975
 2297TIP3    H1 6848   2.857   5.367   4.080  1.5763  0.4577  1.1908
 2297TIP3    H2 6849   2.935   5.296   3.971 -2.0822  0.7152 -1.8125
 2298TIP3   OH2 6850   2.369   4.216   6.516  0.4166 -0.3056 -0.1956
 2298TIP3    H1 6851   2.381   4.228   6.611  3.9113  1.3704 -0.6939
 2298TIP3    H2 6852   2.300   4.278   6.493 -0.9258 -1.1647  1.2732
 2299TIP3   OH2 6853   7.353   7.535   2.016  0.4588  0.3044 -0.3216
 2299TIP3    H1 6854   7.343   7.440   2.013 -0.4360  0.3256  1.0702
 2299TIP3    H2 6855   7.435   7.552   1.969 -0.1556 -0.9850 -1.9722
 2300TIP3   OH2 6856   5.878   7.630   4.049 -0.5632 -0.0550 -0.1989
 2300TIP3    H1 6857   5.861   7.541   4.081 -3.1634 -0.0351 -1.2394
 2300TIP3    H2 6858   5.893   7.682   4.127 -0.6592 -1.1084  0.5408
 2301TIP3   OH2 6859   3.312   6.015   1.725  0.1970  0.1674  0.7420
 2301TIP3    H1 6860   3.301   6.066   1.805  0.2623 -0.6454  1.2891
 2301TIP3    H2 6861   3.398   5.974   1.735 -0.1503 -0.6065  0.6518
 2302TIP3   OH2 6862   7.593   6.354   3.345 -0.5498 -0.0799 -0.4684
 2302TIP3    H1 6863   7.638   6.318   3.422  0.2753  1.4560 -0.1810
 2302TIP3    H2 6864   7.637   6.314   3.270  0.4608  0.4129 -0.1618
 2303TIP3   OH2 6865   6.112   4.321   3.597  0.2362 -0.1904 -0.5776
 2303TIP3    H1 6866   6.085   4.290   3.684 -0.1172  0.5876 -0.4043
 2303TIP3    H2 6867   6.114   4.416   3.605  1.3939 -0.1549 -1.0741
 2304TIP3   OH2 6868   6.864   2.380   5.482 -0.1440  0.1890 -0.0229
 2304TIP3    H1 6869   6.787   2.329   5.456  1.0374 -0.8165 -1.6615
 2304TIP3    H2 6870   6.914   2.321   5.538 -0.7292  1.0033  1.4269
 2305TIP3   OH2 6871   4.345   0.750   4.884  0.0617 -0.5789 -0.0191
 2305TIP3    H1 6872   4.413   0.815   4.865  0.5405 -1.1054 -0.1081
 2305TIP3    H2 6873   4.371   0.711   4.967 -1.3370  0.8011  1.1347
 2306TIP3   OH2 6874   4.657   3.880   3.253  0.1771  0.5323  0.0458
 2306TIP3    H1 6875   4.652   3.821   3.328  2.0936  0.5449  0.2295
 2306TIP3    H2 6876   4.574   3.868   3.207 -1.0966  0.6158  2.2143
 2307TIP3   OH2 6877   6.746   2.365   1.293  0.1673 -0.3545 -0.2362
 2307TIP3    H1 6878   6.694   2.388   1.217  1.4920  1.0891 -0.7567
 2307TIP3    H2 6879   6.807   2.299   1.262  0.9011  0.4445 -0.5310
 2308TIP3   OH2 6880   0.519   5.102   1.927  0.3775 -0.0370 -0.0558
 2308TIP3    H1 6881   0.534   5.076   1.837  1.6662 -2.1102  0.6927
 2308TIP3    H2 6882   0.548   5.193   1.931  1.6851 -0.3605 -1.4154
 2309TIP3   OH2 6883   0.946   0.771   1.868  1.1641 -0.4675 -0.3745
 2309TIP3    H1 6884   0.975   0.830   1.937 -0.7894  2.6144 -1.9480
 2309TIP3    H2 6885   0.883   0.713   1.910 -0.8121  2.0462  0.3601
 2310TIP3   OH2 6886   2.584   2.940   3.198  0.2328 -0.3326  0.1190
 2310TIP3    H1 6887   2.622   3.011   3.147 -0.4357 -0.5715 -0.7353
 2310TIP3    H2 6888   2.598   2.861   3.145  1.1930 -0.8937  1.1756
 2311TIP3   OH2 6889   1.952   2.895   4.203 -0.4443  0.1653 -0.2152
 2311TIP3    H1 6890   1.938   2.870   4.295  2.2491  2.0371  0.8337
 2311TIP3    H2 6891   2.029   2.952   4.205 -1.0566  1.3266 -3.5146
 2312TIP3   OH2 6892   1.245   7.760   3.732  0.0320 -0.7916  0.4893
 2312TIP3    H1 6893   1.185   7.730   3.800 -1.3578  2.3886  0.8102
 2312TIP3    H2 6894   1.290   7.680   3.704 -2.5323 -2.9298  1.9717
 2313TIP3   OH2 6895   7.130   3.353   4.769  0.6793 -0.4318 -0.0660
 2313TIP3    H1 6896   7.159   3.439   4.739  1.4790 -1.6074 -3.0399
 2313TIP3    H2 6897   7.069   3.371   4.840  0.0800  2.6226 -1.2209
 2314TIP3   OH2 6898   5.102   0.292   6.590  0.3022 -0.3267  0.9415
 2314TIP3    H1 6899   5.162   0.339   6.532 -0.3805  0.5611  0.9386
 2314TIP3    H2 6900   5.029   0.352   6.603 -0.8195 -1.5600  0.5821
 2315TIP3   OH2 6901   7.034   2.328   5.726 -0.1381  0.2970 -0.1215
 2315TIP3    H1 6902   7.100   2.284   5.673 -0.6862 -0.8480  0.1167
 2315TIP3    H2 6903   7.027   2.274   5.805 -0.5488  1.0348  0.3570
 2316TIP3   OH2 6904   8.157   0.151   3.206 -0.6133 -0.3515 -0.1459
 2316TIP3    H1 6905   8.213   0.136   3.129  0.3817 -1.0588  0.6838
 2316TIP3    H2 6906   8.178   0.078   3.265  0.7565  1.6544  2.0053
 2317TIP3   OH2 6907   1.432   7.334   2.215  0.7311 -0.0092 -0.0586
 2317TIP3    H1 6908   1.431   7.312   2.122 -1.3109 -0.2897 -0.0232
 2317TIP3    H2 6909   1.399   7.424   2.218  1.6985  0.3502  0.3595
 2318TIP3   OH2 6910   5.244   1.725   4.184 -0.3609 -0.0791 -0.0358
 2318TIP3    H1 6911   5.150   1.710   4.194 -0.2996 -0.6214 -0.1947
 2318TIP3    H2 6912   5.278   1.725   4.273 -0.5815  0.6229  0.0509
 2319TIP3   OH2 6913   1.274   7.860   4.990 -0.3400  0.1223  0.1481
 2319TIP3    H1 6914   1.210   7.842   5.059 -0.9525 -1.8822 -0.8380
 2319TIP3    H2 6915   1.295   7.773   4.954 -0.8344  1.1151 -2.8469
 2320TIP3   OH2 6916   5.266   0.774   5.108 -0.4492  0.0972  0.4452
 2320TIP3    H1 6917   5.320   0.704   5.143  0.0257  0.1350 -0.1830
 2320TIP3    H2 6918   5.326   0.847   5.096 -0.3129 -0.2792 -1.5118
 2321TIP3   OH2 6919   6.373   1.146   4.243  0.0805 -0.0216  0.4891
 2321TIP3    H1 6920   6.288   1.189   4.255 -0.0545 -0.3207  0.6123
 2321TIP3    H2 6921   6.437   1.208   4.278  0.2247  1.5827 -2.3216
 2322TIP3   OH2 6922   0.904   3.643   4.214 -0.3017 -0.2396  0.4551
 2322TIP3    H1 6923   0.955   3.647   4.133  0.7724  1.7641  1.1741
 2322TIP3    H2 6924   0.969   3.634   4.283 -1.0944 -0.1366  1.2224
 2323TIP3   OH2 6925   1.517   7.771   2.562  0.5542 -0.1090  0.4424
 2323TIP3    H1 6926   1.471   7.699   2.519 -1.5287  0.8148  0.9871
 2323TIP3    H2 6927   1.562   7.730   2.637 -0.8024 -0.8234  0.8930
 2324TIP3   OH2 6928   1.884   5.305   6.554 -0.4307 -0.2251 -0.1333
 2324TIP3    H1 6929   1.849   5.306   6.643 -0.3220 -0.8911 -0.0787
 2324TIP3    H2 6930   1.856   5.389   6.516  0.6642  0.6834  0.9577
 2325TIP3   OH2 6931   1.074   4.404   2.224  0.1649 -0.2449  0.2671
 2325TIP3    H1 6932   0.999   4.405   2.284 -0.1800  1.8160 -0.1116
 2325TIP3    H2 6933   1.124   4.326   2.249 -1.0590 -0.5880  1.8302
 2326TIP3   OH2 6934   0.808   1.596   6.629  0.3997 -0.4752  1.0786
 2326TIP3    H1 6935   0.750   1.658   6.672 -0.7142 -0.3336 -0.5133
 2326TIP3    H2 6936   0.842   1.644   6.553  0.4164 -1.4338  0.4593
 2327TIP3   OH2 6937   4.606   0.821   1.944  0.0228  0.0247  0.4413
 2327TIP3    H1 6938   4.595   0.745   1.886 -1.4204 -0.6752  1.5619
 2327TIP3    H2 6939   4.654   0.885   1.891  1.8328 -1.8649 -0.3503
 2328TIP3   OH2 6940   5.861   4.373   2.235  0.9373 -0.2815  0.0382
 2328TIP3    H1 6941   5.824   4.444   2.182  1.8579  0.5351  0.4649
 2328TIP3    H2 6942   5.811   4.375   2.316 -0.0942 -1.1625 -0.5632
 2329TIP3   OH2 6943   1.917   4.290   5.193  0.0222  0.2791  0.3363
 2329TIP3    H1 6944   2.008   4.287   5.224  0.3386 -1.4080 -0.6169
 2329TIP3    H2 6945   1.921   4.251   5.106 -1.7231 -0.3949  0.5277
 2330TIP3   OH2 6946   7.164   0.756   2.382 -0.0017  0.4926  0.0640
 2330TIP3    H1 6947   7.155   0.695   2.455 -1.0021 -0.6563 -0.9739
 2330TIP3    H2 6948   7.164   0.843   2.423  0.8353 -0.1625  1.5194
 2331TIP3   OH2 6949   7.386   6.180   0.286  0.0660 -0.1007 -0.0966
 2331TIP3    H1 6950   7.339   6.107   0.326 -1.2653 -0.0073 -1.4401
 2331TIP3    H2 6951   7.478   6.164   0.309 -0.6308  0.4992  3.8360
 2332TIP3   OH2 6952   2.892   2.683   4.070 -0.0205 -0.1018 -0.4252
 2332TIP3    H1 6953   2.812   2.664   4.119  0.0962  0.9424  0.2064
 2332TIP3    H2 6954   2.938   2.748   4.124  1.1296 -0.4910 -0.9067
 2333TIP3   OH2 6955   3.616   0.181   1.940  0.2585  0.0558 -0.0006
 2333TIP3    H1 6956   3.705   0.166   1.972  0.1092 -1.5692 -0.2946
 2333TIP3    H2 6957   3.591   0.099   1.897 -2.4977 -0.6957  2.6910
 2334TIP3   OH2 6958   7.236   3.469   3.077  0.0102  0.5778 -0.1961
 2334TIP3    H1 6959   7.141   3.479   3.086 -0.2584 -2.0268  0.7851
 2334TIP3    H2 6960   7.246   3.388   3.026  1.6907  0.0679  0.8834
 2335TIP3   OH2 6961   3.740   2.978   6.708 -0.1310  0.3649 -0.2126
 2335TIP3    H1 6962   3.800   3.029   6.654 -0.1651  1.3539  0.6330
 2335TIP3    H2 6963   3.662   3.033   6.716  0.0353  0.4505  1.1598
 2336TIP3   OH2 6964   0.458   3.953   1.624  0.1252 -0.3556 -0.2006
 2336TIP3    H1 6965   0.525   4.015   1.597  0.2549 -0.0130  0.8884
 2336TIP3    H2 6966   0.469   3.878   1.564  1.2983 -0.2011 -0.1990
 2337TIP3   OH2 6967   2.051   4.632   2.762  0.1348  0.0860 -0.1203
 2337TIP3    H1 6968   2.142   4.629   2.730 -0.2335 -0.2309 -1.1755
 2337TIP3    H2 6969   2.035   4.544   2.796 -0.1470 -0.2179 -1.0180
 2338TIP3   OH2 6970   2.960   1.312   6.265 -0.0070 -0.3421  0.1782
 2338TIP3    H1 6971   2.869   1.341   6.261 -0.0058 -0.3363  0.1907
 2338TIP3    H2 6972   2.958   1.221   6.237  0.2327  0.1884 -1.7216
 2339TIP3   OH2 6973   3.846   3.441   5.331  0.3671  0.2517  0.4609
 2339TIP3    H1 6974   3.773   3.380   5.317 -1.2072  1.8081  1.4403
 2339TIP3    H2 6975   3.913   3.389   5.375 -1.1207 -0.6866  1.7259
 2340TIP3   OH2 6976   3.812   3.943   5.560 -0.1241 -0.0884  0.1107
 2340TIP3    H1 6977   3.773   4.011   5.614 -0.0925 -0.0600  0.0982
 2340TIP3    H2 6978   3.853   3.991   5.488 -1.3590 -0.2060 -0.6931
 2341TIP3   OH2 6979   3.525   4.595   3.354 -0.2680  0.2894  0.6910
 2341TIP3    H1 6980   3.522   4.670   3.412 -2.1565  0.4618  0.4266
 2341TIP3    H2 6981   3.434   4.568   3.344  0.0463 -0.1087 -1.7047
 2342TIP3   OH2 6982   2.249   0.890   5.039  0.0944  0.4924  0.5064
 2342TIP3    H1 6983   2.163   0.904   4.998  1.3658  1.2557 -2.1378
 2342TIP3    H2 6984   2.306   0.866   4.966  1.9788 -0.8981  2.3138
 2343TIP3   OH2 6985   6.469   5.250   3.216 -0.7094 -0.0194 -0.2226
 2343TIP3    H1 6986   6.493   5.164   3.249 -3.4841 -0.4774  0.8646
 2343TIP3    H2 6987   6.422   5.231   3.134 -2.0514  0.3343  0.4360
 2344TIP3   OH2 6988   2.095   0.021   2.919 -0.4319 -0.6039  0.0141
 2344TIP3    H1 6989   2.157   0.052   2.854 -1.8516 -0.3429 -1.2778
 2344TIP3    H2 6990   2.116   0.070   2.998  0.7196 -0.2300 -0.5098
 2345TIP3   OH2 6991   3.638   1.194   3.577  0.5241 -0.5502 -0.0013
 2345TIP3    H1 6992   3.731   1.179   3.559  0.3635  0.2966 -1.7287
 2345TIP3    H2 6993   3.635   1.214   3.670  2.0378 -0.8659  0.1408
 2346TIP3   OH2 6994   4.126   3.843   1.005  0.4268  0.2984 -0.3918
 2346TIP3    H1 6995   4.088   3.883   1.084 -1.2579 -1.0464 -0.4542
 2346TIP3    H2 6996   4.170   3.915   0.961 -0.6580  1.6211  0.5747
 2347TIP3   OH2 6997   7.839   3.913   5.281  0.2921 -0.3432 -1.2055
 2347TIP3    H1 6998   7.796   3.997   5.294 -1.6707 -1.3274 -0.9447
 2347TIP3    H2 6999   7.908   3.931   5.217  0.3523  1.5657 -0.6774
 2348TIP3   OH2 7000   4.572   1.755   1.725  0.2262  0.1387 -0.3455
 2348TIP3    H1 7001   4.508   1.810   1.678 -0.0449  0.1225 -0.0004
 2348TIP3    H2 7002   4.555   1.667   1.693  2.2092  0.4770 -2.6880
 2349TIP3   OH2 7003   0.235   3.803   1.369 -0.0299 -0.1230 -0.1371
 2349TIP3    H1 7004   0.216   3.795   1.275  0.0133  0.3306 -0.1863
 2349TIP3    H2 7005   0.324   3.838   1.372 -0.8990  2.3084  0.0168
 2350TIP3   OH2 7006   1.239   7.485   5.769 -0.0875 -0.0645  0.3603
 2350TIP3    H1 7007   1.216   7.573   5.799 -1.1345 -1.1655  3.2125
 2350TIP3    H2 7008   1.334   7.483   5.770 -0.0183  0.2402  3.2772
 2351TIP3   OH2 7009   1.618   3.567   1.927  0.8109  0.0305  0.1543
 2351TIP3    H1 7010   1.539   3.622   1.935  0.8530  0.4566 -1.8698
 2351TIP3    H2 7011   1.616   3.512   2.005 -0.4818  1.3158  1.1040
 2352TIP3   OH2 7012   7.022   0.372   5.492 -0.0482  0.3140  0.4760
 2352TIP3    H1 7013   7.111   0.403   5.473 -0.2201 -0.4665 -1.9583
 2352TIP3    H2 7014   6.970   0.452   5.499  0.4313  0.7281 -0.5194
 2353TIP3   OH2 7015   7.379   5.156   4.187  0.0668 -0.7345  0.3619
 2353TIP3    H1 7016   7.307   5.155   4.124  0.3450 -1.2542  0.0474
 2353TIP3    H2 7017   7.440   5.221   4.153 -0.3190 -0.1849  0.7084
 2354TIP3   OH2 7018   0.135   7.569   4.591 -0.3237 -0.5797 -0.3654
 2354TIP3    H1 7019   0.229   7.551   4.588 -0.4090 -1.2211  0.4403
 2354TIP3    H2 7020   0.127   7.650   4.642 -0.2286 -0.7294 -0.1106
 2355TIP3   OH2 7021   3.443   7.531   2.163  0.3276 -0.8298 -0.0757
 2355TIP3    H1 7022   3.369   7.581   2.129 -0.2238 -0.4289  1.6088
 2355TIP3    H2 7023   3.508   7.534   2.093 -0.5136  0.4237 -0.8473
 2356TIP3   OH2 7024   7.262   3.735   3.197 -0.4361  0.1090  0.0199
 2356TIP3    H1 7025   7.168   3.735   3.219 -0.1560 -0.8610  1.3363
 2356TIP3    H2 7026   7.280   3.646   3.168  0.1929  0.1332  0.3211
 2357TIP3   OH2 7027   6.070   7.147   3.638 -0.4368  0.1362  0.1762
 2357TIP3    H1 7028   6.027   7.071   3.678 -1.3491  0.9306  0.7490
 2357TIP3    H2 7029   6.051   7.138   3.544 -0.8952 -0.1236  0.2895
 2358TIP3   OH2 7030   6.402   3.332   5.526 -0.5208  0.2966  0.4062
 2358TIP3    H1 7031   6.418   3.243   5.556  0.2721  0.7809  1.4883
 2358TIP3    H2 7032   6.332   3.323   5.461  0.7564 -1.3148 -0.8318
 2359TIP3   OH2 7033   8.034   3.138   4.202 -0.4211  0.3678 -0.0999
 2359TIP3    H1 7034   8.120   3.143   4.161  0.2341 -0.3749  1.1130
 2359TIP3    H2 7035   8.030   3.213   4.260 -0.4474  0.2086  0.1069
 2360TIP3   OH2 7036   2.211   0.554   3.329  0.2434 -0.3719 -0.1499
 2360TIP3    H1 7037   2.197   0.536   3.422 -1.0923  2.5309  0.3251
 2360TIP3    H2 7038   2.130   0.526   3.286  0.1005  0.0127 -0.1362
 2361TIP3   OH2 7039   0.765   2.420   5.924 -0.2512 -0.7530  0.5321
 2361TIP3    H1 7040   0.856   2.404   5.947  0.8469  0.2231 -2.5940
 2361TIP3    H2 7041   0.723   2.334   5.930  1.6676 -1.8810 -0.9582
 2362TIP3   OH2 7042   3.845   1.608   2.245  0.6011  0.3167  0.0057
 2362TIP3    H1 7043   3.790   1.618   2.322  1.2966 -1.8657  0.8658
 2362TIP3    H2 7044   3.854   1.696   2.210 -1.2101  1.1024  1.3625
 2363TIP3   OH2 7045   0.941   2.155   5.379  0.5210  0.6945  0.0511
 2363TIP3    H1 7046   0.912   2.064   5.382 -1.0591  1.0471 -2.2599
 2363TIP3    H2 7047   1.020   2.154   5.325  1.3599  0.5450  1.2423
 2364TIP3   OH2 7048   2.463   4.146   6.258 -0.7316  0.1910 -0.0051
 2364TIP3    H1 7049   2.442   4.163   6.350  1.3263 -0.4427  0.6363
 2364TIP3    H2 7050   2.464   4.050   6.251  0.2006  0.2223 -0.4114
 2365TIP3   OH2 7051   7.912   7.368   0.787  0.1314 -0.0573  0.1793
 2365TIP3    H1 7052   7.982   7.430   0.766  1.4496 -1.8156 -0.8516
 2365TIP3    H2 7053   7.871   7.349   0.703 -0.2177 -0.6334  0.4720
 2366TIP3   OH2 7054   1.537   1.426   3.230  0.0038 -0.1586 -0.4561
 2366TIP3    H1 7055   1.518   1.477   3.151 -1.3872 -1.0525 -0.7289
 2366TIP3    H2 7056   1.459   1.434   3.284  1.0098  0.5977  0.9538
 2367TIP3   OH2 7057   7.706   3.489   4.698 -0.6432  0.0395 -0.6360
 2367TIP3    H1 7058   7.702   3.488   4.602 -2.7875  1.0674 -0.6146
 2367TIP3    H2 7059   7.649   3.417   4.725 -2.4558  1.5745 -0.1746
 2368TIP3   OH2 7060   2.452   7.616   0.133  0.3945 -0.5014  0.0591
 2368TIP3    H1 7061   2.527   7.588   0.185 -0.9564 -3.3060  0.7207
 2368TIP3    H2 7062   2.463   7.571   0.049  0.3764  0.5724 -0.5324
 2369TIP3   OH2 7063   7.816   4.525   3.638 -0.5459  0.8398 -0.6335
 2369TIP3    H1 7064   7.881   4.590   3.611 -0.5190  0.4062 -1.6576
 2369TIP3    H2 7065   7.770   4.566   3.711  0.9466  1.1124  0.2021
 2370TIP3   OH2 7066   4.988   3.475   2.974 -0.0778 -0.1410  0.5710
 2370TIP3    H1 7067   4.949   3.427   2.901 -0.4896 -0.6683  1.1269
 2370TIP3    H2 7068   5.029   3.407   3.027  0.7464  0.3047  0.5149
 2371TIP3   OH2 7069   0.089   6.235   1.332 -0.1807  0.3876 -0.6218
 2371TIP3    H1 7070   0.153   6.295   1.293 -0.2225  0.3137 -0.8059
 2371TIP3    H2 7071   0.005   6.279   1.322  0.1809  2.1629  2.8269
 2372TIP3   OH2 7072   1.856   5.610   2.662 -0.5097  0.5294 -0.3199
 2372TIP3    H1 7073   1.850   5.686   2.603  2.6082 -0.4413 -2.1268
 2372TIP3    H2 7074   1.903   5.544   2.610  0.1476 -1.3193  2.4428
 2373TIP3   OH2 7075   7.586   5.089   3.454 -0.2334  0.4292 -0.1114
 2373TIP3    H1 7076   7.532   5.164   3.481 -1.4064 -0.1980 -0.6650
 2373TIP3    H2 7077   7.535   5.012   3.478 -0.3480 -0.1736 -2.1128
 2374TIP3   OH2 7078   7.732   5.184   4.486 -0.6059 -0.8117 -0.4363
 2374TIP3    H1 7079   7.807   5.124   4.481  1.0829  1.2225 -0.8862
 2374TIP3    H2 7080   7.733   5.217   4.576 -1.1856 -1.0341 -0.3445
 2375TIP3   OH2 7081   4.976   0.568   0.183 -0.0172 -0.4475 -0.3429
 2375TIP3    H1 7082   4.951   0.644   0.236 -0.2007 -0.6622 -0.1200
 2375TIP3    H2 7083   4.933   0.494   0.226  2.0655 -1.0418  0.8575
 2376TIP3   OH2 7084   7.393   2.001   4.626  0.8568  0.0514 -0.3568
 2376TIP3    H1 7085   7.382   2.094   4.608 -2.9304 -0.4085 -1.2866
 2376TIP3    H2 7086   7.327   1.981   4.692  2.5030 -1.7808  0.8632
 2377TIP3   OH2 7087   3.449   0.027   2.721  0.5594  0.1165  0.6702
 2377TIP3    H1 7088   3.410   0.102   2.677 -1.2026 -1.2066 -0.1734
 2377TIP3    H2 7089   3.376  -0.012   2.769  1.6091 -0.6413  1.6914
 2378TIP3   OH2 7090   0.130   2.646   4.139  0.6981 -0.0211 -0.0587
 2378TIP3    H1 7091   0.071   2.721   4.147  1.0687  0.1485  1.3466
 2378TIP3    H2 7092   0.168   2.636   4.227  0.9786 -1.5893 -0.3327
 2379TIP3   OH2 7093   1.872   2.442   2.862  0.2437  0.3131 -0.0830
 2379TIP3    H1 7094   1.915   2.385   2.926 -0.1662  0.9092  0.7431
 2379TIP3    H2 7095   1.876   2.393   2.780 -1.2553 -1.4847  0.8578
 2380TIP3   OH2 7096   4.538   4.476   3.853 -0.4530  0.2217 -0.2728
 2380TIP3    H1 7097   4.591   4.398   3.868  1.4920  1.3570 -0.9090
 2380TIP3    H2 7098   4.448   4.444   3.852  0.2991 -2.0334 -0.7668
 2381TIP3   OH2 7099   0.279   0.883   1.438  0.3547 -0.3343 -0.0462
 2381TIP3    H1 7100   0.299   0.974   1.413  0.8353 -0.8558 -1.7654
 2381TIP3    H2 7101   0.184   0.879   1.442  0.3481  0.3916  0.6528
 2382TIP3   OH2 7102   7.885   4.500   5.125 -0.2209  0.2952  0.8715
 2382TIP3    H1 7103   7.926   4.576   5.166 -0.3935  0.7992  0.1366
 2382TIP3    H2 7104   7.821   4.537   5.064  0.2717 -0.4036 -0.0985
 2383TIP3   OH2 7105   7.713   0.911   2.976 -0.4162 -0.5604  0.3016
 2383TIP3    H1 7106   7.754   0.850   2.914  0.2421 -0.6807  0.8387
 2383TIP3    H2 7107   7.779   0.978   2.990 -0.4445 -0.6892  1.0905
 2384TIP3   OH2 7108   6.824   7.119   4.143  0.0554 -0.3227 -0.3932
 2384TIP3    H1 7109   6.798   7.050   4.082  0.7242 -0.1289 -0.9184
 2384TIP3    H2 7110   6.818   7.199   4.091  2.3526 -0.3430 -0.7691
 2385TIP3   OH2 7111   0.868   7.572   1.411 -0.2370 -0.6099  0.6576
 2385TIP3    H1 7112   0.859   7.661   1.444 -2.3693  0.0599 -1.4617
 2385TIP3    H2 7113   0.930   7.579   1.338 -1.1797 -0.6387 -0.1615
 2386TIP3   OH2 7114   4.676   3.358   6.346 -0.7303  0.1127 -0.4637
 2386TIP3    H1 7115   4.703   3.331   6.259 -0.9476 -0.8221 -0.2474
 2386TIP3    H2 7116   4.613   3.429   6.332  0.3686  1.0097 -1.0180
 2387TIP3   OH2 7117   3.546   6.950   5.869  0.2353 -0.4105 -0.0074
 2387TIP3    H1 7118   3.628   6.998   5.855  0.4503 -0.3451  1.3464
 2387TIP3    H2 7119   3.566   6.861   5.840  0.7367 -0.3544  0.1521
 2388TIP3   OH2 7120   2.625   6.950   4.052  0.4671  0.6609 -0.4430
 2388TIP3    H1 7121   2.659   6.951   3.962  1.8870  1.1338  0.0699
 2388TIP3    H2 7122   2.660   7.030   4.091  1.3929 -0.4364  1.0649
 2389TIP3   OH2 7123   3.999   0.084   6.244  0.4206 -0.8303  0.2314
 2389TIP3    H1 7124   3.937   0.076   6.171 -0.3040  1.4745  0.5211
 2389TIP3    H2 7125   4.067   0.020   6.224 -1.7790 -3.1896 -0.3323
 2390TIP3   OH2 7126   4.186   1.865   3.900 -0.2758  0.3402  0.1973
 2390TIP3    H1 7127   4.126   1.938   3.886  0.0228  0.0655 -3.2377
 2390TIP3    H2 7128   4.135   1.803   3.953 -2.1427  1.1344 -0.5722
 2391TIP3   OH2 7129   4.451   4.203   4.338  0.0915  0.7301  0.2705
 2391TIP3    H1 7130   4.465   4.127   4.395  1.7011 -0.3283 -1.4085
 2391TIP3    H2 7131   4.538   4.244   4.333  0.3704 -0.0439 -2.4841
 2392TIP3   OH2 7132   2.676   7.746   5.422  0.1578 -0.2408 -0.4913
 2392TIP3    H1 7133   2.660   7.840   5.419  0.4202 -0.2214 -1.5615
 2392TIP3    H2 7134   2.696   7.728   5.514  0.9567  0.8914 -0.4272
 2393TIP3   OH2 7135   4.422   2.456   0.547 -0.4927 -0.1814  0.1786
 2393TIP3    H1 7136   4.504   2.484   0.586 -1.2102  1.3817  0.6613
 2393TIP3    H2 7137   4.445   2.428   0.458  0.8146 -1.6307  0.9361
 2394TIP3   OH2 7138   5.006   3.246   0.805  0.4189 -0.0792  0.4845
 2394TIP3    H1 7139   4.935   3.237   0.868 -0.9656 -0.3181 -1.0455
 2394TIP3    H2 7140   5.078   3.194   0.843 -0.9185 -1.5821  1.0923
 2395TIP3   OH2 7141   5.713   6.720   1.803 -0.3517 -0.5465 -0.0759
 2395TIP3    H1 7142   5.766   6.649   1.767 -0.1626  0.6017 -2.2330
 2395TIP3    H2 7143   5.685   6.770   1.727 -2.8292  0.1068  1.1405
 2396TIP3   OH2 7144   7.085   5.128   1.354  0.3319  0.2579  1.0550
 2396TIP3    H1 7145   7.108   5.204   1.299 -0.2789  0.4404  1.0479
 2396TIP3    H2 7146   7.148   5.061   1.328  0.9445  0.7950  1.1323
 2397TIP3   OH2 7147   5.008   3.361   5.954  0.8133  0.0337  0.8306
 2397TIP3    H1 7148   4.986   3.453   5.944 -1.7151 -0.6164 -0.8446
 2397TIP3    H2 7149   5.102   3.356   5.939  0.8074  2.1983 -0.2889
 2398TIP3   OH2 7150   5.333   2.879   5.887  0.2850 -0.2728 -0.1885
 2398TIP3    H1 7151   5.319   2.953   5.828  1.0004 -1.8329 -2.4392
 2398TIP3    H2 7152   5.357   2.919   5.970  0.7930  2.0230 -1.3568
 2399TIP3   OH2 7153   1.966   2.857   0.978 -0.2105 -0.2759  0.2112
 2399TIP3    H1 7154   1.908   2.830   1.049 -0.1913  0.0547  0.3536
 2399TIP3    H2 7155   2.035   2.908   1.020  0.5205 -1.1519  0.1243
 2400TIP3   OH2 7156   7.013   0.124   5.630 -0.4169  0.0885 -0.1266
 2400TIP3    H1 7157   6.961   0.054   5.591 -1.7958  1.0648 -0.1173
 2400TIP3    H2 7158   7.017   0.191   5.563 -0.3337  0.5879  0.3740
 2401TIP3   OH2 7159   4.800   5.413   1.425  0.0026  0.1995 -0.2584
 2401TIP3    H1 7160   4.745   5.479   1.467  1.1589  0.7638  0.4390
 2401TIP3    H2 7161   4.761   5.329   1.450 -0.3376  0.5817  0.5202
 2402TIP3   OH2 7162   2.509   2.110   4.050 -0.5228  0.8442 -0.1240
 2402TIP3    H1 7163   2.552   2.037   4.007 -0.9622  0.3686  0.2268
 2402TIP3    H2 7164   2.418   2.082   4.059 -0.4148  0.8493  1.2561
 2403TIP3   OH2 7165   3.068   1.697   2.076  0.5419 -0.0102  0.4234
 2403TIP3    H1 7166   3.055   1.710   2.170  0.6898 -1.1512  0.6241
 2403TIP3    H2 7167   3.138   1.758   2.052 -1.3574  2.2979  0.4541
 2404TIP3   OH2 7168   1.372   5.850   6.265 -0.1902 -0.0415 -0.0471
 2404TIP3    H1 7169   1.322   5.795   6.327 -0.3370  0.3192  0.1592
 2404TIP3    H2 7170   1.372   5.937   6.305  0.1784  0.0747 -0.2948
 2405TIP3   OH2 7171   6.069   4.373   0.080  0.1906 -0.5728 -0.1385
 2405TIP3    H1 7172   6.092   4.335  -0.005 -0.4289 -0.4603 -0.3566
 2405TIP3    H2 7173   6.016   4.305   0.123 -2.7465  0.7737 -1.3715
 2406TIP3   OH2 7174   6.631   3.855   6.783  0.1036  0.6729 -0.3292
 2406TIP3    H1 7175   6.627   3.830   6.691 -0.6420  1.5001 -0.5343
 2406TIP3    H2 7176   6.680   3.785   6.825  1.6770  0.9615 -1.5956
 2407TIP3   OH2 7177   1.049   5.542   1.937 -0.6807  0.2619  0.4281
 2407TIP3    H1 7178   1.076   5.490   1.861  0.8389  0.3107  0.9102
 2407TIP3    H2 7179   0.964   5.579   1.911 -1.3582 -1.6695 -0.2880
 2408TIP3   OH2 7180   0.731   6.151   1.147  0.1765  0.1349 -0.6022
 2408TIP3    H1 7181   0.800   6.161   1.081  0.2095  0.3294 -0.5412
 2408TIP3    H2 7182   0.653   6.126   1.098 -0.1628  1.6424 -0.9048
 2409TIP3   OH2 7183   4.662   7.633   2.947  0.2446 -0.1531 -0.1415
 2409TIP3    H1 7184   4.683   7.548   2.984  1.7506 -0.8589 -2.4036
 2409TIP3    H2 7185   4.567   7.641   2.956  0.2672 -1.3506  1.5001
 2410TIP3   OH2 7186   3.210   0.825   1.084 -0.5112 -0.2655 -0.5872
 2410TIP3    H1 7187   3.212   0.910   1.040  0.5939 -0.4277 -0.8961
 2410TIP3    H2 7188   3.291   0.823   1.135 -1.3653 -0.4405  0.7843
 2411TIP3   OH2 7189   1.723   0.142   3.997  0.0117 -0.6226 -0.3779
 2411TIP3    H1 7190   1.710   0.103   4.083 -2.8292 -1.2985 -1.0075
 2411TIP3    H2 7191   1.780   0.080   3.951  1.2650 -0.4285  0.8538
 2412TIP3   OH2 7192   5.519   7.212   1.750 -0.0715  0.0939  0.4015
 2412TIP3    H1 7193   5.464   7.138   1.775  1.3795 -0.9806  0.5343
 2412TIP3    H2 7194   5.587   7.174   1.694  0.1926  1.4768 -0.2673
 2413TIP3   OH2 7195   3.787   1.678   1.744 -0.0229 -0.2394  0.2253
 2413TIP3    H1 7196   3.799   1.673   1.839 -0.0009  0.3131  0.2557
 2413TIP3    H2 7197   3.867   1.641   1.707  0.4100  0.4630  0.4275
 2414TIP3   OH2 7198   2.198   1.908   5.848  0.3138 -0.0733 -0.1964
 2414TIP3    H1 7199   2.235   1.981   5.897  0.4740  0.0055 -0.4321
 2414TIP3    H2 7200   2.166   1.848   5.915 -0.0389  0.3263 -0.0038
 2415TIP3   OH2 7201   2.809   5.994   2.301  0.1069 -0.0794 -0.1238
 2415TIP3    H1 7202   2.775   5.977   2.388  0.6778  1.4938  0.4376
 2415TIP3    H2 7203   2.843   5.910   2.271 -0.8767 -0.8216  0.8093
 2416TIP3   OH2 7204   8.016   6.406   4.249  0.2964 -0.0940 -0.6285
 2416TIP3    H1 7205   8.001   6.460   4.326  1.2348  1.0100 -1.1957
 2416TIP3    H2 7206   8.027   6.317   4.284 -1.4422  0.0190  0.2998
 2417TIP3   OH2 7207   5.916   7.540   5.773 -0.3234 -0.1044  0.4203
 2417TIP3    H1 7208   5.835   7.575   5.736 -1.3619 -0.2737  2.4008
 2417TIP3    H2 7209   5.965   7.617   5.800 -0.1384 -0.0272 -0.1215
 2418TIP3   OH2 7210   2.151   2.254   4.602 -0.5162 -0.0992  0.3556
 2418TIP3    H1 7211   2.082   2.299   4.651 -0.3827  1.4761 -0.8274
 2418TIP3    H2 7212   2.137   2.280   4.511  0.8929 -0.7674 -0.0798
 2419TIP3   OH2 7213   0.469   5.895   3.634  0.2811 -0.8381 -0.5304
 2419TIP3    H1 7214   0.493   5.876   3.725  2.3073  1.2720 -0.5640
 2419TIP3    H2 7215   0.411   5.971   3.640 -1.0227 -1.7605 -0.9400
 2420TIP3   OH2 7216   7.435   3.385   4.418  0.0743 -0.2588 -0.1893
 2420TIP3    H1 7217   7.390   3.300   4.415 -0.3186 -0.0301 -1.8400
 2420TIP3    H2 7218   7.369   3.445   4.451  0.0121 -0.4080 -0.0414
 2421TIP3   OH2 7219   1.835   1.011   1.111  0.2648 -0.2387 -0.0470
 2421TIP3    H1 7220   1.767   0.993   1.176  0.0428 -0.2317 -0.2786
 2421TIP3    H2 7221   1.883   1.085   1.147  0.4072 -0.5019  0.3146
 2422TIP3   OH2 7222   3.301   2.652   5.248 -0.2560 -0.3728  0.5559
 2422TIP3    H1 7223   3.289   2.647   5.153 -0.8176  0.6992  0.5512
 2422TIP3    H2 7224   3.373   2.592   5.267 -0.0788 -0.5261 -0.5588
 2423TIP3   OH2 7225   5.534   6.784   1.401 -0.0388  0.0552 -0.4927
 2423TIP3    H1 7226   5.565   6.754   1.315 -0.4537 -0.3587 -0.5019
 2423TIP3    H2 7227   5.497   6.706   1.442 -0.6779  0.4481 -0.3107
 2424TIP3   OH2 7228   7.138   3.152   1.539 -0.1137  0.5402  0.5833
 2424TIP3    H1 7229   7.188   3.072   1.524 -2.1346 -1.3187  2.8626
 2424TIP3    H2 7230   7.058   3.141   1.488  0.4032  2.0888 -0.6512
 2425TIP3   OH2 7231   5.134   0.019   5.301  0.1873 -0.1966  0.0173
 2425TIP3    H1 7232   5.162   0.090   5.244  0.6197 -1.4500 -1.4142
 2425TIP3    H2 7233   5.162   0.045   5.389  1.4545  0.8142 -0.6597
 2426TIP3   OH2 7234   7.697   0.277   1.232 -0.4943  0.3794 -0.0428
 2426TIP3    H1 7235   7.736   0.232   1.308  0.0282 -0.6615 -0.8944
 2426TIP3    H2 7236   7.605   0.250   1.233 -0.3370 -0.1655 -0.1610
 2427TIP3   OH2 7237   1.756   6.893   3.439 -0.3297  0.3345  0.4688
 2427TIP3    H1 7238   1.833   6.840   3.416 -1.2340  0.1336 -2.4993
 2427TIP3    H2 7239   1.710   6.840   3.504  0.6431 -0.8442  0.2501
 2428TIP3   OH2 7240   5.167   6.399   6.169 -0.4022  0.3174  0.4367
 2428TIP3    H1 7241   5.180   6.316   6.124 -1.4875  0.9413 -1.1634
 2428TIP3    H2 7242   5.172   6.378   6.262  1.1378 -1.1890  0.0549
 2429TIP3   OH2 7243   5.527   4.578   3.992 -0.2155  0.2097 -0.2123
 2429TIP3    H1 7244   5.617   4.590   3.962 -0.4134  0.0223 -0.8911
 2429TIP3    H2 7245   5.520   4.633   4.070  0.3187  0.6667 -0.4816
 2430TIP3   OH2 7246   3.749   2.225   1.044  0.0033  0.5449 -0.4672
 2430TIP3    H1 7247   3.657   2.203   1.035 -0.6185  2.4400  0.7342
 2430TIP3    H2 7248   3.785   2.214   0.956 -1.1083 -1.0978 -0.7716
 2431TIP3   OH2 7249   3.291   3.410   1.226  0.1841  0.0299 -0.4243
 2431TIP3    H1 7250   3.246   3.413   1.142 -3.1513  0.3492  1.2213
 2431TIP3    H2 7251   3.349   3.487   1.225  0.2492  0.0009 -2.3879
 2432TIP3   OH2 7252   7.635   0.370   4.427 -0.6904 -0.2252  0.4555
 2432TIP3    H1 7253   7.656   0.460   4.404 -1.2614  0.0495  1.0104
 2432TIP3    H2 7254   7.594   0.375   4.513 -2.6951 -0.7790 -0.4015
 2433TIP3   OH2 7255   7.822   4.082   6.267  0.2909  0.2196  1.1633
 2433TIP3    H1 7256   7.753   4.015   6.263 -0.0833  0.5555  1.8284
 2433TIP3    H2 7257   7.812   4.121   6.353  2.1100 -0.5551  1.7628
 2434TIP3   OH2 7258   5.358   4.628   1.278 -0.0841 -0.3692 -0.4170
 2434TIP3    H1 7259   5.332   4.705   1.327  1.1278 -0.8601  1.0789
 2434TIP3    H2 7260   5.280   4.572   1.278  0.1487 -0.8158  1.9471
 2435TIP3   OH2 7261   3.052   5.747   6.471  0.1838  0.2509 -0.2100
 2435TIP3    H1 7262   3.030   5.743   6.564  0.3694  0.4294 -0.1588
 2435TIP3    H2 7263   3.000   5.677   6.432  1.2261 -0.8001  0.2396
 2436TIP3   OH2 7264   1.516   3.796   6.706  0.5297 -0.3913 -0.6161
 2436TIP3    H1 7265   1.449   3.825   6.645  0.3869 -0.2731 -0.4059
 2436TIP3    H2 7266   1.475   3.724   6.754  0.1661  0.3697  0.2514
 2437TIP3   OH2 7267   3.857   3.211   2.997 -0.3449  0.1352 -0.2305
 2437TIP3    H1 7268   3.862   3.161   3.078 -3.8608  0.7021  0.4861
 2437TIP3    H2 7269   3.891   3.152   2.930 -1.6750 -2.1844  1.0215
 2438TIP3   OH2 7270   5.454   5.282   3.348  0.1977  0.4611  0.2727
 2438TIP3    H1 7271   5.496   5.367   3.338  1.6401 -0.1593  0.7855
 2438TIP3    H2 7272   5.508   5.236   3.413 -1.1076 -0.4923  0.7183
 2439TIP3   OH2 7273   5.431   5.237   1.105  0.6449 -0.1425 -0.7665
 2439TIP3    H1 7274   5.372   5.311   1.121  0.5531 -0.4562  0.5152
 2439TIP3    H2 7275   5.516   5.268   1.135  0.1761 -1.2773  2.0811
 2440TIP3   OH2 7276   5.629   1.462   5.554  0.5622 -0.8460  0.5268
 2440TIP3    H1 7277   5.577   1.381   5.557 -0.3114 -0.3187  0.1338
 2440TIP3    H2 7278   5.579   1.524   5.606  1.7349 -0.8153  1.6670
 2441TIP3   OH2 7279   1.240   5.820   0.379 -0.4019  0.3804  0.5443
 2441TIP3    H1 7280   1.276   5.741   0.340 -0.6954  0.1300  0.7758
 2441TIP3    H2 7281   1.149   5.798   0.400 -0.8930  1.2033 -0.6027
 2442TIP3   OH2 7282   6.473   4.911   4.241 -0.4889 -0.0437  0.6322
 2442TIP3    H1 7283   6.510   4.924   4.153  0.4155 -0.1508  0.9859
 2442TIP3    H2 7284   6.506   4.825   4.268  0.7479  0.7530  1.7972
 2443TIP3   OH2 7285   6.427   2.719   4.085 -0.1405 -0.1030  0.0904
 2443TIP3    H1 7286   6.388   2.714   3.997 -1.7099 -3.3114  0.8283
 2443TIP3    H2 7287   6.507   2.667   4.079 -0.5045 -0.7459  0.6340
 2444TIP3   OH2 7288   7.999   4.953   1.040  0.2048  0.5930  0.4876
 2444TIP3    H1 7289   7.959   4.866   1.048 -1.4121  1.4625  2.5977
 2444TIP3    H2 7290   8.089   4.941   1.069  0.0756 -0.4255  0.5045
 2445TIP3   OH2 7291   2.508   7.346   4.286 -0.2848  0.3650  0.6065
 2445TIP3    H1 7292   2.432   7.330   4.229 -0.0072 -0.0024  0.3367
 2445TIP3    H2 7293   2.537   7.258   4.311 -0.8380  0.5264  1.9033
 2446TIP3   OH2 7294   6.451   0.234   4.551  0.3993 -0.2257  0.4986
 2446TIP3    H1 7295   6.450   0.306   4.489  0.1445 -0.2246  0.5037
 2446TIP3    H2 7296   6.544   0.213   4.562  0.4363 -0.4051 -0.0909
 2447TIP3   OH2 7297   8.288   5.925   2.051 -0.0138 -0.0356 -0.0737
 2447TIP3    H1 7298   8.332   5.987   2.108  0.9471 -1.1608  0.4318
 2447TIP3    H2 7299   8.322   5.945   1.963  0.7226 -0.2186  0.1669
 2448TIP3   OH2 7300   4.017   3.786   2.694 -0.3654  0.1024  0.3083
 2448TIP3    H1 7301   4.095   3.741   2.662 -1.5445 -1.0331 -1.1306
 2448TIP3    H2 7302   4.033   3.800   2.787  0.8751 -1.5283  0.3744
 2449TIP3   OH2 7303   2.107   0.451   5.412  0.4067 -0.1883 -0.2667
 2449TIP3    H1 7304   2.109   0.360   5.383  1.6864 -0.2131 -0.1755
 2449TIP3    H2 7305   2.073   0.500   5.337  1.7261 -0.4978 -1.1057
 2450TIP3   OH2 7306   7.552   4.748   4.637 -0.1745 -0.2104  0.1472
 2450TIP3    H1 7307   7.569   4.684   4.706  0.4862 -0.0791  0.1132
 2450TIP3    H2 7308   7.570   4.701   4.556  0.2304 -0.0104  0.1188
 2451TIP3   OH2 7309   6.890   7.681   0.089  0.3617 -0.5197  0.1467
 2451TIP3    H1 7310   6.877   7.643   0.002  1.0945  1.0201 -0.6558
 2451TIP3    H2 7311   6.803   7.712   0.115  0.2172 -0.6235 -0.2079
 2452TIP3   OH2 7312   7.544   1.242   3.604  0.1784  0.2007  0.2860
 2452TIP3    H1 7313   7.606   1.310   3.578  0.8228 -0.3928  0.2159
 2452TIP3    H2 7314   7.477   1.243   3.536  1.3667 -0.7257 -0.9669
 2453TIP3   OH2 7315   0.112   1.151   0.484 -0.0541  0.0044  0.4334
 2453TIP3    H1 7316   0.115   1.069   0.435  1.0472  0.5839 -0.5143
 2453TIP3    H2 7317   0.032   1.145   0.537  0.0817 -1.7249  0.4800
 2454TIP3   OH2 7318   4.020   5.559   5.581 -0.1874 -0.0015 -0.1085
 2454TIP3    H1 7319   4.007   5.649   5.609 -0.4059  0.2941 -1.1146
 2454TIP3    H2 7320   4.095   5.562   5.521 -0.3621 -0.4349 -0.3604
 2455TIP3   OH2 7321   3.774   2.958   1.622  0.2875  0.0132 -0.3922
 2455TIP3    H1 7322   3.841   3.019   1.591 -0.5664  1.3033  0.2203
 2455TIP3    H2 7323   3.775   2.967   1.717  0.6945 -1.5425 -0.2299
 2456TIP3   OH2 7324   4.964   0.970   3.678 -0.0054 -0.0440  0.5968
 2456TIP3    H1 7325   5.000   1.031   3.613  0.6631  0.0970  1.0925
 2456TIP3    H2 7326   4.880   0.943   3.641  0.1931  0.3325 -0.1457
 2457TIP3   OH2 7327   5.343   7.483   2.041  0.2954 -0.4034 -0.1726
 2457TIP3    H1 7328   5.379   7.541   2.108 -0.5922  0.0517 -0.0752
 2457TIP3    H2 7329   5.419   7.443   2.001  0.9511  1.0096 -0.4012
 2458TIP3   OH2 7330   3.682   4.148   0.283 -0.4877 -0.2822 -0.0701
 2458TIP3    H1 7331   3.618   4.218   0.294  1.5854  1.6807  0.1721
 2458TIP3    H2 7332   3.706   4.152   0.191  1.2606  0.8940  0.3919
 2459TIP3   OH2 7333   0.919   2.458   3.658  0.6302 -0.5614  0.2057
 2459TIP3    H1 7334   0.931   2.488   3.748 -0.4680  0.6488 -0.0187
 2459TIP3    H2 7335   0.999   2.483   3.613  0.6645 -0.0324  0.5607
 2460TIP3   OH2 7336   0.859   6.461   3.613  0.1817  0.1804  0.2956
 2460TIP3    H1 7337   0.821   6.468   3.525  0.5648  0.5301  0.1557
 2460TIP3    H2 7338   0.950   6.437   3.597 -0.1741 -1.5437  0.6503
 2461TIP3   OH2 7339   7.327   3.849   2.293  0.0997  0.9664  0.3898
 2461TIP3    H1 7340   7.420   3.860   2.271  0.3134  0.0004  0.7534
 2461TIP3    H2 7341   7.327   3.830   2.387 -0.2381 -1.4449 -0.0230
 2462TIP3   OH2 7342   0.266   6.869   6.283  0.1671  0.1735  0.0490
 2462TIP3    H1 7343   0.334   6.802   6.279 -1.0322 -1.0473 -0.5694
 2462TIP3    H2 7344   0.194   6.828   6.330 -0.2512  1.3588  0.4828
 2463TIP3   OH2 7345   6.355   3.727   2.595  0.1075 -0.1521  0.1117
 2463TIP3    H1 7346   6.340   3.680   2.513  0.9370  1.4143 -0.9934
 2463TIP3    H2 7347   6.439   3.693   2.627 -0.7845 -1.6121  0.9547
 2464TIP3   OH2 7348   0.695   0.666   1.282 -0.0801  0.2905 -0.3211
 2464TIP3    H1 7349   0.781   0.636   1.310 -0.0256 -1.0596 -1.8016
 2464TIP3    H2 7350   0.638   0.589   1.292 -1.4743  1.4726  1.8308
 2465TIP3   OH2 7351   1.965   6.166   0.352  0.7699 -0.6228  0.2578
 2465TIP3    H1 7352   1.929   6.101   0.292  0.2524  0.0108 -0.1294
 2465TIP3    H2 7353   1.897   6.233   0.359  0.9113 -0.5785  1.3809
 2466TIP3   OH2 7354   6.514   6.866   5.701 -0.4918 -0.4355  0.5838
 2466TIP3    H1 7355   6.464   6.844   5.623 -1.3530 -0.4238  1.1241
 2466TIP3    H2 7356   6.582   6.798   5.705 -1.9347 -1.9254  1.1645
 2467TIP3   OH2 7357   3.513   7.733   0.305 -0.5101 -0.0201 -0.3669
 2467TIP3    H1 7358   3.578   7.803   0.315 -1.2468  0.5943  0.3127
 2467TIP3    H2 7359   3.440   7.774   0.259 -1.2094 -0.1411  0.5878
 2468TIP3   OH2 7360   5.543   5.614   1.624  0.1383  0.4724  0.0398
 2468TIP3    H1 7361   5.548   5.694   1.675 -0.9694  0.3074  0.4362
 2468TIP3    H2 7362   5.457   5.578   1.644 -0.6438  0.7445 -2.4564
 2469TIP3   OH2 7363   1.354   4.767   1.114  0.5649  0.1636  0.5052
 2469TIP3    H1 7364   1.401   4.850   1.116  1.1265 -0.0664 -1.2643
 2469TIP3    H2 7365   1.350   4.744   1.021 -0.7551 -1.1324  0.8373
 2470TIP3   OH2 7366   2.556   4.670   6.496 -1.0314 -0.5390  0.3509
 2470TIP3    H1 7367   2.563   4.617   6.416  0.9104  3.2577 -2.2816
 2470TIP3    H2 7368   2.467   4.704   6.493 -0.8968 -0.2213 -0.3898
 2471TIP3   OH2 7369   3.085   3.263   5.717  0.3590 -0.6339  0.2012
 2471TIP3    H1 7370   3.166   3.313   5.731  0.7867 -0.7978 -1.4181
 2471TIP3    H2 7371   3.110   3.195   5.653 -0.8800 -1.1636  0.2508
 2472TIP3   OH2 7372   3.741   7.569   3.371  0.1733  0.3754  0.1686
 2472TIP3    H1 7373   3.830   7.603   3.378  0.2766  0.2873 -0.5697
 2472TIP3    H2 7374   3.691   7.617   3.436  0.8299  0.1937  0.8188
 2473TIP3   OH2 7375   2.152   1.763   6.081  0.3153  0.5449  0.2202
 2473TIP3    H1 7376   2.199   1.689   6.119 -0.3801  1.0672  2.2239
 2473TIP3    H2 7377   2.173   1.837   6.139 -1.3750  1.2199  0.0308
 2474TIP3   OH2 7378   4.049   2.661   3.822  0.0545 -0.0250  0.0790
 2474TIP3    H1 7379   3.959   2.693   3.805  0.0788  0.1488  0.2748
 2474TIP3    H2 7380   4.095   2.677   3.739 -0.2190 -0.5577 -0.1812
 2475TIP3   OH2 7381   4.905   6.028   3.402 -0.0818  0.0647  0.2659
 2475TIP3    H1 7382   4.983   5.978   3.424  0.0168 -0.4945 -1.2779
 2475TIP3    H2 7383   4.833   5.979   3.440  0.1063 -0.7482 -0.4038
 2476TIP3   OH2 7384   7.438   7.798   3.877  0.3636  0.6990 -0.0976
 2476TIP3    H1 7385   7.383   7.761   3.808 -1.4323  2.4672  0.2930
 2476TIP3    H2 7386   7.462   7.723   3.932 -0.5788 -0.3020 -1.0113
 2477TIP3   OH2 7387   0.113   3.865   0.822  0.8628 -0.0354  0.2346
 2477TIP3    H1 7388   0.180   3.871   0.754  1.2679 -1.5574  0.4552
 2477TIP3    H2 7389   0.073   3.779   0.808 -0.8594  0.7334  0.2960
 2478TIP3   OH2 7390   4.542   6.092   2.199 -0.8368 -0.4625 -0.2825
 2478TIP3    H1 7391   4.557   6.048   2.115  3.4765  1.3812 -0.7699
 2478TIP3    H2 7392   4.473   6.156   2.181  1.6214  1.6229 -3.3624
 2479TIP3   OH2 7393   7.760   0.456   5.098 -0.9103 -0.1340 -0.3484
 2479TIP3    H1 7394   7.782   0.424   5.010  1.8430  1.0933 -0.2025
 2479TIP3    H2 7395   7.840   0.499   5.129 -1.9923  0.0544  2.5232
 2480TIP3   OH2 7396   0.224   1.240   1.100 -0.6203 -0.3736 -0.0701
 2480TIP3    H1 7397   0.185   1.212   1.017  1.0615  0.4536 -1.2011
 2480TIP3    H2 7398   0.269   1.322   1.079 -1.5062  0.7337  2.0679
 2481TIP3   OH2 7399   3.709   1.773   6.652  0.1890  0.1474  0.4187
 2481TIP3    H1 7400   3.726   1.867   6.659 -0.0831  0.1506  1.0815
 2481TIP3    H2 7401   3.663   1.750   6.733 -0.4140 -0.4170 -0.0696
 2482TIP3   OH2 7402   3.895   6.542   4.808 -0.4393  0.0408  0.0913
 2482TIP3    H1 7403   3.814   6.508   4.846 -0.5554 -0.1658 -0.3262
 2482TIP3    H2 7404   3.960   6.534   4.877 -0.1329 -2.2937 -0.3844
 2483TIP3   OH2 7405   3.301   5.885   0.089 -0.4077 -0.3060  0.0475
 2483TIP3    H1 7406   3.256   5.969   0.076  0.9771  0.4698  0.0067
 2483TIP3    H2 7407   3.252   5.841   0.158 -0.3732  1.1275  1.0088
 2484TIP3   OH2 7408   3.604   5.341   0.103 -0.0535  0.0831  0.6158
 2484TIP3    H1 7409   3.697   5.327   0.120  0.0417 -0.7090 -0.4462
 2484TIP3    H2 7410   3.601   5.406   0.033 -0.4053  2.1487  2.4178
 2485TIP3   OH2 7411   2.998   6.827   6.642  0.5888 -0.3237 -0.1473
 2485TIP3    H1 7412   3.028   6.739   6.665  0.0084 -0.2256  1.0442
 2485TIP3    H2 7413   3.007   6.831   6.547  0.6173 -1.6679 -0.2183
 2486TIP3   OH2 7414   5.454   6.393   2.170  0.2960 -0.7902  0.0621
 2486TIP3    H1 7415   5.530   6.451   2.167 -0.1429 -0.1379  0.8410
 2486TIP3    H2 7416   5.442   6.374   2.263  0.4914 -2.2478 -0.1904
 2487TIP3   OH2 7417   1.066   6.773   1.646 -0.9317 -0.0938 -0.4106
 2487TIP3    H1 7418   1.145   6.724   1.622 -0.9120 -0.2231 -0.0838
 2487TIP3    H2 7419   1.019   6.785   1.563 -0.6138 -0.0942 -0.5918
 2488TIP3   OH2 7420   1.394   5.167   2.808  0.0432 -0.4505  0.2255
 2488TIP3    H1 7421   1.407   5.257   2.779  0.1420 -0.3996  0.4292
 2488TIP3    H2 7422   1.336   5.175   2.884 -0.8299 -0.6368 -0.3984
 2489TIP3   OH2 7423   1.394   0.282   5.006  0.0567 -0.2917  0.1394
 2489TIP3    H1 7424   1.394   0.210   5.070  1.1281 -1.2131 -0.8431
 2489TIP3    H2 7425   1.410   0.238   4.922 -1.4924  0.8666 -0.7966
 2490TIP3   OH2 7426   3.134   2.067   3.016 -0.2406 -0.5297 -0.5849
 2490TIP3    H1 7427   3.043   2.092   2.999  0.2195  1.9249  0.1700
 2490TIP3    H2 7428   3.132   2.027   3.103 -0.8698 -2.5466 -1.4672
 2491TIP3   OH2 7429   3.666   6.848   2.728 -0.2101 -0.1394  0.2977
 2491TIP3    H1 7430   3.619   6.892   2.799  0.0045  0.9129 -0.2091
 2491TIP3    H2 7431   3.758   6.854   2.753 -0.0522  1.0678 -0.5150
 2492TIP3   OH2 7432   6.318   5.502   1.108  0.1253  0.2365  0.0403
 2492TIP3    H1 7433   6.386   5.447   1.147 -0.3944 -0.4994 -0.0568
 2492TIP3    H2 7434   6.361   5.586   1.092  0.7709  0.0601  0.7673
 2493TIP3   OH2 7435   0.094   6.484   5.822 -0.0188  0.2316  0.3975
 2493TIP3    H1 7436   0.189   6.489   5.829 -0.0619 -0.6009  1.9970
 2493TIP3    H2 7437   0.076   6.494   5.728  1.7332 -0.9549 -0.1089
 2494TIP3   OH2 7438   1.295   3.516   4.942 -0.0965  0.6077  0.4573
 2494TIP3    H1 7439   1.300   3.489   5.034 -0.3562  0.1056  0.3273
 2494TIP3    H2 7440   1.304   3.611   4.945 -1.8211  0.7791  1.1499
 2495TIP3   OH2 7441   1.933   1.994   0.446 -0.3676 -0.2901 -0.2424
 2495TIP3    H1 7442   1.996   1.926   0.423 -1.3900 -0.9222 -1.3026
 2495TIP3    H2 7443   1.971   2.075   0.414  0.4526 -0.4818  0.2279
 2496TIP3   OH2 7444   7.365   5.419   0.695 -0.2192  0.1158 -0.0517
 2496TIP3    H1 7445   7.339   5.492   0.639  1.5993  1.9609  1.3594
 2496TIP3    H2 7446   7.283   5.383   0.728 -1.3341 -0.7799 -3.4416
 2497TIP3   OH2 7447   5.774   0.668   5.420 -0.1347 -0.1450 -0.0606
 2497TIP3    H1 7448   5.711   0.618   5.368 -1.5050  0.7091  0.7012
 2497TIP3    H2 7449   5.759   0.759   5.395  1.0568  0.0569 -0.1068
 2498TIP3   OH2 7450   0.569   1.407   1.299 -0.2859 -0.5169 -0.1543
 2498TIP3    H1 7451   0.479   1.437   1.292  0.2720  1.3275  0.2202
 2498TIP3    H2 7452   0.562   1.317   1.332 -1.9642 -0.4313 -0.2240
 2499TIP3   OH2 7453   6.923   5.565   6.096 -0.0061  0.1680  0.0545
 2499TIP3    H1 7454   7.009   5.532   6.070  0.0459  0.7271 -0.5330
 2499TIP3    H2 7455   6.941   5.653   6.130 -0.2371 -0.0729  0.8344
 2500TIP3   OH2 7456   3.600   1.250   1.538 -0.5159 -0.0275  0.2468
 2500TIP3    H1 7457   3.593   1.314   1.608  0.1329  0.1873  0.1189
 2500TIP3    H2 7458   3.669   1.190   1.567 -0.4990 -0.1512 -0.0446
 2501TIP3   OH2 7459   6.337   2.124   1.422 -0.2137 -0.1457  0.0976
 2501TIP3    H1 7460   6.330   2.035   1.458 -2.9027 -1.3899 -3.0553
 2501TIP3    H2 7461   6.412   2.120   1.364 -0.4471 -0.4179 -0.1868
 2502TIP3   OH2 7462   4.476   5.037   2.780 -0.0189 -0.1763 -0.3401
 2502TIP3    H1 7463   4.498   4.953   2.740 -0.0494 -0.1648 -0.3817
 2502TIP3    H2 7464   4.388   5.057   2.747 -0.2265 -0.3793  0.0713
 2503TIP3   OH2 7465   0.953   6.930   2.959 -0.3078 -0.0934 -0.7649
 2503TIP3    H1 7466   0.923   7.021   2.960 -0.1267 -0.0343 -0.6691
 2503TIP3    H2 7467   1.043   6.934   2.991  0.0123 -0.2002 -1.6244
 2504TIP3   OH2 7468   0.173   7.073   1.661  0.2008 -0.5755 -0.6693
 2504TIP3    H1 7469   0.152   6.983   1.687  1.2402 -0.2157  1.6728
 2504TIP3    H2 7470   0.254   7.066   1.611 -0.6488 -1.0763 -2.0253
 2505TIP3   OH2 7471   0.543   7.040   4.679  0.2483 -0.2611 -0.0333
 2505TIP3    H1 7472   0.529   7.116   4.735  0.7416 -0.7605  0.7855
 2505TIP3    H2 7473   0.509   6.966   4.729 -4.4048 -0.2017 -2.5414
 2506TIP3   OH2 7474   5.294   7.630   0.777 -0.1098 -0.1683  0.3016
 2506TIP3    H1 7475   5.201   7.609   0.771 -0.1799  0.1752  0.1020
 2506TIP3    H2 7476   5.305   7.703   0.715  0.2721 -0.1464  0.3952
 2507TIP3   OH2 7477   2.544   0.883   0.046 -0.0274 -0.2397 -0.0026
 2507TIP3    H1 7478   2.546   0.890   0.141  0.7391  1.3000 -0.0909
 2507TIP3    H2 7479   2.611   0.818   0.025 -0.9508 -1.3953  0.5396
 2508TIP3   OH2 7480   7.546   2.963   0.601 -0.4869 -0.2648  0.0928
 2508TIP3    H1 7481   7.457   2.949   0.632 -0.6745  0.4005 -0.1394
 2508TIP3    H2 7482   7.555   3.058   0.592  0.0641 -0.3529 -0.4066
 2509TIP3   OH2 7483   7.171   7.144   4.666 -0.0579  0.1009 -0.2709
 2509TIP3    H1 7484   7.100   7.112   4.722  0.4740 -0.7517 -0.0658
 2509TIP3    H2 7485   7.180   7.077   4.598  1.3001 -0.3773  0.3568
 2510TIP3   OH2 7486   2.172   6.199   2.298  0.3064 -0.0527  0.1012
 2510TIP3    H1 7487   2.226   6.131   2.259  0.2471 -0.0246 -0.0294
 2510TIP3    H2 7488   2.209   6.281   2.266  1.3021  0.0445  1.4256
 2511TIP3   OH2 7489   6.814   2.245   4.933 -0.1860 -0.1268 -0.9781
 2511TIP3    H1 7490   6.859   2.306   4.992  1.9264  0.3119 -2.9053
 2511TIP3    H2 7491   6.731   2.288   4.912 -0.2984  0.4012  0.4296
 2512TIP3   OH2 7492   2.459   2.046   2.851  0.2933  0.0025  0.2249
 2512TIP3    H1 7493   2.493   2.044   2.761 -2.1389 -1.6068 -0.7381
 2512TIP3    H2 7494   2.419   2.133   2.859  0.1710  0.0080 -0.3817
 2513TIP3   OH2 7495   2.724   7.016   5.264  0.0596  0.3465 -0.3666
 2513TIP3    H1 7496   2.751   7.001   5.355  0.5652 -1.3661 -0.7704
 2513TIP3    H2 7497   2.787   6.966   5.212 -0.7012  0.6754 -1.6269
 2514TIP3   OH2 7498   4.943   5.188   2.717  0.2839 -0.1613  0.3009
 2514TIP3    H1 7499   5.017   5.133   2.741  0.8594  0.8927  1.0350
 2514TIP3    H2 7500   4.880   5.179   2.789  0.4199  0.1973  0.4683
 2515TIP3   OH2 7501   4.515   1.630   6.326 -0.8329  0.2786  0.2634
 2515TIP3    H1 7502   4.479   1.698   6.269 -2.4763 -0.0405  0.8622
 2515TIP3    H2 7503   4.447   1.617   6.392 -0.1730 -1.3516  0.6481
 2516TIP3   OH2 7504   2.325   6.681   0.715  0.0975 -0.4037  0.1336
 2516TIP3    H1 7505   2.332   6.732   0.796 -0.5077  0.6237 -0.4347
 2516TIP3    H2 7506   2.250   6.623   0.730  0.1865 -0.4397  0.4341
 2517TIP3   OH2 7507   4.848   4.824   4.985  0.1822  0.3721 -0.5787
 2517TIP3    H1 7508   4.788   4.764   4.942 -0.0295  0.9127 -1.0487
 2517TIP3    H2 7509   4.794   4.900   5.008  0.9542  1.5129 -2.3300
 2518TIP3   OH2 7510   1.433   7.775   3.396  0.0575 -0.0859 -0.3525
 2518TIP3    H1 7511   1.393   7.850   3.438 -1.2061 -0.0316 -1.5972
 2518TIP3    H2 7512   1.473   7.810   3.316  0.0471 -0.6127 -0.5977
 2519TIP3   OH2 7513   3.863   6.239   3.132 -0.0211  0.3839 -0.1001
 2519TIP3    H1 7514   3.928   6.208   3.068 -0.4857  0.6194 -0.7020
 2519TIP3    H2 7515   3.799   6.168   3.137 -0.4780  0.7471 -0.6111
 2520TIP3   OH2 7516   7.684   1.623   6.620 -0.2877  0.3026  0.1104
 2520TIP3    H1 7517   7.723   1.681   6.555 -0.4377  0.7839  0.4478
 2520TIP3    H2 7518   7.735   1.637   6.700  0.9967 -1.5159 -0.3068
 2521TIP3   OH2 7519   1.024   0.096   5.575  0.6585 -0.3825  0.6918
 2521TIP3    H1 7520   0.961   0.039   5.619  0.7115 -0.2727  0.9140
 2521TIP3    H2 7521   0.993   0.103   5.485  0.1699 -0.0608  0.8848
 2522TIP3   OH2 7522   5.250   3.866   0.057 -0.1159  0.3735  0.4365
 2522TIP3    H1 7523   5.225   3.811  -0.018 -3.5600 -0.8122  2.2116
 2522TIP3    H2 7524   5.246   3.955   0.023  0.3311 -0.1966 -1.2348
 2523TIP3   OH2 7525   3.759   4.223   1.887 -0.3828 -0.3200  0.0955
 2523TIP3    H1 7526   3.802   4.291   1.938 -3.4881  2.7222 -0.8994
 2523TIP3    H2 7527   3.702   4.179   1.950 -3.3708  2.6836 -0.2077
 2524TIP3   OH2 7528   1.591   2.222   6.763 -0.1827 -0.0932 -0.2116
 2524TIP3    H1 7529   1.661   2.256   6.820 -1.8602 -1.7756  3.1535
 2524TIP3    H2 7530   1.567   2.297   6.709  1.0493  1.9755  1.8776
 2525TIP3   OH2 7531   7.676   0.626   5.380  0.9698  0.1004  0.5740
 2525TIP3    H1 7532   7.765   0.598   5.400  0.7363 -1.9408 -0.9005
 2525TIP3    H2 7533   7.626   0.545   5.370 -0.7563  1.1515  0.0568
 2526TIP3   OH2 7534   1.190   3.750   5.883  0.1498 -0.2936  0.4874
 2526TIP3    H1 7535   1.253   3.794   5.940  0.1290 -0.0513  0.3210
 2526TIP3    H2 7536   1.148   3.820   5.834  0.5592 -0.5458 -0.2334
 2527TIP3   OH2 7537   0.617   3.680   4.256  0.2211 -0.0280 -0.4506
 2527TIP3    H1 7538   0.580   3.629   4.328 -0.8267  0.4349 -0.6395
 2527TIP3    H2 7539   0.707   3.649   4.248 -0.3249 -1.7531 -0.4546
 2528TIP3   OH2 7540   4.689   4.424   4.828  0.1081 -0.0567  0.2336
 2528TIP3    H1 7541   4.692   4.519   4.843  1.1818 -0.4411  3.1351
 2528TIP3    H2 7542   4.608   4.395   4.870 -0.7300 -0.3760 -1.5015
 2529TIP3   OH2 7543   2.598   4.918   2.478  0.7040  0.2429 -0.1930
 2529TIP3    H1 7544   2.564   4.984   2.538  1.8989  0.3743  0.3665
 2529TIP3    H2 7545   2.641   4.968   2.409  1.9489  0.0573  0.4350
 2530TIP3   OH2 7546   7.435   3.917   4.122 -0.2084  0.5413 -0.2661
 2530TIP3    H1 7547   7.513   3.867   4.146 -0.3415  0.8700  0.9074
 2530TIP3    H2 7548   7.374   3.851   4.088  0.0106  0.0585  0.2573
 2531TIP3   OH2 7549   3.154   2.401   3.753 -0.8240 -0.1265  0.6527
 2531TIP3    H1 7550   3.144   2.442   3.839  1.5767  1.4021  0.3085
 2531TIP3    H2 7551   3.117   2.464   3.692 -3.2062 -1.5313  0.5148
 2532TIP3   OH2 7552   1.434   6.738   4.097 -0.9804 -0.0115 -0.5328
 2532TIP3    H1 7553   1.403   6.755   4.186 -2.0104  1.1657 -1.0837
 2532TIP3    H2 7554   1.373   6.672   4.063 -1.4944  0.6162 -0.8458
 2533TIP3   OH2 7555   3.986   1.085   1.197 -0.4431 -0.8824  0.1312
 2533TIP3    H1 7556   4.052   1.023   1.164  0.0707 -0.6980  0.7850
 2533TIP3    H2 7557   4.035   1.166   1.212 -1.0265 -0.4393 -0.3225
 2534TIP3   OH2 7558   6.799   0.290   0.889 -0.0494 -0.4803 -0.6327
 2534TIP3    H1 7559   6.867   0.236   0.847 -0.9852 -0.9858 -1.5597
 2534TIP3    H2 7560   6.829   0.380   0.877  2.5897 -0.7297  2.7353
 2535TIP3   OH2 7561   6.081   1.760   3.187  0.3034 -0.8276 -0.4502
 2535TIP3    H1 7562   6.120   1.680   3.222 -3.1262 -1.8228  1.5819
 2535TIP3    H2 7563   6.118   1.830   3.240 -0.3778 -1.7045  1.2696
 2536TIP3   OH2 7564   2.076   5.693   3.506 -0.2923  0.4405  0.4156
 2536TIP3    H1 7565   2.135   5.749   3.557 -2.4071  1.7493  1.6094
 2536TIP3    H2 7566   2.065   5.615   3.560 -0.4184  0.6495  0.7013
 2537TIP3   OH2 7567   4.925   2.071   5.465  0.1600 -0.3382 -0.2263
 2537TIP3    H1 7568   4.922   2.164   5.486  1.3471 -0.4360  0.4384
 2537TIP3    H2 7569   4.993   2.063   5.398  0.9462 -0.8797  0.6161
 2538TIP3   OH2 7570   4.142   6.974   3.068 -0.0477 -0.1248  0.4737
 2538TIP3    H1 7571   4.053   6.938   3.075 -0.0948 -0.1475 -0.2115
 2538TIP3    H2 7572   4.153   7.025   3.148 -0.4062 -0.7162  0.9143
 2539TIP3   OH2 7573   0.984   2.377   1.445  0.1094  1.0261 -0.2744
 2539TIP3    H1 7574   1.052   2.405   1.506 -1.6950  1.2689  1.7436
 2539TIP3    H2 7575   0.954   2.458   1.403  0.8896  0.9417 -1.0234
 2540TIP3   OH2 7576   2.132   0.644   4.887 -0.2743  0.9052 -0.4054
 2540TIP3    H1 7577   2.134   0.737   4.864 -1.2363  0.7336 -1.2986
 2540TIP3    H2 7578   2.126   0.643   4.982 -0.8005  1.7810 -0.4170
 2541TIP3   OH2 7579   7.397   4.836   4.946  0.5387  0.2497  0.6072
 2541TIP3    H1 7580   7.443   4.820   5.028  0.3744  0.6099  0.7705
 2541TIP3    H2 7581   7.467   4.853   4.882  0.6933 -0.6564  0.5293
 2542TIP3   OH2 7582   8.013   2.780   5.813 -0.3973 -0.4045 -1.2422
 2542TIP3    H1 7583   8.037   2.838   5.741  0.3744 -0.5519 -1.1166
 2542TIP3    H2 7584   8.078   2.710   5.810  1.4801  1.0578  1.3638
 2543TIP3   OH2 7585   4.454   2.660   1.416  0.2951  0.5516  0.1043
 2543TIP3    H1 7586   4.441   2.592   1.351 -0.1247  0.6494  0.0823
 2543TIP3    H2 7587   4.469   2.612   1.498  0.3781  0.4321  0.0198
 2544TIP3   OH2 7588   1.904   0.663   2.844  0.8781  0.1874 -0.0888
 2544TIP3    H1 7589   1.808   0.661   2.837  0.5907  0.6482  2.6152
 2544TIP3    H2 7590   1.930   0.736   2.789 -0.4870  0.9937  0.2803
 2545TIP3   OH2 7591   6.923   7.228   0.209  0.1269  0.0157 -0.0910
 2545TIP3    H1 7592   6.934   7.212   0.303 -0.1947  0.5858  0.0454
 2545TIP3    H2 7593   6.900   7.142   0.173 -0.9877  0.0343  0.5377
 2546TIP3   OH2 7594   2.031   5.219   2.696  0.1496  0.0461 -0.2186
 2546TIP3    H1 7595   1.980   5.206   2.776 -1.1077  1.1119 -0.8094
 2546TIP3    H2 7596   2.119   5.239   2.727 -0.5888  1.7130  0.9876
 2547TIP3   OH2 7597   1.760   6.200   5.215 -0.1837  0.2211  0.7323
 2547TIP3    H1 7598   1.833   6.200   5.154 -1.2835 -0.1573 -0.6224
 2547TIP3    H2 7599   1.744   6.293   5.234 -0.6141  0.4197 -0.5391
 2548TIP3   OH2 7600   3.250   0.431   1.004 -0.5136 -0.0653 -0.1633
 2548TIP3    H1 7601   3.233   0.435   1.098 -1.4155 -1.2534 -0.2628
 2548TIP3    H2 7602   3.340   0.401   0.997 -0.4129  0.1142  0.3163
 2549TIP3   OH2 7603   4.197   0.917   1.406 -0.1189  0.2706  0.1169
 2549TIP3    H1 7604   4.288   0.893   1.427  0.0528  1.2841  0.5777
 2549TIP3    H2 7605   4.171   0.855   1.338  1.5287  1.0583 -1.3210
 2550TIP3   OH2 7606   4.077   0.988   1.650 -0.4041 -0.5820 -0.0102
 2550TIP3    H1 7607   4.169   0.970   1.670 -0.5149 -0.9908  0.1594
 2550TIP3    H2 7608   4.062   0.946   1.566  0.2834  1.8632 -1.4471
 2551TIP3   OH2 7609   3.837   2.371   0.412 -0.0670 -0.3685 -0.1860
 2551TIP3    H1 7610   3.831   2.425   0.491 -0.4478  0.4123 -0.7318
 2551TIP3    H2 7611   3.772   2.408   0.352 -0.8564 -1.8864 -0.3244
 2552TIP3   OH2 7612   3.339   6.933   0.764 -0.5300  0.3191  0.5470
 2552TIP3    H1 7613   3.348   7.025   0.739 -0.4509  0.2391  0.2714
 2552TIP3    H2 7614   3.336   6.886   0.680  0.5943 -0.0378  0.6869
 2553TIP3   OH2 7615   5.931   2.920   0.694 -0.1777  0.3481  0.7223
 2553TIP3    H1 7616   5.995   2.986   0.723 -0.6641  0.2663  2.0206
 2553TIP3    H2 7617   5.850   2.970   0.681 -0.1788  0.2383  0.2820
 2554TIP3   OH2 7618   4.224   5.930   1.815 -0.4339  0.1581 -0.1515
 2554TIP3    H1 7619   4.248   6.021   1.832 -0.0340 -0.0965  0.6886
 2554TIP3    H2 7620   4.254   5.882   1.892 -2.4164 -0.3932  0.3429
 2555TIP3   OH2 7621   0.505   6.479   6.110  0.3403 -0.1949  0.1519
 2555TIP3    H1 7622   0.588   6.472   6.158 -1.0772 -2.6179  2.5089
 2555TIP3    H2 7623   0.497   6.395   6.065 -0.1814  0.5999 -1.3002
 2556TIP3   OH2 7624   4.726   4.604   2.784 -0.3870 -0.2235 -0.7328
 2556TIP3    H1 7625   4.716   4.688   2.829 -1.2590  0.0745 -1.4383
 2556TIP3    H2 7626   4.760   4.628   2.698 -2.0289 -0.4186 -1.4824
 2557TIP3   OH2 7627   5.275   1.707   4.457  0.2154 -0.2188  0.3661
 2557TIP3    H1 7628   5.340   1.754   4.510  0.2470  1.3062 -0.9513
 2557TIP3    H2 7629   5.194   1.712   4.509  0.1963  1.4045  0.2324
 2558TIP3   OH2 7630   8.181   7.742   3.813 -0.3972 -0.3244  0.1322
 2558TIP3    H1 7631   8.088   7.763   3.812 -0.2366  0.3876  0.0275
 2558TIP3    H2 7632   8.186   7.658   3.859 -1.0263 -0.0930  0.6342
 2559TIP3   OH2 7633   0.534   2.155   1.888  0.1710 -0.1631  0.4832
 2559TIP3    H1 7634   0.496   2.204   1.961 -0.2536  2.5360 -1.4392
 2559TIP3    H2 7635   0.628   2.170   1.896  0.1006  0.3843  0.3254
 2560TIP3   OH2 7636   7.132   4.453   3.691  0.2560 -0.0755  0.1569
 2560TIP3    H1 7637   7.121   4.495   3.606  1.6718 -1.2068 -0.6310
 2560TIP3    H2 7638   7.224   4.468   3.714 -0.4824  1.6218  2.3105
 2561TIP3   OH2 7639   5.734   7.222   3.240  0.0735  0.5968 -0.2829
 2561TIP3    H1 7640   5.736   7.264   3.154 -0.0073  3.8821  1.1526
 2561TIP3    H2 7641   5.686   7.141   3.227 -1.7056  1.9494 -2.9552
 2562TIP3   OH2 7642   3.322   5.826   0.679  0.3304 -0.2314  0.2771
 2562TIP3    H1 7643   3.364   5.894   0.626 -0.6316 -0.3967 -0.7285
 2562TIP3    H2 7644   3.235   5.860   0.698  1.2057  0.6266  3.3437
 2563TIP3   OH2 7645   2.917   5.191   6.429  0.5429  0.8962  0.3106
 2563TIP3    H1 7646   2.967   5.111   6.413 -0.4821  0.1260  0.8421
 2563TIP3    H2 7647   2.826   5.163   6.426  0.1598  2.1185  0.1659
 2564TIP3   OH2 7648   0.632   2.820   0.537  0.3264  0.4471  0.1768
 2564TIP3    H1 7649   0.567   2.764   0.494 -1.4960  3.3232 -1.0965
 2564TIP3    H2 7650   0.632   2.791   0.628 -0.9566 -1.1676 -0.2864
 2565TIP3   OH2 7651   6.044   5.528   3.569  0.0630 -0.0060 -0.6258
 2565TIP3    H1 7652   6.126   5.553   3.611  0.3585  0.1071 -1.2526
 2565TIP3    H2 7653   6.046   5.432   3.568  0.2886 -0.0021 -0.8159
 2566TIP3   OH2 7654   7.020   6.758   2.618  0.2509 -0.1153  0.8336
 2566TIP3    H1 7655   7.012   6.741   2.712 -0.7757 -0.8126  0.6475
 2566TIP3    H2 7656   7.007   6.852   2.609 -1.2367 -0.2412  1.2738
 2567TIP3   OH2 7657   2.706   6.217   2.537  0.5047  0.5210 -0.3610
 2567TIP3    H1 7658   2.730   6.124   2.530 -0.7524 -0.0638  2.0062
 2567TIP3    H2 7659   2.622   6.223   2.492 -0.9965 -0.2910  2.1063
 2568TIP3   OH2 7660   4.457   3.791   3.103  0.2878 -0.7323 -0.2306
 2568TIP3    H1 7661   4.381   3.799   3.046 -0.0841 -2.4122 -0.0193
 2568TIP3    H2 7662   4.514   3.728   3.059  0.7977 -0.7235  0.4021
 2569TIP3   OH2 7663   7.701   0.693   0.175 -0.2796 -0.1392 -0.0627
 2569TIP3    H1 7664   7.621   0.680   0.226 -1.0542  0.1877 -1.1697
 2569TIP3    H2 7665   7.676   0.672   0.085  0.2592  2.1579 -0.7995
 2570TIP3   OH2 7666   3.293   5.792   5.966  0.1586  0.4753 -0.1890
 2570TIP3    H1 7667   3.290   5.868   5.907  0.5916 -0.3635 -1.3246
 2570TIP3    H2 7668   3.288   5.717   5.908  1.2384 -0.3948  0.7916
 2571TIP3   OH2 7669   0.556   1.362   1.028  0.0896 -0.1152 -0.2967
 2571TIP3    H1 7670   0.577   1.408   1.109  0.4627  2.4243 -1.7216
 2571TIP3    H2 7671   0.597   1.276   1.038  2.7805  1.1872  1.0093
 2572TIP3   OH2 7672   4.390   6.880   3.187 -0.0221 -0.0331  0.3156
 2572TIP3    H1 7673   4.298   6.862   3.167 -0.1975  2.0933 -1.1134
 2572TIP3    H2 7674   4.399   6.858   3.280 -1.2934 -2.5961 -0.0801
 2573TIP3   OH2 7675   3.330   0.731   4.941  0.0380  0.2229 -0.6943
 2573TIP3    H1 7676   3.365   0.695   4.859 -0.9483 -0.8194 -0.7027
 2573TIP3    H2 7677   3.236   0.713   4.935 -0.1432  0.7905  0.3496
 2574TIP3   OH2 7678   1.953   7.476   4.125 -0.3658 -0.1421 -0.3378
 2574TIP3    H1 7679   1.932   7.523   4.044 -1.8106 -0.0925  0.0306
 2574TIP3    H2 7680   1.922   7.386   4.109 -0.9951 -0.0448  0.2631
 2575TIP3   OH2 7681   0.159   5.591   5.401  0.4790  0.6402 -0.3638
 2575TIP3    H1 7682   0.234   5.576   5.458 -1.3666  1.3456  2.4440
 2575TIP3    H2 7683   0.096   5.522   5.424 -1.3391  2.4536  0.4329
 2576TIP3   OH2 7684   6.650   5.011   1.677 -0.3895  0.3953 -0.5018
 2576TIP3    H1 7685   6.682   5.047   1.759  0.1280 -1.5648  0.2204
 2576TIP3    H2 7686   6.690   5.066   1.609  3.1630 -0.7883  0.4049
 2577TIP3   OH2 7687   3.224   4.628   3.315 -0.4782  0.4959 -0.0252
 2577TIP3    H1 7688   3.160   4.699   3.321 -0.4113  0.4695  1.2423
 2577TIP3    H2 7689   3.230   4.594   3.404 -0.2101 -0.8516 -0.5433
 2578TIP3   OH2 7690   4.440   0.608   5.115 -0.1693 -0.5339 -0.4980
 2578TIP3    H1 7691   4.418   0.650   5.198 -0.2806 -0.4743 -0.5573
 2578TIP3    H2 7692   4.467   0.519   5.140 -0.1546 -0.5003 -0.3933
 2579TIP3   OH2 7693   7.643   7.846   3.684 -0.2977 -0.6803  0.5561
 2579TIP3    H1 7694   7.578   7.818   3.749 -0.3454 -1.3971  0.2075
 2579TIP3    H2 7695   7.698   7.769   3.671  0.7704 -0.0224  1.0044
 2580TIP3   OH2 7696   6.308   2.453   2.943  0.4011 -0.2574 -0.6258
 2580TIP3    H1 7697   6.283   2.497   2.862  1.6591 -0.8207 -1.3405
 2580TIP3    H2 7698   6.382   2.504   2.977 -0.6915  0.5251  0.6862
 2581TIP3   OH2 7699   4.977   1.915   5.679 -0.4173  0.1846  0.3357
 2581TIP3    H1 7700   4.954   1.981   5.613 -0.7519  0.4552  0.7180
 2581TIP3    H2 7701   5.024   1.848   5.630  0.7857  1.1648  0.0799
 2582TIP3   OH2 7702   0.139   5.457   1.235  0.1545  0.1523  0.0048
 2582TIP3    H1 7703   0.060   5.472   1.286  0.1242 -0.4490  0.1518
 2582TIP3    H2 7704   0.115   5.390   1.172  0.3056  0.6059 -0.5364
 2583TIP3   OH2 7705   2.717   4.986   3.826  0.1446 -0.1697  0.1336
 2583TIP3    H1 7706   2.799   4.967   3.871 -0.4151  0.9667  1.7670
 2583TIP3    H2 7707   2.741   4.998   3.735  1.8414  0.4351  0.6247
 2584TIP3   OH2 7708   1.212   0.709   2.551 -0.1060  0.1559  0.4457
 2584TIP3    H1 7709   1.119   0.694   2.567 -0.1637  0.8523  0.8173
 2584TIP3    H2 7710   1.239   0.637   2.494 -0.8732 -0.0422  0.3252
 2585TIP3   OH2 7711   6.697   0.363   2.142  0.0682 -0.1350  0.3795
 2585TIP3    H1 7712   6.755   0.437   2.133  0.9618 -0.6056  1.8502
 2585TIP3    H2 7713   6.614   0.400   2.173  0.8289  0.1764  2.1182
 2586TIP3   OH2 7714   2.005   4.458   1.985  0.3349 -0.1969  0.3714
 2586TIP3    H1 7715   2.038   4.475   2.074  0.3334 -1.1721  0.5630
 2586TIP3    H2 7716   1.962   4.373   1.991  0.2418 -0.2199 -0.5417
 2587TIP3   OH2 7717   2.033   6.752   5.247 -0.0224 -0.9495 -0.2761
 2587TIP3    H1 7718   2.057   6.722   5.334 -0.3512 -0.6077 -0.0633
 2587TIP3    H2 7719   2.111   6.797   5.214  0.2336 -1.4261 -0.3191
 2588TIP3   OH2 7720   8.068   2.193   6.001  0.2186 -0.1722  0.0597
 2588TIP3    H1 7721   8.102   2.148   6.079  0.0654 -0.5377 -0.0844
 2588TIP3    H2 7722   8.003   2.133   5.965  1.1324 -0.5393 -1.0363
 2589TIP3   OH2 7723   6.464   3.414   4.248 -0.0815 -0.1208 -0.4034
 2589TIP3    H1 7724   6.557   3.394   4.244  0.2417  0.7720  1.3990
 2589TIP3    H2 7725   6.450   3.480   4.180  0.6265 -0.1856 -0.6169
 2590TIP3   OH2 7726   3.812   2.830   1.342  0.4972  0.5205 -0.1540
 2590TIP3    H1 7727   3.813   2.911   1.291 -2.6663 -0.1843 -1.5391
 2590TIP3    H2 7728   3.723   2.824   1.375  0.2021 -3.0891 -1.2688
 2591TIP3   OH2 7729   6.738   6.121   0.621 -0.0845 -0.2386  0.1135
 2591TIP3    H1 7730   6.710   6.103   0.532  1.6806 -0.0832 -0.5264
 2591TIP3    H2 7731   6.812   6.182   0.611  0.8234 -1.0162  1.6030
 2592TIP3   OH2 7732   6.131   7.459   0.129  0.9740 -0.4294  0.1799
 2592TIP3    H1 7733   6.217   7.435   0.096  1.3765 -0.0144  0.8858
 2592TIP3    H2 7734   6.119   7.405   0.207 -0.6271 -2.5501 -1.4106
 2593TIP3   OH2 7735   1.298   1.804   5.048  0.1153 -0.1478 -0.0787
 2593TIP3    H1 7736   1.210   1.791   5.085  0.0412 -2.7203 -0.9363
 2593TIP3    H2 7737   1.326   1.716   5.024  1.5164  1.0027 -3.0708
 2594TIP3   OH2 7738   6.118   6.086   3.837 -0.0436  0.3783  0.1454
 2594TIP3    H1 7739   6.064   6.008   3.825 -1.0964  1.1352 -0.1949
 2594TIP3    H2 7740   6.121   6.126   3.750  0.7943  0.5367  0.2361
 2595TIP3   OH2 7741   5.461   0.625   1.069  0.3280  0.2208 -0.0721
 2595TIP3    H1 7742   5.547   0.617   1.029  0.5957  1.6747  0.1257
 2595TIP3    H2 7743   5.402   0.574   1.013  0.9749  0.8617 -1.3680
 2596TIP3   OH2 7744   4.123   1.235   0.584 -0.1793 -0.3843  0.7627
 2596TIP3    H1 7745   4.124   1.323   0.546 -0.6658 -1.7033 -2.6025
 2596TIP3    H2 7746   4.209   1.228   0.626  0.5148  1.1766 -0.2503
 2597TIP3   OH2 7747   0.360   1.989   0.923 -0.5400 -0.1182  0.7083
 2597TIP3    H1 7748   0.453   1.968   0.928 -0.4617 -0.2454 -0.8322
 2597TIP3    H2 7749   0.325   1.927   0.859 -1.3408  1.0097  0.0165
 2598TIP3   OH2 7750   7.102   3.904   1.829  0.8055 -0.4730  0.1280
 2598TIP3    H1 7751   7.134   3.893   1.740  0.8979  0.4985  0.0217
 2598TIP3    H2 7752   7.013   3.869   1.828  1.1074 -1.2524 -0.1172
 2599TIP3   OH2 7753   2.319   3.632   4.118 -0.0743 -0.1723  0.5188
 2599TIP3    H1 7754   2.372   3.587   4.184  2.9438 -1.0254 -2.2400
 2599TIP3    H2 7755   2.360   3.718   4.110 -0.1369 -0.2280 -0.4802
 2600TIP3   OH2 7756   8.131   7.289   3.667 -0.1548  0.5119  0.2878
 2600TIP3    H1 7757   8.154   7.339   3.589  2.0363  0.1948  0.6648
 2600TIP3    H2 7758   8.108   7.202   3.634  1.3111  0.2093 -0.0082
 2601TIP3   OH2 7759   0.248   6.199   5.678 -0.4682  0.3863  0.1282
 2601TIP3    H1 7760   0.258   6.255   5.755 -2.1014  1.2438 -0.2439
 2601TIP3    H2 7761   0.338   6.181   5.650  0.1315  0.9353  1.5865
 2602TIP3   OH2 7762   3.511   1.231   6.179  0.6634  0.0165 -0.0682
 2602TIP3    H1 7763   3.504   1.302   6.115 -0.8392  0.9218  1.0225
 2602TIP3    H2 7764   3.600   1.197   6.169  0.9298  1.0894 -1.6114
 2603TIP3   OH2 7765   0.628   7.674   1.521 -0.2747  0.2162 -0.2570
 2603TIP3    H1 7766   0.643   7.758   1.478  0.1492  0.5798  0.5802
 2603TIP3    H2 7767   0.714   7.632   1.523 -0.4569 -0.1810 -0.5334
 2604TIP3   OH2 7768   5.691   0.777   6.374 -0.2434  0.0516 -0.4380
 2604TIP3    H1 7769   5.641   0.722   6.314 -0.8288  0.9677 -0.8085
 2604TIP3    H2 7770   5.699   0.725   6.454 -0.4235 -0.7265 -0.9139
 2605TIP3   OH2 7771   4.303   0.697   3.086 -0.2207  0.2908 -0.2954
 2605TIP3    H1 7772   4.305   0.613   3.132 -0.4376  0.3577 -0.1596
 2605TIP3    H2 7773   4.375   0.747   3.124  1.4926 -0.6952 -2.0721
 2606TIP3   OH2 7774   4.172   4.469   1.225 -0.2037  0.3948  0.0257
 2606TIP3    H1 7775   4.218   4.451   1.142 -1.5915 -0.7672 -0.5366
 2606TIP3    H2 7776   4.181   4.388   1.275 -0.9319  0.4402  0.2392
 2607TIP3   OH2 7777   6.536   3.990   3.330 -0.3073 -0.3799  0.2160
 2607TIP3    H1 7778   6.573   4.064   3.282 -1.1639 -0.9699 -1.4629
 2607TIP3    H2 7779   6.445   3.984   3.299 -0.2045 -2.2308  0.1418
 2608TIP3   OH2 7780   4.580   4.233   6.204  0.0372 -0.2189  0.3668
 2608TIP3    H1 7781   4.534   4.162   6.249 -0.4801 -1.7507 -2.3584
 2608TIP3    H2 7782   4.520   4.307   6.210 -0.5350 -0.7259  1.1562
 2609TIP3   OH2 7783   1.865   6.849   2.998 -0.0855 -0.4780 -0.5340
 2609TIP3    H1 7784   1.903   6.936   2.986 -1.3867  0.1944  0.0296
 2609TIP3    H2 7785   1.937   6.795   3.029  1.0344  0.0846 -2.0581
 2610TIP3   OH2 7786   5.628   5.189   5.729  0.1593 -0.1134  0.1620
 2610TIP3    H1 7787   5.543   5.159   5.760  0.8510  0.1602  2.5457
 2610TIP3    H2 7788   5.614   5.281   5.705  0.0666  0.4145  2.0752
 2611TIP3   OH2 7789   4.422   1.473   5.177  0.2660  0.0983  0.3848
 2611TIP3    H1 7790   4.461   1.401   5.227 -2.3068 -0.9505  1.0785
 2611TIP3    H2 7791   4.496   1.518   5.137  2.0916 -2.0167  1.1776
 2612TIP3   OH2 7792   1.657   4.955   4.179  0.9833 -0.7014  0.2601
 2612TIP3    H1 7793   1.643   4.951   4.273  1.2828  0.5048  0.3728
 2612TIP3    H2 7794   1.742   4.997   4.169  0.6377 -0.1768 -0.5585
 2613TIP3   OH2 7795   2.443   3.545   4.335  0.1067  0.1202  0.1400
 2613TIP3    H1 7796   2.399   3.600   4.399  0.8131  2.5128 -1.3087
 2613TIP3    H2 7797   2.536   3.552   4.357  0.3246  0.6931 -0.9322
 2614TIP3   OH2 7798   0.626   0.771   4.638  0.3600 -0.2794  0.6083
 2614TIP3    H1 7799   0.611   0.763   4.544 -0.3081 -3.3377  0.8803
 2614TIP3    H2 7800   0.695   0.837   4.645 -0.8078  1.3760 -1.8567
 2615TIP3   OH2 7801   6.658   0.422   2.750 -0.5423  0.3422  0.4334
 2615TIP3    H1 7802   6.743   0.458   2.722 -0.4182 -0.0535  0.2857
 2615TIP3    H2 7803   6.610   0.410   2.668 -0.2208 -0.7174  0.3775
 2616TIP3   OH2 7804   4.888   3.596   6.389  0.4140 -0.4758 -0.4547
 2616TIP3    H1 7805   4.863   3.508   6.362  1.0244 -0.3921 -1.3423
 2616TIP3    H2 7806   4.983   3.600   6.375  0.8551 -0.5089  1.9966
 2617TIP3   OH2 7807   1.790   2.729   2.500  0.1376  0.3306  0.1846
 2617TIP3    H1 7808   1.788   2.705   2.593 -1.1627  1.1740  0.4072
 2617TIP3    H2 7809   1.863   2.791   2.493  1.3206 -1.0040  0.2807
 2618TIP3   OH2 7810   2.077   5.414   2.200 -0.1286  0.1870 -0.7850
 2618TIP3    H1 7811   2.097   5.507   2.188  0.4694  0.3391  1.0203
 2618TIP3    H2 7812   2.150   5.368   2.159 -0.2307  0.5233 -1.3496
 2619TIP3   OH2 7813   3.217   3.211   3.828 -0.1706 -0.3542 -0.1382
 2619TIP3    H1 7814   3.295   3.156   3.823  1.1608  1.4861 -0.5730
 2619TIP3    H2 7815   3.182   3.212   3.739  0.5433  0.4899 -0.4215
 2620TIP3   OH2 7816   4.220   3.883   5.205 -0.2559 -0.5074 -0.2385
 2620TIP3    H1 7817   4.197   3.797   5.238  0.0152  0.1263  1.7028
 2620TIP3    H2 7818   4.195   3.881   5.112 -0.1319 -2.6886 -0.2611
 2621TIP3   OH2 7819   2.186   4.325   3.814 -0.3017 -0.2305 -0.1217
 2621TIP3    H1 7820   2.233   4.247   3.784  2.2340  0.6020  1.3348
 2621TIP3    H2 7821   2.186   4.384   3.738  0.0247 -0.6735 -0.4716
 2622TIP3   OH2 7822   1.849   1.246   0.341 -0.5327  0.5648 -0.0761
 2622TIP3    H1 7823   1.803   1.179   0.292  0.8548 -0.4863 -0.0095
 2622TIP3    H2 7824   1.930   1.204   0.370  0.4441  2.2978 -0.1269
 2623TIP3   OH2 7825   5.312   2.590   6.125  0.3202  0.7355 -0.6053
 2623TIP3    H1 7826   5.256   2.650   6.174  0.2730 -0.4488  0.8487
 2623TIP3    H2 7827   5.255   2.550   6.060 -0.5984 -0.4876  0.8821
 2624TIP3   OH2 7828   5.576   0.177   0.027 -0.5451 -0.2361  0.1133
 2624TIP3    H1 7829   5.563   0.144   0.116  0.6730  1.6421  1.0506
 2624TIP3    H2 7830   5.516   0.251   0.020 -0.2549 -0.0474 -0.4530
 2625TIP3   OH2 7831   7.264   6.581   2.054  0.1648 -0.1136  0.0788
 2625TIP3    H1 7832   7.327   6.623   1.995  0.2575 -0.5224 -0.1150
 2625TIP3    H2 7833   7.276   6.487   2.040 -0.0439 -0.2081  0.5085
 2626TIP3   OH2 7834   2.245   7.281   6.700  0.2062  0.0558  0.1035
 2626TIP3    H1 7835   2.239   7.253   6.609  0.6352 -2.1890  0.6923
 2626TIP3    H2 7836   2.182   7.352   6.708 -1.1309 -0.8763 -1.5252
 2627TIP3   OH2 7837   0.973   5.571   6.600  0.2003  0.1891 -0.2256
 2627TIP3    H1 7838   0.944   5.594   6.512  0.9172  0.3716 -0.4189
 2627TIP3    H2 7839   1.009   5.482   6.591  1.2433  0.6146 -0.3427
 2628TIP3   OH2 7840   4.895   4.586   4.308  0.0566  0.3745 -0.2825
 2628TIP3    H1 7841   4.831   4.565   4.240  0.9318 -0.2411 -0.9481
 2628TIP3    H2 7842   4.938   4.666   4.278 -1.1750  1.4600  0.7440
 2629TIP3   OH2 7843   3.684   5.847   2.418  0.3359 -0.1450 -0.9745
 2629TIP3    H1 7844   3.701   5.794   2.495  0.5460  0.8789 -0.2914
 2629TIP3    H2 7845   3.674   5.936   2.452 -0.7915  0.1445 -1.9863
 2630TIP3   OH2 7846   5.119   7.816   3.264  0.2461  0.2635  0.6166
 2630TIP3    H1 7847   5.117   7.810   3.359 -0.5554 -0.9568  0.5499
 2630TIP3    H2 7848   5.028   7.799   3.237 -0.0068  2.6936 -0.2808
 2631TIP3   OH2 7849   3.755   7.102   2.340  0.2011 -0.0832  0.1147
 2631TIP3    H1 7850   3.714   7.161   2.277  0.1036 -1.9621 -1.6928
 2631TIP3    H2 7851   3.686   7.041   2.364  1.0536 -1.3064 -0.4402
 2632TIP3   OH2 7852   0.313   1.888   5.316  0.3710 -0.2102 -0.2033
 2632TIP3    H1 7853   0.312   1.896   5.411  2.5570 -1.0363 -0.0624
 2632TIP3    H2 7854   0.376   1.954   5.286 -1.0471  0.7535 -1.2046
 2633TIP3   OH2 7855   0.265   2.945   0.779  0.4417 -0.4744  0.4158
 2633TIP3    H1 7856   0.182   2.984   0.754  0.0484 -1.5191  0.0243
 2633TIP3    H2 7857   0.294   2.898   0.700  0.6887 -1.2851  0.9724
 2634TIP3   OH2 7858   2.462   3.384   5.619  0.1274  0.0760  0.3708
 2634TIP3    H1 7859   2.406   3.416   5.689  0.5946  0.8697  0.3899
 2634TIP3    H2 7860   2.515   3.315   5.660 -1.5113 -1.4120  0.1014
 2635TIP3   OH2 7861   1.289   4.042   5.590 -0.0272  0.2573 -0.3306
 2635TIP3    H1 7862   1.326   4.047   5.678 -1.6039 -0.6903  0.4093
 2635TIP3    H2 7863   1.204   4.001   5.601 -1.8643  3.2620 -1.8036
 2636TIP3   OH2 7864   2.995   2.071   3.729 -0.3429 -0.0469  0.2237
 2636TIP3    H1 7865   2.975   2.115   3.647  2.4884  0.9983 -0.0310
 2636TIP3    H2 7866   3.057   2.129   3.773 -0.2509 -1.5173  2.1814
 2637TIP3   OH2 7867   3.804   3.795   1.129 -0.4153 -0.0498 -0.5073
 2637TIP3    H1 7868   3.872   3.860   1.146 -1.0735  0.4005  0.5385
 2637TIP3    H2 7869   3.779   3.764   1.216 -0.7955 -0.9916 -0.9434
 2638TIP3   OH2 7870   1.756   6.897   0.628  0.1717 -0.5632 -0.1932
 2638TIP3    H1 7871   1.733   6.811   0.593 -1.1315 -0.0376 -0.6711
 2638TIP3    H2 7872   1.840   6.882   0.672  1.1163 -1.5996 -2.1621
 2639TIP3   OH2 7873   6.623   7.350   5.538 -0.3634 -0.5996  0.1537
 2639TIP3    H1 7874   6.531   7.371   5.523  0.0849  0.3663 -1.5017
 2639TIP3    H2 7875   6.669   7.434   5.528  0.6162 -0.8441  2.0759
 2640TIP3   OH2 7876   5.311   6.605   1.200  0.0131  0.0136  0.1966
 2640TIP3    H1 7877   5.315   6.699   1.182  0.3011  0.0673  0.5120
 2640TIP3    H2 7878   5.218   6.585   1.202 -0.0415  0.1631 -0.5112
 2641TIP3   OH2 7879   3.316   3.674   5.053  0.2246  0.2241 -0.1580
 2641TIP3    H1 7880   3.325   3.579   5.044 -1.5852  0.0074 -0.0199
 2641TIP3    H2 7881   3.285   3.687   5.142  1.0005  1.0134  0.0085
 2642TIP3   OH2 7882   7.630   2.690   1.670  0.2275  0.0510 -0.1372
 2642TIP3    H1 7883   7.693   2.759   1.648 -1.4254  1.5108 -0.5237
 2642TIP3    H2 7884   7.605   2.652   1.586 -2.1251  2.0438 -0.4674
 2643TIP3   OH2 7885   5.309   6.468   3.189  0.2202 -0.1245  0.0459
 2643TIP3    H1 7886   5.380   6.515   3.234  1.2948  1.3714 -2.9201
 2643TIP3    H2 7887   5.330   6.375   3.201  0.4132  0.1640  2.5082
 2644TIP3   OH2 7888   7.848   7.528   6.093 -0.0060  0.2878 -0.0600
 2644TIP3    H1 7889   7.766   7.488   6.064  0.4363 -0.4877 -0.2684
 2644TIP3    H2 7890   7.820   7.606   6.142 -0.7860  1.4345 -2.2109
 2645TIP3   OH2 7891   7.031   6.521   1.233  0.0028  0.0149 -0.0194
 2645TIP3    H1 7892   6.957   6.527   1.173 -0.3182 -0.1750  0.3509
 2645TIP3    H2 7893   7.006   6.575   1.308  0.9089  1.2396 -0.5549
 2646TIP3   OH2 7894   5.628   6.886   0.999 -0.0410  0.4550 -0.1579
 2646TIP3    H1 7895   5.562   6.829   0.960  1.7293  0.0164 -2.7855
 2646TIP3    H2 7896   5.598   6.975   0.979 -1.1766  0.4058  1.1447
 2647TIP3   OH2 7897   7.378   7.087   5.381  0.2258  0.2642 -0.1192
 2647TIP3    H1 7898   7.364   7.000   5.344  0.0567  0.3407 -0.2384
 2647TIP3    H2 7899   7.449   7.075   5.445 -1.0414 -0.3270  1.2196
 2648TIP3   OH2 7900   7.177   7.305   0.412  0.0484  0.3703 -0.3065
 2648TIP3    H1 7901   7.128   7.386   0.398 -1.2909 -0.4943 -0.8602
 2648TIP3    H2 7902   7.109   7.238   0.424  1.1029 -0.8302 -0.8326
 2649TIP3   OH2 7903   0.793   5.671   5.658  0.1018  0.0971 -0.0480
 2649TIP3    H1 7904   0.868   5.723   5.630  0.1519  0.5100  0.8279
 2649TIP3    H2 7905   0.734   5.671   5.583  1.3534 -0.9876 -1.0891
 2650TIP3   OH2 7906   1.739   5.476   1.075  0.1094 -0.7876 -0.1420
 2650TIP3    H1 7907   1.766   5.496   0.985  0.4753 -0.9652 -0.0725
 2650TIP3    H2 7908   1.707   5.559   1.110 -0.7687 -0.8768 -0.6906
 2651TIP3   OH2 7909   5.207   2.494   1.982 -0.4179 -0.1838  0.3923
 2651TIP3    H1 7910   5.144   2.539   1.926 -1.4146 -0.2132  1.4392
 2651TIP3    H2 7911   5.273   2.561   2.001  0.2640 -0.3474 -1.2588
 2652TIP3   OH2 7912   2.010   1.556   5.105 -0.0903 -0.0726 -0.1681
 2652TIP3    H1 7913   2.052   1.584   5.185 -0.8368  0.7626 -0.0481
 2652TIP3    H2 7914   2.041   1.617   5.038 -0.1555 -0.2174 -0.3343
 2653TIP3   OH2 7915   2.731   4.143   2.501 -0.4300  0.0672  0.3779
 2653TIP3    H1 7916   2.647   4.171   2.537 -0.9517  0.0296 -0.7595
 2653TIP3    H2 7917   2.708   4.085   2.429  0.5463  0.6154 -0.4084
 2654TIP3   OH2 7918   3.579   4.698   5.102 -1.0385  0.0406 -0.2172
 2654TIP3    H1 7919   3.500   4.677   5.052 -1.7506  1.6226  0.1666
 2654TIP3    H2 7920   3.569   4.651   5.184 -0.9646 -0.7554 -0.6527
 2655TIP3   OH2 7921   3.359   4.287   0.766  0.0743  0.3746 -0.5054
 2655TIP3    H1 7922   3.289   4.223   0.771  1.0290 -0.6485  0.3491
 2655TIP3    H2 7923   3.377   4.311   0.857  1.1496  0.2417 -0.6692
 2656TIP3   OH2 7924   4.370   5.422   5.807 -0.1255 -0.2252 -0.4683
 2656TIP3    H1 7925   4.380   5.448   5.715  2.7710 -2.0939 -0.8314
 2656TIP3    H2 7926   4.420   5.487   5.856 -1.3342  0.5418 -0.2313
 2657TIP3   OH2 7927   6.111   5.184   1.771  0.0064  0.5071 -0.0184
 2657TIP3    H1 7928   6.184   5.141   1.727 -0.9487 -1.3408  0.0863
 2657TIP3    H2 7929   6.119   5.158   1.863 -1.3023 -0.5919 -0.1719
 2658TIP3   OH2 7930   3.581   1.346   1.808  0.3469  0.1815  0.4688
 2658TIP3    H1 7931   3.529   1.304   1.877  1.2199 -1.0527  0.4132
 2658TIP3    H2 7932   3.616   1.425   1.849 -1.2143  0.8208  0.6234
 2659TIP3   OH2 7933   6.621   3.574   6.542  0.1866 -0.2641  0.0209
 2659TIP3    H1 7934   6.677   3.650   6.532 -0.7055  0.4913  0.6153
 2659TIP3    H2 7935   6.649   3.534   6.624  1.2743 -1.1387 -0.7393
 2660TIP3   OH2 7936   2.537   3.977   4.488 -0.5741  0.3582 -0.1661
 2660TIP3    H1 7937   2.601   3.943   4.425 -1.3352  0.5020 -1.0359
 2660TIP3    H2 7938   2.547   3.920   4.565  0.4257  0.2307 -0.3759
 2661TIP3   OH2 7939   4.381   5.010   4.982 -0.3428 -0.1605  0.1122
 2661TIP3    H1 7940   4.288   4.988   4.973 -0.2085 -0.3009 -1.0502
 2661TIP3    H2 7941   4.396   5.012   5.076 -1.0980 -1.9863  0.3140
 2662TIP3   OH2 7942   2.867   7.681   5.228  0.1392 -0.3493 -0.1757
 2662TIP3    H1 7943   2.950   7.691   5.275 -0.2658  0.1648  0.4357
 2662TIP3    H2 7944   2.800   7.686   5.296 -0.3771 -1.2926 -0.6022
 2663TIP3   OH2 7945   0.416   7.802   2.830  0.3002  0.2184  0.3216
 2663TIP3    H1 7946   0.407   7.707   2.841 -0.0877  0.1550 -0.5068
 2663TIP3    H2 7947   0.327   7.834   2.818  0.3455  0.8072  1.4095
 2664TIP3   OH2 7948   7.594   0.423   0.832 -0.3354 -0.3765  0.3344
 2664TIP3    H1 7949   7.580   0.515   0.808 -0.0707 -0.0076  1.5483
 2664TIP3    H2 7950   7.527   0.405   0.898 -1.1650 -1.4283 -0.7538
 2665TIP3   OH2 7951   4.980   1.820   4.254  0.1466 -0.1627  0.0530
 2665TIP3    H1 7952   4.949   1.760   4.322 -0.3842 -0.3662 -0.3649
 2665TIP3    H2 7953   4.963   1.907   4.289 -1.5015 -0.2610 -0.4212
 2666TIP3   OH2 7954   2.006   7.613   3.778  0.4724  0.1290  0.3688
 2666TIP3    H1 7955   2.001   7.549   3.849 -0.1055  0.6099  0.7758
 2666TIP3    H2 7956   2.089   7.594   3.734  1.4091  0.5398  1.8806
 2667TIP3   OH2 7957   7.222   0.577   5.766 -0.3198 -0.3817 -0.1345
 2667TIP3    H1 7958   7.292   0.605   5.825 -1.4703 -0.2469  1.2391
 2667TIP3    H2 7959   7.159   0.649   5.768 -1.1482 -1.0915 -0.2299
 2668TIP3   OH2 7960   4.425   2.487   2.241  0.2264  0.1717 -0.7160
 2668TIP3    H1 7961   4.489   2.432   2.195 -0.4835  0.2299 -1.8125
 2668TIP3    H2 7962   4.398   2.552   2.176 -0.7029  0.3537 -0.1682
 2669TIP3   OH2 7963   0.122   7.136   6.792  0.2185  0.2214  0.0988
 2669TIP3    H1 7964   0.194   7.157   6.851  0.7983 -2.3206  0.3744
 2669TIP3    H2 7965   0.138   7.191   6.714  1.2289  1.2369  0.9834
 2670TIP3   OH2 7966   2.974   0.112   5.839  0.1496 -0.2437 -0.3869
 2670TIP3    H1 7967   2.917   0.091   5.765 -0.9895  0.4891  0.2578
 2670TIP3    H2 7968   2.922   0.090   5.916  1.3704 -1.1245  0.2241
 2671TIP3   OH2 7969   8.186   0.743   0.162 -0.0488  0.0233  0.1527
 2671TIP3    H1 7970   8.176   0.665   0.216  0.0268 -0.4940 -0.5625
 2671TIP3    H2 7971   8.100   0.783   0.161 -0.2723 -0.4482 -0.0553
 2672TIP3   OH2 7972   7.799   2.683   3.992 -0.2402  0.2130  0.0051
 2672TIP3    H1 7973   7.881   2.683   3.943 -1.0498  2.1886 -1.4815
 2672TIP3    H2 7974   7.756   2.601   3.967  0.0468  0.4674 -1.4275
 2673TIP3   OH2 7975   7.666   6.661   2.696 -0.0192 -0.0054 -0.0914
 2673TIP3    H1 7976   7.651   6.585   2.639 -1.1089 -0.4759  0.7650
 2673TIP3    H2 7977   7.759   6.657   2.718  0.5764  0.5576 -2.3097
 2674TIP3   OH2 7978   0.122   4.024   3.849  0.3881 -0.2534  0.1449
 2674TIP3    H1 7979   0.134   4.089   3.780  1.0127 -0.8240 -0.3029
 2674TIP3    H2 7980   0.203   3.972   3.847  0.3623 -0.3487  1.2311
 2675TIP3   OH2 7981   2.670   4.137   1.653  0.5688 -0.1107  0.0086
 2675TIP3    H1 7982   2.666   4.053   1.608 -1.1598  0.4338 -0.9706
 2675TIP3    H2 7983   2.605   4.191   1.608  0.8346  1.3923  1.3369
 2676TIP3   OH2 7984   2.177   5.373   4.772  0.1768 -0.4601 -0.4821
 2676TIP3    H1 7985   2.267   5.344   4.760  0.1288 -0.3749 -1.0845
 2676TIP3    H2 7986   2.129   5.293   4.793  0.7681 -0.2016  2.1845
 2677TIP3   OH2 7987   4.162   1.736   2.154  0.2394 -0.4678 -0.0448
 2677TIP3    H1 7988   4.201   1.803   2.098  2.3434 -0.1639  1.6903
 2677TIP3    H2 7989   4.212   1.656   2.135 -0.7422 -1.0072 -0.4357
 2678TIP3   OH2 7990   7.526   7.661   3.425 -0.5584 -0.3148 -0.2004
 2678TIP3    H1 7991   7.478   7.702   3.353  1.0498  2.3022  0.0767
 2678TIP3    H2 7992   7.489   7.700   3.504  0.9420  0.6290  0.0834
 2679TIP3   OH2 7993   6.711   1.652   0.874 -0.3802 -0.2927 -0.1176
 2679TIP3    H1 7994   6.794   1.675   0.832  0.0351  1.6449  1.5487
 2679TIP3    H2 7995   6.705   1.713   0.948 -2.9194 -0.9229  0.2799
 2680TIP3   OH2 7996   5.656   7.839   5.373  0.2275  0.0388  0.0375
 2680TIP3    H1 7997   5.600   7.797   5.439 -0.1154 -0.2586 -0.4361
 2680TIP3    H2 7998   5.654   7.779   5.299 -0.6992  1.1241 -0.8496
 2681TIP3   OH2 7999   5.457   6.640   1.876  0.1278 -0.1349  0.0298
 2681TIP3    H1 8000   5.460   6.704   1.948  2.4341 -1.1586  0.9439
 2681TIP3    H2 8001   5.548   6.635   1.845 -0.3344 -1.6930 -1.1883
 2682TIP3   OH2 8002   2.554   5.463   1.076  0.6456  0.4363  0.1473
 2682TIP3    H1 8003   2.516   5.551   1.078 -1.5676 -0.3405 -1.6819
 2682TIP3    H2 8004   2.637   5.474   1.029 -0.5416  1.3465 -1.9141
 2683TIP3   OH2 8005   1.833   2.238   6.293 -0.2933  0.1233  0.2412
 2683TIP3    H1 8006   1.861   2.323   6.259 -0.7242  0.2649  0.2453
 2683TIP3    H2 8007   1.913   2.185   6.292 -0.2968  0.1077 -1.0367
 2684TIP3   OH2 8008   4.438   1.908   4.046  0.0426  0.3023 -0.1252
 2684TIP3    H1 8009   4.379   1.868   4.110 -1.0581  0.7127 -0.8404
 2684TIP3    H2 8010   4.379   1.956   3.988  1.2444  2.5915  0.4361
 2685TIP3   OH2 8011   2.016   1.781   1.298 -0.5070 -0.5076 -0.1703
 2685TIP3    H1 8012   2.044   1.797   1.388 -0.8827  1.5843 -0.3878
 2685TIP3    H2 8013   1.932   1.735   1.307 -1.3814  1.1677  0.6031
 2686TIP3   OH2 8014   8.005   7.424   4.719  0.5704 -0.0749 -0.0905
 2686TIP3    H1 8015   8.006   7.380   4.635 -0.0621  0.9571 -0.6614
 2686TIP3    H2 8016   8.094   7.413   4.753  0.8960 -0.3020 -0.9908
 2687TIP3   OH2 8017   4.068   1.154   0.187  0.2341  0.2979  0.0526
 2687TIP3    H1 8018   4.164   1.152   0.192  0.2880 -1.6587 -0.9384
 2687TIP3    H2 8019   4.039   1.105   0.264 -0.0124  1.4160  0.6870
 2688TIP3   OH2 8020   4.075   5.906   4.032  0.7862 -0.0737 -0.3078
 2688TIP3    H1 8021   4.106   5.889   3.943  1.3930 -0.5536 -0.0170
 2688TIP3    H2 8022   4.041   5.822   4.062 -0.5407  0.3692 -0.5026
 2689TIP3   OH2 8023   0.573   1.965   2.274 -0.0844  0.9009 -0.4576
 2689TIP3    H1 8024   0.512   1.982   2.203  0.8544  0.6495 -1.3447
 2689TIP3    H2 8025   0.601   2.051   2.303 -0.7994  1.0156 -0.0892
 2690TIP3   OH2 8026   3.855   6.280   1.395 -0.1027  0.0883  0.5399
 2690TIP3    H1 8027   3.801   6.230   1.333  1.5485  1.4116 -2.2057
 2690TIP3    H2 8028   3.928   6.222   1.416  0.1291  0.1441 -0.0628
 2691TIP3   OH2 8029   0.550   0.472   5.375  0.2456 -0.2202 -0.2085
 2691TIP3    H1 8030   0.539   0.476   5.280  0.6661  0.1027 -0.2443
 2691TIP3    H2 8031   0.527   0.559   5.405  0.4079 -0.2367 -0.0415
 2692TIP3   OH2 8032   7.704   7.006   0.619  0.2934 -0.4769  0.2725
 2692TIP3    H1 8033   7.642   7.036   0.686  1.5390  4.7504 -0.4481
 2692TIP3    H2 8034   7.694   7.069   0.547  3.5224 -1.9170 -1.6883
 2693TIP3   OH2 8035   3.312   5.774   5.105  0.6936  0.1763  0.0819
 2693TIP3    H1 8036   3.278   5.744   5.189  1.5327  0.1867  0.4336
 2693TIP3    H2 8037   3.375   5.706   5.079 -1.5086 -1.2759 -1.8916
 2694TIP3   OH2 8038   8.063   3.875   3.068 -0.0599 -0.3671  0.5576
 2694TIP3    H1 8039   8.147   3.848   3.030  0.2472  1.1369  0.1126
 2694TIP3    H2 8040   7.999   3.857   2.999  0.2381  0.6015  0.0056
 2695TIP3   OH2 8041   3.115   6.586   6.671  0.0841  0.4170  0.3717
 2695TIP3    H1 8042   3.116   6.495   6.640 -1.8983 -0.1146  1.6327
 2695TIP3    H2 8043   3.199   6.597   6.716 -0.2463 -1.3494  1.5380
 2696TIP3   OH2 8044   1.435   6.642   0.576 -0.3037 -0.4134  0.5898
 2696TIP3    H1 8045   1.379   6.719   0.577 -2.8860 -2.1346  2.3886
 2696TIP3    H2 8046   1.403   6.590   0.502  1.8176  0.3965 -0.9897
 2697TIP3   OH2 8047   0.046   5.481   2.820  0.0471  0.2708 -0.2634
 2697TIP3    H1 8048   0.015   5.559   2.775 -1.1190 -0.7434 -1.2892
 2697TIP3    H2 8049   0.111   5.443   2.760 -1.7223 -1.2429 -1.3449
 2698TIP3   OH2 8050   3.766   0.377   3.003  0.6401  0.0854  0.4985
 2698TIP3    H1 8051   3.686   0.326   2.988 -0.8337  2.0610  1.2392
 2698TIP3    H2 8052   3.810   0.377   2.918 -1.3544  0.8989 -0.6100
 2699TIP3   OH2 8053   2.118   3.020   1.701  0.2124 -0.0124  0.3090
 2699TIP3    H1 8054   2.077   3.031   1.787  1.3881  0.8665  0.7911
 2699TIP3    H2 8055   2.080   3.090   1.648  0.8805  0.6525  0.6864
 2700TIP3   OH2 8056   7.603   5.424   1.237  0.2607  0.0706  0.4244
 2700TIP3    H1 8057   7.572   5.373   1.163 -0.1396 -0.2794  0.8217
 2700TIP3    H2 8058   7.552   5.391   1.312  2.6086 -1.6108  1.4071
 2701TIP3   OH2 8059   7.499   5.402   5.493 -0.1711  0.1750 -0.7321
 2701TIP3    H1 8060   7.552   5.383   5.571  1.1068 -1.2036 -1.8905
 2701TIP3    H2 8061   7.459   5.319   5.470 -0.1962  0.4641 -1.7937
 2702TIP3   OH2 8062   4.028   4.717   4.416  0.3982  0.3957 -0.2754
 2702TIP3    H1 8063   4.007   4.702   4.324 -0.9877 -0.4932  0.1572
 2702TIP3    H2 8064   4.122   4.700   4.423  0.3045 -0.6532 -1.3098
 2703TIP3   OH2 8065   5.936   0.161   5.578  0.1464  0.3244  0.1671
 2703TIP3    H1 8066   5.992   0.230   5.543  0.8905 -0.2149  0.2914
 2703TIP3    H2 8067   5.973   0.140   5.663  0.7075 -1.1299 -0.4082
 2704TIP3   OH2 8068   8.275   2.232   0.616  0.2967  0.1626 -0.0958
 2704TIP3    H1 8069   8.236   2.298   0.673 -0.1318  1.0540 -1.3609
 2704TIP3    H2 8070   8.354   2.203   0.662  0.5761  1.6752  0.4326
 2705TIP3   OH2 8071   5.746   1.589   1.112  0.7274  0.2974 -0.2334
 2705TIP3    H1 8072   5.829   1.541   1.107  0.4175 -0.6025  2.0634
 2705TIP3    H2 8073   5.762   1.670   1.064  3.4882  0.8686  1.4510
 2706TIP3   OH2 8074   0.417   6.243   5.979 -0.0399  0.1876 -0.1279
 2706TIP3    H1 8075   0.465   6.178   5.928  1.6758  1.2719  0.0205
 2706TIP3    H2 8076   0.369   6.193   6.044 -1.3768 -1.1492 -2.0404
 2707TIP3   OH2 8077   1.174   3.825   6.176 -0.5221  0.2739 -0.8577
 2707TIP3    H1 8078   1.173   3.906   6.228  0.6808 -0.1023 -0.1980
 2707TIP3    H2 8079   1.083   3.808   6.156 -1.1247  0.0221  1.8051
 2708TIP3   OH2 8080   0.855   0.445   3.029  0.0943  0.1236 -0.3881
 2708TIP3    H1 8081   0.951   0.446   3.035  0.1682  0.9222 -1.3596
 2708TIP3    H2 8082   0.836   0.486   2.944 -1.1076 -0.1235 -0.2586
 2709TIP3   OH2 8083   4.148   6.600   0.902 -0.1841 -0.2329 -0.2146
 2709TIP3    H1 8084   4.079   6.613   0.838 -0.7065  0.4749  0.4839
 2709TIP3    H2 8085   4.133   6.512   0.936 -0.8718 -0.0024  0.0856
 2710TIP3   OH2 8086   7.991   0.865   6.087 -0.2998 -0.6816 -0.1061
 2710TIP3    H1 8087   8.013   0.943   6.138 -1.8809 -2.2355  3.2862
 2710TIP3    H2 8088   8.072   0.814   6.083  0.1918  0.1121 -0.4647
 2711TIP3   OH2 8089   8.042   2.055   4.458 -0.5324  0.2996  0.1076
 2711TIP3    H1 8090   8.119   2.070   4.512 -0.5232 -0.2649  0.2589
 2711TIP3    H2 8091   8.062   2.097   4.375 -1.0477  2.2886  0.9309
 2712TIP3   OH2 8092   2.051   0.120   2.296 -0.4766 -0.0267  0.1579
 2712TIP3    H1 8093   2.009   0.036   2.276 -0.6174 -0.1147  0.7904
 2712TIP3    H2 8094   2.080   0.153   2.212 -0.5737 -0.6342 -0.1202
 2713TIP3   OH2 8095   2.113   7.215   5.356  0.5309 -0.7627 -0.1606
 2713TIP3    H1 8096   2.084   7.137   5.404 -0.8395 -0.7139 -0.8515
 2713TIP3    H2 8097   2.116   7.284   5.423  2.4116 -1.5169  0.5962
 2714TIP3   OH2 8098   5.523   7.343   5.086 -0.4193  0.0992  0.1490
 2714TIP3    H1 8099   5.476   7.296   5.156 -1.2491  0.0051 -0.4512
 2714TIP3    H2 8100   5.556   7.273   5.029 -0.0182  0.1859  0.2737
 2715TIP3   OH2 8101   4.745   4.499   4.100 -0.3940 -0.4838 -0.1549
 2715TIP3    H1 8102   4.743   4.445   4.021 -1.9097 -0.7964  0.0502
 2715TIP3    H2 8103   4.678   4.566   4.083  0.2370  0.2637  0.3105
 2716TIP3   OH2 8104   3.360   2.010   2.321  0.3709 -0.0332  0.3041
 2716TIP3    H1 8105   3.397   2.098   2.327 -0.3430  0.3533 -0.7204
 2716TIP3    H2 8106   3.273   2.018   2.362  0.8301 -0.6011  1.4370
 2717TIP3   OH2 8107   0.922   5.111   6.788 -0.2157 -0.0573  0.8526
 2717TIP3    H1 8108   1.012   5.079   6.782 -0.0537 -0.2440  3.3433
 2717TIP3    H2 8109   0.911   5.168   6.712  1.5645 -1.0265 -0.1894
 2718TIP3   OH2 8110   7.092   6.153   0.479  0.2508 -0.1932  0.6866
 2718TIP3    H1 8111   7.100   6.222   0.545 -0.5368 -0.1865  0.7897
 2718TIP3    H2 8112   7.041   6.194   0.408 -0.4435 -0.7313  0.8599
 2719TIP3   OH2 8113   0.002   1.693   6.574 -0.1477  0.5619  0.5270
 2719TIP3    H1 8114   0.022   1.774   6.527 -0.3630  0.0766 -0.4490
 2719TIP3    H2 8115   0.086   1.648   6.581 -0.3577 -0.1579 -0.9981
 2720TIP3   OH2 8116   0.856   0.108   4.601 -0.3254 -0.2256  0.6079
 2720TIP3    H1 8117   0.859   0.095   4.695 -0.5588  2.0248  0.9849
 2720TIP3    H2 8118   0.865   0.202   4.589  0.1641 -0.4794 -1.6549
 2721TIP3   OH2 8119   1.222   2.267   4.064 -0.9579 -0.1567 -0.5133
 2721TIP3    H1 8120   1.250   2.333   4.001 -3.0962  0.8972 -0.4508
 2721TIP3    H2 8121   1.247   2.302   4.149  1.1504 -1.1770 -0.6558
 2722TIP3   OH2 8122   3.995   4.501   2.272 -0.1790 -0.0229  0.0236
 2722TIP3    H1 8123   4.088   4.498   2.295 -0.6517  1.0308  2.2577
 2722TIP3    H2 8124   3.977   4.594   2.258 -0.9876 -0.1872 -0.0592
 2723TIP3   OH2 8125   1.536   6.886   6.462  0.3153 -0.2834 -0.2160
 2723TIP3    H1 8126   1.532   6.886   6.557  0.7257 -0.3825 -0.1939
 2723TIP3    H2 8127   1.490   6.806   6.435  0.7440 -0.5885 -0.0673
 2724TIP3   OH2 8128   1.289   4.699   3.886 -0.1140 -0.1039  0.0332
 2724TIP3    H1 8129   1.329   4.635   3.827  0.4068  1.4540 -1.3761
 2724TIP3    H2 8130   1.346   4.701   3.962  2.2859  1.6501 -1.6869
 2725TIP3   OH2 8131   3.693   3.510   6.701 -0.0784 -0.5018 -0.0380
 2725TIP3    H1 8132   3.624   3.535   6.640  0.5774  0.4368 -0.4148
 2725TIP3    H2 8133   3.750   3.452   6.650  1.2543  1.3864 -0.8332
 2726TIP3   OH2 8134   4.066   6.211   3.724  0.0566  0.0431 -0.4907
 2726TIP3    H1 8135   4.090   6.126   3.688 -1.0472  0.4680 -2.3475
 2726TIP3    H2 8136   4.084   6.274   3.654 -0.8967  1.0966  0.1696
 2727TIP3   OH2 8137   1.491   3.927   5.412 -0.0936 -0.0414 -0.1885
 2727TIP3    H1 8138   1.459   3.961   5.329  1.8551 -1.0096 -1.4103
 2727TIP3    H2 8139   1.431   3.962   5.478 -1.8971  0.4676 -2.0230
 2728TIP3   OH2 8140   0.399   6.779   1.498  0.2916 -0.1211 -0.2546
 2728TIP3    H1 8141   0.433   6.805   1.584  0.4263  1.1966 -0.6833
 2728TIP3    H2 8142   0.384   6.685   1.506  0.5260 -0.0658  1.1358
 2729TIP3   OH2 8143   1.584   5.059   5.063 -0.1937  0.3685  0.4274
 2729TIP3    H1 8144   1.508   5.105   5.028 -0.7438 -1.7886 -1.4287
 2729TIP3    H2 8145   1.548   4.980   5.102  1.0672 -0.5874 -0.2770
 2730TIP3   OH2 8146   8.186   6.397   3.267  0.2422 -0.1062  0.0315
 2730TIP3    H1 8147   8.220   6.486   3.261 -0.0280  0.1142  1.4057
 2730TIP3    H2 8148   8.094   6.408   3.291  0.2321 -0.7424  0.3120
 2731TIP3   OH2 8149   3.304   1.537   1.909  0.2611  0.5726  0.5696
 2731TIP3    H1 8150   3.328   1.468   1.972  0.7347  0.5813  0.4017
 2731TIP3    H2 8151   3.256   1.491   1.841  1.4191  0.2212 -0.0476
 2732TIP3   OH2 8152   7.145   0.822   3.724 -0.1977 -0.0657  0.6386
 2732TIP3    H1 8153   7.089   0.744   3.729 -0.7301  0.3596  1.9191
 2732TIP3    H2 8154   7.093   0.885   3.674 -0.4664 -0.0030  0.9881
 2733TIP3   OH2 8155   7.131   4.965   6.097 -0.5061  0.5610  0.0581
 2733TIP3    H1 8156   7.224   4.964   6.072 -0.3041  1.0071  0.7564
 2733TIP3    H2 8157   7.114   4.875   6.125 -0.2031  0.5483  0.2097
 2734TIP3   OH2 8158   3.410   5.555   2.230 -0.3004 -0.2235  0.2346
 2734TIP3    H1 8159   3.450   5.570   2.316  0.0945  0.0411  0.0038
 2734TIP3    H2 8160   3.337   5.617   2.227 -1.8371 -1.8413  1.3514
 2735TIP3   OH2 8161   5.120   7.319   6.244  0.3281  0.4588  0.3102
 2735TIP3    H1 8162   5.154   7.404   6.272  1.6508 -0.0987  0.4526
 2735TIP3    H2 8163   5.166   7.255   6.299  0.4253 -0.4415 -0.7672
 2736TIP3   OH2 8164   2.038   2.781   4.636  0.0436 -0.7199  0.1975
 2736TIP3    H1 8165   1.951   2.765   4.599 -0.1056 -2.3202  1.1396
 2736TIP3    H2 8166   2.055   2.874   4.620 -0.6074 -0.9928 -2.5327
 2737TIP3   OH2 8167   7.566   5.466   6.456 -0.5111  1.0674  0.3750
 2737TIP3    H1 8168   7.609   5.519   6.523  0.7884  1.1364 -0.4591
 2737TIP3    H2 8169   7.583   5.375   6.482  0.9470  1.0860 -0.3845
 2738TIP3   OH2 8170   4.070   6.656   1.992 -0.1405  0.2143 -0.0349
 2738TIP3    H1 8171   4.073   6.682   2.084 -0.7426 -0.0258  0.0582
 2738TIP3    H2 8172   4.082   6.738   1.944 -0.8997  0.5053  0.2598
 2739TIP3   OH2 8173   1.202   7.764   3.212  0.0215 -0.3384 -0.0608
 2739TIP3    H1 8174   1.208   7.858   3.228 -0.0126 -0.0799 -1.4733
 2739TIP3    H2 8175   1.291   7.739   3.185  0.0756 -0.7606  0.4822
 2740TIP3   OH2 8176   2.118   6.967   6.374 -0.3916  0.2912 -0.0009
 2740TIP3    H1 8177   2.182   6.908   6.333 -1.4941 -1.2938  0.4873
 2740TIP3    H2 8178   2.172   7.031   6.421  0.8656  0.6889 -1.8552
 2741TIP3   OH2 8179   5.637   4.800   2.103 -0.0956  0.0224  0.4913
 2741TIP3    H1 8180   5.722   4.754   2.100 -0.3325 -0.5849  1.9905
 2741TIP3    H2 8181   5.602   4.779   2.189 -1.2944  1.1644  0.3117
 2742TIP3   OH2 8182   4.472   2.927   3.289  0.0814 -0.1707  0.1772
 2742TIP3    H1 8183   4.470   2.880   3.205  0.7641 -1.0902  0.6585
 2742TIP3    H2 8184   4.394   2.982   3.287 -0.2885 -0.6965 -0.7722
 2743TIP3   OH2 8185   6.768   7.425   4.430  0.3983 -1.1075 -0.0122
 2743TIP3    H1 8186   6.787   7.433   4.336 -0.2419  0.6758 -0.0348
 2743TIP3    H2 8187   6.796   7.509   4.466 -0.5441 -1.2896  1.1764
 2744TIP3   OH2 8188   0.075   0.398   0.883  0.5664  0.2418 -0.5015
 2744TIP3    H1 8189   0.036   0.468   0.936 -0.5441  0.1884 -1.2266
 2744TIP3    H2 8190   0.130   0.443   0.820  0.2317  0.4383 -0.6551
 2745TIP3   OH2 8191   6.506   3.217   1.347 -0.2786 -0.1476 -0.2233
 2745TIP3    H1 8192   6.538   3.261   1.426 -1.0601 -1.1680  0.7109
 2745TIP3    H2 8193   6.565   3.245   1.278  0.3123  0.9460  0.6798
 2746TIP3   OH2 8194   0.870   5.411   1.685  0.6480 -0.7840  0.3466
 2746TIP3    H1 8195   0.909   5.435   1.600 -1.8327 -0.6301 -0.8225
 2746TIP3    H2 8196   0.863   5.495   1.732  1.3819 -0.7681  0.4395
 2747TIP3   OH2 8197   6.718   2.604   4.842 -0.0995 -0.5402 -0.0440
 2747TIP3    H1 8198   6.767   2.644   4.769  0.5299 -1.1600  0.0279
 2747TIP3    H2 8199   6.632   2.646   4.839  0.0786 -0.2145 -0.8523
 2748TIP3   OH2 8200   2.878   0.091   6.089  0.2655  0.1737 -0.3722
 2748TIP3    H1 8201   2.855   0.154   6.158  0.4801  1.4688 -1.4334
 2748TIP3    H2 8202   2.957   0.048   6.123 -1.1721 -1.2395  1.3877
 2749TIP3   OH2 8203   5.273   1.938   3.192  0.3743  0.4463 -0.0849
 2749TIP3    H1 8204   5.184   1.907   3.175  0.6986  0.1377 -1.3124
 2749TIP3    H2 8205   5.284   2.011   3.131  0.6522  1.0872  0.7176
 2750TIP3   OH2 8206   1.798   3.132   1.750 -0.2121 -0.3814 -0.1068
 2750TIP3    H1 8207   1.750   3.058   1.714  1.2651 -0.8785 -1.1318
 2750TIP3    H2 8208   1.748   3.209   1.723 -1.7433 -0.9583  0.9383
 2751TIP3   OH2 8209   3.124   1.536   5.079 -0.6050  0.8213  0.1253
 2751TIP3    H1 8210   3.040   1.575   5.054  0.0282  1.4153 -1.1941
 2751TIP3    H2 8211   3.126   1.542   5.174 -2.3656  0.1248  0.2551
 2752TIP3   OH2 8212   4.618   7.431   1.769 -0.1676  0.0919 -0.4005
 2752TIP3    H1 8213   4.659   7.482   1.838 -3.0222  1.1145  0.7243
 2752TIP3    H2 8214   4.603   7.494   1.698  1.4400 -0.6151 -1.4139
 2753TIP3   OH2 8215   1.847   5.790   4.288  0.3304 -0.2789  0.3390
 2753TIP3    H1 8216   1.856   5.717   4.227  1.0067  0.1634 -0.0953
 2753TIP3    H2 8217   1.865   5.752   4.374 -0.3805 -0.8482  0.2506
 2754TIP3   OH2 8218   2.912   7.054   6.322 -0.6142 -0.5318 -0.2743
 2754TIP3    H1 8219   2.952   6.978   6.364  0.9580  0.2191 -0.3051
 2754TIP3    H2 8220   2.854   7.018   6.256 -1.7608 -1.7123  1.3212
 2755TIP3   OH2 8221   1.256   2.965   2.884 -0.3301  0.2717  0.5440
 2755TIP3    H1 8222   1.228   2.936   2.970 -1.1517 -1.6568 -0.3233
 2755TIP3    H2 8223   1.181   2.950   2.827  0.4898  0.6520 -0.6942
 2756TIP3   OH2 8224   6.964   3.658   3.216  0.0111  0.1387 -0.0543
 2756TIP3    H1 8225   6.908   3.612   3.279 -1.0385 -0.0868 -1.1115
 2756TIP3    H2 8226   6.930   3.747   3.215  0.2040  0.2106 -0.0916
 2757TIP3   OH2 8227   3.115   3.140   4.089  0.0871  0.1665 -0.0659
 2757TIP3    H1 8228   3.055   3.207   4.122  0.3072  0.5660 -0.4571
 2757TIP3    H2 8229   3.142   3.173   4.003  1.9748  0.6998  0.6928
 2758TIP3   OH2 8230   1.165   2.178   6.583  0.2216  0.1848  0.5193
 2758TIP3    H1 8231   1.224   2.212   6.517  0.8486  0.5369  1.2448
 2758TIP3    H2 8232   1.096   2.133   6.534  0.7678  0.2917 -0.3505
 2759TIP3   OH2 8233   4.012   7.754   0.565  0.1055  0.7028 -0.1729
 2759TIP3    H1 8234   3.991   7.730   0.474 -1.3965 -1.4296  0.6440
 2759TIP3    H2 8235   3.937   7.807   0.593 -0.1090  0.1967  0.2238
 2760TIP3   OH2 8236   1.037   0.288   0.101  0.0762 -0.1972  0.0719
 2760TIP3    H1 8237   0.959   0.286   0.046  0.5786 -1.1520 -0.6341
 2760TIP3    H2 8238   1.109   0.266   0.042  0.9244  0.9573  0.6508
 2761TIP3   OH2 8239   3.921   4.557   0.952  0.2532  0.0450  0.0880
 2761TIP3    H1 8240   3.934   4.462   0.949 -0.5855 -0.3485  3.6221
 2761TIP3    H2 8241   3.829   4.569   0.928 -0.0761 -0.2703  1.1207
 2762TIP3   OH2 8242   2.442   1.684   2.666 -0.5764  0.2020  0.0835
 2762TIP3    H1 8243   2.407   1.681   2.754 -0.0499  1.1255  0.3388
 2762TIP3    H2 8244   2.534   1.708   2.677 -0.6155  0.7796 -0.7348
 2763TIP3   OH2 8245   7.676   7.347   2.482  0.0422 -0.2462  0.4032
 2763TIP3    H1 8246   7.615   7.352   2.408 -0.5266 -2.2573  0.6758
 2763TIP3    H2 8247   7.759   7.321   2.442  0.2874  0.7274  0.2497
 2764TIP3   OH2 8248   3.866   0.760   0.659 -0.4052 -0.4329  0.0957
 2764TIP3    H1 8249   3.843   0.850   0.682  0.7410 -0.1724  0.3103
 2764TIP3    H2 8250   3.811   0.706   0.717 -0.3896  0.1509  0.6720
 2765TIP3   OH2 8251   7.714   7.376   2.770 -0.0003 -0.1143  0.3481
 2765TIP3    H1 8252   7.769   7.303   2.799  0.8410 -0.0151 -0.8914
 2765TIP3    H2 8253   7.700   7.359   2.677  1.3606  1.9718 -0.3230
 2766TIP3   OH2 8254   3.513   2.737   5.463 -0.2262 -0.0423 -0.4301
 2766TIP3    H1 8255   3.417   2.734   5.456 -0.2693  0.9778 -0.3167
 2766TIP3    H2 8256   3.537   2.646   5.483 -1.3074 -0.0341  1.1904
 2767TIP3   OH2 8257   7.864   4.372   5.377  0.2868 -0.9518 -0.3035
 2767TIP3    H1 8258   7.863   4.382   5.282  1.5882  1.3943 -0.1201
 2767TIP3    H2 8259   7.803   4.439   5.409 -0.5424 -2.0557  0.5498
 2768TIP3   OH2 8260   0.272   3.049   5.413  0.0227  0.1623 -0.1806
 2768TIP3    H1 8261   0.362   3.082   5.419  0.9065 -2.1501  0.3842
 2768TIP3    H2 8262   0.233   3.070   5.498  1.1853 -1.7876  0.9008
 2769TIP3   OH2 8263   3.986   4.462   4.941  0.1724  0.0397  0.2965
 2769TIP3    H1 8264   3.905   4.460   4.890  0.5223  1.4176 -0.3753
 2769TIP3    H2 8265   3.957   4.469   5.032 -0.4570 -2.0758  0.3156
 2770TIP3   OH2 8266   4.876   1.494   1.752  0.0697 -0.2782 -0.3216
 2770TIP3    H1 8267   4.929   1.497   1.831  1.0327  2.0606 -0.9774
 2770TIP3    H2 8268   4.859   1.585   1.730  0.8260 -0.7501 -3.4281
 2771TIP3   OH2 8269   8.245   5.420   5.400  0.2219  0.2996  0.0010
 2771TIP3    H1 8270   8.165   5.429   5.349 -0.1840 -1.5432  0.2391
 2771TIP3    H2 8271   8.310   5.388   5.336 -0.0113 -0.9738  0.3679
 2772TIP3   OH2 8272   6.811   6.767   1.910 -0.1958  0.2142  0.1074
 2772TIP3    H1 8273   6.869   6.796   1.840 -0.6078  1.4656  0.2714
 2772TIP3    H2 8274   6.867   6.712   1.966  0.4730  0.3043 -0.4580
 2773TIP3   OH2 8275   7.520   4.054   3.704 -0.4275  0.8527 -0.6553
 2773TIP3    H1 8276   7.588   4.121   3.694 -1.3684  2.0521  0.5080
 2773TIP3    H2 8277   7.447   4.101   3.746 -1.0665 -0.9516  0.3386
 2774TIP3   OH2 8278   3.656   1.344   2.185 -0.8015 -0.0440 -0.1022
 2774TIP3    H1 8279   3.598   1.347   2.109 -0.9506  1.0308  0.0262
 2774TIP3    H2 8280   3.734   1.298   2.156 -1.9272 -2.0416 -0.1233
 2775TIP3   OH2 8281   1.292   0.407   4.679  0.6376 -0.0591 -0.8152
 2775TIP3    H1 8282   1.245   0.477   4.634  1.3909  0.6918 -0.4613
 2775TIP3    H2 8283   1.384   0.423   4.658  0.8578 -0.6172 -0.2797
 2776TIP3   OH2 8284   2.418   2.396   0.217  0.6143 -0.3957  0.0974
 2776TIP3    H1 8285   2.370   2.321   0.183 -0.1341 -0.5450  1.3836
 2776TIP3    H2 8286   2.388   2.403   0.308  1.2998  0.9482  0.2388
 2777TIP3   OH2 8287   0.955   6.382   4.786 -0.1452  0.1756  0.3682
 2777TIP3    H1 8288   0.957   6.360   4.693  0.8284  1.5056  0.0360
 2777TIP3    H2 8289   1.040   6.422   4.802 -0.3344  0.0334  1.8275
 2778TIP3   OH2 8290   1.896   7.588   4.791  0.5281 -0.1066  0.7353
 2778TIP3    H1 8291   1.822   7.588   4.852 -0.3358  0.1930 -0.2915
 2778TIP3    H2 8292   1.934   7.500   4.799 -1.5898 -1.2320 -0.6633
 2779TIP3   OH2 8293   7.104   6.388   6.385  0.1920 -0.1559  0.1296
 2779TIP3    H1 8294   7.026   6.425   6.344  0.3233 -2.7874 -2.8617
 2779TIP3    H2 8295   7.177   6.433   6.344  0.3052  0.3710  0.8890
 2780TIP3   OH2 8296   4.183   2.441   6.241  0.6602  0.4866 -0.1480
 2780TIP3    H1 8297   4.220   2.386   6.309  1.0876  2.2435  1.1061
 2780TIP3    H2 8298   4.132   2.507   6.288  0.8537  1.6687 -1.5080
 2781TIP3   OH2 8299   0.645   4.481   0.073 -0.3144 -0.0879 -0.4010
 2781TIP3    H1 8300   0.587   4.489  -0.002  0.0495  0.5600 -0.6208
 2781TIP3    H2 8301   0.732   4.501   0.039 -0.0170 -0.6030  0.0187
 2782TIP3   OH2 8302   7.328   4.530   4.459  0.0341 -0.2570  0.5434
 2782TIP3    H1 8303   7.313   4.441   4.491  2.1173 -0.2647  1.6873
 2782TIP3    H2 8304   7.396   4.521   4.392 -0.6078  0.3569 -0.2116
 2783TIP3   OH2 8305   8.185   3.916   3.947 -0.2438  0.0256 -0.3941
 2783TIP3    H1 8306   8.212   3.825   3.936 -1.6385 -0.4323 -0.1482
 2783TIP3    H2 8307   8.260   3.967   3.915  1.1136 -1.1741  0.7467
 2784TIP3   OH2 8308   4.026   0.505   1.120 -0.1466 -0.2282  0.2770
 2784TIP3    H1 8309   4.045   0.415   1.095  1.1603  0.0241  0.3163
 2784TIP3    H2 8310   3.954   0.498   1.183 -1.1575 -1.1121 -0.9122
 2785TIP3   OH2 8311   7.192   0.930   5.940  0.6089  0.1751  0.2831
 2785TIP3    H1 8312   7.184   0.870   6.014  2.4731 -0.6579 -0.1229
 2785TIP3    H2 8313   7.137   0.893   5.872 -0.3046  0.3816  0.8983
 2786TIP3   OH2 8314   6.967   1.554   5.629 -0.4249 -0.3486 -0.0851
 2786TIP3    H1 8315   6.913   1.624   5.666 -2.1572 -0.8532 -1.5056
 2786TIP3    H2 8316   6.998   1.589   5.546  2.4316  0.3326  1.1604
 2787TIP3   OH2 8317   6.062   2.984   1.457 -0.2433 -0.5366 -0.3137
 2787TIP3    H1 8318   6.099   2.994   1.369 -0.1689  0.7237 -0.1541
 2787TIP3    H2 8319   6.115   2.915   1.497  1.4663  0.6659 -0.3664
 2788TIP3   OH2 8320   5.082   5.509   2.459 -0.1655  0.3267  0.2117
 2788TIP3    H1 8321   5.146   5.575   2.432 -1.1618  1.9832  1.6935
 2788TIP3    H2 8322   5.134   5.442   2.503  0.8090  0.3283 -0.8820
 2789TIP3   OH2 8323   1.236   6.932   1.337  0.2883 -0.9245  0.3739
 2789TIP3    H1 8324   1.314   6.909   1.287  1.2398 -0.0310  1.3753
 2789TIP3    H2 8325   1.229   7.027   1.329 -1.4219 -1.0847 -0.6695
 2790TIP3   OH2 8326   0.935   2.279   2.064 -0.1816 -0.6730  0.6354
 2790TIP3    H1 8327   0.886   2.239   1.992  0.2025 -0.8082  0.4403
 2790TIP3    H2 8328   0.873   2.337   2.107 -0.5516 -0.9590  0.4912
 2791TIP3   OH2 8329   0.322   3.501   0.350  0.4376  0.3070  0.0636
 2791TIP3    H1 8330   0.258   3.435   0.378 -0.6994  0.6799 -1.5022
 2791TIP3    H2 8331   0.361   3.466   0.270  0.7695  0.9504 -0.0689
 2792TIP3   OH2 8332   0.863   0.068   4.870  0.3718 -0.0879  0.0988
 2792TIP3    H1 8333   0.885  -0.006   4.926  1.1394  0.4819  0.5783
 2792TIP3    H2 8334   0.768   0.079   4.881 -0.2555 -2.5274 -1.9190
 2793TIP3   OH2 8335   0.999   7.480   1.816 -0.0769 -0.3430  0.0693
 2793TIP3    H1 8336   1.005   7.567   1.855 -1.3057 -0.7029  1.1332
 2793TIP3    H2 8337   1.087   7.442   1.828  0.8259  1.1241 -1.4572
 2794TIP3   OH2 8338   4.574   3.453   0.067 -0.2056  0.1841  0.4401
 2794TIP3    H1 8339   4.528   3.369   0.074  0.5064 -0.1711  0.9181
 2794TIP3    H2 8340   4.666   3.429   0.055 -0.1090  0.8891 -0.3047
 2795TIP3   OH2 8341   4.297   7.484   3.630  0.1528  0.0448 -0.0371
 2795TIP3    H1 8342   4.248   7.430   3.692 -0.6810  0.2589 -0.5022
 2795TIP3    H2 8343   4.331   7.556   3.683 -0.0104 -0.1197  0.2960
 2796TIP3   OH2 8344   2.048   6.324   1.622  0.1354 -0.6710 -0.2828
 2796TIP3    H1 8345   1.955   6.332   1.599  0.1868  1.0140 -0.0685
 2796TIP3    H2 8346   2.094   6.367   1.550  0.5738  0.6697  0.7704
 2797TIP3   OH2 8347   0.813   6.166   6.253 -0.6171 -0.9351 -0.0490
 2797TIP3    H1 8348   0.804   6.139   6.162 -1.1287  0.5413 -0.4656
 2797TIP3    H2 8349   0.744   6.119   6.299  0.4998 -2.7532 -0.1350
 2798TIP3   OH2 8350   5.721   5.726   6.723 -0.0904  0.0732  0.0908
 2798TIP3    H1 8351   5.666   5.648   6.717  2.8176 -2.1178 -0.5417
 2798TIP3    H2 8352   5.769   5.715   6.805 -1.6680  2.7941  1.5149
 2799TIP3   OH2 8353   7.316   0.175   4.157  0.4706  0.5386 -0.6464
 2799TIP3    H1 8354   7.237   0.201   4.203  1.0844  0.8506  0.2656
 2799TIP3    H2 8355   7.365   0.256   4.145  0.0858  0.5581 -2.3646
 2800TIP3   OH2 8356   5.478   1.935   1.600  0.3097  0.1413 -0.0040
 2800TIP3    H1 8357   5.480   1.900   1.511  0.5798 -0.0755  0.0888
 2800TIP3    H2 8358   5.484   1.859   1.657  0.9445  0.3341  0.1956
 2801TIP3   OH2 8359   2.454   2.656   2.172 -0.0744 -0.4795  0.2731
 2801TIP3    H1 8360   2.420   2.691   2.254  1.5560  2.7503 -0.2827
 2801TIP3    H2 8361   2.390   2.680   2.106 -0.7338 -1.9173  0.3420
 2802TIP3   OH2 8362   0.370   1.043   3.543  0.1424 -0.0605 -0.2448
 2802TIP3    H1 8363   0.374   0.973   3.477 -0.1538 -0.0296 -0.2950
 2802TIP3    H2 8364   0.456   1.085   3.537  0.7531 -1.1298  0.5672
 2803TIP3   OH2 8365   7.489   2.239   4.497  0.0071 -0.3014 -0.1521
 2803TIP3    H1 8366   7.443   2.308   4.545  1.3127  0.0028  0.6969
 2803TIP3    H2 8367   7.486   2.268   4.406 -0.0491  0.5252  0.1095
 2804TIP3   OH2 8368   2.069   3.740   5.870  0.3359 -0.1968  0.4869
 2804TIP3    H1 8369   2.146   3.688   5.847  1.7892  1.3294  1.6901
 2804TIP3    H2 8370   2.082   3.824   5.826 -1.3170 -0.3486 -0.3594
 2805TIP3   OH2 8371  -0.004   5.139   1.169  0.1968 -0.0784  0.2585
 2805TIP3    H1 8372   0.022   5.200   1.100 -1.2939 -0.1406 -0.4050
 2805TIP3    H2 8373   0.068   5.141   1.232  0.7776  1.3369 -0.4193
 2806TIP3   OH2 8374   3.932   5.819   2.862 -0.5381  0.4850 -0.4959
 2806TIP3    H1 8375   3.910   5.800   2.771 -0.4318  2.5468 -0.9943
 2806TIP3    H2 8376   3.856   5.866   2.896  0.6593  2.5900 -0.5271
 2807TIP3   OH2 8377   5.443   7.345   1.260 -0.2571  0.5573 -0.0285
 2807TIP3    H1 8378   5.352   7.342   1.228 -0.1232  0.5215 -0.4059
 2807TIP3    H2 8379   5.446   7.277   1.327 -0.6688  0.9583  0.4078
 2808TIP3   OH2 8380   6.968   4.429   1.758  0.0202  0.3939  0.1332
 2808TIP3    H1 8381   7.013   4.362   1.810 -0.2225  0.9597  1.0966
 2808TIP3    H2 8382   7.002   4.512   1.791  1.0029  0.7496 -1.6903
 2809TIP3   OH2 8383   2.198   1.806   2.602 -0.0853 -0.6420 -0.3831
 2809TIP3    H1 8384   2.282   1.770   2.631  0.0701  0.6018  0.8024
 2809TIP3    H2 8385   2.139   1.790   2.675  0.0885  1.7547  0.3828
 2810TIP3   OH2 8386   0.447   1.218   0.347  0.3957 -0.0067 -0.0984
 2810TIP3    H1 8387   0.440   1.124   0.335 -2.2541 -0.1004  1.4655
 2810TIP3    H2 8388   0.367   1.254   0.310  1.6899  1.7710 -1.3556
 2811TIP3   OH2 8389   4.981   4.320   5.630  0.7367  0.8748  0.1316
 2811TIP3    H1 8390   4.982   4.416   5.626 -1.2082  1.0757  2.4272
 2811TIP3    H2 8391   5.006   4.300   5.720 -2.0407 -0.5711  0.6764
 2812TIP3   OH2 8392   2.529   5.139   0.430  0.0530 -0.3186 -0.0462
 2812TIP3    H1 8393   2.523   5.229   0.396  1.2037  0.2940  1.2497
 2812TIP3    H2 8394   2.454   5.130   0.489  0.6871  0.3188  0.8976
 2813TIP3   OH2 8395   3.107   6.944   0.974 -0.0431  0.4454  0.0813
 2813TIP3    H1 8396   3.019   6.965   0.941  0.3448  1.6532 -0.2387
 2813TIP3    H2 8397   3.163   6.947   0.897  0.4614  0.7757  0.4551
 2814TIP3   OH2 8398   5.477   3.119   4.740  0.7360  0.0902 -0.2546
 2814TIP3    H1 8399   5.394   3.105   4.786  0.7292  1.5386  0.2285
 2814TIP3    H2 8400   5.478   3.212   4.719  1.4654 -0.2350 -1.8343
 2815TIP3   OH2 8401   8.304   1.496   3.960 -0.1780  0.4086 -0.2832
 2815TIP3    H1 8402   8.239   1.466   4.023  0.3054  0.5229  0.2807
 2815TIP3    H2 8403   8.312   1.590   3.977  0.2712  0.3588 -0.2204
 2816TIP3   OH2 8404   6.062   1.500   5.286  0.0348  0.1534  0.3541
 2816TIP3    H1 8405   6.137   1.482   5.230 -0.4986  0.6126 -0.5254
 2816TIP3    H2 8406   6.020   1.415   5.299 -0.6460  0.2290 -1.1366
 2817TIP3   OH2 8407   5.987   2.243   2.313 -0.1270  0.7140 -0.1952
 2817TIP3    H1 8408   6.063   2.270   2.365  0.6555 -0.1837 -0.8244
 2817TIP3    H2 8409   6.009   2.268   2.223 -1.7141  2.7784 -0.0706
 2818TIP3   OH2 8410   1.981   6.435   2.337  0.0790  0.6583  0.5256
 2818TIP3    H1 8411   1.929   6.358   2.314 -2.9830  1.9355  2.5362
 2818TIP3    H2 8412   2.048   6.401   2.397 -1.7136 -0.4352  2.0419
 2819TIP3   OH2 8413   3.612   4.071   2.067 -0.1525 -0.1325 -0.0632
 2819TIP3    H1 8414   3.549   4.006   2.035  0.2470  0.1336 -1.4468
 2819TIP3    H2 8415   3.558   4.136   2.113 -0.9099  0.1164 -1.2582
 2820TIP3   OH2 8416   3.244   7.227   6.428  0.0637  0.3135  0.2634
 2820TIP3    H1 8417   3.259   7.296   6.364  0.6530 -0.4174 -0.4090
 2820TIP3    H2 8418   3.329   7.185   6.440 -0.1429  0.1252  1.1597
 2821TIP3   OH2 8419   5.104   2.456   6.020  0.3296  0.0430  0.3100
 2821TIP3    H1 8420   5.122   2.377   6.070 -1.6163 -0.3819  0.4206
 2821TIP3    H2 8421   5.097   2.425   5.929  0.4567  0.2311  0.2369
 2822TIP3   OH2 8422   1.566   0.839   1.017 -0.0722  0.1054 -0.2214
 2822TIP3    H1 8423   1.610   0.761   1.051  0.2546  0.0713 -0.7142
 2822TIP3    H2 8424   1.626   0.911   1.035  0.0112  0.1169 -0.5437
 2823TIP3   OH2 8425   1.853   0.754   5.419 -0.7164 -0.3205 -0.0224
 2823TIP3    H1 8426   1.862   0.807   5.340 -0.7381  0.5744  0.5609
 2823TIP3    H2 8427   1.934   0.704   5.424 -0.1071  0.6534  0.1199
 2824TIP3   OH2 8428   5.723   3.579   2.404  0.2728  0.0324 -0.1734
 2824TIP3    H1 8429   5.767   3.635   2.468 -0.9733 -0.5152  1.2365
 2824TIP3    H2 8430   5.761   3.604   2.320  0.9839  1.7602  0.6053
 2825TIP3   OH2 8431   7.807   6.077   2.040  0.0882 -0.1664  0.0736
 2825TIP3    H1 8432   7.796   5.996   1.991 -0.9298 -1.4186  2.2292
 2825TIP3    H2 8433   7.896   6.071   2.076 -0.1933 -0.6528  0.7185
 2826TIP3   OH2 8434   2.538  -0.011   0.057 -0.0363  0.1762 -0.3306
 2826TIP3    H1 8435   2.536   0.058  -0.009 -0.7108  0.7370  0.2511
 2826TIP3    H2 8436   2.598   0.022   0.124  0.8109 -0.4831 -0.7427
 2827TIP3   OH2 8437   6.277   0.175   0.600  0.1553  0.5633  0.3888
 2827TIP3    H1 8438   6.182   0.169   0.593  0.1191  1.3400  0.1773
 2827TIP3    H2 8439   6.308   0.176   0.509  0.3290  0.8869  0.4517
 2828TIP3   OH2 8440   1.074   1.616   4.986 -0.0071 -0.1341  1.4044
 2828TIP3    H1 8441   0.993   1.583   4.947 -0.4192  1.4227  0.8799
 2828TIP3    H2 8442   1.107   1.543   5.038 -1.1965 -1.1420  0.7941
 2829TIP3   OH2 8443   1.862   7.734   3.590 -0.4279  0.2385 -0.2582
 2829TIP3    H1 8444   1.920   7.698   3.658 -1.2033 -0.0506  0.2680
 2829TIP3    H2 8445   1.847   7.661   3.531  1.9310  1.0136 -1.9896
 2830TIP3   OH2 8446   4.138   6.053   3.102  0.2530 -0.1712 -0.1094
 2830TIP3    H1 8447   4.095   6.114   3.041  1.1324  2.0443  1.3573
 2830TIP3    H2 8448   4.212   6.017   3.052  2.4926  3.4876  0.2017
 2831TIP3   OH2 8449   7.538   2.207   5.696 -0.2544  0.1087 -0.1008
 2831TIP3    H1 8450   7.576   2.212   5.608 -1.2004  4.7656 -0.5130
 2831TIP3    H2 8451   7.614   2.200   5.755  0.6726  0.8737 -1.1666
 2832TIP3   OH2 8452   4.230   4.078   2.204  0.4224 -0.0069 -0.2811
 2832TIP3    H1 8453   4.314   4.064   2.247  0.5684  0.2405 -0.4821
 2832TIP3    H2 8454   4.243   4.156   2.150  0.1783 -0.1849 -0.6041
 2833TIP3   OH2 8455   0.736   6.550   0.772  0.2633 -0.5300 -0.4292
 2833TIP3    H1 8456   0.734   6.642   0.749 -0.3571 -0.4101  0.0644
 2833TIP3    H2 8457   0.673   6.508   0.713 -0.8467 -0.3240  0.5590
 2834TIP3   OH2 8458   4.023   6.480   4.452  0.0291  0.7429  0.1326
 2834TIP3    H1 8459   3.936   6.490   4.412  0.5233  1.4349 -0.7880
 2834TIP3    H2 8460   4.027   6.552   4.516  0.3560  1.4314 -0.6401
 2835TIP3   OH2 8461   7.900   2.527   6.275 -0.4065 -0.0278  0.1925
 2835TIP3    H1 8462   7.823   2.471   6.267  0.4130 -0.9998 -1.3195
 2835TIP3    H2 8463   7.868   2.615   6.254 -1.1008 -0.4130 -0.3881
 2836TIP3   OH2 8464   2.842   0.808   3.095  0.0349 -0.3245  0.8740
 2836TIP3    H1 8465   2.780   0.737   3.108 -1.1105  0.2911 -0.8040
 2836TIP3    H2 8466   2.919   0.783   3.146 -1.0776 -1.7632  1.9352
 2837TIP3   OH2 8467   2.745   1.460   3.759 -0.3743 -0.5660 -0.1616
 2837TIP3    H1 8468   2.740   1.410   3.677 -2.1049 -0.6344 -0.0539
 2837TIP3    H2 8469   2.828   1.433   3.798 -0.0494 -1.3827 -1.3543
 2838TIP3   OH2 8470   2.305   5.542   6.326 -0.0552 -0.1209 -0.3388
 2838TIP3    H1 8471   2.330   5.581   6.410 -0.5053 -0.9654  0.1929
 2838TIP3    H2 8472   2.213   5.565   6.315 -0.0070 -0.0413 -0.5975
 2839TIP3   OH2 8473   6.821   7.134   1.436 -0.1273  0.1695  0.4319
 2839TIP3    H1 8474   6.910   7.139   1.470  0.2202 -0.3489 -0.3930
 2839TIP3    H2 8475   6.825   7.172   1.349 -0.1142 -2.2508 -0.7078
 2840TIP3   OH2 8476   7.085   7.027   1.344  0.3529  0.6071  0.5181
 2840TIP3    H1 8477   7.101   7.122   1.342  0.5524  0.6165 -2.8461
 2840TIP3    H2 8478   7.142   6.992   1.276 -1.4195 -1.6289  0.0849
 2841TIP3   OH2 8479   1.890   4.795   5.737  0.3941  0.0595  0.1391
 2841TIP3    H1 8480   1.805   4.753   5.749  0.5436 -0.4114 -0.3920
 2841TIP3    H2 8481   1.927   4.752   5.660  1.4516 -0.2817  0.8148
 2842TIP3   OH2 8482   5.263   2.362   1.423  0.0716  0.4815  0.0582
 2842TIP3    H1 8483   5.219   2.438   1.461 -0.8739 -0.0811  0.1180
 2842TIP3    H2 8484   5.355   2.373   1.448 -0.0047  1.7220 -0.1460
 2843TIP3   OH2 8485   6.799   6.504   0.348  0.1301  0.4651  0.0924
 2843TIP3    H1 8486   6.775   6.585   0.304  0.3278  1.1565  1.2155
 2843TIP3    H2 8487   6.737   6.497   0.421  1.1201  0.4514  0.9511
 2844TIP3   OH2 8488   5.258   3.179   3.767 -0.2329 -0.1475 -0.3492
 2844TIP3    H1 8489   5.242   3.262   3.723  1.1738 -1.2870 -3.2943
 2844TIP3    H2 8490   5.188   3.122   3.736  0.4319 -0.8188 -0.6472
 2845TIP3   OH2 8491   5.327   3.646   6.674 -0.0015  0.1052  0.0094
 2845TIP3    H1 8492   5.315   3.740   6.682  0.8292  0.4113 -1.7761
 2845TIP3    H2 8493   5.240   3.612   6.653 -0.2505  0.5152  0.3794
 2846TIP3   OH2 8494   0.766   4.928   3.471 -0.0704 -0.7612 -0.2573
 2846TIP3    H1 8495   0.782   4.914   3.564  0.2527  0.9440 -0.0160
 2846TIP3    H2 8496   0.841   4.888   3.427 -0.2905 -1.6883  0.1923
 2847TIP3   OH2 8497   3.298   5.821   6.222 -0.9850  0.1397 -0.3702
 2847TIP3    H1 8498   3.327   5.821   6.131  2.8070  2.0658  0.6011
 2847TIP3    H2 8499   3.367   5.867   6.269 -3.9578  1.5183  3.1695
 2848TIP3   OH2 8500   6.395   3.016   3.860  0.4997  0.2962 -0.6017
 2848TIP3    H1 8501   6.366   2.953   3.794  0.7763 -1.3944  0.8238
 2848TIP3    H2 8502   6.482   2.985   3.886  0.3361  0.8432  0.6573
 2849TIP3   OH2 8503   4.501   6.744   2.577 -0.2301 -0.5717 -0.0729
 2849TIP3    H1 8504   4.520   6.820   2.631 -0.5730 -2.4214  2.9003
 2849TIP3    H2 8505   4.586   6.718   2.541  0.0341  0.6188 -0.3439
 2850TIP3   OH2 8506   6.835   3.855   3.366  0.2311 -0.2584  0.2493
 2850TIP3    H1 8507   6.761   3.916   3.356 -0.5039 -1.3123 -1.1622
 2850TIP3    H2 8508   6.905   3.909   3.402 -0.2040  1.5851 -1.4658
 2851TIP3   OH2 8509   6.440   2.462   5.285  0.1225 -0.0397 -0.3838
 2851TIP3    H1 8510   6.529   2.427   5.283 -0.8127 -2.5941 -1.1608
 2851TIP3    H2 8511   6.385   2.387   5.307 -1.7411  1.8276  1.9329
 2852TIP3   OH2 8512   0.631   7.702   2.359 -1.0478  0.5627  0.3752
 2852TIP3    H1 8513   0.688   7.774   2.388  0.7306 -1.1928  1.4611
 2852TIP3    H2 8514   0.607   7.726   2.270  1.6554  1.3290 -0.2601
 2853TIP3   OH2 8515   4.642   3.764   6.659 -0.2834  0.6419  0.1196
 2853TIP3    H1 8516   4.718   3.818   6.680  0.0240 -0.0863  0.9546
 2853TIP3    H2 8517   4.567   3.823   6.667  0.1056  1.1204  0.2598
 2854TIP3   OH2 8518   4.924   4.686   6.145 -0.3521  0.1322  0.1544
 2854TIP3    H1 8519   4.836   4.649   6.153 -0.0156 -0.9291 -0.6547
 2854TIP3    H2 8520   4.920   4.740   6.066 -0.4637  0.6843  0.5328
 2855TIP3   OH2 8521   7.937   4.543   4.553  0.5576  0.6072  0.6591
 2855TIP3    H1 8522   7.929   4.636   4.530 -0.4482  0.4823  0.4565
 2855TIP3    H2 8523   7.913   4.496   4.473  0.1961  0.1746  1.0173
 2856TIP3   OH2 8524   4.166   4.637   4.794 -0.2733 -0.1578 -0.1139
 2856TIP3    H1 8525   4.091   4.589   4.828  0.0421 -0.5197  0.0762
 2856TIP3    H2 8526   4.242   4.592   4.830  0.0289  1.2220  1.0677
 2857TIP3   OH2 8527   0.308   6.036   6.186  0.1735  0.2073 -0.5366
 2857TIP3    H1 8528   0.360   5.976   6.133 -0.2910 -0.8028  0.1272
 2857TIP3    H2 8529   0.321   6.007   6.276 -1.3360  0.0741 -0.3341
 2858TIP3   OH2 8530   3.802   4.197   2.275  0.2276 -0.4063  0.0519
 2858TIP3    H1 8531   3.713   4.209   2.306  0.7897  3.0578  0.8107
 2858TIP3    H2 8532   3.815   4.267   2.211  2.7884  0.1593  1.0542
 2859TIP3   OH2 8533   5.209   4.267   6.631  0.1737 -0.0543 -0.1991
 2859TIP3    H1 8534   5.260   4.187   6.641  1.5928  0.4666 -2.5085
 2859TIP3    H2 8535   5.148   4.249   6.560  2.0143  1.4859 -2.3272
 2860TIP3   OH2 8536   6.618   1.473   1.563 -0.0552 -0.1901 -0.4327
 2860TIP3    H1 8537   6.619   1.476   1.659  1.7784 -2.1668 -0.3147
 2860TIP3    H2 8538   6.535   1.515   1.539  0.1810  1.9022  1.9016
 2861TIP3   OH2 8539   6.886   6.770   2.254  0.3553 -0.2097 -0.2976
 2861TIP3    H1 8540   6.910   6.724   2.174 -1.0990 -0.4377 -0.6243
 2861TIP3    H2 8541   6.818   6.832   2.227 -0.0554 -0.1891  0.7245
 2862TIP3   OH2 8542   0.856   0.874   3.661 -0.1154  0.0332  0.2459
 2862TIP3    H1 8543   0.886   0.793   3.620  0.8655  0.2830  0.4525
 2862TIP3    H2 8544   0.900   0.943   3.613  2.2132  0.2844  2.5655
 2863TIP3   OH2 8545   3.641   4.618   1.756 -0.2188  0.2920 -0.4805
 2863TIP3    H1 8546   3.711   4.681   1.776 -0.2193 -0.3937  2.0401
 2863TIP3    H2 8547   3.561   4.660   1.786 -0.2876 -0.6302  0.7205
 2864TIP3   OH2 8548   3.414   2.284   6.416 -0.7795 -0.0020  0.5462
 2864TIP3    H1 8549   3.320   2.267   6.406 -1.2992  0.9590  3.1431
 2864TIP3    H2 8550   3.422   2.379   6.406  0.2189 -0.2241 -1.2429
 2865TIP3   OH2 8551   8.292   1.020   6.657 -0.3107  0.0592  0.2226
 2865TIP3    H1 8552   8.259   0.950   6.602  0.2539 -0.5700  0.6663
 2865TIP3    H2 8553   8.222   1.037   6.720 -1.4823  1.6360 -1.3942
 2866TIP3   OH2 8554   6.336   4.131   1.256 -0.4330  0.3972 -0.9971
 2866TIP3    H1 8555   6.287   4.107   1.178 -1.4194  1.6304 -0.7935
 2866TIP3    H2 8556   6.425   4.147   1.225 -0.7635  0.6424 -1.8345
 2867TIP3   OH2 8557   2.797   0.678   0.201 -0.1171  0.0510  0.1125
 2867TIP3    H1 8558   2.892   0.673   0.190 -0.0466  1.3230  0.0361
 2867TIP3    H2 8559   2.763   0.671   0.112 -0.2588 -2.7254  0.2982
 2868TIP3   OH2 8560   7.223   2.164   2.830 -0.2283  0.3163 -0.6321
 2868TIP3    H1 8561   7.278   2.158   2.908  0.2700  0.1045 -0.9966
 2868TIP3    H2 8562   7.216   2.258   2.813 -1.2328  0.4308  0.2846
 2869TIP3   OH2 8563   0.944   2.163   2.325  0.0294 -0.4686 -0.4541
 2869TIP3    H1 8564   0.944   2.202   2.237 -0.7323 -0.5949 -0.5207
 2869TIP3    H2 8565   0.928   2.070   2.310  1.6654 -0.8093 -0.2808
 2870TIP3   OH2 8566   6.553   1.437   0.901 -0.0613 -0.4796 -0.3395
 2870TIP3    H1 8567   6.579   1.378   0.830 -0.5538  0.3739 -1.2514
 2870TIP3    H2 8568   6.606   1.516   0.887 -0.7404 -0.0009 -0.2426
 2871TIP3   OH2 8569   0.842   2.769   2.883 -0.6745 -0.0389 -0.9594
 2871TIP3    H1 8570   0.820   2.775   2.790 -1.8777 -0.4958 -0.7149
 2871TIP3    H2 8571   0.771   2.719   2.922  0.6126 -1.2430 -0.0465
 2872TIP3   OH2 8572   1.052   5.187   6.323 -0.0001 -0.0624 -0.2210
 2872TIP3    H1 8573   1.006   5.230   6.251 -0.2805 -1.0905 -0.6705
 2872TIP3    H2 8574   1.025   5.095   6.317  1.3677 -0.5006  0.1023
 2873TIP3   OH2 8575   4.943   0.183   2.060 -0.1769  0.0706  0.3158
 2873TIP3    H1 8576   4.970   0.176   1.968  0.8379 -1.0844  0.6675
 2873TIP3    H2 8577   5.024   0.204   2.106 -0.7298  0.8963  0.9297
 2874TIP3   OH2 8578   6.198   7.663   0.299 -0.2827 -0.0764  0.3709
 2874TIP3    H1 8579   6.188   7.616   0.216 -1.6894 -0.4090  0.7105
 2874TIP3    H2 8580   6.128   7.629   0.355  0.5101  0.2840  1.6417
 2875TIP3   OH2 8581   5.010   5.296   4.323 -0.3591 -0.3046 -0.7050
 2875TIP3    H1 8582   5.085   5.239   4.338 -1.0912 -1.2338 -0.4706
 2875TIP3    H2 8583   4.963   5.255   4.250 -1.2767 -0.4259 -0.0723
 2876TIP3   OH2 8584   4.448   1.278   1.110 -0.0647  0.2589 -0.3353
 2876TIP3    H1 8585   4.533   1.241   1.084  0.7860  1.4018  0.7056
 2876TIP3    H2 8586   4.461   1.306   1.200 -1.6742  0.1462 -0.0545
 2877TIP3   OH2 8587   4.844   0.674   2.306 -0.0349  0.3952  0.4518
 2877TIP3    H1 8588   4.791   0.595   2.288  0.7009 -0.0827  0.3497
 2877TIP3    H2 8589   4.783   0.734   2.349 -0.5517 -0.3190  0.7390
 2878TIP3   OH2 8590   5.390   5.187   0.235  0.4133  0.1551  0.0611
 2878TIP3    H1 8591   5.311   5.241   0.229 -0.7162 -1.5250 -1.3008
 2878TIP3    H2 8592   5.422   5.202   0.324  0.2321  3.0714 -0.2698
 2879TIP3   OH2 8593   0.494   3.590   5.368 -0.1973  0.0369  0.1647
 2879TIP3    H1 8594   0.425   3.602   5.433  0.9775  2.9601  1.0427
 2879TIP3    H2 8595   0.543   3.513   5.399  0.0639  1.0763  2.5876
 2880TIP3   OH2 8596   0.414   7.040   0.110 -0.2778  0.0038 -0.1506
 2880TIP3    H1 8597   0.364   7.118   0.085 -0.8435 -0.1167  0.5831
 2880TIP3    H2 8598   0.497   7.075   0.145 -2.0218  0.6278  3.9691
 2881TIP3   OH2 8599   4.345   3.358   1.380  0.0887 -0.5592 -0.0614
 2881TIP3    H1 8600   4.380   3.269   1.384  0.7284 -0.3564 -0.8979
 2881TIP3    H2 8601   4.333   3.375   1.286  0.4491  0.4180  0.0622
 2882TIP3   OH2 8602   2.996   1.753   2.338 -0.6187 -0.2088  0.4564
 2882TIP3    H1 8603   3.007   1.844   2.309  0.8693  0.0247  1.6282
 2882TIP3    H2 8604   2.973   1.760   2.431  0.0538 -1.0225  0.6968
 2883TIP3   OH2 8605   5.052   4.139   3.313 -0.3780 -0.5144  0.3369
 2883TIP3    H1 8606   4.987   4.102   3.373 -0.9766  1.7282  1.1717
 2883TIP3    H2 8607   5.136   4.123   3.356 -0.7443  0.3743  1.4240
 2884TIP3   OH2 8608   2.375   3.648   5.254  0.1814 -0.0642  0.5877
 2884TIP3    H1 8609   2.284   3.675   5.267  0.4236  0.9910  0.1592
 2884TIP3    H2 8610   2.375   3.554   5.276 -1.0995 -0.1907  0.1450
 2885TIP3   OH2 8611   0.180   1.273   4.951 -0.0371  0.0585  0.0092
 2885TIP3    H1 8612   0.252   1.303   4.896 -0.3765 -0.5700 -0.7959
 2885TIP3    H2 8613   0.127   1.219   4.893 -0.7306 -0.1258  0.8043
 2886TIP3   OH2 8614   2.049   5.843   0.385  0.0542 -0.0924  0.1669
 2886TIP3    H1 8615   2.088   5.881   0.464  2.4636  1.6322 -1.6726
 2886TIP3    H2 8616   1.971   5.896   0.368  1.2182  1.5881 -0.1981
 2887TIP3   OH2 8617   6.296   2.147   2.404  0.6845 -0.0154 -0.2806
 2887TIP3    H1 8618   6.296   2.056   2.372  1.2179 -0.4948  1.0202
 2887TIP3    H2 8619   6.293   2.139   2.499 -1.8097  1.3876 -0.1522
 2888TIP3   OH2 8620   0.748   4.418   5.000 -0.7970 -0.3020 -0.0330
 2888TIP3    H1 8621   0.709   4.331   4.988 -0.6335 -0.0061 -4.1978
 2888TIP3    H2 8622   0.838   4.408   4.971 -0.6514  1.1543 -0.1412
 2889TIP3   OH2 8623   0.139   1.334   4.124 -0.9400 -0.7229 -0.2923
 2889TIP3    H1 8624   0.130   1.377   4.209 -1.2294  0.3022 -0.8347
 2889TIP3    H2 8625   0.106   1.398   4.061 -0.7939 -1.5020 -1.1749
 2890TIP3   OH2 8626   5.830   3.811   0.162  0.1200 -0.0184  0.0804
 2890TIP3    H1 8627   5.919   3.830   0.191  0.6757  0.1487 -1.6393
 2890TIP3    H2 8628   5.807   3.729   0.206  0.9196  0.1929  0.9163
 2891TIP3   OH2 8629   2.145   5.694   1.852  0.4074 -0.3226  0.0485
 2891TIP3    H1 8630   2.185   5.613   1.822 -1.2081 -0.7554 -1.1086
 2891TIP3    H2 8631   2.070   5.707   1.793 -0.1587  1.3008  1.0443
 2892TIP3   OH2 8632   2.412   0.474   0.102  0.2798 -0.7524 -0.7296
 2892TIP3    H1 8633   2.441   0.425   0.025  0.6208  0.8990 -1.7060
 2892TIP3    H2 8634   2.352   0.540   0.067  0.7820  0.3064  0.3500
 2893TIP3   OH2 8635   2.221   1.942   3.089  0.7169  0.2734  0.0393
 2893TIP3    H1 8636   2.290   1.876   3.095  1.6002  0.9976 -1.5489
 2893TIP3    H2 8637   2.267   2.025   3.102  0.4231  0.8612 -2.3570
 2894TIP3   OH2 8638   5.470   3.061   5.563 -0.0635  0.4570  0.6597
 2894TIP3    H1 8639   5.535   2.999   5.597 -1.2475 -1.1734  0.1263
 2894TIP3    H2 8640   5.483   3.140   5.615  0.5213 -0.7509  2.4951
 2895TIP3   OH2 8641   2.764   5.754   4.249  0.3714 -0.9565  0.4212
 2895TIP3    H1 8642   2.789   5.822   4.187  0.4921 -0.3158  1.1598
 2895TIP3    H2 8643   2.735   5.802   4.327  0.9082 -1.7485  1.1226
 2896TIP3   OH2 8644   5.990   5.362   2.049  0.2163  0.2830  0.6933
 2896TIP3    H1 8645   6.001   5.300   1.977 -3.0581  0.9691 -0.6001
 2896TIP3    H2 8646   5.983   5.307   2.127  0.4848 -0.7368  0.0232
 2897TIP3   OH2 8647   7.905   4.090   4.540  0.1076  0.1117  0.6024
 2897TIP3    H1 8648   7.870   4.039   4.614  0.6474 -1.6637 -0.3055
 2897TIP3    H2 8649   7.833   4.095   4.478  0.5800 -1.2346 -0.1109
 2898TIP3   OH2 8650   3.953   7.325   0.521  0.0857  0.1929 -0.3261
 2898TIP3    H1 8651   4.026   7.316   0.460  0.4577 -0.8864  0.2355
 2898TIP3    H2 8652   3.912   7.408   0.499  2.4767  1.6701  0.3850
 2899TIP3   OH2 8653   7.534   3.801   1.194 -0.5350 -0.1635 -0.0366
 2899TIP3    H1 8654   7.585   3.728   1.160 -1.4865 -1.1463  0.5948
 2899TIP3    H2 8655   7.542   3.794   1.289 -1.3895 -0.0006  0.0532
 2900TIP3   OH2 8656   4.320   7.745   1.053  0.0090 -0.2660  0.1210
 2900TIP3    H1 8657   4.332   7.671   1.113  0.6141 -1.0855 -0.9672
 2900TIP3    H2 8658   4.319   7.705   0.966  1.3478  1.1001 -0.5772
 2901TIP3   OH2 8659   5.150   0.840   6.619  0.0071 -0.2873 -0.0303
 2901TIP3    H1 8660   5.113   0.775   6.679  0.1486  1.3222  1.9402
 2901TIP3    H2 8661   5.075   0.895   6.595 -0.1024 -1.0980 -1.6179
 2902TIP3   OH2 8662   5.416   2.476   1.782 -0.0888  0.2941  0.1452
 2902TIP3    H1 8663   5.340   2.453   1.836  0.3508  0.5572  0.8965
 2902TIP3    H2 8664   5.428   2.401   1.724  0.8200 -1.0765  1.9860
 2903TIP3   OH2 8665   1.397   3.553   5.794  0.4353  0.1391 -0.5910
 2903TIP3    H1 8666   1.368   3.642   5.817 -0.0205 -0.1844  0.1209
 2903TIP3    H2 8667   1.485   3.546   5.832  0.2708  0.1144 -0.2102
 2904TIP3   OH2 8668   0.148   2.117   4.900  0.0994  0.1261  0.1119
 2904TIP3    H1 8669   0.069   2.169   4.913  0.4451  0.7007 -0.0180
 2904TIP3    H2 8670   0.155   2.063   4.979 -0.7369 -0.3640 -0.1392
 2905TIP3   OH2 8671   1.627   6.736   2.671  0.1812  0.4002  0.5164
 2905TIP3    H1 8672   1.592   6.662   2.623  0.4249  0.6214 -0.0166
 2905TIP3    H2 8673   1.665   6.698   2.750  0.4990 -0.0727  0.1461
 2906TIP3   OH2 8674   0.806   4.193   5.792 -0.2770  0.1922  0.3344
 2906TIP3    H1 8675   0.757   4.111   5.800 -2.1801  1.3984  1.8072
 2906TIP3    H2 8676   0.772   4.234   5.712  0.8848 -0.5372 -0.5657
 2907TIP3   OH2 8677   8.261   3.931   5.909 -0.2386  0.1859 -0.3876
 2907TIP3    H1 8678   8.260   3.835   5.907 -0.2175  0.1980 -1.1948
 2907TIP3    H2 8679   8.206   3.958   5.836  0.1873  0.7877 -0.5014
 2908TIP3   OH2 8680   2.381   5.825   3.578  0.2266  0.1358  0.2133
 2908TIP3    H1 8681   2.324   5.874   3.636  1.3090 -0.6929  2.0780
 2908TIP3    H2 8682   2.369   5.733   3.604  1.6532 -0.1437 -0.0038
 2909TIP3   OH2 8683   5.193   2.374   4.071  0.1662 -0.4135 -0.0783
 2909TIP3    H1 8684   5.158   2.285   4.060  1.5055 -0.7854 -1.8368
 2909TIP3    H2 8685   5.197   2.387   4.166 -3.0537 -0.9605  0.2403
 2910TIP3   OH2 8686   1.115   4.028   6.354 -0.0816  0.2700 -0.2726
 2910TIP3    H1 8687   1.157   4.082   6.422 -0.4864  0.0292  0.1751
 2910TIP3    H2 8688   1.073   4.091   6.296 -1.7521  0.4323  1.0241
 2911TIP3   OH2 8689   6.641   7.168   0.366 -0.4307 -0.7568 -0.0042
 2911TIP3    H1 8690   6.578   7.129   0.305  0.8090  0.6466 -2.2858
 2911TIP3    H2 8691   6.628   7.262   0.358  1.2023 -0.4737  0.3035
 2912TIP3   OH2 8692   5.330   6.435   4.558  0.2096  0.0179 -0.0546
 2912TIP3    H1 8693   5.381   6.361   4.525 -1.1048 -1.5468  1.2266
 2912TIP3    H2 8694   5.382   6.469   4.631  1.3146  1.0738 -1.2946
 2913TIP3   OH2 8695   5.158   4.249   6.364  0.6720 -0.3125  0.7180
 2913TIP3    H1 8696   5.082   4.306   6.353  0.0142 -1.2004  0.5627
 2913TIP3    H2 8697   5.232   4.310   6.375  0.2788  0.5926 -1.1995
 2914TIP3   OH2 8698   0.174   6.033   4.391  0.4679  0.0891  0.0668
 2914TIP3    H1 8699   0.246   6.009   4.449  0.4486 -1.1919 -0.4122
 2914TIP3    H2 8700   0.216   6.084   4.321  1.3072 -2.3368 -1.3065
 2915TIP3   OH2 8701   3.763   3.159   5.891  0.2186 -0.2191 -0.9551
 2915TIP3    H1 8702   3.711   3.108   5.953 -2.8218  1.2049 -2.1693
 2915TIP3    H2 8703   3.742   3.123   5.805  0.8805  0.7086 -1.5287
 2916TIP3   OH2 8704   4.388   4.986   5.907 -0.3549  0.0138  0.8482
 2916TIP3    H1 8705   4.359   5.006   5.818  0.4288  0.1590  0.6143
 2916TIP3    H2 8706   4.460   5.047   5.924  0.4046 -0.9063  1.0640
 2917TIP3   OH2 8707   3.585   2.150   5.584  0.3466  0.0848 -0.0853
 2917TIP3    H1 8708   3.543   2.074   5.543  0.4504 -1.7220  2.8492
 2917TIP3    H2 8709   3.529   2.224   5.560 -1.2649 -1.3321 -0.9399
 2918TIP3   OH2 8710   5.737   2.968   2.395 -0.7483 -0.2121  0.0155
 2918TIP3    H1 8711   5.749   3.020   2.316 -1.3199 -1.2611 -0.7902
 2918TIP3    H2 8712   5.814   2.988   2.449  0.0886 -0.1277 -1.1749
 2919TIP3   OH2 8713   2.179   4.982   6.171 -0.0141  0.2382 -0.0782
 2919TIP3    H1 8714   2.104   4.939   6.130 -0.1482  0.6512 -0.2691
 2919TIP3    H2 8715   2.218   5.035   6.101  0.1239  0.4572  0.1611
 2920TIP3   OH2 8716   2.109   2.734   3.929 -0.4623  0.3127 -0.4664
 2920TIP3    H1 8717   2.127   2.735   3.835  0.4380  1.6262 -0.3055
 2920TIP3    H2 8718   2.054   2.658   3.942  2.8879 -2.5552 -1.4215
 2921TIP3   OH2 8719   4.599   7.741   3.355  0.6414  0.0029  0.3927
 2921TIP3    H1 8720   4.666   7.677   3.379  1.2316  0.2235 -0.6477
 2921TIP3    H2 8721   4.591   7.797   3.432 -1.4832 -2.5910  2.2740
 2922TIP3   OH2 8722   1.066   0.026   3.192  0.4206  0.3057 -0.1801
 2922TIP3    H1 8723   1.140   0.085   3.176  1.0807  0.3648  2.6215
 2922TIP3    H2 8724   0.988   0.081   3.179  0.9574  1.0776 -0.1771
 2923TIP3   OH2 8725   7.136   3.635   4.808  0.1600  0.1843 -0.1034
 2923TIP3    H1 8726   7.086   3.638   4.890  0.3567  1.1918 -0.0111
 2923TIP3    H2 8727   7.100   3.705   4.755  0.7354  0.2092 -0.4696
 2924TIP3   OH2 8728   3.103   0.322   3.029  0.0343  0.1569 -0.0664
 2924TIP3    H1 8729   3.036   0.332   2.961 -1.0380  0.2406  0.9728
 2924TIP3    H2 8730   3.126   0.411   3.054 -0.1191  0.1243  0.1951
 2925TIP3   OH2 8731   7.926   3.282   6.531  0.4047 -0.2131  0.2589
 2925TIP3    H1 8732   8.000   3.239   6.486  1.5531  1.9443 -0.0494
 2925TIP3    H2 8733   7.859   3.214   6.537  1.0218 -1.2477 -2.7772
 2926TIP3   OH2 8734   4.529   6.068   6.561 -0.2775 -0.4050 -0.4041
 2926TIP3    H1 8735   4.448   6.050   6.608  0.5729 -0.8591  0.9285
 2926TIP3    H2 8736   4.589   6.000   6.589  0.5663 -0.0991 -1.4125
 2927TIP3   OH2 8737   2.266   2.243   3.509  0.0134  0.1316  0.3038
 2927TIP3    H1 8738   2.314   2.325   3.524 -1.3892  0.9050  0.7322
 2927TIP3    H2 8739   2.283   2.190   3.587 -0.0903  0.5223  0.5913
 2928TIP3   OH2 8740   0.508   6.790   5.900  0.1410  0.4108 -0.2457
 2928TIP3    H1 8741   0.538   6.879   5.880  1.1741  0.3691  0.9483
 2928TIP3    H2 8742   0.488   6.793   5.994  0.2576 -0.6428 -0.1807
 2929TIP3   OH2 8743   3.933   6.330   6.198 -0.0982  0.0405  0.3950
 2929TIP3    H1 8744   3.976   6.329   6.113 -1.4514 -1.5066 -0.3202
 2929TIP3    H2 8745   3.992   6.281   6.256  1.4609  2.1936  0.7526
 2930TIP3   OH2 8746   2.773   0.265   5.105  0.3088  0.6317 -0.2443
 2930TIP3    H1 8747   2.756   0.219   5.023  0.7006  2.2630 -1.2845
 2930TIP3    H2 8748   2.689   0.262   5.152 -0.1869  0.4382 -1.1114
 2931TIP3   OH2 8749   2.029   1.681   4.035 -0.1646 -0.0983 -0.6935
 2931TIP3    H1 8750   2.012   1.775   4.044  0.6522  0.1738 -1.6985
 2931TIP3    H2 8751   2.102   1.664   4.094 -1.9859 -0.6867  1.5035
 2932TIP3   OH2 8752   4.798   2.020   1.994  0.4048 -0.6994 -0.3503
 2932TIP3    H1 8753   4.860   2.080   1.955 -0.1051  0.2614  0.2812
 2932TIP3    H2 8754   4.824   2.013   2.086  0.2611 -1.1865 -0.3382
 2933TIP3   OH2 8755   6.228   5.690   0.262 -0.2749 -0.0612 -0.4405
 2933TIP3    H1 8756   6.240   5.595   0.263  0.5168  0.0398  1.2005
 2933TIP3    H2 8757   6.315   5.726   0.242 -0.4873  0.3311 -0.6803
 2934TIP3   OH2 8758   2.082   1.371   2.106 -0.3253 -0.5503  0.6079
 2934TIP3    H1 8759   2.019   1.433   2.068  0.7952 -0.0739 -0.5295
 2934TIP3    H2 8760   2.152   1.425   2.140  0.1167 -1.1444  0.6525
 2935TIP3   OH2 8761   2.147   0.633   3.004  0.5739 -0.4142 -0.3166
 2935TIP3    H1 8762   2.213   0.573   2.970  0.4799 -1.4333  1.2286
 2935TIP3    H2 8763   2.063   0.598   2.974  0.5974 -0.3369 -0.4734
 2936TIP3   OH2 8764   0.055   1.595   2.805  0.4551 -0.4295 -0.3868
 2936TIP3    H1 8765   0.099   1.522   2.761  1.0180 -0.5144  0.2892
 2936TIP3    H2 8766   0.083   1.587   2.897  0.0996  0.3259 -0.2082
 2937TIP3   OH2 8767   1.796   4.926   1.605  0.0604  0.1372 -0.4836
 2937TIP3    H1 8768   1.748   4.901   1.684  1.3961 -0.0931  0.2766
 2937TIP3    H2 8769   1.886   4.938   1.634  0.5699  0.1157 -1.9688
 2938TIP3   OH2 8770   0.482   0.452   1.205  0.2547  0.4273 -0.1388
 2938TIP3    H1 8771   0.404   0.507   1.195  0.2732  0.5484  0.3533
 2938TIP3    H2 8772   0.449   0.371   1.245  0.2039  0.0147 -1.0012
 2939TIP3   OH2 8773   7.774   4.984   6.561  0.0417  0.1842 -0.0954
 2939TIP3    H1 8774   7.843   4.959   6.623 -0.3799  1.3044  0.8445
 2939TIP3    H2 8775   7.700   4.927   6.583  0.2741 -0.2343 -0.3661
 2940TIP3   OH2 8776   6.174   2.162   4.419 -0.4663 -0.4319 -0.0780
 2940TIP3    H1 8777   6.087   2.135   4.393  0.1087 -1.5689 -0.9014
 2940TIP3    H2 8778   6.160   2.230   4.484 -1.9551 -0.0784 -0.7410
 2941TIP3   OH2 8779   3.666   0.164   3.739 -0.6398 -0.5218 -0.0669
 2941TIP3    H1 8780   3.736   0.225   3.764 -1.2556 -0.4421  1.5196
 2941TIP3    H2 8781   3.585   0.213   3.754 -1.1171 -1.4743  0.4935
 2942TIP3   OH2 8782   2.204   6.625   6.309  0.1677 -0.0940  0.2367
 2942TIP3    H1 8783   2.295   6.649   6.294  0.4218 -2.0268 -1.9248
 2942TIP3    H2 8784   2.192   6.545   6.258 -3.1398  0.9140 -0.8259
 2943TIP3   OH2 8785   8.048   7.367   6.560 -0.6872  0.0285 -0.3248
 2943TIP3    H1 8786   8.099   7.354   6.639  0.7267 -0.0384 -1.2167
 2943TIP3    H2 8787   8.112   7.387   6.492 -1.9807  1.7200 -1.1329
 2944TIP3   OH2 8788   2.943   3.103   6.479 -0.0419 -0.7927  0.2084
 2944TIP3    H1 8789   2.866   3.054   6.508  1.3708 -1.6401  2.7829
 2944TIP3    H2 8790   2.997   3.038   6.433 -1.0783 -0.0443 -2.2195
 2945TIP3   OH2 8791   2.979   1.294   1.518  0.4213  0.0311  0.1871
 2945TIP3    H1 8792   2.886   1.302   1.496  0.6802  0.6339 -0.7925
 2945TIP3    H2 8793   3.006   1.212   1.478  0.4046  0.0755  0.0831
 2946TIP3   OH2 8794   3.254   1.390   3.096 -1.0133 -0.3607 -0.3818
 2946TIP3    H1 8795   3.201   1.346   3.163 -1.9466  0.7946 -0.3358
 2946TIP3    H2 8796   3.344   1.359   3.112 -1.4450 -1.2187  0.4652
 2947TIP3   OH2 8797   0.913   1.713   3.852 -0.3650 -0.1242 -0.1662
 2947TIP3    H1 8798   0.999   1.753   3.867  0.7083 -2.2003 -0.4489
 2947TIP3    H2 8799   0.872   1.768   3.785  2.0524 -0.8326 -2.3908
 2948TIP3   OH2 8800   4.453   0.202   3.205  0.7257 -0.6614  0.6042
 2948TIP3    H1 8801   4.475   0.109   3.208  1.4842 -0.5064  0.1329
 2948TIP3    H2 8802   4.535   0.247   3.226  0.7056 -0.0810 -0.4998
 2949TIP3   OH2 8803   7.574   3.244   2.586  0.0809  0.0456  0.3836
 2949TIP3    H1 8804   7.576   3.277   2.676 -1.2946 -0.8763  0.7799
 2949TIP3    H2 8805   7.481   3.241   2.563  0.4311  1.0399 -1.3908
 2950TIP3   OH2 8806   5.009   1.712   3.778 -0.2996  0.3295 -0.4319
 2950TIP3    H1 8807   4.973   1.754   3.856  1.1777 -1.1684  1.1693
 2950TIP3    H2 8808   5.101   1.739   3.776 -0.0175 -0.6120 -0.9232
 2951TIP3   OH2 8809   3.945   2.940   6.273 -0.5541  0.3667 -0.2956
 2951TIP3    H1 8810   3.935   2.848   6.299 -0.7137 -0.1023 -1.9308
 2951TIP3    H2 8811   3.956   2.937   6.178  2.3742  1.8118 -0.1155
 2952TIP3   OH2 8812   6.248   0.759   1.102 -0.2769 -0.0514  0.1864
 2952TIP3    H1 8813   6.213   0.834   1.151  0.3188 -0.3936  1.1632
 2952TIP3    H2 8814   6.343   0.773   1.103 -0.2184 -0.4024 -0.3336
 2953TIP3   OH2 8815   4.517   4.286   5.544  0.5238  0.0246  0.2855
 2953TIP3    H1 8816   4.587   4.250   5.597 -0.7302 -0.8730  1.4149
 2953TIP3    H2 8817   4.475   4.209   5.504  0.7345  0.6046 -1.1325
 2954TIP3   OH2 8818   6.080   2.666   0.878 -0.0442  0.4764 -0.0123
 2954TIP3    H1 8819   6.173   2.690   0.874 -0.0397  0.2817 -1.4281
 2954TIP3    H2 8820   6.045   2.692   0.793 -0.7862 -1.5127 -0.3502
 2955TIP3   OH2 8821   0.606   1.414   1.662 -0.4412  0.1296 -0.3208
 2955TIP3    H1 8822   0.632   1.476   1.729  0.3581  0.3135 -0.7937
 2955TIP3    H2 8823   0.593   1.331   1.709 -0.4049  0.3835  0.1343
 2956TIP3   OH2 8824   1.147   4.500   0.528  0.4958  0.1628  0.0464
 2956TIP3    H1 8825   1.230   4.454   0.523 -0.3324 -1.4853  0.4478
 2956TIP3    H2 8826   1.091   4.441   0.579 -0.7352  1.4906  0.2838
 2957TIP3   OH2 8827   2.043   2.522   6.443 -0.4922 -0.2774  0.7045
 2957TIP3    H1 8828   2.023   2.595   6.383 -2.2752 -0.5183  0.9577
 2957TIP3    H2 8829   2.079   2.454   6.386  0.9185  0.6616  0.4189
 2958TIP3   OH2 8830   8.179   3.026   6.624  0.1450  0.0614  0.9264
 2958TIP3    H1 8831   8.184   3.019   6.529 -0.8656  0.4399  0.8266
 2958TIP3    H2 8832   8.200   3.117   6.643  0.3786 -0.0219  1.0660
 2959TIP3   OH2 8833   3.692   3.036   2.542  0.2557  0.0023 -0.0522
 2959TIP3    H1 8834   3.637   2.991   2.477 -0.8329  0.5334  0.4657
 2959TIP3    H2 8835   3.632   3.097   2.585  1.3338  0.7984  0.3560
 2960TIP3   OH2 8836   4.006   7.365   0.792  0.0438 -0.6412  0.0985
 2960TIP3    H1 8837   3.920   7.357   0.834  0.0674  1.6798  0.7222
 2960TIP3    H2 8838   3.988   7.351   0.699 -1.0447 -0.1035  0.2110
 2961TIP3   OH2 8839   5.742   0.351   5.880  0.1264  0.2001  0.1106
 2961TIP3    H1 8840   5.677   0.304   5.933 -0.6282 -0.6317 -1.4631
 2961TIP3    H2 8841   5.725   0.443   5.898  0.0815 -0.0649  1.5048
 2962TIP3   OH2 8842   4.626   1.715   1.276  0.0696 -0.1331 -0.6078
 2962TIP3    H1 8843   4.675   1.779   1.327  0.6111 -0.8047 -0.2703
 2962TIP3    H2 8844   4.690   1.677   1.216  0.1759 -1.5069  0.3059
 2963TIP3   OH2 8845   7.682   6.515   1.239  0.4256 -0.4184  0.6447
 2963TIP3    H1 8846   7.651   6.600   1.270  2.1904  0.1378  0.9945
 2963TIP3    H2 8847   7.750   6.490   1.302  0.6641 -1.5925 -0.0572
 2964TIP3   OH2 8848   5.165   6.720   6.707  0.1585 -0.2462  0.2680
 2964TIP3    H1 8849   5.175   6.625   6.701  2.5028 -0.1636  1.5872
 2964TIP3    H2 8850   5.202   6.753   6.625  0.0769 -0.4522  0.1478
 2965TIP3   OH2 8851   4.163   0.233   6.797 -0.5159 -0.0083  0.2608
 2965TIP3    H1 8852   4.208   0.198   6.720 -0.4549 -0.4444  0.4942
 2965TIP3    H2 8853   4.071   0.235   6.771 -0.4864 -0.0849  0.1462
 2966TIP3   OH2 8854   6.589   5.866   1.948  0.2044  0.2098  0.4355
 2966TIP3    H1 8855   6.642   5.907   2.016  1.5293 -1.2308  0.3206
 2966TIP3    H2 8856   6.517   5.825   1.996  2.9756 -3.8868  1.6154
 2967TIP3   OH2 8857   4.649   5.765   6.368  0.3441  0.0360 -0.0065
 2967TIP3    H1 8858   4.687   5.690   6.323  0.5750  0.0812  0.1105
 2967TIP3    H2 8859   4.587   5.727   6.430  1.3029 -0.1381  0.8744
 2968TIP3   OH2 8860   3.554   1.637   5.582 -0.2442  0.0617 -0.0444
 2968TIP3    H1 8861   3.548   1.554   5.629 -0.5280 -0.1486 -0.4373
 2968TIP3    H2 8862   3.628   1.682   5.621  0.6964 -0.9150 -0.6489
 2969TIP3   OH2 8863   6.050   3.168   0.848  0.4488 -0.4829 -0.0930
 2969TIP3    H1 8864   5.962   3.136   0.866  0.4961 -0.3222  0.4530
 2969TIP3    H2 8865   6.052   3.256   0.886  1.0984 -0.8063  0.6436
 2970TIP3   OH2 8866   1.666   3.585   3.961  0.4930 -0.0034  0.2503
 2970TIP3    H1 8867   1.675   3.491   3.948 -0.5906  0.1236 -1.7325
 2970TIP3    H2 8868   1.740   3.623   3.915  1.5689  0.1336  1.9761
 2971TIP3   OH2 8869   8.222   0.980   0.023  0.3116 -0.1547  0.6363
 2971TIP3    H1 8870   8.142   1.025   0.050  0.6379  0.7305  0.1551
 2971TIP3    H2 8871   8.216   0.894   0.064 -0.5545  0.1542  1.1764
 2972TIP3   OH2 8872   4.949   4.215   1.120  0.2358  0.1217  0.0737
 2972TIP3    H1 8873   5.036   4.204   1.158 -0.1758  0.9787  1.3067
 2972TIP3    H2 8874   4.918   4.298   1.154 -1.2156 -0.3310 -0.0801
 2973TIP3   OH2 8875   5.527   6.067   0.291  0.3687  0.1411  0.8459
 2973TIP3    H1 8876   5.557   6.097   0.376  1.8522  1.7781 -0.1787
 2973TIP3    H2 8877   5.435   6.095   0.287  0.1453 -0.3751  2.0716
 2974TIP3   OH2 8878   1.303   2.777   2.038  0.0268 -0.2361  0.1479
 2974TIP3    H1 8879   1.328   2.863   2.004 -1.7065  0.8612  1.4277
 2974TIP3    H2 8880   1.275   2.795   2.128 -0.2574 -2.1775  0.4780
 2975TIP3   OH2 8881   4.692   7.140   0.577 -0.3909  0.1294 -0.2848
 2975TIP3    H1 8882   4.694   7.069   0.513 -0.0122  0.3951 -0.5732
 2975TIP3    H2 8883   4.743   7.108   0.651  0.2595  0.3228 -0.6502
 2976TIP3   OH2 8884   3.839   4.644   0.310 -0.0661  0.0991 -0.2927
 2976TIP3    H1 8885   3.765   4.666   0.366 -0.4322 -1.6374 -0.0330
 2976TIP3    H2 8886   3.891   4.724   0.306 -1.9751  1.3966 -0.5611
 2977TIP3   OH2 8887   8.008   4.719   3.617  0.0437 -0.4907 -0.7661
 2977TIP3    H1 8888   8.102   4.704   3.629  0.0820  0.4447  0.3221
 2977TIP3    H2 8889   8.002   4.807   3.580 -0.4444  0.3355  1.1448
 2978TIP3   OH2 8890   2.728   5.419   1.516 -0.4614 -0.4557 -0.6851
 2978TIP3    H1 8891   2.678   5.455   1.589 -0.7546 -1.5821 -0.3129
 2978TIP3    H2 8892   2.671   5.431   1.440 -0.9908 -1.0457 -0.3918
 2979TIP3   OH2 8893   5.364   2.948   4.100  0.4949  0.2796  0.5736
 2979TIP3    H1 8894   5.297   2.882   4.082  2.0279 -1.6396  1.4243
 2979TIP3    H2 8895   5.392   2.930   4.189  0.1757  2.9152  1.2731
 2980TIP3   OH2 8896   5.519   6.095   5.253 -0.4506  0.1986 -0.0036
 2980TIP3    H1 8897   5.509   6.166   5.190 -0.7506 -0.2868 -0.5058
 2980TIP3    H2 8898   5.446   6.036   5.236  0.5831 -0.9735 -0.5614
 2981TIP3   OH2 8899   8.144   4.263   4.140  0.5076 -0.5344 -0.3093
 2981TIP3    H1 8900   8.099   4.209   4.204  0.1071 -0.4819 -0.5413
 2981TIP3    H2 8901   8.087   4.262   4.063 -0.8416  2.2872  0.5187
 2982TIP3   OH2 8902   1.941   3.762   4.860 -0.0381 -0.4321 -0.3472
 2982TIP3    H1 8903   2.012   3.783   4.921  1.1923 -0.5774 -1.6876
 2982TIP3    H2 8904   1.879   3.710   4.913  0.3219  0.5633  1.1142
 2983TIP3   OH2 8905   4.028   3.822   3.860  0.2344 -0.2960 -0.4793
 2983TIP3    H1 8906   4.077   3.903   3.850 -1.5766  1.0163  0.7872
 2983TIP3    H2 8907   4.054   3.788   3.946 -0.6874  0.1674 -0.0024
 2984TIP3   OH2 8908   5.150   2.193   6.125  0.2226 -1.0303  0.3308
 2984TIP3    H1 8909   5.122   2.206   6.216 -0.2605  2.3953 -0.1443
 2984TIP3    H2 8910   5.068   2.182   6.077  0.3010 -0.6203  0.0930
 2985TIP3   OH2 8911   4.759   1.867   5.413 -0.2078 -0.1682  0.0516
 2985TIP3    H1 8912   4.808   1.945   5.437  0.1718  0.3384 -2.1256
 2985TIP3    H2 8913   4.686   1.864   5.474  2.0192 -0.5110  2.8788
 2986TIP3   OH2 8914   5.395   5.193   0.831  0.1846  0.7420 -0.3434
 2986TIP3    H1 8915   5.333   5.121   0.822  2.0378 -0.8018 -1.5262
 2986TIP3    H2 8916   5.417   5.195   0.924  1.0640 -1.1147 -0.4770
 2987TIP3   OH2 8917   7.104   3.931   4.109  0.1242 -0.3415  0.0145
 2987TIP3    H1 8918   7.066   3.903   4.026  0.4047 -0.5884 -0.0313
 2987TIP3    H2 8919   7.198   3.929   4.095  0.1931 -0.9059  0.4989
 2988TIP3   OH2 8920   6.516   5.382   4.960  0.2027  0.3386 -0.0072
 2988TIP3    H1 8921   6.504   5.305   4.904 -2.0485  0.0775  0.7513
 2988TIP3    H2 8922   6.499   5.456   4.902 -1.0249  0.1090  0.0272
 2989TIP3   OH2 8923   6.289   6.856   3.137  1.1230 -0.1359 -0.1740
 2989TIP3    H1 8924   6.205   6.874   3.179  0.7372 -2.5564  0.2746
 2989TIP3    H2 8925   6.351   6.915   3.180 -0.0267  0.4329  0.7507
 2990TIP3   OH2 8926   0.907   2.009   0.100  0.1073 -0.0728 -0.1465
 2990TIP3    H1 8927   0.845   2.042   0.035 -0.8737 -3.1257 -0.9423
 2990TIP3    H2 8928   0.901   2.071   0.172 -0.3343  2.2967 -2.0728
 2991TIP3   OH2 8929   8.220   6.124   2.488 -0.5526 -0.7346  0.5867
 2991TIP3    H1 8930   8.157   6.096   2.554  0.1959 -2.4119  0.6575
 2991TIP3    H2 8931   8.239   6.215   2.509 -0.7654 -1.0599  2.3353
 2992TIP3   OH2 8932   7.922   5.932   5.408 -0.5996 -0.1199 -0.1176
 2992TIP3    H1 8933   7.989   5.997   5.426  0.6123 -1.4300  0.3441
 2992TIP3    H2 8934   7.840   5.981   5.403  0.5516  1.7568 -2.2500
 2993TIP3   OH2 8935   8.349   0.765   1.418  0.0283  0.2415 -0.0301
 2993TIP3    H1 8936   8.313   0.683   1.452 -0.6668  0.4000 -0.3703
 2993TIP3    H2 8937   8.273   0.813   1.386  0.3894  1.1640  0.4608
 2994TIP3   OH2 8938   7.293   7.168   3.912  0.4409 -0.2841 -0.0808
 2994TIP3    H1 8939   7.321   7.256   3.936 -1.8142  0.3596  0.3864
 2994TIP3    H2 8940   7.375   7.123   3.889  1.8689  1.3341  1.4743
 2995TIP3   OH2 8941   2.367   1.110   4.682 -0.2354 -0.1201  0.0772
 2995TIP3    H1 8942   2.431   1.131   4.614  0.8818  0.9461  1.4023
 2995TIP3    H2 8943   2.296   1.172   4.669  1.5132  2.4537  1.8795
 2996TIP3   OH2 8944   4.917   2.870   6.669  0.6599 -0.2623 -0.4700
 2996TIP3    H1 8945   4.886   2.851   6.581 -0.6437 -0.7957  0.0795
 2996TIP3    H2 8946   4.966   2.792   6.695  0.1638 -0.5285 -0.3358
 2997TIP3   OH2 8947   5.637   1.174   0.279 -0.2198  0.4612 -0.2662
 2997TIP3    H1 8948   5.714   1.230   0.272 -0.6382  1.0766 -0.0291
 2997TIP3    H2 8949   5.579   1.202   0.208 -0.5215  0.4750 -0.0210
 2998TIP3   OH2 8950   5.311   2.049   5.916  0.4326 -0.2889 -0.1268
 2998TIP3    H1 8951   5.258   2.125   5.941  0.1889 -0.0635 -1.2380
 2998TIP3    H2 8952   5.354   2.076   5.834  1.9482 -0.6207  0.5251
 2999TIP3   OH2 8953   4.989   2.884   3.190 -0.0503 -0.1875 -0.3116
 2999TIP3    H1 8954   5.020   2.903   3.278 -0.4592 -1.4644  0.1326
 2999TIP3    H2 8955   5.048   2.816   3.158  0.8495  1.0929 -1.5209
 3000TIP3   OH2 8956   0.690   3.599   3.638  0.7087  0.7416 -0.1292
 3000TIP3    H1 8957   0.704   3.670   3.700 -1.1492  0.8209  0.2556
 3000TIP3    H2 8958   0.704   3.519   3.688  1.0685  0.8218 -0.1024
 3001TIP3   OH2 8959   4.208   1.851   0.003  0.3633 -0.2597 -0.1121
 3001TIP3    H1 8960   4.143   1.818  -0.060  1.0614 -0.7206 -0.6010
 3001TIP3    H2 8961   4.165   1.843   0.088 -0.7829  0.8322 -0.5602
 3002TIP3   OH2 8962   6.105   5.401   5.861  0.3717  0.7266 -0.2057
 3002TIP3    H1 8963   6.104   5.413   5.766 -1.6227 -1.0710 -0.4716
 3002TIP3    H2 8964   6.168   5.332   5.876  0.9732  1.2758 -0.1620
 3003TIP3   OH2 8965   2.681   3.267   5.780  0.2728 -0.3783 -0.0513
 3003TIP3    H1 8966   2.669   3.200   5.847 -0.7446 -0.3842 -0.2266
 3003TIP3    H2 8967   2.727   3.221   5.709  0.9696 -0.4791  0.4572
 3004TIP3   OH2 8968   2.920   2.712   3.032 -0.5445  0.4705 -0.6645
 3004TIP3    H1 8969   2.992   2.652   3.051 -1.4743  0.0715  2.1210
 3004TIP3    H2 8970   2.963   2.789   2.994  1.0620 -0.5962 -1.1264
 3005TIP3   OH2 8971   1.935   2.377   2.597 -1.0376 -0.3775  0.0969
 3005TIP3    H1 8972   1.959   2.449   2.538  1.5208  0.0958  1.5401
 3005TIP3    H2 8973   1.959   2.298   2.549  1.9832  0.0344  0.7434
 3006TIP3   OH2 8974   8.111   4.219   5.389 -0.4683 -0.3126 -0.1863
 3006TIP3    H1 8975   8.086   4.186   5.303 -0.4899  0.1927 -0.3755
 3006TIP3    H2 8976   8.056   4.296   5.403  1.7452  1.5698 -1.1489
 3007TIP3   OH2 8977   6.199   6.979   4.357 -0.5382 -0.2682  0.5617
 3007TIP3    H1 8978   6.131   6.947   4.416 -0.1189  1.1975  1.9124
 3007TIP3    H2 8979   6.266   7.015   4.414  0.5860 -0.1356 -0.7854
 3008TIP3   OH2 8980   7.753   1.955   6.492  0.2112 -0.2832 -0.4120
 3008TIP3    H1 8981   7.668   1.930   6.455  0.6649  1.0202 -2.5436
 3008TIP3    H2 8982   7.732   2.011   6.566 -0.8113  0.1903 -1.0406
 3009TIP3   OH2 8983   5.243   0.337   1.293 -0.3046 -0.2944  0.0585
 3009TIP3    H1 8984   5.223   0.354   1.201  0.5202 -0.3087 -0.1296
 3009TIP3    H2 8985   5.329   0.376   1.307 -0.1534 -0.8221  0.6607
 3010TIP3   OH2 8986   3.604   1.006   3.098 -0.4152 -0.1270  0.1955
 3010TIP3    H1 8987   3.604   0.926   3.150  0.6098 -0.8006 -0.7916
 3010TIP3    H2 8988   3.697   1.027   3.086 -0.6553  0.6682 -0.3608
 3011TIP3   OH2 8989   5.045   5.918   6.682 -0.0458 -0.8019  0.0211
 3011TIP3    H1 8990   5.067   5.983   6.616 -0.9063  1.0540  1.4770
 3011TIP3    H2 8991   5.124   5.864   6.689  0.4269 -0.4134 -1.7469
 3012TIP3   OH2 8992   6.255   5.982   1.144 -0.3835  0.0860 -0.3437
 3012TIP3    H1 8993   6.208   5.902   1.170 -1.1080  0.7813  0.5842
 3012TIP3    H2 8994   6.313   6.000   1.218 -0.8711  0.8952 -0.1531
 3013TIP3   OH2 8995   4.821   0.561   5.588  0.3341  0.4517 -0.3417
 3013TIP3    H1 8996   4.751   0.508   5.550  1.4801 -0.5195 -1.2040
 3013TIP3    H2 8997   4.877   0.498   5.635  2.7976  0.4221 -2.9891
 3014TIP3   OH2 8998   5.651   2.113   5.789 -0.0481  0.5612  0.3474
 3014TIP3    H1 8999   5.671   2.059   5.713  0.6474 -0.3149  1.1260
 3014TIP3    H2 9000   5.737   2.136   5.825 -0.3348  1.9001  0.2489
 3015TIP3   OH2 9001   8.131   0.201   5.492 -1.0901  0.5354  0.0074
 3015TIP3    H1 9002   8.059   0.185   5.430  0.3373  2.8384 -2.4589
 3015TIP3    H2 9003   8.119   0.292   5.519  0.3025  0.6388  0.3511
 3016TIP3   OH2 9004   1.991   5.626   0.693 -0.1369 -0.3002  0.0962
 3016TIP3    H1 9005   1.978   5.719   0.680 -0.7732 -0.3660  0.2176
 3016TIP3    H2 9006   2.060   5.620   0.759  0.3915  0.0704 -0.4151
 3017TIP3   OH2 9007   1.897   4.389   6.523  0.3065 -0.2259 -0.5211
 3017TIP3    H1 9008   1.826   4.451   6.510  0.5121 -0.4070 -2.9686
 3017TIP3    H2 9009   1.859   4.304   6.504  1.0402 -0.3783 -1.3520
 3018TIP3   OH2 9010   5.570   5.729   6.167 -0.2912 -0.2996 -0.0662
 3018TIP3    H1 9011   5.555   5.777   6.249  1.0552  0.2307 -0.1062
 3018TIP3    H2 9012   5.602   5.643   6.195  1.1880  0.2391 -0.0112
 3019TIP3   OH2 9013   7.013   2.870   3.584  0.2282 -0.0809  0.4249
 3019TIP3    H1 9014   7.056   2.913   3.657  1.7349 -1.3223  0.3334
 3019TIP3    H2 9015   7.074   2.801   3.558 -0.9949 -0.6945 -0.9692
 3020TIP3   OH2 9016   5.116   4.857   3.737  0.0699  0.1696  0.1872
 3020TIP3    H1 9017   5.100   4.780   3.682 -0.8521  1.6078 -1.6390
 3020TIP3    H2 9018   5.208   4.850   3.761  0.5768 -0.4025 -1.7419
 3021TIP3   OH2 9019   6.656   4.231   5.378 -0.0409  0.0846  0.0818
 3021TIP3    H1 9020   6.607   4.151   5.358 -1.9307  0.6460  2.0752
 3021TIP3    H2 9021   6.691   4.259   5.293 -1.7035 -1.3227 -1.1590
 3022TIP3   OH2 9022   0.164   6.812   1.733  0.1529  0.1569  0.5590
 3022TIP3    H1 9023   0.256   6.792   1.750  0.7186  3.1061  1.5457
 3022TIP3    H2 9024   0.123   6.811   1.820  0.0967  2.3522  0.5988
 3023TIP3   OH2 9025   6.836   4.382   4.325  0.3420  0.0140  0.7090
 3023TIP3    H1 9026   6.904   4.319   4.301 -0.2536 -0.2575 -0.3109
 3023TIP3    H2 9027   6.884   4.453   4.367  1.4192  0.3226 -0.9282
 3024TIP3   OH2 9028   0.697   1.843   2.495  0.2583  0.5143 -0.4505
 3024TIP3    H1 9029   0.640   1.855   2.418  2.8489 -2.3858 -3.1272
 3024TIP3    H2 9030   0.777   1.891   2.473  0.6913  0.4632  0.9385
 3025TIP3   OH2 9031   6.774   6.871   1.342 -0.1030 -0.2152 -0.0330
 3025TIP3    H1 9032   6.780   6.913   1.256 -0.4106  1.8298  0.8823
 3025TIP3    H2 9033   6.804   6.938   1.404 -0.0664 -1.5696  1.4817
 3026TIP3   OH2 9034   7.549   3.169   5.204 -0.1323  0.4744 -0.1144
 3026TIP3    H1 9035   7.600   3.095   5.171  0.2098 -0.1306  1.6929
 3026TIP3    H2 9036   7.581   3.184   5.293 -0.6211  2.4151 -0.2093
 3027TIP3   OH2 9037   7.710   3.497   4.117 -0.6207  0.2245  0.6514
 3027TIP3    H1 9038   7.717   3.409   4.081 -1.6557 -0.1953  1.4419
 3027TIP3    H2 9039   7.763   3.551   4.058  0.9141 -1.0839  0.7693
 3028TIP3   OH2 9040   3.133   2.447   1.623  0.6989  0.5837 -0.5901
 3028TIP3    H1 9041   3.141   2.429   1.716  0.4212  0.2879 -0.6203
 3028TIP3    H2 9042   3.176   2.532   1.611 -0.2530  1.1746  0.0039
 3029TIP3   OH2 9043   8.233   2.382   3.633  0.7436  0.1173  0.1157
 3029TIP3    H1 9044   8.237   2.469   3.673 -2.0166  0.2859  0.1850
 3029TIP3    H2 9045   8.292   2.329   3.686  0.4968  1.3564  1.7031
 3030TIP3   OH2 9046   3.440   2.981   0.788 -0.4933  0.0593  0.0086
 3030TIP3    H1 9047   3.525   2.936   0.783 -0.3654  0.0111  1.9106
 3030TIP3    H2 9048   3.379   2.914   0.818 -0.9185  0.4442  0.0140
 3031TIP3   OH2 9049   6.926   3.775   3.932 -0.4576  0.1042  0.0428
 3031TIP3    H1 9050   6.940   3.688   3.969  4.4707  0.3654 -0.4853
 3031TIP3    H2 9051   6.945   3.765   3.839  2.3268  1.9361  0.2938
 3032TIP3   OH2 9052   7.917   0.221   0.301  0.6226  0.1286  0.0421
 3032TIP3    H1 9053   7.899   0.315   0.298 -0.0874  0.0427  1.0976
 3032TIP3    H2 9054   7.953   0.206   0.388  2.0873 -0.3699 -0.6166
 3033TIP3   OH2 9055   7.862   7.865   3.886  0.1362 -0.2661 -0.0047
 3033TIP3    H1 9056   7.839   7.787   3.936 -1.4835  0.8715  1.1218
 3033TIP3    H2 9057   7.860   7.836   3.794  0.5246 -1.7503  0.4298
 3034TIP3   OH2 9058   3.146   2.095   5.508 -0.0392 -0.0474 -0.3648
 3034TIP3    H1 9059   3.144   2.023   5.444  0.6516  0.0658 -0.5240
 3034TIP3    H2 9060   3.111   2.057   5.588 -2.4176  0.2181 -1.1928
 3035TIP3   OH2 9061   6.441   2.493   2.684  0.3535 -0.2709  0.0632
 3035TIP3    H1 9062   6.356   2.511   2.645  0.5193  0.8159  0.1784
 3035TIP3    H2 9063   6.450   2.557   2.755  1.2802 -0.3407  0.0316
 3036TIP3   OH2 9064   5.342   6.126   2.628 -0.3646  0.1086 -0.4594
 3036TIP3    H1 9065   5.396   6.046   2.627 -0.3191  0.1372 -0.3232
 3036TIP3    H2 9066   5.271   6.106   2.689  0.4238  0.6771  0.6825
 3037TIP3   OH2 9067   6.832   2.615   6.411 -0.4779  0.2195 -0.6220
 3037TIP3    H1 9068   6.890   2.545   6.440 -1.4577 -1.0432 -1.5705
 3037TIP3    H2 9069   6.832   2.678   6.483 -0.1396 -1.1159  0.5813
 3038TIP3   OH2 9070   5.687   0.140   1.687 -0.0425 -0.3619 -0.1772
 3038TIP3    H1 9071   5.696   0.188   1.769 -0.7393  0.1253 -0.3800
 3038TIP3    H2 9072   5.768   0.159   1.639  0.9694 -1.6848  0.9054
 3039TIP3   OH2 9073   6.011   6.358   3.918 -0.6802  0.5015  0.0718
 3039TIP3    H1 9074   6.003   6.264   3.900 -1.0658  0.2305  1.5245
 3039TIP3    H2 9075   5.921   6.389   3.925 -0.5481  0.6978  0.9181
 3040TIP3   OH2 9076   8.050   6.034   6.097 -0.4750 -0.0103 -0.2075
 3040TIP3    H1 9077   7.991   6.099   6.057 -0.0561  0.3111 -0.3162
 3040TIP3    H2 9078   8.113   6.014   6.028 -0.7563 -0.7384 -0.2586
 3041TIP3   OH2 9079   5.030   4.845   1.154  0.6087 -0.0593  0.4888
 3041TIP3    H1 9080   4.993   4.885   1.232  0.2313 -2.2889  1.5362
 3041TIP3    H2 9081   4.957   4.795   1.116  1.3147 -0.6674 -0.1045
 3042TIP3   OH2 9082   0.963   6.097   3.528 -0.1745  0.9648 -0.1862
 3042TIP3    H1 9083   0.984   6.004   3.528  0.3590  1.0857  0.4152
 3042TIP3    H2 9084   0.870   6.100   3.504 -0.0093  0.3268 -0.9502
 3043TIP3   OH2 9085   4.884   2.308   0.845 -0.8846  0.3402  0.2251
 3043TIP3    H1 9086   4.961   2.361   0.866 -0.6456 -0.1689  0.6269
 3043TIP3    H2 9087   4.913   2.218   0.852 -0.8437  0.1114 -2.0268
 3044TIP3   OH2 9088   2.354   6.910   4.392  0.4456 -0.1287  0.2883
 3044TIP3    H1 9089   2.373   6.916   4.298  1.9896 -0.4608  0.5575
 3044TIP3    H2 9090   2.299   6.833   4.400 -2.9935  1.9820 -0.7692
 3045TIP3   OH2 9091   6.987   6.374   0.921  0.2996 -0.0172  0.2737
 3045TIP3    H1 9092   7.017   6.304   0.979  1.1210 -0.4839 -0.6807
 3045TIP3    H2 9093   6.911   6.412   0.966  1.2149 -0.0030  1.9181
 3046TIP3   OH2 9094   4.371   5.445   5.285  0.2305  0.6719  0.4726
 3046TIP3    H1 9095   4.370   5.414   5.194  0.4843  3.6103 -0.6462
 3046TIP3    H2 9096   4.445   5.399   5.325 -0.3049 -1.1947 -0.5631
 3047TIP3   OH2 9097   0.394   4.004   1.049 -0.7035  0.3966 -0.1291
 3047TIP3    H1 9098   0.413   4.001   0.955  2.6975 -1.8464  0.4263
 3047TIP3    H2 9099   0.328   3.936   1.062 -0.3932 -0.0492 -0.7981
 3048TIP3   OH2 9100   8.154   0.995   1.443  0.0629  0.1512 -0.5725
 3048TIP3    H1 9101   8.203   1.038   1.373  0.9710 -1.9686 -1.3329
 3048TIP3    H2 9102   8.071   0.969   1.401 -0.1426  0.4523 -0.3526
 3049TIP3   OH2 9103   2.358   2.823   3.776 -0.0602  0.0262 -0.6925
 3049TIP3    H1 9104   2.341   2.841   3.868  0.5126  0.4128 -0.6610
 3049TIP3    H2 9105   2.450   2.843   3.764  0.1809 -1.2337 -1.0587
 3050TIP3   OH2 9106   3.779   1.023   1.344 -0.1217  0.1320  0.5418
 3050TIP3    H1 9107   3.711   1.068   1.294 -0.2694 -2.3372 -1.6823
 3050TIP3    H2 9108   3.858   1.032   1.292  0.5474  0.3692  1.5728
 3051TIP3   OH2 9109   8.211   0.750   2.927  0.0203 -0.2450  0.0490
 3051TIP3    H1 9110   8.186   0.663   2.895  0.7557 -0.2161 -0.6451
 3051TIP3    H2 9111   8.189   0.809   2.855  2.1422 -0.2403 -0.6624
 3052TIP3   OH2 9112   7.329   3.297   5.086 -0.6537  0.4232  0.8509
 3052TIP3    H1 9113   7.249   3.256   5.120 -0.6906 -0.1454  0.1095
 3052TIP3    H2 9114   7.400   3.242   5.119 -0.6875 -0.1093  0.0513
 3053TIP3   OH2 9115   3.494   0.296   4.671 -0.5949 -0.7724  0.6710
 3053TIP3    H1 9116   3.487   0.315   4.765 -2.8044  0.7748  0.2660
 3053TIP3    H2 9117   3.432   0.224   4.657 -0.8138 -0.5179  0.3090
 3054TIP3   OH2 9118   5.529   4.444   0.675 -0.2445  0.4740  0.6212
 3054TIP3    H1 9119   5.451   4.490   0.644 -0.8865 -0.2203  1.1589
 3054TIP3    H2 9120   5.510   4.352   0.659  0.1963  0.2549  1.3221
 3055TIP3   OH2 9121   8.219   5.660   1.099 -0.0810  0.1658 -0.0594
 3055TIP3    H1 9122   8.141   5.628   1.144 -0.0948 -1.0214 -0.8913
 3055TIP3    H2 9123   8.245   5.737   1.149 -1.4032  0.2023  0.6200
 3056TIP3   OH2 9124   5.830   0.952   3.633  0.2252 -0.2164 -0.3987
 3056TIP3    H1 9125   5.786   0.877   3.671 -0.5499 -1.2834 -3.1522
 3056TIP3    H2 9126   5.773   1.026   3.652  0.6137 -0.3991  1.6813
 3057TIP3   OH2 9127   7.241   4.297   4.133  0.0483  0.6148 -0.0011
 3057TIP3    H1 9128   7.202   4.301   4.221 -1.0450  1.8209 -0.4995
 3057TIP3    H2 9129   7.167   4.311   4.074  0.9435  0.9492 -1.0728
 3058TIP3   OH2 9130   5.738   7.461   1.531  1.0562  0.7945 -0.5720
 3058TIP3    H1 9131   5.719   7.378   1.487  1.2175  0.5607 -0.2087
 3058TIP3    H2 9132   5.741   7.525   1.461 -0.4001  0.7242 -0.7119
 3059TIP3   OH2 9133   0.739   0.511   1.782 -0.0098 -0.0821  0.0577
 3059TIP3    H1 9134   0.755   0.418   1.771  0.4197  0.0805 -0.7882
 3059TIP3    H2 9135   0.768   0.530   1.872  0.3486 -0.6661  0.0716
 3060TIP3   OH2 9136   4.832   2.464   4.091 -0.0467  0.0286  0.2600
 3060TIP3    H1 9137   4.868   2.441   4.177  0.6097 -0.1452 -0.0487
 3060TIP3    H2 9138   4.834   2.382   4.041 -0.8990  0.0181  0.2415
 3061TIP3   OH2 9139   7.104   2.397   2.440  0.0970  0.3092 -0.0590
 3061TIP3    H1 9140   7.009   2.409   2.436  0.2350  1.4079 -0.2537
 3061TIP3    H2 9141   7.132   2.449   2.515  0.4587 -0.7273  0.5567
 3062TIP3   OH2 9142   8.065   4.516   2.179 -0.4812 -0.1971 -0.3183
 3062TIP3    H1 9143   7.997   4.484   2.239 -0.5316 -2.3217 -1.4178
 3062TIP3    H2 9144   8.060   4.457   2.103  1.3355  0.7711 -1.2531
 3063TIP3   OH2 9145   6.348   6.833   0.518 -0.2275 -0.2445 -0.1953
 3063TIP3    H1 9146   6.424   6.879   0.552 -1.3249  0.1564  1.9308
 3063TIP3    H2 9147   6.320   6.883   0.442 -0.5398  1.8035  1.2076
 3064TIP3   OH2 9148   0.727   2.453   1.815  0.7414  0.4309  0.3041
 3064TIP3    H1 9149   0.754   2.389   1.750  0.0072 -0.3970  0.7938
 3064TIP3    H2 9150   0.771   2.534   1.789  0.7349  0.0267 -1.0031
 3065TIP3   OH2 9151   1.908   1.783   2.402 -0.7465 -0.1278 -0.6605
 3065TIP3    H1 9152   1.999   1.809   2.411  0.0233 -2.5962 -0.6087
 3065TIP3    H2 9153   1.875   1.782   2.492 -0.8030  0.5810 -0.6633
 3066TIP3   OH2 9154   0.340   2.526   2.915 -0.2072  0.3241 -0.2189
 3066TIP3    H1 9155   0.342   2.544   3.009 -0.5088  1.4980 -0.4149
 3066TIP3    H2 9156   0.247   2.515   2.895 -0.1209 -0.2254 -0.3353
 3067TIP3   OH2 9157   4.756   3.766   3.524 -0.9075 -0.2937 -0.2773
 3067TIP3    H1 9158   4.773   3.683   3.568 -0.9715  0.8496  2.0474
 3067TIP3    H2 9159   4.722   3.823   3.592  1.3241  2.3702 -1.2134
 3068TIP3   OH2 9160   6.958   2.216   1.645  0.1531  0.3024 -0.3128
 3068TIP3    H1 9161   6.878   2.185   1.687 -0.4338  0.4831 -1.2735
 3068TIP3    H2 9162   7.024   2.213   1.714 -0.3430 -1.2113  0.1235
 3069TIP3   OH2 9163   4.035   1.092   6.135 -0.4180 -0.2050  0.4737
 3069TIP3    H1 9164   4.077   1.165   6.089 -1.0312 -0.0047  0.2146
 3069TIP3    H2 9165   4.013   1.030   6.065  0.1578 -0.6736  0.7013
 3070TIP3   OH2 9166   6.417   7.666   5.038  0.1413 -0.2694  0.0908
 3070TIP3    H1 9167   6.329   7.637   5.062 -0.0350 -0.5263 -0.8211
 3070TIP3    H2 9168   6.468   7.655   5.118 -0.3612 -1.3461  0.2883
 3071TIP3   OH2 9169   4.983   1.435   0.505 -0.6007  0.1150 -0.4958
 3071TIP3    H1 9170   5.051   1.370   0.490 -1.4522 -1.1893  1.0167
 3071TIP3    H2 9171   4.978   1.484   0.423  2.1065  0.2415 -0.6550
 3072TIP3   OH2 9172   1.033   6.791   5.244  0.6393 -0.2765 -0.4575
 3072TIP3    H1 9173   1.099   6.787   5.175  0.9128  0.1523 -0.2202
 3072TIP3    H2 9174   0.977   6.715   5.227 -0.8578  1.2117 -2.7495
 3073TIP3   OH2 9175   4.418   4.458   6.227  0.1892 -0.2564 -0.2284
 3073TIP3    H1 9176   4.348   4.460   6.162 -0.3822 -1.6652  0.3113
 3073TIP3    H2 9177   4.374   4.473   6.311  0.7689  0.4473 -0.0379
 3074TIP3   OH2 9178   6.309   4.057   2.053  0.2065  0.1858 -0.4057
 3074TIP3    H1 9179   6.308   4.073   1.959  2.6901 -0.8845 -0.6940
 3074TIP3    H2 9180   6.400   4.036   2.073 -0.4168 -0.4986  2.0967
 3075TIP3   OH2 9181   3.574   6.378   0.501  0.4150 -0.1361  0.4737
 3075TIP3    H1 9182   3.662   6.414   0.512 -0.1222  2.0289 -1.4933
 3075TIP3    H2 9183   3.515   6.450   0.524 -0.7622 -0.5551 -1.0675
 3076TIP3   OH2 9184   1.136   0.777   6.068 -0.5320  0.5677  0.2753
 3076TIP3    H1 9185   1.065   0.787   6.004 -2.9895  1.1517  2.8813
 3076TIP3    H2 9186   1.108   0.831   6.143  3.0975  1.4522  1.1725
 3077TIP3   OH2 9187   0.965   3.008   2.159  0.2136 -0.1385 -0.4799
 3077TIP3    H1 9188   1.035   2.943   2.156  0.7532  0.3804  0.4633
 3077TIP3    H2 9189   0.970   3.045   2.247 -1.8238 -0.7058 -0.0712
 3078TIP3   OH2 9190   3.201   3.212   4.912  0.3857 -0.0534 -0.4746
 3078TIP3    H1 9191   3.152   3.147   4.963  0.3771 -0.0992 -0.5424
 3078TIP3    H2 9192   3.231   3.164   4.835 -0.0407  0.1534 -0.7689
 3079TIP3   OH2 9193   3.038   4.700   2.682 -0.4173 -0.2353 -0.6921
 3079TIP3    H1 9194   2.956   4.654   2.665 -1.3352  1.0336  0.1847
 3079TIP3    H2 9195   3.014   4.793   2.684  0.8524  0.0987  0.5527
 3080TIP3   OH2 9196   8.164   0.797   1.667 -0.0140 -0.2221  0.1077
 3080TIP3    H1 9197   8.138   0.706   1.657  1.4037 -0.5012 -1.3915
 3080TIP3    H2 9198   8.125   0.842   1.592 -0.1802  0.2858  0.4921
 3081TIP3   OH2 9199   7.696   4.719   3.868 -0.1312  0.0642  0.4120
 3081TIP3    H1 9200   7.781   4.724   3.912  0.6182 -1.0235 -0.8239
 3081TIP3    H2 9201   7.694   4.798   3.813  0.8744 -0.7265 -0.8286
 3082TIP3   OH2 9202   3.781   3.086   4.698 -0.4317 -0.8432 -0.1059
 3082TIP3    H1 9203   3.828   3.144   4.638 -0.6099 -0.7061 -0.1137
 3082TIP3    H2 9204   3.760   3.009   4.645  0.1295 -1.0798  0.0036
 3083TIP3   OH2 9205   3.357   1.464   0.627 -0.0955  1.1950  0.3114
 3083TIP3    H1 9206   3.330   1.532   0.688  0.0377 -0.6799  2.5841
 3083TIP3    H2 9207   3.275   1.422   0.599 -0.0418  0.5141  1.1291
 3084TIP3   OH2 9208   4.579   7.554   5.323 -0.4084 -0.8141 -0.4171
 3084TIP3    H1 9209   4.545   7.552   5.233 -1.3257 -0.4639 -0.0894
 3084TIP3    H2 9210   4.625   7.637   5.330 -0.3855 -0.8160 -0.5398
 3085TIP3   OH2 9211   7.745   3.460   5.654  0.2418  0.0604  0.6668
 3085TIP3    H1 9212   7.779   3.537   5.609  2.2725  0.1026  2.1842
 3085TIP3    H2 9213   7.822   3.409   5.676 -0.9165 -1.3440  1.6387
 3086TIP3   OH2 9214   8.078   2.928   4.516  0.0180 -0.1707 -0.1204
 3086TIP3    H1 9215   8.097   3.013   4.556  2.7681 -0.6691 -0.2004
 3086TIP3    H2 9216   8.057   2.871   4.590 -0.2026  0.1865  0.0936
 3087TIP3   OH2 9217   5.521   0.106   0.293 -0.7349 -0.0878  0.0421
 3087TIP3    H1 9218   5.438   0.125   0.337  1.0495  2.2376  2.7524
 3087TIP3    H2 9219   5.555   0.029   0.338 -0.8495 -0.3025 -0.2353
 3088TIP3   OH2 9220   0.224   3.500   1.280 -0.1121 -0.1793 -0.5254
 3088TIP3    H1 9221   0.139   3.516   1.239  0.0617 -0.3543 -0.9658
 3088TIP3    H2 9222   0.287   3.539   1.220 -0.0331  3.1505  1.4831
 3089TIP3   OH2 9223   5.496   0.644   3.253  0.4408 -0.3981  0.4295
 3089TIP3    H1 9224   5.540   0.670   3.172  0.8750  0.9959  1.0793
 3089TIP3    H2 9225   5.545   0.568   3.284  0.1728 -1.0335 -0.6825
 3090TIP3   OH2 9226   7.463   3.114   5.802 -0.0758  0.2931 -0.1810
 3090TIP3    H1 9227   7.550   3.148   5.822  1.3088 -0.7895 -3.5032
 3090TIP3    H2 9228   7.406   3.191   5.803  1.1557  1.2348  0.8521
 3091TIP3   OH2 9229   2.549   4.601   0.829 -0.2649 -0.1977  0.1772
 3091TIP3    H1 9230   2.597   4.526   0.863  0.7080  0.5716  0.5559
 3091TIP3    H2 9231   2.607   4.639   0.763 -0.2444  0.8490  0.7740
 3092TIP3   OH2 9232   7.598   7.442   6.034  0.2144 -0.3726 -0.1286
 3092TIP3    H1 9233   7.573   7.443   5.942  0.7217  0.4602 -0.2694
 3092TIP3    H2 9234   7.620   7.351   6.052  1.0824 -0.3785 -1.1147
 3093TIP3   OH2 9235   4.079   3.396   0.214 -0.2947 -0.1816 -0.4205
 3093TIP3    H1 9236   4.101   3.487   0.193 -2.4155  0.7851  1.1752
 3093TIP3    H2 9237   4.147   3.369   0.276  0.2226  0.3752 -0.7269
 3094TIP3   OH2 9238   8.059   4.012   4.221 -0.5612  0.3675  0.5239
 3094TIP3    H1 9239   8.143   4.004   4.177 -0.8706  0.7849 -0.1572
 3094TIP3    H2 9240   7.994   3.998   4.152 -1.0609  1.7174  0.6863
 3095TIP3   OH2 9241   8.153   3.088   1.196  0.0096 -0.1810  0.4892
 3095TIP3    H1 9242   8.193   3.058   1.115  0.0305 -0.4769  0.6093
 3095TIP3    H2 9243   8.194   3.173   1.213  1.6194 -1.1097  1.3668
 3096TIP3   OH2 9244   5.329   2.191   5.442 -0.0770 -0.1626 -0.6326
 3096TIP3    H1 9245   5.417   2.189   5.481 -0.6334 -2.8886  0.6843
 3096TIP3    H2 9246   5.298   2.101   5.447 -3.2051  0.7992 -0.5120
 3097TIP3   OH2 9247   3.177   1.841   1.799 -0.2267  0.4028 -0.1889
 3097TIP3    H1 9248   3.198   1.879   1.884 -0.6981  0.9422 -0.3094
 3097TIP3    H2 9249   3.246   1.776   1.785  0.3444  0.8996  0.2195
 3098TIP3   OH2 9250   1.043   0.908   4.184  0.0718  0.0264 -0.1929
 3098TIP3    H1 9251   0.976   0.976   4.175 -1.5994 -1.7433 -2.5982
 3098TIP3    H2 9252   1.008   0.848   4.250 -0.9092 -0.9706 -1.5467
 3099TIP3   OH2 9253   7.291   6.045   1.240  0.6571  0.0387  0.9074
 3099TIP3    H1 9254   7.324   6.110   1.179 -1.4824  0.1443 -0.2175
 3099TIP3    H2 9255   7.246   6.096   1.308 -1.2589 -0.1772 -0.1184
 3100TIP3   OH2 9256   3.739   7.572   4.287 -0.3832 -0.3223 -0.1428
 3100TIP3    H1 9257   3.655   7.606   4.255 -0.7128  0.0451  1.0243
 3100TIP3    H2 9258   3.779   7.648   4.330  1.2426 -0.0988 -1.9444
 3101TIP3   OH2 9259   1.302   7.646   5.328  0.1550 -0.2772 -0.2946
 3101TIP3    H1 9260   1.383   7.614   5.289 -1.1833 -2.7319 -1.2843
 3101TIP3    H2 9261   1.330   7.702   5.400  2.7018  0.8706 -2.0233
 3102TIP3   OH2 9262   6.109   4.587   4.547  0.0260 -0.2348  0.0181
 3102TIP3    H1 9263   6.180   4.555   4.601  1.3443 -0.3174 -1.6703
 3102TIP3    H2 9264   6.031   4.580   4.602  1.1858 -0.8870  1.6401
 3103TIP3   OH2 9265   2.275   5.168   2.836  0.2307  0.3577 -0.2703
 3103TIP3    H1 9266   2.304   5.258   2.853  0.8926  0.0904  0.0345
 3103TIP3    H2 9267   2.201   5.156   2.896 -1.0453  1.2984 -1.5859
 3104TIP3   OH2 9268   1.998   4.208   6.237 -0.0396  0.6276  0.4809
 3104TIP3    H1 9269   2.079   4.258   6.223  0.1004  0.6597  1.3881
 3104TIP3    H2 9270   2.028   4.126   6.278 -0.4030  0.3469  0.1915
 3105TIP3   OH2 9271   3.531   5.264   4.541 -0.4027 -0.0051 -0.2521
 3105TIP3    H1 9272   3.612   5.293   4.583  0.2413 -1.6030 -0.3456
 3105TIP3    H2 9273   3.463   5.282   4.605  0.2825 -0.3725  0.5904
 3106TIP3   OH2 9274   1.158   5.129   4.698 -0.2301 -0.1134  0.6194
 3106TIP3    H1 9275   1.216   5.075   4.644 -0.0464 -0.2921  0.9933
 3106TIP3    H2 9276   1.211   5.207   4.717  0.2412 -0.6721  1.7204
 3107TIP3   OH2 9277   6.512   6.262   1.631  0.4224  0.2702  0.7233
 3107TIP3    H1 9278   6.467   6.279   1.549  1.8112  1.9152  0.2266
 3107TIP3    H2 9279   6.502   6.168   1.646 -2.1756  0.3861  0.1300
 3108TIP3   OH2 9280   0.716   2.344   4.334  0.0648  0.3638  0.2114
 3108TIP3    H1 9281   0.803   2.349   4.293 -0.7544 -0.2257 -1.6627
 3108TIP3    H2 9282   0.726   2.278   4.402  1.0457  0.1833 -0.0843
 3109TIP3   OH2 9283   0.270   4.291   5.479 -0.1560  0.4841  0.0416
 3109TIP3    H1 9284   0.332   4.226   5.445 -1.0091 -1.1916  1.5431
 3109TIP3    H2 9285   0.274   4.281   5.574  0.2059  3.1784  0.4004
 3110TIP3   OH2 9286   4.981   6.673   6.239 -0.1204 -0.4196  0.2236
 3110TIP3    H1 9287   4.915   6.729   6.199  1.3919  1.5408  0.3334
 3110TIP3    H2 9288   4.969   6.685   6.333  0.8010  0.5172  0.2425
 3111TIP3   OH2 9289   5.055   3.744   2.983 -0.0441 -0.4816  0.1579
 3111TIP3    H1 9290   5.049   3.650   2.963 -0.0641 -1.3590  3.6196
 3111TIP3    H2 9291   4.996   3.786   2.921  0.2249 -2.6847 -1.7280
 3112TIP3   OH2 9292   6.538   0.180   2.902  0.1117 -0.4152 -0.2193
 3112TIP3    H1 9293   6.570   0.221   2.821  0.9102 -1.0523 -0.2314
 3112TIP3    H2 9294   6.587   0.099   2.909 -0.7787 -0.9232  0.3152
 3113TIP3   OH2 9295   8.195   6.841   5.248 -0.2822  0.5842 -0.4648
 3113TIP3    H1 9296   8.279   6.830   5.291 -0.1086 -3.0667 -1.4282
 3113TIP3    H2 9297   8.146   6.900   5.306  2.1685  1.1944  1.1568
 3114TIP3   OH2 9298   0.477   1.115   2.013 -0.1621  0.6288  0.0433
 3114TIP3    H1 9299   0.531   1.194   2.012  0.3532  0.2813 -0.3510
 3114TIP3    H2 9300   0.436   1.115   2.099 -0.5446  1.5728 -0.1345
 3115TIP3   OH2 9301   3.573   3.053   4.123 -0.0493  0.1970  0.1556
 3115TIP3    H1 9302   3.613   3.130   4.082 -1.5443  0.0659 -1.6815
 3115TIP3    H2 9303   3.540   3.086   4.207 -0.2283  1.4723 -0.3795
 3116TIP3   OH2 9304   6.659   4.936   2.584  0.0399  0.5458 -0.0200
 3116TIP3    H1 9305   6.700   4.861   2.628  0.1935  0.1213 -0.8743
 3116TIP3    H2 9306   6.576   4.948   2.630  0.9544  1.2302  1.5386
 3117TIP3   OH2 9307   3.185   7.658   6.446  0.3296 -0.6051 -0.1686
 3117TIP3    H1 9308   3.204   7.603   6.522 -0.6103 -1.4723 -0.5319
 3117TIP3    H2 9309   3.246   7.628   6.379  0.2742 -0.7479 -0.1569
 3118TIP3   OH2 9310   3.473   4.482   5.314 -0.0698  0.4076 -0.0927
 3118TIP3    H1 9311   3.397   4.535   5.336  0.9874  1.6944  0.5790
 3118TIP3    H2 9312   3.457   4.398   5.359 -2.7422 -0.7313 -2.8332
 3119TIP3   OH2 9313   1.647   3.375   1.750 -0.3632 -0.1685  0.3866
 3119TIP3    H1 9314   1.562   3.347   1.717  0.1233  2.2223 -3.4960
 3119TIP3    H2 9315   1.626   3.448   1.808 -1.0075  0.0140 -0.0571
 3120TIP3   OH2 9316   3.192   6.437   2.033  0.0353 -0.3320 -0.0533
 3120TIP3    H1 9317   3.266   6.485   1.996  0.6834 -0.1029  1.4570
 3120TIP3    H2 9318   3.116   6.469   1.985  0.9931 -1.3058 -2.3506
 3121TIP3   OH2 9319   3.659   2.949   3.069 -0.1860  0.3233  0.0458
 3121TIP3    H1 9320   3.651   2.866   3.117 -1.4053  0.1405 -0.4348
 3121TIP3    H2 9321   3.667   3.015   3.138  0.0769 -0.1221  0.4549
 3122TIP3   OH2 9322   7.343   4.031   1.111  0.0173 -0.3735 -0.2645
 3122TIP3    H1 9323   7.284   4.033   1.187 -1.1463 -0.9653 -1.1261
 3122TIP3    H2 9324   7.384   4.117   1.111 -1.9324  0.6273 -0.4471
 3123TIP3   OH2 9325   5.408   1.167   4.196 -0.0447  0.2601 -0.7053
 3123TIP3    H1 9326   5.439   1.081   4.166 -0.2971  0.1646 -0.6972
 3123TIP3    H2 9327   5.466   1.230   4.153 -0.1618  0.1049 -1.1035
 3124TIP3   OH2 9328   3.901   1.645   0.647 -0.2614  0.5334 -0.4239
 3124TIP3    H1 9329   3.970   1.698   0.685 -0.2652  0.9021 -0.9149
 3124TIP3    H2 9330   3.852   1.706   0.591 -1.0611  0.3115  0.0115
 3125TIP3   OH2 9331   0.976   0.998   2.675  0.3412 -0.2855 -0.0131
 3125TIP3    H1 9332   0.964   0.907   2.645  0.3738  0.0434 -1.0689
 3125TIP3    H2 9333   0.899   1.015   2.729 -0.9135 -0.2051 -1.7310
 3126TIP3   OH2 9334   0.123   1.600   2.435  0.3271  0.0344  0.5284
 3126TIP3    H1 9335   0.088   1.685   2.408  0.3688  0.9194  2.9482
 3126TIP3    H2 9336   0.172   1.619   2.515  1.0087 -2.1561  0.7006
 3127TIP3   OH2 9337   6.993   4.583   0.158 -0.0343  0.8103 -0.2057
 3127TIP3    H1 9338   7.066   4.643   0.145  1.6530 -0.9924  0.5322
 3127TIP3    H2 9339   6.977   4.585   0.253 -0.6919  0.8942 -0.3114
 3128TIP3   OH2 9340   6.865   6.335   3.153 -0.9846  0.6287  0.2362
 3128TIP3    H1 9341   6.922   6.390   3.207 -1.1928 -0.3753  1.5006
 3128TIP3    H2 9342   6.829   6.396   3.088  0.5067  1.5404  0.1951
 3129TIP3   OH2 9343   7.529   1.817   3.397 -0.5845  0.0245  0.3247
 3129TIP3    H1 9344   7.516   1.724   3.379  0.3488 -0.0292 -0.0957
 3129TIP3    H2 9345   7.516   1.860   3.312  1.6241 -0.0018 -0.0699
 3130TIP3   OH2 9346   2.302   3.350   4.688 -0.1738  0.2397  0.0472
 3130TIP3    H1 9347   2.300   3.269   4.738 -0.8061  0.4751  0.4208
 3130TIP3    H2 9348   2.395   3.368   4.675 -0.0177 -1.2233 -1.1846
 3131TIP3   OH2 9349   1.317   3.403   6.475  0.0992  0.5302 -0.1910
 3131TIP3    H1 9350   1.272   3.471   6.425  1.4858  0.9267 -0.9310
 3131TIP3    H2 9351   1.254   3.379   6.544 -1.3854  0.7790 -1.3998
 3132TIP3   OH2 9352   7.302   0.429   1.268  0.0893  0.3327 -0.2554
 3132TIP3    H1 9353   7.213   0.439   1.303  0.5507  0.7966  0.8289
 3132TIP3    H2 9354   7.333   0.347   1.305  0.1578  0.2417 -0.5181
 3133TIP3   OH2 9355   5.106   0.802   5.339  0.5435 -0.3182 -0.1606
 3133TIP3    H1 9356   5.159   0.785   5.261  0.1801  1.2138 -0.7873
 3133TIP3    H2 9357   5.170   0.821   5.407  0.9544  2.7929 -1.2117
 3134TIP3   OH2 9358   4.012   5.739   2.319  0.5091  0.7297  0.2947
 3134TIP3    H1 9359   3.951   5.811   2.304  2.7124  2.5132 -0.6504
 3134TIP3    H2 9360   4.068   5.738   2.241  1.6418 -0.8688  1.0743
 3135TIP3   OH2 9361   0.840   4.443   5.938  0.3409 -0.1181  0.0452
 3135TIP3    H1 9362   0.816   4.364   5.888 -0.2985  0.2960 -0.3188
 3135TIP3    H2 9363   0.809   4.426   6.027 -0.6802  0.1106 -0.2540
 3136TIP3   OH2 9364   0.954   1.562   0.097  0.5634 -0.0174  0.3706
 3136TIP3    H1 9365   1.031   1.506   0.083  1.0204  0.7286 -0.1677
 3136TIP3    H2 9366   0.920   1.579   0.009  2.0230  2.7334  0.2325
 3137TIP3   OH2 9367   4.760   2.235   0.607 -0.2915 -0.1300  0.0653
 3137TIP3    H1 9368   4.751   2.277   0.693  1.8761  0.0046  0.2834
 3137TIP3    H2 9369   4.674   2.196   0.591 -0.7836 -0.1159  2.2709
 3138TIP3   OH2 9370   7.262   7.320   5.434 -0.5832 -0.0875  0.0232
 3138TIP3    H1 9371   7.172   7.286   5.429 -0.4580 -0.8928  2.0530
 3138TIP3    H2 9372   7.317   7.242   5.424 -0.1533  0.1891  0.2493
 3139TIP3   OH2 9373   6.888   4.866   5.360  0.0584  0.0356 -0.0672
 3139TIP3    H1 9374   6.818   4.891   5.301  0.1557  1.6073  0.4394
 3139TIP3    H2 9375   6.897   4.771   5.348 -2.2555 -0.2406 -0.0045
 3140TIP3   OH2 9376   0.723   4.287   5.534  0.4621 -0.0774 -0.2483
 3140TIP3    H1 9377   0.813   4.255   5.532  0.2825 -0.6924  0.7826
 3140TIP3    H2 9378   0.722   4.359   5.471  1.4444 -0.6456 -0.9524
 3141TIP3   OH2 9379   7.882   5.897   2.833 -0.3963  0.0920 -0.1821
 3141TIP3    H1 9380   7.832   5.837   2.778 -3.7045  1.4341  1.0676
 3141TIP3    H2 9381   7.935   5.841   2.889 -2.6011 -1.6805  0.2709
 3142TIP3   OH2 9382   7.566   4.935   1.979  0.0407  0.4514 -0.4323
 3142TIP3    H1 9383   7.603   5.021   1.997  0.3181  0.5422 -1.3709
 3142TIP3    H2 9384   7.604   4.910   1.895 -0.7226 -0.1979 -0.5970
 3143TIP3   OH2 9385   5.526   7.073   3.604 -0.5147 -0.0196  0.1677
 3143TIP3    H1 9386   5.600   7.022   3.570  0.5132  1.5698 -0.1004
 3143TIP3    H2 9387   5.538   7.071   3.699 -0.6601 -0.5305  0.1773
 3144TIP3   OH2 9388   4.213   3.991   0.421  0.0648  0.3535  0.0672
 3144TIP3    H1 9389   4.143   4.041   0.379 -0.9548 -1.9836 -1.2221
 3144TIP3    H2 9390   4.171   3.947   0.495  0.6915  0.5311  0.5466
 3145TIP3   OH2 9391   3.634   5.387   4.091  0.0836 -0.0823  0.0939
 3145TIP3    H1 9392   3.674   5.407   4.176 -1.6330  1.2166  0.6626
 3145TIP3    H2 9393   3.548   5.350   4.113 -2.6867  4.8758 -0.8248
 3146TIP3   OH2 9394   7.052   4.246   6.313  0.4499 -0.2611  0.3622
 3146TIP3    H1 9395   6.965   4.249   6.273  0.6801  0.3433 -0.0878
 3146TIP3    H2 9396   7.079   4.154   6.303  0.1868 -0.2839 -0.1754
 3147TIP3   OH2 9397   6.845   0.917   1.919  0.0055  0.3933  0.0273
 3147TIP3    H1 9398   6.875   0.903   1.829 -0.3787 -0.4481  0.0250
 3147TIP3    H2 9399   6.919   0.891   1.974 -0.6291 -1.5655  0.0180
 3148TIP3   OH2 9400   4.226   5.519   3.452  0.5732  0.0120 -0.6078
 3148TIP3    H1 9401   4.293   5.543   3.516 -1.4762  0.5996  1.4492
 3148TIP3    H2 9402   4.270   5.458   3.393  2.5217 -0.7085  1.4538
 3149TIP3   OH2 9403   6.012   1.121   6.743  0.0169  0.1787  0.4884
 3149TIP3    H1 9404   6.093   1.104   6.790  0.4538  1.0106  0.0645
 3149TIP3    H2 9405   6.028   1.088   6.654 -0.1474  0.2364  0.4356
 3150TIP3   OH2 9406   7.546   1.458   4.260 -0.7956  0.3071  0.0288
 3150TIP3    H1 9407   7.626   1.501   4.229 -0.9074 -0.1796 -0.9494
 3150TIP3    H2 9408   7.517   1.512   4.334 -0.0314  0.9675 -0.1432
 3151TIP3   OH2 9409   2.769   2.955   5.702  0.1216  0.2586  0.1908
 3151TIP3    H1 9410   2.810   2.872   5.678  0.6152  0.3000  0.8552
 3151TIP3    H2 9411   2.755   3.000   5.619 -0.0277 -0.4276 -0.1657
 3152TIP3   OH2 9412   7.069   6.196   2.807 -0.0836  0.7635  0.2272
 3152TIP3    H1 9413   7.132   6.251   2.761  1.3224 -1.8783 -1.2421
 3152TIP3    H2 9414   7.104   6.186   2.895  1.7943 -0.7950 -0.6104
 3153TIP3   OH2 9415   6.010   3.403   4.865  0.2174 -0.0904 -0.0093
 3153TIP3    H1 9416   6.105   3.415   4.862  0.1149  0.7726 -0.0531
 3153TIP3    H2 9417   5.994   3.326   4.810  0.8670 -0.0876 -0.2100
 3154TIP3   OH2 9418   6.074   0.298   1.703 -0.3889 -0.4908  0.2498
 3154TIP3    H1 9419   6.081   0.390   1.678  0.7170 -0.9777 -1.3950
 3154TIP3    H2 9420   6.021   0.258   1.634 -1.4487 -0.9852  1.3205
 3155TIP3   OH2 9421   6.413   1.838   5.010  0.3568 -0.0617  0.0473
 3155TIP3    H1 9422   6.496   1.796   4.988  0.6439  0.4140  0.2063
 3155TIP3    H2 9423   6.417   1.923   4.966 -0.3589 -0.3195 -0.5463
 3156TIP3   OH2 9424   0.740   3.727   5.236  0.2123 -0.8074 -0.2507
 3156TIP3    H1 9425   0.655   3.694   5.266  0.4599 -1.5663 -0.3611
 3156TIP3    H2 9426   0.731   3.734   5.141  0.3761 -1.1986 -0.2962
 3157TIP3   OH2 9427   1.539   6.995   5.660  0.7083 -0.0160 -0.2909
 3157TIP3    H1 9428   1.510   7.065   5.601 -1.9966  0.2441  1.1571
 3157TIP3    H2 9429   1.483   6.921   5.638 -0.5865  0.1691  1.9738
 3158TIP3   OH2 9430   6.380   7.447   2.486  0.1675 -0.1760 -0.5698
 3158TIP3    H1 9431   6.365   7.354   2.473  1.0265 -0.5005  0.6325
 3158TIP3    H2 9432   6.437   7.473   2.413  0.5257 -0.7594 -0.5042
 3159TIP3   OH2 9433   3.799   4.219   1.173 -0.1600  0.5895 -0.3533
 3159TIP3    H1 9434   3.833   4.265   1.097  1.3331  1.9029  1.0211
 3159TIP3    H2 9435   3.744   4.149   1.137  2.0201 -0.0776 -2.6545
 3160TIP3   OH2 9436   3.137   2.530   0.410 -0.4154  0.2165 -0.6551
 3160TIP3    H1 9437   3.075   2.462   0.384 -1.2632  0.4992  0.5597
 3160TIP3    H2 9438   3.198   2.484   0.469 -0.0397  0.1585 -1.0850
 3161TIP3   OH2 9439   3.116   4.358   5.806 -0.4487 -0.3203 -0.3524
 3161TIP3    H1 9440   3.128   4.337   5.899 -0.3009 -0.0681 -0.3136
 3161TIP3    H2 9441   3.108   4.273   5.763  0.9961 -0.4941 -0.3153
 3162TIP3   OH2 9442   2.487   6.272   2.403 -0.5408  0.1819 -0.3778
 3162TIP3    H1 9443   2.422   6.336   2.373 -0.3027  1.5217  1.7463
 3162TIP3    H2 9444   2.536   6.248   2.324 -1.0249  2.1826 -1.3473
 3163TIP3   OH2 9445   6.913   7.181   0.468  0.0565  0.4076 -0.5039
 3163TIP3    H1 9446   6.820   7.161   0.453 -0.0324 -0.0781  0.6429
 3163TIP3    H2 9447   6.936   7.131   0.546  1.5062 -0.1267 -1.2281
 3164TIP3   OH2 9448   5.396   0.553   1.524 -0.5182  0.2534 -0.0172
 3164TIP3    H1 9449   5.346   0.567   1.444 -0.4505 -0.8701 -0.2832
 3164TIP3    H2 9450   5.384   0.633   1.575 -1.7053  0.4264 -0.5342
 3165TIP3   OH2 9451   3.493   2.151   1.017  0.1960 -0.5979  0.2976
 3165TIP3    H1 9452   3.453   2.087   0.959 -0.4332 -1.6718  1.8478
 3165TIP3    H2 9453   3.423   2.174   1.079  1.1336 -0.2972  1.2709
 3166TIP3   OH2 9454   5.890   1.648   5.455  0.0897 -0.8071 -0.2985
 3166TIP3    H1 9455   5.863   1.737   5.435  1.3960 -0.4951 -0.7122
 3166TIP3    H2 9456   5.966   1.632   5.400  2.0654 -0.9153  2.2715
 3167TIP3   OH2 9457   3.142   3.367   5.316 -0.2856  0.0689 -0.3690
 3167TIP3    H1 9458   3.120   3.460   5.313 -0.5898  0.3244  3.8411
 3167TIP3    H2 9459   3.060   3.323   5.294 -1.0703  0.8917  0.7653
 3168TIP3   OH2 9460   4.325   5.103   3.503 -0.3586 -0.3276  0.0857
 3168TIP3    H1 9461   4.353   5.011   3.509 -0.6578 -0.4246  0.0320
 3168TIP3    H2 9462   4.230   5.098   3.503 -0.3804 -0.1134 -1.3736
 3169TIP3   OH2 9463   6.548   4.054   5.646  0.8269  0.1323  0.1040
 3169TIP3    H1 9464   6.599   4.013   5.576  0.4619 -2.4508  1.2552
 3169TIP3    H2 9465   6.521   4.138   5.609  3.0699  0.1519 -1.7547
 3170TIP3   OH2 9466   6.412   7.090   6.539 -0.2664  0.6026 -0.3176
 3170TIP3    H1 9467   6.397   7.105   6.632  2.3547 -0.9968  0.4539
 3170TIP3    H2 9468   6.410   6.995   6.529  1.7938  0.6226 -1.4137
 3171TIP3   OH2 9469   6.628   1.198   0.718 -0.1141  0.0210  0.0050
 3171TIP3    H1 9470   6.588   1.113   0.697 -0.3081 -0.9428  3.6298
 3171TIP3    H2 9471   6.708   1.176   0.765 -0.0716  1.8321  0.8602
 3172TIP3   OH2 9472   3.159   4.181   2.418  0.1438 -0.1131  0.3035
 3172TIP3    H1 9473   3.175   4.268   2.382  1.3091 -0.4229  0.0579
 3172TIP3    H2 9474   3.245   4.142   2.426 -0.1798 -0.4992  2.3364
 3173TIP3   OH2 9475   5.456   2.711   1.549 -0.1496  0.7716  0.2662
 3173TIP3    H1 9476   5.403   2.747   1.620  1.3529 -0.0419  1.8933
 3173TIP3    H2 9477   5.440   2.616   1.553  0.8980  0.5888  0.3635
 3174TIP3   OH2 9478   5.771   4.126   0.426 -0.2413 -0.4930  0.3799
 3174TIP3    H1 9479   5.681   4.120   0.394  0.6970  0.4921 -2.8161
 3174TIP3    H2 9480   5.779   4.053   0.488 -3.0875 -0.8220  0.5216
 3175TIP3   OH2 9481   2.920   6.862   4.633  0.2406  0.1096 -0.6766
 3175TIP3    H1 9482   2.917   6.945   4.681 -0.6946 -0.7005  0.7385
 3175TIP3    H2 9483   2.956   6.885   4.548  1.9829  1.6335  0.3811
 3176TIP3   OH2 9484   2.698   6.642   0.409 -0.2627  0.1565 -0.3508
 3176TIP3    H1 9485   2.670   6.601   0.491 -1.0362 -0.2603 -0.8154
 3176TIP3    H2 9486   2.723   6.731   0.434 -1.1684  0.2548  0.2215
 3177TIP3   OH2 9487   4.398   1.048   3.433 -0.0818 -0.2639 -0.0075
 3177TIP3    H1 9488   4.407   1.111   3.505  1.0195 -1.1958  0.6977
 3177TIP3    H2 9489   4.328   1.085   3.378 -1.6297 -0.0130  2.0194
 3178TIP3   OH2 9490   6.156   1.652   3.702  0.0734  0.1089  0.0753
 3178TIP3    H1 9491   6.220   1.669   3.632 -0.0967  0.1412 -0.0721
 3178TIP3    H2 9492   6.209   1.651   3.782  0.2047  0.5119 -0.0020
 3179TIP3   OH2 9493   7.502   7.249   6.385  0.8404  0.1463  0.4044
 3179TIP3    H1 9494   7.538   7.243   6.296 -1.2983  1.4607 -0.6247
 3179TIP3    H2 9495   7.577   7.275   6.439  2.2546 -0.9266 -0.9255
 3180TIP3   OH2 9496   6.443   2.782   3.329  0.0097 -0.5413 -0.1234
 3180TIP3    H1 9497   6.524   2.731   3.329 -0.3797 -1.1667  0.1552
 3180TIP3    H2 9498   6.429   2.805   3.237  0.5494 -0.3478 -0.1629
 3181TIP3   OH2 9499   2.889   3.962   2.689  0.2354 -0.3270  0.0550
 3181TIP3    H1 9500   2.876   4.016   2.612 -0.1344  0.2198  0.5014
 3181TIP3    H2 9501   2.974   3.990   2.724 -0.9940  1.7007  1.6503
 3182TIP3   OH2 9502   6.507   0.284   3.159  0.1340 -0.4904 -0.8567
 3182TIP3    H1 9503   6.496   0.268   3.065  0.2970 -0.8293 -0.8190
 3182TIP3    H2 9504   6.467   0.209   3.202  0.6855 -0.6836 -0.6735
 3183TIP3   OH2 9505   1.325   5.853   6.701  0.3142 -0.5984  0.0263
 3183TIP3    H1 9506   1.291   5.868   6.613  0.3442  1.3083  0.2919
 3183TIP3    H2 9507   1.411   5.895   6.702 -0.7677  1.8024  1.6723
 3184TIP3   OH2 9508   8.230   6.324   1.770  0.5512 -0.0366  0.7413
 3184TIP3    H1 9509   8.277   6.285   1.696 -1.7447  0.4056 -1.0496
 3184TIP3    H2 9510   8.297   6.334   1.838  2.5663 -1.2707 -0.9424
 3185TIP3   OH2 9511   2.794   3.756   3.338 -0.6867  0.6173  0.1906
 3185TIP3    H1 9512   2.855   3.783   3.269  0.5257 -1.4494  0.3764
 3185TIP3    H2 9513   2.750   3.837   3.364  0.2537  1.7739 -1.6142
 3186TIP3   OH2 9514   0.613   0.565   5.882  0.1064 -0.2620 -0.6483
 3186TIP3    H1 9515   0.694   0.514   5.881  0.0118 -0.4830  0.6275
 3186TIP3    H2 9516   0.553   0.516   5.827  0.2681 -1.1194 -0.0820
 3187TIP3   OH2 9517   0.781   2.971   0.924 -0.1973 -0.5750 -0.2584
 3187TIP3    H1 9518   0.746   2.994   1.010  0.8885  0.4135 -0.0463
 3187TIP3    H2 9519   0.766   2.877   0.915  0.5057 -0.8784  1.4190
 3188TIP3   OH2 9520   1.939   3.855   4.603  0.3142 -0.1178  0.1528
 3188TIP3    H1 9521   1.979   3.942   4.601 -0.2950  0.1749 -2.1134
 3188TIP3    H2 9522   1.941   3.829   4.696  0.3553  2.3638  0.9091
 3189TIP3   OH2 9523   0.366   4.499   1.857  0.3439 -0.1933 -0.4643
 3189TIP3    H1 9524   0.340   4.587   1.884 -0.3237 -0.8716  1.1863
 3189TIP3    H2 9525   0.446   4.480   1.906 -1.1191 -1.6031  1.5435
 3190TIP3   OH2 9526   6.370   2.280   4.044 -0.0160 -0.1198 -0.2295
 3190TIP3    H1 9527   6.275   2.273   4.040 -0.2182  0.6394  1.8337
 3190TIP3    H2 9528   6.394   2.239   4.127  1.5301 -0.7929 -0.9672
 3191TIP3   OH2 9529   6.837   1.337   0.232 -0.1478 -0.3719 -0.5591
 3191TIP3    H1 9530   6.792   1.362   0.313  1.3209  0.6021  0.0132
 3191TIP3    H2 9531   6.775   1.360   0.163 -2.2158 -2.9347  0.2602
 3192TIP3   OH2 9532   1.632   3.314   6.401  0.5096  0.0574 -0.7841
 3192TIP3    H1 9533   1.554   3.327   6.455  1.1522  0.1146  0.1561
 3192TIP3    H2 9534   1.694   3.380   6.431  1.5318 -1.0679 -0.3183
 3193TIP3   OH2 9535   0.257   3.275   0.710 -0.0031  0.4699  0.2602
 3193TIP3    H1 9536   0.347   3.270   0.677 -0.1925 -0.4122 -0.1510
 3193TIP3    H2 9537   0.265   3.320   0.795  1.0350 -0.9994  0.9814
 3194TIP3   OH2 9538   2.860   7.111   5.770  0.2282  0.7024 -0.3260
 3194TIP3    H1 9539   2.949   7.124   5.801  0.1982 -0.2438  0.2140
 3194TIP3    H2 9540   2.862   7.136   5.678  1.1032  0.4871 -0.3704
 3195TIP3   OH2 9541   4.984   2.178   1.193  0.0041  0.4404  0.3122
 3195TIP3    H1 9542   4.974   2.146   1.104 -0.3650 -1.1957  0.8896
 3195TIP3    H2 9543   5.066   2.139   1.223  1.5072  3.0930 -0.1140
 3196TIP3   OH2 9544   6.326   1.789   2.997 -0.2610  0.4827 -0.5708
 3196TIP3    H1 9545   6.415   1.817   3.019 -0.9086  1.7572  0.5845
 3196TIP3    H2 9546   6.272   1.826   3.066 -1.5717 -1.1994 -0.6400
 3197TIP3   OH2 9547   2.378   7.040   3.107 -0.3110  0.1028  0.5904
 3197TIP3    H1 9548   2.428   7.078   3.034 -2.4345  2.3720  0.2116
 3197TIP3    H2 9549   2.437   6.974   3.144  1.8202  0.6448 -1.5769
 3198TIP3   OH2 9550   0.773   6.638   3.814  0.3058 -0.2380 -0.1079
 3198TIP3    H1 9551   0.834   6.694   3.766  1.5246 -1.4090  0.0258
 3198TIP3    H2 9552   0.737   6.579   3.748 -1.1818  0.8283 -0.2984
 3199TIP3   OH2 9553   2.923   4.847   5.574 -0.2664 -0.4158  0.0670
 3199TIP3    H1 9554   2.831   4.871   5.583 -0.4847 -1.5479  0.9975
 3199TIP3    H2 9555   2.971   4.924   5.603 -0.9216  0.0113  0.0351
 3200TIP3   OH2 9556   1.949   4.776   4.427  0.1605 -0.0051 -0.0227
 3200TIP3    H1 9557   2.011   4.709   4.398 -1.6600 -1.6728 -0.2898
 3200TIP3    H2 9558   1.865   4.750   4.387 -1.0824  1.1724  1.6882
 3201TIP3   OH2 9559   7.229   5.812   5.554  0.2576  0.4365  0.6393
 3201TIP3    H1 9560   7.264   5.724   5.565 -0.3043 -0.1797 -1.7765
 3201TIP3    H2 9561   7.304   5.870   5.569  1.1284 -0.5744  0.3009
 3202TIP3   OH2 9562   4.799   6.555   0.849  0.1719 -0.0765 -0.7498
 3202TIP3    H1 9563   4.728   6.561   0.786 -0.0207 -0.7341 -0.5965
 3202TIP3    H2 9564   4.873   6.520   0.799  0.7009  1.4970 -1.1493
 3203TIP3   OH2 9565   5.843   6.799   0.866  0.0223  0.1998  0.4775
 3203TIP3    H1 9566   5.779   6.819   0.934 -0.6479  1.2859 -0.4356
 3203TIP3    H2 9567   5.800   6.732   0.812 -0.0588  0.4224  0.2655
 3204TIP3   OH2 9568   1.074   6.026   6.065  0.5904  0.2835  0.4638
 3204TIP3    H1 9569   1.060   5.978   5.983 -0.1500  1.8175 -0.3498
 3204TIP3    H2 9570   1.075   5.958   6.132 -1.7450 -0.7846 -0.4789
 3205TIP3   OH2 9571   7.699   2.264   2.007 -0.0032  0.1571  0.6849
 3205TIP3    H1 9572   7.747   2.336   1.965 -0.0915  0.1551  0.5813
 3205TIP3    H2 9573   7.615   2.261   1.962 -0.1278  0.2039  0.9147
 3206TIP3   OH2 9574   3.168   7.572   3.504 -0.0159 -0.0861  0.2707
 3206TIP3    H1 9575   3.213   7.488   3.507  0.5885  0.1088 -1.8133
 3206TIP3    H2 9576   3.227   7.633   3.549  0.7485 -0.2969 -0.4254
 3207TIP3   OH2 9577   6.060   3.546   6.321  0.5363 -0.0336  0.5516
 3207TIP3    H1 9578   6.118   3.582   6.389  0.5086  0.5065  0.2976
 3207TIP3    H2 9579   6.119   3.502   6.260  0.5263 -0.8533  1.1197
 3208TIP3   OH2 9580   8.037   4.275   6.282  0.2126 -0.4245 -1.0160
 3208TIP3    H1 9581   7.990   4.289   6.364  1.5466 -0.1646 -0.2532
 3208TIP3    H2 9582   7.984   4.213   6.233 -0.9620 -0.0436 -0.2569
 3209TIP3   OH2 9583   3.360   6.769   2.958  0.3325 -0.0971  0.3103
 3209TIP3    H1 9584   3.405   6.839   2.912 -0.5704  1.0093  1.0715
 3209TIP3    H2 9585   3.314   6.812   3.030 -0.7476 -1.3837  0.4316
 3210TIP3   OH2 9586   7.352   6.918   2.594  0.0938 -0.3169  0.3448
 3210TIP3    H1 9587   7.303   7.000   2.588  0.0154  0.1037  4.1828
 3210TIP3    H2 9588   7.314   6.862   2.527 -1.6516  1.9148 -0.6450
 3211TIP3   OH2 9589   2.909   0.353   3.579 -0.0187  0.1495 -0.3973
 3211TIP3    H1 9590   2.839   0.289   3.568 -0.9329  1.1111 -0.2334
 3211TIP3    H2 9591   2.891   0.396   3.662  1.0813  0.0489 -0.0805
 3212TIP3   OH2 9592   3.376   6.160   0.580 -0.1592  0.6787  0.1484
 3212TIP3    H1 9593   3.404   6.238   0.532  0.1133 -0.0399 -0.8780
 3212TIP3    H2 9594   3.355   6.096   0.513  0.3874 -0.4112  0.9790
 3213TIP3   OH2 9595   7.172   2.435   6.232 -0.2050  0.0055  0.3338
 3213TIP3    H1 9596   7.102   2.370   6.245 -0.2818  0.2591  1.2607
 3213TIP3    H2 9597   7.150   2.478   6.150 -0.5577 -0.6455  0.0814
 3214TIP3   OH2 9598   6.007   3.567   3.468  0.0484  0.1036  0.1804
 3214TIP3    H1 9599   5.924   3.530   3.439 -0.0489  0.4999 -0.0513
 3214TIP3    H2 9600   5.984   3.649   3.511  0.0981 -0.8951  2.2321
 3215TIP3   OH2 9601   7.048   1.042   0.009 -0.2051  0.1781 -0.2317
 3215TIP3    H1 9602   7.046   0.946   0.011 -0.0008  0.1840  0.7123
 3215TIP3    H2 9603   7.141   1.063   0.010 -0.2337  0.3947  1.7201
 3216TIP3   OH2 9604   6.106   7.234   3.008 -0.3915  0.4976 -0.3146
 3216TIP3    H1 9605   6.072   7.286   3.080 -1.4047  0.4177 -0.7245
 3216TIP3    H2 9606   6.116   7.295   2.935  0.6237  0.5778 -0.1209
 3217TIP3   OH2 9607   3.379   0.068   1.356 -0.7197 -0.2825  0.6500
 3217TIP3    H1 9608   3.343   0.068   1.267  1.3702 -1.3440 -0.2716
 3217TIP3    H2 9609   3.474   0.062   1.343 -0.3823 -0.7265  2.9763
 3218TIP3   OH2 9610   6.742   6.092   3.061  0.4194 -0.1286 -0.1263
 3218TIP3    H1 9611   6.782   6.174   3.091  1.3644 -0.4134 -0.5663
 3218TIP3    H2 9612   6.730   6.105   2.967 -1.2670  0.2415  0.1054
 3219TIP3   OH2 9613   4.632   5.118   5.866  0.0400  0.0575 -0.4777
 3219TIP3    H1 9614   4.690   5.181   5.907  0.0664 -0.8450  0.9160
 3219TIP3    H2 9615   4.682   5.083   5.792  0.3534  0.9798 -0.7161
 3220TIP3   OH2 9616   0.114   2.681   6.561  0.0903 -0.1892  0.0253
 3220TIP3    H1 9617   0.164   2.712   6.486 -0.7010  0.6395 -0.1764
 3220TIP3    H2 9618   0.024   2.711   6.545 -0.1252 -0.1046  1.2351
 3221TIP3   OH2 9619   4.947   2.743   1.731 -0.1856  0.0064  0.6816
 3221TIP3    H1 9620   4.966   2.832   1.701 -1.0555 -0.1343 -0.3323
 3221TIP3    H2 9621   4.877   2.712   1.673 -1.2480 -0.6423  2.2450
 3222TIP3   OH2 9622   3.636   5.901   0.523  0.2337 -0.2349  0.7070
 3222TIP3    H1 9623   3.693   5.946   0.462  1.1059 -0.0024  1.6589
 3222TIP3    H2 9624   3.547   5.923   0.495  0.6159 -0.0047 -0.3522
 3223TIP3   OH2 9625   1.256   6.138   3.584  0.4124 -0.0871  0.0498
 3223TIP3    H1 9626   1.285   6.080   3.514 -0.5586 -1.1169  0.4741
 3223TIP3    H2 9627   1.243   6.081   3.659  1.5020  1.0145  1.1214
 3224TIP3   OH2 9628   4.796   2.161   2.469 -0.3061  0.7123  0.0512
 3224TIP3    H1 9629   4.718   2.108   2.486 -0.3508 -0.5083 -3.1224
 3224TIP3    H2 9630   4.870   2.101   2.482 -0.2698  0.2313 -2.0061
 3225TIP3   OH2 9631   2.718   0.588   3.184 -0.1592  0.4158 -0.3335
 3225TIP3    H1 9632   2.629   0.582   3.220 -1.1620 -0.2771 -2.6975
 3225TIP3    H2 9633   2.771   0.532   3.240 -1.3977  0.1362  0.6068
 3226TIP3   OH2 9634   0.643   6.117   1.892 -0.0870 -0.2180 -0.0541
 3226TIP3    H1 9635   0.595   6.034   1.888 -0.6786  0.1394 -0.4553
 3226TIP3    H2 9636   0.578   6.184   1.872 -0.0794  0.5288  2.1701
 3227TIP3   OH2 9637   3.105   7.322   0.562 -0.0674  0.1286  0.0000
 3227TIP3    H1 9638   3.174   7.353   0.503 -0.4729  0.2791 -0.3962
 3227TIP3    H2 9639   3.102   7.388   0.632 -0.1762  0.3977 -0.2602
 3228TIP3   OH2 9640   4.556   3.027   2.707  0.3155  0.3925  0.5299
 3228TIP3    H1 9641   4.488   3.093   2.720  1.1079  1.5555 -0.9173
 3228TIP3    H2 9642   4.517   2.964   2.647  0.1810  0.5162  0.4870
 3229TIP3   OH2 9643   7.732   0.095   2.734 -0.0836 -1.0561  0.1375
 3229TIP3    H1 9644   7.727   0.188   2.710 -0.3124 -1.4908 -1.6187
 3229TIP3    H2 9645   7.801   0.092   2.801  0.0351  0.3522  0.1145
 3230TIP3   OH2 9646   0.513   7.527   4.164 -0.2729  0.7764  0.0828
 3230TIP3    H1 9647   0.534   7.493   4.077  0.0021  0.3588  0.3102
 3230TIP3    H2 9648   0.593   7.516   4.215 -0.4606  0.9342  0.4167
 3231TIP3   OH2 9649   3.029   3.132   2.471 -0.0424 -0.4630 -0.5868
 3231TIP3    H1 9650   3.058   3.179   2.393  0.9239  0.8143  0.4929
 3231TIP3    H2 9651   2.934   3.126   2.462 -0.0076  0.2649 -1.5453
 3232TIP3   OH2 9652   0.787   7.025   2.140  0.2179 -0.1265 -0.4177
 3232TIP3    H1 9653   0.774   7.061   2.228  1.0434  1.7889 -1.0317
 3232TIP3    H2 9654   0.857   6.960   2.151  0.8559  0.6459  0.2264
 3233TIP3   OH2 9655   6.182   1.265   1.165 -0.2064  0.2134 -0.1217
 3233TIP3    H1 9656   6.272   1.277   1.136 -0.5697  2.0306 -0.6674
 3233TIP3    H2 9657   6.176   1.173   1.191  1.8851  0.1480  0.2668
 3234TIP3   OH2 9658   7.264   6.719   1.170  0.0719 -0.4267  0.0304
 3234TIP3    H1 9659   7.214   6.639   1.191 -0.4736 -0.2680 -0.6169
 3234TIP3    H2 9660   7.211   6.763   1.105  1.2834 -0.4733 -1.0258
 3235TIP3   OH2 9661   3.504   0.387   6.285  0.2230  0.2835  0.1146
 3235TIP3    H1 9662   3.498   0.292   6.287  0.2236  0.2893  0.9560
 3235TIP3    H2 9663   3.435   0.414   6.225  0.3827 -0.2595 -0.3189
 3236TIP3   OH2 9664   3.742   5.818   4.471  0.6719 -0.3293 -0.5912
 3236TIP3    H1 9665   3.725   5.913   4.476  0.9546 -0.2745 -0.6566
 3236TIP3    H2 9666   3.655   5.779   4.462  0.5245 -0.1014 -0.1852
 3237TIP3   OH2 9667   3.739   0.075   0.753  0.4953  0.2688  0.4868
 3237TIP3    H1 9668   3.719   0.166   0.732  0.7451  0.1397 -0.3257
 3237TIP3    H2 9669   3.834   0.072   0.757  0.5599 -0.2458 -0.8970
 3238TIP3   OH2 9670   2.314   7.816   4.091  0.2584  0.4424 -0.1841
 3238TIP3    H1 9671   2.346   7.730   4.115  2.8952  1.5899  0.7349
 3238TIP3    H2 9672   2.318   7.817   3.996  0.6021 -0.3011 -0.1863
 3239TIP3   OH2 9673   8.263   0.214   4.441  0.0361  0.2155  0.0483
 3239TIP3    H1 9674   8.176   0.205   4.478 -0.1667  0.6848 -0.3010
 3239TIP3    H2 9675   8.303   0.285   4.490  0.3224 -0.1727  0.3856
 3240TIP3   OH2 9676   6.774   0.549   1.537 -0.4730 -0.4985 -0.3458
 3240TIP3    H1 9677   6.775   0.456   1.514 -0.0991 -0.1217 -2.0502
 3240TIP3    H2 9678   6.767   0.594   1.452 -0.0872  1.0373  0.3992
 3241TIP3   OH2 9679   2.578   7.823   3.178  0.3232  0.4556 -0.1923
 3241TIP3    H1 9680   2.654   7.821   3.236 -1.1166  0.6038  1.8134
 3241TIP3    H2 9681   2.568   7.733   3.148  0.6006  0.1958  0.4862
 3242TIP3   OH2 9682   4.436   7.675   3.789 -0.4826  0.6857 -0.7337
 3242TIP3    H1 9683   4.475   7.643   3.870  1.4209  0.7415 -1.5709
 3242TIP3    H2 9684   4.479   7.758   3.772 -2.1270  1.5516 -0.9324
 3243TIP3   OH2 9685   0.237   4.508   2.163 -0.4908  0.0090 -0.4481
 3243TIP3    H1 9686   0.157   4.549   2.195 -0.2018 -0.1479  0.5313
 3243TIP3    H2 9687   0.288   4.580   2.126  0.3455  0.7538  1.9341
 3244TIP3   OH2 9688   2.708   6.746   5.754 -0.4154 -0.1972  0.4089
 3244TIP3    H1 9689   2.709   6.686   5.679  0.2302  0.3527 -0.0325
 3244TIP3    H2 9690   2.777   6.713   5.811  1.1374  1.0857 -0.6343
 3245TIP3   OH2 9691   0.681   6.479   3.124 -0.4473 -0.5228  0.6917
 3245TIP3    H1 9692   0.663   6.386   3.111 -3.0491 -0.1090  0.8002
 3245TIP3    H2 9693   0.681   6.516   3.036 -0.0180 -0.5117  0.6933
 3246TIP3   OH2 9694   2.940   6.221   4.456 -0.2667 -0.5023 -0.2551
 3246TIP3    H1 9695   2.909   6.228   4.366  0.3392  3.4546 -0.3200
 3246TIP3    H2 9696   2.861   6.229   4.509 -0.3799 -0.6001 -0.4056
 3247TIP3   OH2 9697   7.846   1.504   6.331  0.1078  0.1793 -1.0696
 3247TIP3    H1 9698   7.875   1.415   6.348  1.1860  0.8024  0.7777
 3247TIP3    H2 9699   7.928   1.555   6.328 -0.5449  1.3893  0.1452
 3248TIP3   OH2 9700   4.699   4.902   3.693  0.5708 -0.3796  0.0072
 3248TIP3    H1 9701   4.750   4.924   3.616  0.7971  1.6306  0.6713
 3248TIP3    H2 9702   4.616   4.948   3.682 -0.5277 -2.3260 -0.3073
 3249TIP3   OH2 9703   7.006   2.196   6.028 -0.1561  0.1477 -0.5527
 3249TIP3    H1 9704   6.968   2.218   6.113  1.1207 -0.0962  0.1018
 3249TIP3    H2 9705   7.052   2.114   6.043 -1.1663 -0.7032 -1.8793
 3250TIP3   OH2 9706   5.171   6.702   3.816  0.0130  0.2440 -0.0063
 3250TIP3    H1 9707   5.252   6.652   3.825 -0.1623  0.0428  0.4938
 3250TIP3    H2 9708   5.172   6.764   3.888 -1.2748 -1.2015  1.3311
 3251TIP3   OH2 9709   5.918   0.436   2.770  0.1160 -0.2891 -0.0651
 3251TIP3    H1 9710   5.994   0.419   2.826 -0.1548 -0.2848  0.3014
 3251TIP3    H2 9711   5.845   0.449   2.830 -0.1502 -0.1469 -0.4136
 3252TIP3   OH2 9712   4.034   7.748   4.577 -0.4028 -0.1746  0.4890
 3252TIP3    H1 9713   4.042   7.834   4.617 -0.8878 -0.2576  0.7743
 3252TIP3    H2 9714   3.964   7.758   4.512  0.5739  0.0308 -0.5403
 3253TIP3   OH2 9715   4.124   3.107   0.369 -0.1925 -0.3619 -0.3176
 3253TIP3    H1 9716   4.094   3.182   0.419 -0.9066 -0.1028 -1.1007
 3253TIP3    H2 9717   4.124   3.035   0.431  1.1867  0.4142  0.6260
 3254TIP3   OH2 9718   4.661   4.615   1.836  0.3522  0.1636  0.6026
 3254TIP3    H1 9719   4.619   4.620   1.922  1.2445 -0.2734  1.0663
 3254TIP3    H2 9720   4.751   4.644   1.851  0.2649  0.9948 -0.3670
 3255TIP3   OH2 9721   3.042   3.359   4.279  0.6005 -0.0119  0.3392
 3255TIP3    H1 9722   3.138   3.367   4.281  1.2620 -3.7008 -3.3327
 3255TIP3    H2 9723   3.021   3.313   4.361  2.5243 -2.0817 -0.2281
 3256TIP3   OH2 9724   6.445   4.898   5.582  0.0715 -0.3948 -0.2963
 3256TIP3    H1 9725   6.355   4.930   5.575 -0.3354 -1.6376 -1.1478
 3256TIP3    H2 9726   6.491   4.941   5.510 -0.0475 -0.3899 -0.3704
 3257TIP3   OH2 9727   6.149   4.661   3.280 -0.3408  0.5366  0.7505
 3257TIP3    H1 9728   6.108   4.618   3.206  0.5035 -0.3290  0.7733
 3257TIP3    H2 9729   6.111   4.619   3.357  0.3071 -0.0180  0.7752
 3258TIP3   OH2 9730   5.762   4.877   5.946  0.2574  0.3414  0.2983
 3258TIP3    H1 9731   5.774   4.791   5.906  1.7478 -0.0653  1.4952
 3258TIP3    H2 9732   5.838   4.887   6.004  0.6527  2.8972 -0.5402
 3259TIP3   OH2 9733   2.754   1.843   1.156  0.0342  0.0615  0.2452
 3259TIP3    H1 9734   2.713   1.929   1.156  1.2255  0.6463  0.1747
 3259TIP3    H2 9735   2.767   1.822   1.063  0.5649  0.2129  0.2825
 3260TIP3   OH2 9736   6.954   5.353   0.810 -0.6425 -0.7484  0.0877
 3260TIP3    H1 9737   7.013   5.304   0.751  0.8042 -0.2556  1.0765
 3260TIP3    H2 9738   6.919   5.423   0.755  0.6086 -0.3512 -0.2508
 3261TIP3   OH2 9739   7.281   3.617   6.188 -0.5542 -0.2952 -0.1119
 3261TIP3    H1 9740   7.364   3.620   6.236 -1.1817  0.7520  0.9612
 3261TIP3    H2 9741   7.305   3.631   6.097  0.5322 -0.8762  0.0703
 3262TIP3   OH2 9742   1.430   3.170   2.815 -0.0539 -0.1422  0.4687
 3262TIP3    H1 9743   1.380   3.095   2.845 -0.7602  0.5502  1.0907
 3262TIP3    H2 9744   1.467   3.143   2.731 -0.6153 -1.0326  0.5001
 3263TIP3   OH2 9745   5.490   5.931   3.768 -0.2101  0.3321 -0.3696
 3263TIP3    H1 9746   5.422   5.905   3.830 -1.4894  2.8008 -0.6150
 3263TIP3    H2 9747   5.499   5.855   3.710 -0.4869 -1.2331  1.5205
 3264TIP3   OH2 9748   7.666   1.520   5.549  0.4415 -0.6605 -0.2390
 3264TIP3    H1 9749   7.623   1.444   5.509  1.8039 -1.1945 -0.7506
 3264TIP3    H2 9750   7.712   1.563   5.476 -0.8824  1.1132 -0.1041
 3265TIP3   OH2 9751   5.552   7.685   2.188  0.2058  0.0693  0.1210
 3265TIP3    H1 9752   5.518   7.690   2.278 -0.1370  0.4798 -0.0300
 3265TIP3    H2 9753   5.624   7.622   2.193  1.0105  1.0097  0.9467
 3266TIP3   OH2 9754   0.519   1.388   2.017 -0.8532  0.0423 -0.2123
 3266TIP3    H1 9755   0.568   1.454   1.968  0.8983 -0.1338  1.2007
 3266TIP3    H2 9756   0.443   1.434   2.052 -0.1239  1.0861  0.0229
 3267TIP3   OH2 9757   0.040   3.182   5.342  0.5866 -0.3694  0.6294
 3267TIP3    H1 9758   0.086   3.148   5.266 -0.0094 -1.3561  0.6973
 3267TIP3    H2 9759   0.025   3.105   5.398 -0.6738  0.0175  0.8438
 3268TIP3   OH2 9760   3.666   2.829   0.754 -0.2549 -0.3158 -0.1383
 3268TIP3    H1 9761   3.642   2.737   0.767  1.1675 -0.7401 -0.3565
 3268TIP3    H2 9762   3.699   2.833   0.664 -0.7701  0.5249 -0.3040
 3269TIP3   OH2 9763   8.282   7.819   0.550  0.1489 -0.5113 -0.3638
 3269TIP3    H1 9764   8.308   7.740   0.598  0.6726 -0.4333 -0.5123
 3269TIP3    H2 9765   8.205   7.792   0.500 -1.8994  0.0319  2.2736
 3270TIP3   OH2 9766   2.071   6.960   3.707 -0.2493 -0.6769 -0.2244
 3270TIP3    H1 9767   2.116   6.955   3.622  1.4109 -1.7882  0.6507
 3270TIP3    H2 9768   2.031   7.046   3.707  2.3573  0.6682 -0.9248
 3271TIP3   OH2 9769   5.613   6.935   1.634 -0.2227  0.0264 -0.0461
 3271TIP3    H1 9770   5.573   6.894   1.557  0.0552  1.2709 -0.8895
 3271TIP3    H2 9771   5.707   6.924   1.620 -0.1878 -0.6173  0.6341
 3272TIP3   OH2 9772   4.550   5.537   4.599  0.0536  0.0418 -0.2759
 3272TIP3    H1 9773   4.577   5.492   4.519  0.1861 -0.8164  0.2345
 3272TIP3    H2 9774   4.485   5.601   4.570  0.1819 -0.1872 -1.0841
 3273TIP3   OH2 9775   1.555   5.636   6.651  0.0162 -0.1374  0.1677
 3273TIP3    H1 9776   1.607   5.682   6.718 -0.4656 -1.7278  1.6975
 3273TIP3    H2 9777   1.465   5.662   6.669  0.0850  1.8061 -1.8398
 3274TIP3   OH2 9778   0.733   1.370   0.192  0.4689 -0.3139  0.1758
 3274TIP3    H1 9779   0.685   1.372   0.275 -0.2221 -0.7601 -0.1954
 3274TIP3    H2 9780   0.763   1.460   0.179  0.9129 -0.3189  1.0874
 3275TIP3   OH2 9781   7.509   1.436   2.803 -0.1682 -0.3264  0.1225
 3275TIP3    H1 9782   7.508   1.347   2.769 -1.2072 -0.0583 -0.6032
 3275TIP3    H2 9783   7.419   1.467   2.793 -0.3003  0.1226  2.2165
 3276TIP3   OH2 9784   8.218   6.869   2.968  0.6859 -0.1279 -0.3762
 3276TIP3    H1 9785   8.262   6.785   2.950  0.3673 -0.7688  1.6179
 3276TIP3    H2 9786   8.290   6.932   2.974  1.0786 -0.5852 -0.1732
 3277TIP3   OH2 9787   1.582   5.497   2.701  0.4649  0.1995 -0.2359
 3277TIP3    H1 9788   1.614   5.458   2.782 -1.6333  1.6508  1.3846
 3277TIP3    H2 9789   1.652   5.555   2.673  0.8658  0.3521  1.0337
 3278TIP3   OH2 9790   0.795   5.936   0.575  0.7368  0.5118 -0.2217
 3278TIP3    H1 9791   0.749   5.932   0.659 -0.8785  1.0874 -1.0402
 3278TIP3    H2 9792   0.804   6.029   0.557  1.2215  0.3904 -0.6137
 3279TIP3   OH2 9793   7.013   7.340   6.716 -0.1198  0.5365  0.5216
 3279TIP3    H1 9794   7.037   7.250   6.693  2.3563  1.0222  0.9475
 3279TIP3    H2 9795   6.945   7.363   6.652  0.8629 -0.8597 -1.1254
 3280TIP3   OH2 9796   2.793   3.329   6.648  0.5112  0.7557 -0.0693
 3280TIP3    H1 9797   2.842   3.284   6.579  0.4619  0.8357 -0.1575
 3280TIP3    H2 9798   2.831   3.417   6.650  1.6433  0.2565  1.1458
 3281TIP3   OH2 9799   3.771   2.773   5.715  0.0836  0.0203 -0.1458
 3281TIP3    H1 9800   3.857   2.732   5.723  1.1632  2.5374  3.5264
 3281TIP3    H2 9801   3.709   2.701   5.727  1.6152 -1.6138 -1.4943
 3282TIP3   OH2 9802   4.554   4.336   1.163  0.0054  0.0077 -0.0930
 3282TIP3    H1 9803   4.550   4.385   1.245 -0.4200  0.0134 -0.1143
 3282TIP3    H2 9804   4.491   4.379   1.105  0.5072  0.1809 -0.5252
 3283TIP3   OH2 9805   2.856   2.431   5.395  0.1911  0.1026  0.0774
 3283TIP3    H1 9806   2.835   2.519   5.363 -1.5155 -0.1329  0.4701
 3283TIP3    H2 9807   2.861   2.377   5.316 -0.7729  0.1627 -0.0301
 3284TIP3   OH2 9808   5.185   2.520   6.423  0.4154 -0.5460 -0.5151
 3284TIP3    H1 9809   5.185   2.610   6.389 -1.5746  0.7964  2.5639
 3284TIP3    H2 9810   5.116   2.476   6.374 -1.1335  0.7759  0.3884
 3285TIP3   OH2 9811   4.992  -0.019   1.085 -0.2027 -0.2043 -0.0132
 3285TIP3    H1 9812   5.059   0.036   1.125 -0.1047 -1.7800  2.1499
 3285TIP3    H2 9813   5.003  -0.006   0.991  3.0719 -0.3004  0.2481
 3286TIP3   OH2 9814   6.244   1.300   3.206  0.0537 -0.4018 -0.1669
 3286TIP3    H1 9815   6.291   1.369   3.160 -0.9020 -0.2624 -0.9569
 3286TIP3    H2 9816   6.288   1.219   3.178  2.0519 -0.1022  1.7917
 3287TIP3   OH2 9817   4.437   6.830   3.449 -0.1954  0.3609 -0.1735
 3287TIP3    H1 9818   4.520   6.794   3.481 -0.2710  1.5059  1.4140
 3287TIP3    H2 9819   4.440   6.922   3.473 -1.7419  0.5247 -0.5047
 3288TIP3   OH2 9820   1.449   0.720   3.375 -0.8168  0.4346 -0.3020
 3288TIP3    H1 9821   1.544   0.731   3.365 -0.8869 -0.3300 -2.1894
 3288TIP3    H2 9822   1.412   0.783   3.314 -1.4623 -0.6867 -1.0987
 3289TIP3   OH2 9823   4.730   4.460   0.982  0.3873 -0.3034  0.2350
 3289TIP3    H1 9824   4.731   4.554   0.997  0.7564 -0.3556  0.5422
 3289TIP3    H2 9825   4.707   4.422   1.067  0.5742 -0.5066  0.1963
 3290TIP3   OH2 9826   2.763   4.213   5.769  0.1158 -0.0863 -0.1183
 3290TIP3    H1 9827   2.839   4.189   5.715  0.7173  1.6906 -0.1257
 3290TIP3    H2 9828   2.789   4.188   5.858  0.5828  0.1935 -0.1698
 3291TIP3   OH2 9829   5.490   6.696   2.960 -0.2083  1.1269  0.5433
 3291TIP3    H1 9830   5.514   6.659   3.045  0.8206  1.2790  0.3233
 3291TIP3    H2 9831   5.572   6.705   2.913 -0.9224 -0.6028 -1.1682
 3292TIP3   OH2 9832   0.726   7.072   0.645 -0.1321 -0.1658  0.2210
 3292TIP3    H1 9833   0.795   7.099   0.705  0.3091 -1.6113  0.4143
 3292TIP3    H2 9834   0.654   7.132   0.662  0.8111  0.9052  0.5351
 3293TIP3   OH2 9835   0.765   7.713   1.870 -0.1114 -0.1279  1.0004
 3293TIP3    H1 9836   0.794   7.691   1.781  1.1903 -0.9497  1.5889
 3293TIP3    H2 9837   0.761   7.629   1.915  1.8860  0.4543  2.4354
 3294TIP3   OH2 9838   1.942   0.883   6.134 -0.2344  0.0538  0.5181
 3294TIP3    H1 9839   1.944   0.792   6.165  0.9671 -0.0044  0.2998
 3294TIP3    H2 9840   2.008   0.886   6.064 -1.2326  0.7627 -0.4310
 3295TIP3   OH2 9841   8.332   5.562   0.572  0.1665  0.5006 -0.3393
 3295TIP3    H1 9842   8.265   5.495   0.561 -1.0219  1.4519  0.7686
 3295TIP3    H2 9843   8.296   5.640   0.529  1.4529  0.5095 -1.4670
 3296TIP3   OH2 9844   1.361   2.382   2.418  0.9901 -0.4582 -0.0677
 3296TIP3    H1 9845   1.281   2.389   2.472  0.8001  0.3266 -0.4348
 3296TIP3    H2 9846   1.432   2.378   2.482  0.7277 -0.0631  0.2565
 3297TIP3   OH2 9847   0.070   4.444   6.039  0.2143  0.0236  0.4961
 3297TIP3    H1 9848  -0.004   4.469   6.094  0.6812  2.4576  0.1253
 3297TIP3    H2 9849   0.143   4.435   6.099  0.7046  2.6016  0.4193
 3298TIP3   OH2 9850   0.582   0.567   4.798 -0.3897 -0.2370  0.1449
 3298TIP3    H1 9851   0.604   0.628   4.728  1.3228 -0.3437  0.5382
 3298TIP3    H2 9852   0.646   0.585   4.867 -0.8181 -1.4190  0.8871
 3299TIP3   OH2 9853   1.984   2.594   1.814  0.4815  0.1552  0.2295
 3299TIP3    H1 9854   1.935   2.675   1.831 -0.8407 -0.4743 -0.4165
 3299TIP3    H2 9855   2.012   2.602   1.723  0.7237  0.0687  0.2961
 3300TIP3   OH2 9856   4.140   2.406   2.568 -0.7943 -0.1663 -0.0831
 3300TIP3    H1 9857   4.208   2.396   2.500  0.3231 -0.8474  1.0925
 3300TIP3    H2 9858   4.121   2.500   2.569  0.3009  0.0738 -0.2925
 3301TIP3   OH2 9859   3.737   4.558   4.230  0.0082 -0.7247  0.1959
 3301TIP3    H1 9860   3.684   4.638   4.233  0.6202 -0.3467  1.9312
 3301TIP3    H2 9861   3.821   4.586   4.193  0.4208 -0.4014  1.3209
 3302TIP3   OH2 9862   2.187   6.839   1.301  0.1631  0.1618  0.2359
 3302TIP3    H1 9863   2.212   6.911   1.359 -0.7153 -0.3308  1.2901
 3302TIP3    H2 9864   2.222   6.761   1.344 -0.5946 -0.2213  0.1826
 3303TIP3   OH2 9865   0.538   7.789   4.631  0.6846 -0.0150 -0.3946
 3303TIP3    H1 9866   0.591   7.829   4.562  0.2969  1.5207  0.1425
 3303TIP3    H2 9867   0.564   7.835   4.711 -1.5589  0.9808 -0.1521
 3304TIP3   OH2 9868   7.769   5.080   0.926 -0.8047 -0.3071  0.6667
 3304TIP3    H1 9869   7.801   5.159   0.882  0.4709 -2.1852 -2.0658
 3304TIP3    H2 9870   7.821   5.074   1.006 -0.6417  1.3609  0.7185
 3305TIP3   OH2 9871   5.584   5.031   6.250  0.0181 -0.0708 -0.0324
 3305TIP3    H1 9872   5.670   5.069   6.229 -0.1404  0.1287 -0.3191
 3305TIP3    H2 9873   5.603   4.940   6.273  0.1990 -0.2727 -0.9604
 3306TIP3   OH2 9874   1.008   2.171   0.327  0.0130  0.6853 -0.2310
 3306TIP3    H1 9875   1.000   2.145   0.419 -1.3537 -0.3393 -0.6029
 3306TIP3    H2 9876   1.091   2.135   0.298 -0.2813 -0.3777  0.1952
 3307TIP3   OH2 9877   8.324   4.274   1.905  0.3168  0.5950 -1.2537
 3307TIP3    H1 9878   8.326   4.179   1.891 -0.0347  0.4859 -0.6277
 3307TIP3    H2 9879   8.272   4.308   1.833 -1.5062  0.0512 -0.2463
 3308TIP3   OH2 9880   2.644   3.993   3.361  0.3304  0.5292  0.1610
 3308TIP3    H1 9881   2.558   3.960   3.335  1.5495 -1.0529 -2.2180
 3308TIP3    H2 9882   2.675   4.042   3.284  1.1432  2.0174  1.3859
 3309TIP3   OH2 9883  -0.003   5.707   3.806 -0.0268 -0.5747  0.3771
 3309TIP3    H1 9884   0.069   5.759   3.770 -0.0135 -0.4089  0.6394
 3309TIP3    H2 9885   0.024   5.616   3.792  0.8264 -0.5353  1.5883
 3310TIP3   OH2 9886   5.722   1.269   6.328 -0.3000 -0.6090  0.1003
 3310TIP3    H1 9887   5.642   1.312   6.359 -0.2022 -0.0169 -0.4477
 3310TIP3    H2 9888   5.736   1.198   6.391 -0.4748  0.1388  1.0154
 3311TIP3   OH2 9889   7.929   6.135   2.621  1.0719 -0.3699 -0.5058
 3311TIP3    H1 9890   7.892   6.063   2.568 -1.7911  0.2398  0.4789
 3311TIP3    H2 9891   7.932   6.099   2.710  0.1910  0.4957 -0.1131
 3312TIP3   OH2 9892   3.568   4.992   5.117 -0.1296 -0.0052 -0.5854
 3312TIP3    H1 9893   3.616   4.950   5.046  3.0815 -0.1539  1.4666
 3312TIP3    H2 9894   3.634   5.007   5.185 -2.8704  0.6517  2.1544
 3313TIP3   OH2 9895   2.714   6.867   4.287  0.0036  0.1193 -0.2944
 3313TIP3    H1 9896   2.661   6.892   4.212 -1.6018  0.0382  0.7449
 3313TIP3    H2 9897   2.708   6.771   4.290  1.9795 -0.0879 -1.3569
 3314TIP3   OH2 9898   1.454   0.958   6.429 -0.5947  0.5079 -0.7884
 3314TIP3    H1 9899   1.420   1.041   6.397 -1.8465 -0.1849 -1.3116
 3314TIP3    H2 9900   1.418   0.893   6.369 -1.5353 -0.6454  0.9642
 3315TIP3   OH2 9901   0.640   2.987   0.112 -0.7009 -0.2011 -0.0241
 3315TIP3    H1 9902   0.621   2.919   0.047 -0.3597  0.0292 -0.3607
 3315TIP3    H2 9903   0.658   3.065   0.061 -0.5238  0.0049  0.3528
 3316TIP3   OH2 9904   5.450   0.424   0.828  0.4112 -0.0081  0.3844
 3316TIP3    H1 9905   5.490   0.481   0.763  1.2972 -0.1652  0.7793
 3316TIP3    H2 9906   5.440   0.340   0.785 -0.4962  0.3117 -0.0583
 3317TIP3   OH2 9907   0.113   5.656   0.094  0.8075 -0.1334  0.5631
 3317TIP3    H1 9908   0.031   5.611   0.112 -0.2139  0.8285 -1.3504
 3317TIP3    H2 9909   0.157   5.601   0.030  0.7302  0.3104  0.1226
 3318TIP3   OH2 9910   7.514   5.791   5.390  0.7044 -0.3664  0.4269
 3318TIP3    H1 9911   7.521   5.711   5.442 -0.2308 -0.1683  0.8841
 3318TIP3    H2 9912   7.505   5.861   5.454  0.0970 -0.0531  0.0114
 3319TIP3   OH2 9913   0.136   7.699   6.676  0.2070 -0.0146  0.3687
 3319TIP3    H1 9914   0.120   7.791   6.699 -0.5547 -0.1501  0.4201
 3319TIP3    H2 9915   0.228   7.696   6.651  0.7690  0.4020  2.1843
 3320TIP3   OH2 9916   2.226   3.510   4.902 -0.3032 -0.4641  0.1628
 3320TIP3    H1 9917   2.236   3.452   4.826 -0.5278 -1.9924  1.2478
 3320TIP3    H2 9918   2.177   3.458   4.965 -1.4594  1.3281  0.7986
 3321TIP3   OH2 9919   4.907   1.605   4.414  0.2648 -0.0560 -0.7848
 3321TIP3    H1 9920   4.965   1.611   4.489  0.4977  1.3854 -1.0513
 3321TIP3    H2 9921   4.955   1.552   4.351  0.3462 -0.7195 -0.1719
 3322TIP3   OH2 9922   3.689   4.864   4.219 -0.4083  0.1031 -0.1622
 3322TIP3    H1 9923   3.638   4.874   4.299  0.5512  0.0351  0.4753
 3322TIP3    H2 9924   3.706   4.954   4.190 -1.6005  0.1267 -0.8670
 3323TIP3   OH2 9925   2.936   5.767   5.267  0.2026 -0.5211  0.4893
 3323TIP3    H1 9926   3.027   5.749   5.294 -0.1625 -1.5485  1.0886
 3323TIP3    H2 9927   2.925   5.860   5.282  0.8105 -0.5986  1.5104
 3324TIP3   OH2 9928   2.474   0.267   0.647 -0.6266 -0.5939  0.7185
 3324TIP3    H1 9929   2.565   0.244   0.661 -0.4940 -0.4092  0.2034
 3324TIP3    H2 9930   2.436   0.271   0.734 -0.8833 -3.5769  0.8138
 3325TIP3   OH2 9931   5.188   1.240   4.999 -0.1344 -0.2828 -0.2109
 3325TIP3    H1 9932   5.098   1.222   5.027 -0.4898 -0.0370 -1.1764
 3325TIP3    H2 9933   5.180   1.273   4.910  0.8113  0.8732  0.1005
 3326TIP3   OH2 9934   0.680   4.690   5.949  0.1020 -0.1665 -0.4218
 3326TIP3    H1 9935   0.741   4.652   5.885  0.6528  0.9549 -0.5952
 3326TIP3    H2 9936   0.639   4.763   5.903  0.1506  0.3600  0.3440
 3327TIP3   OH2 9937   8.102   5.873   1.723 -0.4437 -0.3709 -0.1869
 3327TIP3    H1 9938   8.087   5.879   1.629  1.0296  1.1522 -0.3692
 3327TIP3    H2 9939   8.062   5.952   1.759  1.5835  0.5977  0.0493
 3328TIP3   OH2 9940   3.499   6.274   1.845 -0.2498  0.0797 -0.3526
 3328TIP3    H1 9941   3.532   6.321   1.922 -0.3259  0.7785 -0.7395
 3328TIP3    H2 9942   3.577   6.243   1.800 -0.2266 -1.7763  0.8649
 3329TIP3   OH2 9943   8.151   0.142   0.191 -0.0540  0.3480  0.1967
 3329TIP3    H1 9944   8.094   0.206   0.233  0.1157  0.9411 -0.4603
 3329TIP3    H2 9945   8.186   0.187   0.114 -0.9494 -0.9449 -1.0262
 3330TIP3   OH2 9946   2.897   3.282   2.154 -0.0865  0.4800  0.6868
 3330TIP3    H1 9947   2.827   3.226   2.121  0.2682 -0.0468  0.7945
 3330TIP3    H2 9948   2.862   3.320   2.234 -0.1057 -0.1149  0.9677
 3331TIP3   OH2 9949   5.265   4.784   1.915 -0.1486 -0.1212 -0.1290
 3331TIP3    H1 9950   5.174   4.768   1.893  0.4287 -1.1094 -2.0252
 3331TIP3    H2 9951   5.305   4.697   1.918  1.3201  0.3892 -2.3521
 3332TIP3   OH2 9952   3.770   5.998   3.419  0.0145  0.4883 -0.0262
 3332TIP3    H1 9953   3.741   5.953   3.499 -1.1514 -2.0453 -1.7441
 3332TIP3    H2 9954   3.859   5.966   3.405 -0.1214  0.1938 -0.2276
 3333TIP3   OH2 9955   6.174   0.763   0.128  0.0174 -0.2396 -0.1474
 3333TIP3    H1 9956   6.218   0.710   0.195  1.4014  0.7023 -0.2684
 3333TIP3    H2 9957   6.084   0.729   0.126  0.1685 -0.8610  1.5790
 3334TIP3   OH2 9958   3.867   5.471   0.274 -1.0482 -0.6071 -0.4707
 3334TIP3    H1 9959   3.864   5.493   0.181 -2.1451 -0.5369 -0.4300
 3334TIP3    H2 9960   3.814   5.538   0.316  1.9370  1.2577  0.6389
 3335TIP3   OH2 9961   6.913   2.149   1.210 -0.1946 -0.3650 -0.3484
 3335TIP3    H1 9962   7.007   2.137   1.217 -0.0937  0.0266 -0.9737
 3335TIP3    H2 9963   6.877   2.105   1.288  0.7702  3.0935  2.2796
 3336TIP3   OH2 9964   5.773   0.972   4.885 -0.1364 -0.2885  0.3338
 3336TIP3    H1 9965   5.813   1.030   4.821  2.1232 -1.5821  0.4720
 3336TIP3    H2 9966   5.681   0.966   4.858  0.4153  0.3851 -1.8927
 3337TIP3   OH2 9967   5.029   4.262   0.112  0.4413  0.4222  0.2501
 3337TIP3    H1 9968   4.967   4.189   0.113  0.7863  0.1366  0.7620
 3337TIP3    H2 9969   5.056   4.273   0.203  1.7698  0.0052 -0.0702
 3338TIP3   OH2 9970   3.874   1.461   5.378 -0.4165  0.1716  0.0099
 3338TIP3    H1 9971   3.878   1.410   5.297 -3.6855  0.6940 -0.6084
 3338TIP3    H2 9972   3.838   1.400   5.442  3.4819 -0.6955  1.6380
 3339TIP3   OH2 9973   7.521   1.076   6.450  0.2917  0.3104 -0.2027
 3339TIP3    H1 9974   7.537   1.075   6.544 -1.3740  1.1160  0.1232
 3339TIP3    H2 9975   7.604   1.047   6.411  1.2773  0.7528  1.4698
 3340TIP3   OH2 9976   1.493   6.613   4.562 -0.2970 -0.1341 -0.3078
 3340TIP3    H1 9977   1.464   6.587   4.649  0.2825 -0.4715 -0.2061
 3340TIP3    H2 9978   1.550   6.689   4.577  0.1611 -0.4635 -0.3389
 3341TIP3   OH2 9979   4.923   5.133   4.124 -0.1979  0.4416 -0.3146
 3341TIP3    H1 9980   4.862   5.121   4.052 -0.5181  1.0632 -0.1630
 3341TIP3    H2 9981   5.010   5.128   4.084 -0.3734  2.1955 -1.0192
 3342TIP3   OH2 9982   4.679   5.811   6.065  0.1964 -0.0015  0.2453
 3342TIP3    H1 9983   4.664   5.836   6.156  0.1194 -1.4709  0.6567
 3342TIP3    H2 9984   4.614   5.862   6.016  0.4321  1.0204  0.9670
 3343TIP3   OH2 9985   7.668   2.788   5.879  0.3676  0.6792 -0.0362
 3343TIP3    H1 9986   7.674   2.867   5.824  0.3787  1.6474  1.3149
 3343TIP3    H2 9987   7.670   2.716   5.816 -0.3578  1.7574 -1.3639
 3344TIP3   OH2 9988   0.838   5.706   6.805 -0.3491  0.0671 -0.3025
 3344TIP3    H1 9989   0.803   5.784   6.761  0.6044  0.7990  0.1972
 3344TIP3    H2 9990   0.899   5.669   6.741 -1.2049 -0.5914 -0.7515
 3345TIP3   OH2 9991   6.659   1.101   1.068 -0.4687 -0.5957  0.1104
 3345TIP3    H1 9992   6.699   1.103   1.155  0.8705 -1.9347 -0.4368
 3345TIP3    H2 9993   6.708   1.166   1.017  0.0921 -1.2248 -0.1690
 3346TIP3   OH2 9994   3.966   3.202   5.390  0.2103  0.4780  0.2667
 3346TIP3    H1 9995   3.941   3.185   5.299 -0.3338  1.9011  0.1227
 3346TIP3    H2 9996   3.890   3.175   5.441 -0.9148  2.8630 -0.0114
 3347TIP3   OH2 9997   2.060   4.881   0.167  0.2358 -0.2256 -0.2055
 3347TIP3    H1 9998   2.074   4.792   0.136  2.6045  0.4407 -1.3149
 3347TIP3    H2 9999   2.108   4.885   0.250  0.0425 -0.0242 -0.1039
 3348TIP3   OH210000   2.482   1.278   3.811  0.1610  0.0985 -0.3094
 3348TIP3    H110001   2.419   1.340   3.849  0.4835 -0.0433  0.4683
 3348TIP3    H210002   2.550   1.334   3.773  0.5917  0.2462  0.6294
 3349TIP3   OH210003   7.794   4.650   2.343  0.2939 -0.0861 -0.1537
 3349TIP3    H110004   7.806   4.729   2.396 -0.7190 -0.0388  0.0272
 3349TIP3    H210005   7.837   4.581   2.393 -0.2640  0.0428  0.5112
 3350TIP3   OH210006   6.574   1.620   0.506 -0.5281  0.1346 -0.0244
 3350TIP3    H110007   6.621   1.537   0.494 -0.1422  0.4368 -0.6507
 3350TIP3    H210008   6.499   1.597   0.562  0.0790 -0.4522  0.5766
 3351TIP3   OH210009   2.372   2.220   0.980 -0.7358  0.6374  0.1483
 3351TIP3    H110010   2.296   2.172   1.014 -1.3152  0.2578 -1.5940
 3351TIP3    H210011   2.394   2.283   1.049 -3.2442  1.4342  0.2977
 3352TIP3   OH210012   1.106   1.864   0.523  0.0856  0.3297 -0.2477
 3352TIP3    H110013   1.052   1.839   0.448 -1.0554  0.0480  0.6196
 3352TIP3    H210014   1.132   1.954   0.505 -1.2504  0.7120 -0.4041
 3353TIP3   OH210015   1.124   0.521   6.453  0.1904 -0.3775  0.1143
 3353TIP3    H110016   1.149   0.609   6.424 -0.8087 -0.4917 -1.1874
 3353TIP3    H210017   1.100   0.475   6.373  1.4444 -2.1134  0.6801
 3354TIP3   OH210018   6.843   3.227   6.257  0.1921  0.2968 -0.0481
 3354TIP3    H110019   6.784   3.156   6.232 -0.8451  1.0266  0.2648
 3354TIP3    H210020   6.929   3.200   6.224 -0.0126 -1.4818  0.8013
 3355TIP3   OH210021   5.967   3.391   1.252 -0.5205 -0.4626 -0.2882
 3355TIP3    H110022   6.004   3.381   1.340 -0.5248 -0.7764 -0.3184
 3355TIP3    H210023   5.894   3.451   1.264  0.4847  0.8233 -0.3719
 3356TIP3   OH210024   5.747   3.563   0.316  0.3123  0.1884  0.9509
 3356TIP3    H110025   5.776   3.491   0.372  1.1692 -0.0845  0.1901
 3356TIP3    H210026   5.655   3.545   0.299  0.6825 -1.1346  0.2032
 3357TIP3   OH210027   0.724   2.377   1.312 -0.1753 -0.0882  0.1603
 3357TIP3    H110028   0.648   2.385   1.371 -0.1641 -1.6077  0.4280
 3357TIP3    H210029   0.798   2.364   1.371  0.0884  0.0454 -0.1434
 3358TIP3   OH210030   2.992   5.373   3.294 -0.0559 -0.0412 -1.4464
 3358TIP3    H110031   3.065   5.426   3.262  0.1490  0.3200 -0.4130
 3358TIP3    H210032   2.920   5.436   3.304  0.5840  0.3895  1.1395
 3359TIP3   OH210033   5.772   2.284   1.053  0.3264  0.1249  0.2197
 3359TIP3    H110034   5.828   2.355   1.022 -0.2901  0.3525 -0.3958
 3359TIP3    H210035   5.683   2.317   1.045  0.0872 -0.2615  1.1211
 3360TIP3   OH210036   5.011   6.254   1.451 -0.4296 -0.2626 -0.0804
 3360TIP3    H110037   4.944   6.303   1.499  0.3694  2.0551 -1.1276
 3360TIP3    H210038   5.091   6.305   1.465 -0.0124  0.1157 -3.1612
 3361TIP3   OH210039   6.686   4.631   4.565 -0.3391 -0.1739 -0.4873
 3361TIP3    H110040   6.772   4.597   4.591 -1.5990 -2.2108  1.4443
 3361TIP3    H210041   6.675   4.710   4.618 -0.3451 -0.8819  0.5965
 3362TIP3   OH210042   5.367   6.535   5.618  0.0695  0.0718  0.3970
 3362TIP3    H110043   5.307   6.472   5.657 -0.6728  0.0899 -0.6660
 3362TIP3    H210044   5.423   6.483   5.561 -0.9403  0.4014 -0.9564
 3363TIP3   OH210045   7.367   4.748   1.878 -0.2027 -0.0068  0.2300
 3363TIP3    H110046   7.412   4.809   1.937  0.5324 -0.5553  0.2463
 3363TIP3    H210047   7.393   4.661   1.908  0.1970 -0.2972 -0.8942
 3364TIP3   OH210048   3.834   2.822   2.877  0.1018 -0.0652  0.1302
 3364TIP3    H110049   3.803   2.860   2.959  0.0024 -0.7374  0.4181
 3364TIP3    H210050   3.890   2.749   2.905 -0.3370 -0.6135 -0.3900
 3365TIP3   OH210051   0.941   1.900   2.229  0.1385  0.6220  0.8316
 3365TIP3    H110052   0.923   1.809   2.205 -1.1452  1.4259 -1.5255
 3365TIP3    H210053   1.030   1.916   2.199  0.6610 -0.0332  1.9579
 3366TIP3   OH210054   6.432   6.898   4.046 -0.2839  0.6351 -0.3121
 3366TIP3    H110055   6.464   6.984   4.074 -0.3791  0.1314  1.5034
 3366TIP3    H210056   6.337   6.907   4.042 -0.2877  0.6510 -0.1998
 3367TIP3   OH210057   6.388   1.527   3.048  0.8687 -0.1446 -0.2671
 3367TIP3    H110058   6.362   1.619   3.043 -1.9757 -0.8286  0.1955
 3367TIP3    H210059   6.395   1.500   2.956  2.5674  0.6896 -0.4200
 3368TIP3   OH210060   5.734   6.647   6.652 -0.3629 -0.2920 -0.5930
 3368TIP3    H110061   5.804   6.683   6.598  1.0006 -1.3186  0.4268
 3368TIP3    H210062   5.732   6.703   6.730 -1.3277  0.2918 -1.0157
 3369TIP3   OH210063   8.099   7.275   2.892 -0.0468 -0.0430 -0.8251
 3369TIP3    H110064   8.085   7.277   2.986  0.8646  0.7594 -0.7033
 3369TIP3    H210065   8.014   7.247   2.856 -0.3356 -0.5564  0.2292
 3370TIP3   OH210066   0.084   3.243   6.719  0.1053  0.2727 -0.5664
 3370TIP3    H110067   0.172   3.239   6.757  0.0420 -0.9486 -0.4993
 3370TIP3    H210068   0.083   3.323   6.668  1.1129  0.5274 -0.2091
 3371TIP3   OH210069   7.996   2.190   1.955  0.0913  0.2424 -0.0482
 3371TIP3    H110070   8.046   2.164   1.878 -1.0388 -2.0814 -0.0869
 3371TIP3    H210071   7.961   2.277   1.933 -0.8735 -0.6869 -2.5255
 3372TIP3   OH210072   0.694   2.927   6.345 -0.4057  0.1885 -0.3986
 3372TIP3    H110073   0.634   2.962   6.279 -0.5830  1.8728  0.6001
 3372TIP3    H210074   0.781   2.947   6.310 -0.4846  0.3283 -0.5211
 3373TIP3   OH210075   6.523   0.126   6.593 -0.0449  0.0973  0.0786
 3373TIP3    H110076   6.508   0.209   6.638  0.1736  0.0613  0.2170
 3373TIP3    H210077   6.530   0.061   6.663 -0.4317 -0.0753 -0.0360
 3374TIP3   OH210078   2.343   3.213   6.267  0.2894 -0.0938  0.3762
 3374TIP3    H110079   2.363   3.120   6.274  0.6485  0.0628  1.7705
 3374TIP3    H210080   2.295   3.233   6.348 -1.1238  0.6204 -0.6037
 3375TIP3   OH210081   3.347   7.643   3.174  0.5015 -0.5902  0.1412
 3375TIP3    H110082   3.394   7.719   3.208 -2.7967  1.1593  1.1701
 3375TIP3    H210083   3.269   7.679   3.131 -1.1135 -3.3564  0.4732
 3376TIP3   OH210084   6.241   3.529   4.716  0.0112  0.2445  0.3449
 3376TIP3    H110085   6.194   3.461   4.667 -2.2054  2.0960 -0.2582
 3376TIP3    H210086   6.326   3.535   4.673 -0.3133 -1.0622 -0.5484
 3377TIP3   OH210087   6.849   1.360   1.107 -0.6295  0.0373  0.0321
 3377TIP3    H110088   6.851   1.376   1.012 -0.6748  0.7452  0.1479
 3377TIP3    H210089   6.938   1.381   1.137 -1.1889  1.9507  0.4723
 3378TIP3   OH210090   1.358   1.282   2.375 -0.0460  0.1222  0.1395
 3378TIP3    H110091   1.419   1.337   2.327  0.7420 -1.0984 -0.3200
 3378TIP3    H210092   1.370   1.307   2.467  1.1335 -0.0615  0.0548
 3379TIP3   OH210093   5.189   2.776   6.311  0.8279 -0.6936 -0.1886
 3379TIP3    H110094   5.139   2.829   6.373 -2.1076  0.5997 -3.3435
 3379TIP3    H210095   5.268   2.827   6.294 -0.3181  1.0266 -0.5611
 3380TIP3   OH210096   1.591   4.641   2.446 -0.1593 -0.0952  0.7405
 3380TIP3    H110097   1.624   4.731   2.450 -0.3822 -0.0653  2.4786
 3380TIP3    H210098   1.666   4.587   2.467 -0.3432 -0.2366  1.0395
 3381TIP3   OH210099   6.966   2.086   2.899  0.6157 -0.3752 -0.2272
 3381TIP3    H110100   6.990   2.049   2.984  0.2518 -0.1651 -0.0339
 3381TIP3    H210101   7.050   2.098   2.854  0.8989  0.5513  0.5227
 3382TIP3   OH210102   0.738   4.183   6.338  0.0331 -0.3392 -0.4885
 3382TIP3    H110103   0.772   4.137   6.415  2.5477 -1.7720 -2.3016
 3382TIP3    H210104   0.716   4.113   6.276 -2.1507  0.7639 -1.0651
 3383TIP3   OH210105   1.119   6.388   2.513 -0.5402 -0.3335  0.4347
 3383TIP3    H110106   1.143   6.452   2.447 -0.2326  1.1580  1.9413
 3383TIP3    H210107   1.034   6.354   2.483 -0.3939  0.2583 -0.7279
 3384TIP3   OH210108   2.295   6.064   6.204 -0.7184  0.0991  0.0100
 3384TIP3    H110109   2.298   6.103   6.291 -1.5852  0.4221 -0.0935
 3384TIP3    H210110   2.363   6.109   6.154 -1.6694  1.4707 -0.0968
 3385TIP3   OH210111   5.441   6.167   1.995 -0.1169  0.0751  0.5528
 3385TIP3    H110112   5.478   6.242   2.042 -1.7830  0.2832  1.6201
 3385TIP3    H210113   5.457   6.092   2.052 -2.2765  0.3506  1.6405
 3386TIP3   OH210114   3.349   4.761   5.825  0.5698  0.0324 -0.0116
 3386TIP3    H110115   3.411   4.807   5.881  0.6851 -0.0833 -0.0445
 3386TIP3    H210116   3.388   4.765   5.738  0.5949 -0.1545 -0.0093
 3387TIP3   OH210117   3.729   5.214   5.486 -0.2073  0.1416  0.2355
 3387TIP3    H110118   3.754   5.128   5.518  0.6685 -0.2941 -1.5026
 3387TIP3    H210119   3.798   5.272   5.519 -0.0735 -0.0516  0.3011
 3388TIP3   OH210120   6.387   7.796   1.911 -0.3063 -0.6319 -0.5097
 3388TIP3    H110121   6.472   7.823   1.945 -0.6075  0.3879 -0.5339
 3388TIP3    H210122   6.384   7.830   1.822 -0.9729 -0.1234 -0.3055
 3389TIP3   OH210123   6.028   4.071   4.725 -0.3303  0.1846  0.0442
 3389TIP3    H110124   6.073   4.009   4.783  0.2797  0.4187 -0.1752
 3389TIP3    H210125   5.938   4.038   4.721 -0.0848 -0.5232  0.1647
 3390TIP3   OH210126   2.173   6.015   2.907 -0.2944  0.0020 -0.9961
 3390TIP3    H110127   2.102   5.971   2.860 -0.6352 -0.0766 -0.4205
 3390TIP3    H210128   2.252   5.970   2.879 -0.6666 -1.2460 -0.1519
 3391TIP3   OH210129   3.847   7.745   1.573 -0.1218  0.1478 -0.1439
 3391TIP3    H110130   3.939   7.738   1.600  0.0389  0.7561 -0.5256
 3391TIP3    H210131   3.798   7.741   1.655  0.3086  1.0300  0.1620
 3392TIP3   OH210132   1.385   3.961   2.039  0.0440 -0.0930  0.0655
 3392TIP3    H110133   1.313   4.005   1.993 -0.3124  0.4067  1.0755
 3392TIP3    H210134   1.342   3.897   2.096  0.4407 -0.3059  0.1270
 3393TIP3   OH210135   7.733   3.793   0.208  0.0515  0.1983 -0.3167
 3393TIP3    H110136   7.714   3.885   0.192  0.9396  0.7342  1.4796
 3393TIP3    H210137   7.826   3.783   0.188 -0.5822 -0.9847 -3.1021
 3394TIP3   OH210138   3.518   0.801   0.801 -0.0358  0.9968  0.3097
 3394TIP3    H110139   3.547   0.714   0.826 -0.6372  0.5247 -0.5792
 3394TIP3    H210140   3.517   0.851   0.883  1.5853  0.5606  0.6291
 3395TIP3   OH210141   4.181   4.905   0.771  0.3119 -0.5667  0.1091
 3395TIP3    H110142   4.126   4.851   0.714 -1.3402  0.2737  0.8457
 3395TIP3    H210143   4.197   4.849   0.848  1.0315 -1.0285 -0.3570
 3396TIP3   OH210144   2.166   1.169   1.042 -0.1703 -0.0506  0.1475
 3396TIP3    H110145   2.241   1.110   1.038  2.2388  2.9003 -1.3528
 3396TIP3    H210146   2.152   1.183   1.136  2.4812  0.7985  0.4980
 3397TIP3   OH210147   7.122   0.126   3.743 -0.7572 -0.0957 -0.3560
 3397TIP3    H110148   7.120   0.105   3.836  2.7149  2.0280  0.3830
 3397TIP3    H210149   7.106   0.221   3.739  1.2363  0.2661 -1.5975
 3398TIP3   OH210150   4.205   5.268   5.509 -0.4097  0.0900 -0.2523
 3398TIP3    H110151   4.297   5.296   5.506  0.6203 -3.0017 -2.2094
 3398TIP3    H210152   4.195   5.229   5.596  0.4236 -0.2788 -0.3076
 3399TIP3   OH210153   2.021   1.929   5.428  0.5389 -0.2463 -0.0259
 3399TIP3    H110154   1.926   1.939   5.421  0.3139 -0.5687  2.0077
 3399TIP3    H210155   2.039   1.844   5.388  0.1160  0.2158 -1.2506
 3400TIP3   OH210156   0.693   1.388   3.987  0.1412 -0.0568  0.2128
 3400TIP3    H110157   0.639   1.453   3.942  0.8994  1.4729  1.4044
 3400TIP3    H210158   0.688   1.412   4.080  2.0328 -0.4607  0.4804
 3401TIP3   OH210159   1.678   1.697   2.144 -0.4491  0.1556 -0.1499
 3401TIP3    H110160   1.686   1.651   2.060  0.2349 -0.3052  0.1602
 3401TIP3    H210161   1.763   1.737   2.158 -0.4284 -0.1070  0.5220
 3402TIP3   OH210162   5.654   5.346   6.519 -0.0861 -0.1136 -0.2400
 3402TIP3    H110163   5.579   5.401   6.540  0.4085  0.1671  0.8543
 3402TIP3    H210164   5.660   5.284   6.592  1.7295  0.9345  0.5610
 3403TIP3   OH210165   1.766   0.766   4.673 -0.0201  0.1562  0.1437
 3403TIP3    H110166   1.683   0.758   4.721 -0.4630  1.6140 -0.3242
 3403TIP3    H210167   1.740   0.776   4.581  0.6138  1.4844  0.0819
 3404TIP3   OH210168   0.309   1.486   1.295  0.5366  0.3660  0.4767
 3404TIP3    H110169   0.223   1.462   1.260  0.2097  2.3516 -0.1780
 3404TIP3    H210170   0.291   1.523   1.381  0.7236  0.8065  0.3307
 3405TIP3   OH210171   8.120   5.627   6.585 -0.1507 -0.4406 -0.7832
 3405TIP3    H110172   8.136   5.720   6.603  0.6036 -0.3764 -1.7040
 3405TIP3    H210173   8.207   5.590   6.571 -0.4825 -1.1756 -0.9389
 3406TIP3   OH210174   5.089   2.257   6.402 -0.2221  0.7050  0.3282
 3406TIP3    H110175   5.003   2.227   6.429  0.2574  0.3047  1.4678
 3406TIP3    H210176   5.140   2.262   6.483  0.2704  2.8191 -0.0320
 3407TIP3   OH210177   5.753   6.479   3.942 -0.3973  0.3681  0.6414
 3407TIP3    H110178   5.778   6.480   4.035  0.0302  1.2566  0.5289
 3407TIP3    H210179   5.675   6.425   3.939  0.3224 -0.7613  1.3285
 3408TIP3   OH210180   0.496   0.672   1.825  0.0748 -0.0802  0.2217
 3408TIP3    H110181   0.429   0.666   1.758 -0.3028  0.2476  0.5634
 3408TIP3    H210182   0.577   0.649   1.780  0.1041  1.7492 -0.7612
 3409TIP3   OH210183   5.429   1.223   0.774  0.4650 -0.0893  0.1523
 3409TIP3    H110184   5.386   1.224   0.859  0.3879  1.7190  0.1358
 3409TIP3    H210185   5.514   1.264   0.790  0.8993 -0.7450 -0.4300
 3410TIP3   OH210186   6.356   3.595   5.466  0.0588 -0.4853  0.0066
 3410TIP3    H110187   6.280   3.544   5.438  1.0808 -1.4966 -1.0375
 3410TIP3    H210188   6.425   3.530   5.480  0.2582  0.1986  2.8025
 3411TIP3   OH210189   6.902   0.863   3.130 -0.9539 -0.4628 -0.3617
 3411TIP3    H110190   6.907   0.836   3.221  0.4142  0.2249 -0.2009
 3411TIP3    H210191   6.914   0.958   3.132  2.2312 -0.7156 -1.4050
 3412TIP3   OH210192   3.195   0.429   1.288 -0.0548 -0.9178  0.7116
 3412TIP3    H110193   3.153   0.343   1.281 -0.6533 -0.7739  2.2734
 3412TIP3    H210194   3.278   0.411   1.333  1.0334 -1.0164 -1.2355
 3413TIP3   OH210195   5.923   4.253   1.074 -0.2269  0.1363 -0.4022
 3413TIP3    H110196   5.998   4.231   1.019 -0.0059  0.3489 -0.1889
 3413TIP3    H210197   5.962   4.291   1.153 -0.5108 -0.7658  0.1878
 3414TIP3   OH210198   8.091   6.893   3.849  0.3725 -0.4538 -1.0923
 3414TIP3    H110199   8.039   6.830   3.898 -1.4551  1.2519 -0.6963
 3414TIP3    H210200   8.173   6.900   3.898 -0.4731 -0.5575  0.3991
 3415TIP3   OH210201   2.637   3.146   6.384 -0.0981  0.2338 -0.2335
 3415TIP3    H110202   2.678   3.070   6.344  1.2537 -0.0551  1.5684
 3415TIP3    H210203   2.556   3.111   6.423  0.6596 -0.4092  0.8418
 3416TIP3   OH210204   4.245   1.397   0.913  0.1874  0.0035 -0.3648
 3416TIP3    H110205   4.288   1.334   0.855  0.3690 -0.7576  0.5492
 3416TIP3    H210206   4.290   1.385   0.997 -1.4060 -0.3872  0.4666
 3417TIP3   OH210207   7.630   4.554   4.394 -0.0888 -0.0613  0.0175
 3417TIP3    H110208   7.635   4.485   4.328  1.0244 -1.3478  1.3601
 3417TIP3    H210209   7.695   4.619   4.367 -1.1186  0.4959 -1.2386
 3418TIP3   OH210210   0.400   1.652   4.895  0.1573 -0.4051  0.2262
 3418TIP3    H110211   0.449   1.570   4.885 -0.4183 -0.8779  1.1367
 3418TIP3    H210212   0.337   1.634   4.965  0.3271  0.9641  0.7617
 3419TIP3   OH210213   3.579   1.195   1.219  0.0755 -0.3162 -0.2283
 3419TIP3    H110214   3.509   1.256   1.243 -0.1137 -0.6034 -0.0425
 3419TIP3    H210215   3.647   1.251   1.179  0.5422  0.2371  1.2530
 3420TIP3   OH210216   3.327   1.951   6.266 -0.0977 -0.5755  0.4441
 3420TIP3    H110217   3.355   1.907   6.347  0.5643 -0.6105  0.2026
 3420TIP3    H210218   3.391   1.923   6.201 -0.0654  0.2183  0.1281
 3421TIP3   OH210219   5.575   4.142   3.791 -0.1443  0.1312 -0.3941
 3421TIP3    H110220   5.540   4.132   3.702 -1.1158 -1.1034  0.1044
 3421TIP3    H210221   5.508   4.105   3.848  0.9105 -0.0347  0.7805
 3422TIP3   OH210222   6.726   2.957   3.982 -0.1110 -0.0070  0.8105
 3422TIP3    H110223   6.784   2.907   4.039 -1.6520 -2.9133  0.0479
 3422TIP3    H210224   6.748   2.928   3.894 -2.3491 -0.9264  0.4824
 3423TIP3   OH210225   7.852   3.089   2.743 -1.0141 -0.1126 -0.0147
 3423TIP3    H110226   7.904   3.144   2.801 -0.4512 -0.9142  0.2513
 3423TIP3    H210227   7.806   3.151   2.686 -0.8854  0.6474  0.6930
 3424TIP3   OH210228   4.287   0.466   1.315  0.2416 -0.0777 -0.1754
 3424TIP3    H110229   4.255   0.555   1.302 -0.0381 -0.2298 -0.5302
 3424TIP3    H210230   4.214   0.421   1.359  0.6540  0.0605  0.6727
 3425TIP3   OH210231   0.983   5.283   6.085 -0.6119  0.2962 -0.0513
 3425TIP3    H110232   0.942   5.362   6.049 -1.0830  0.2489  0.3705
 3425TIP3    H210233   0.961   5.214   6.022 -2.0939  0.0529  0.6776
 3426TIP3   OH210234   5.590   1.256   6.744  0.5376 -0.5564 -0.4592
 3426TIP3    H110235   5.533   1.221   6.675 -0.0885 -1.0087  0.2577
 3426TIP3    H210236   5.648   1.317   6.699 -0.4660 -0.1444 -1.2333
 3427TIP3   OH210237   0.608   7.653   6.099 -0.0234 -0.3120  0.0265
 3427TIP3    H110238   0.685   7.683   6.147 -0.5027  0.8022  0.1159
 3427TIP3    H210239   0.610   7.557   6.110 -0.3553 -0.1106  2.7216
 3428TIP3   OH210240   0.646   2.681   4.344  0.3033  0.2050 -0.4840
 3428TIP3    H110241   0.734   2.651   4.365  0.1066 -0.0375 -0.0038
 3428TIP3    H210242   0.605   2.696   4.429  0.3476  1.7052 -0.6968
 3429TIP3   OH210243   1.218   7.619   0.393  0.1396  0.5568  0.0830
 3429TIP3    H110244   1.127   7.605   0.421 -0.1643 -0.0637 -1.1188
 3429TIP3    H210245   1.254   7.681   0.456 -1.1620  0.9172  0.4996
 3430TIP3   OH210246   8.168   5.168   3.151  0.3841  0.4429  0.1081
 3430TIP3    H110247   8.173   5.229   3.225  1.0275  0.6021 -0.0660
 3430TIP3    H210248   8.074   5.159   3.135  0.2836  1.4491  0.0848
 3431TIP3   OH210249   5.227   4.147   0.378  0.2442  0.9143  0.7394
 3431TIP3    H110250   5.141   4.105   0.368  0.7327  0.4930 -3.5613
 3431TIP3    H210251   5.207   4.241   0.378 -0.3443  1.1335 -4.7935
 3432TIP3   OH210252   1.371   4.336   0.610  0.1580  0.1650  0.6028
 3432TIP3    H110253   1.394   4.261   0.664 -1.1568  0.0861  1.0869
 3432TIP3    H210254   1.445   4.396   0.620  0.7230 -0.5918  1.0885
 3433TIP3   OH210255   1.594   0.689   4.170 -0.4457 -0.5748 -0.2503
 3433TIP3    H110256   1.677   0.728   4.144 -0.3644  0.5251  1.4949
 3433TIP3    H210257   1.599   0.599   4.138  1.3768 -0.5133 -0.2571
 3434TIP3   OH210258   6.344   0.837   3.779 -0.2686  0.4274  0.3220
 3434TIP3    H110259   6.369   0.801   3.864  0.4286 -0.9463 -0.4320
 3434TIP3    H210260   6.382   0.777   3.716  0.9485  2.4907 -1.0205
 3435TIP3   OH210261   1.658   2.646   5.807 -0.0799 -0.4044  0.3541
 3435TIP3    H110262   1.751   2.664   5.822 -0.3487  1.9573 -0.4626
 3435TIP3    H210263   1.657   2.598   5.724  0.3363  1.6979 -0.9521
 3436TIP3   OH210264   7.379   6.680   2.761 -0.1524  0.4541  0.0277
 3436TIP3    H110265   7.366   6.745   2.692  0.6812  0.2982 -0.2864
 3436TIP3    H210266   7.473   6.678   2.775 -0.2194 -0.2682  0.4426
 3437TIP3   OH210267   8.090   5.346   4.283  0.2588  0.2828  0.2484
 3437TIP3    H110268   8.131   5.285   4.345 -0.3053 -2.2351 -1.6963
 3437TIP3    H210269   7.997   5.345   4.306  0.0851 -0.4716 -0.4328
 3438TIP3   OH210270   6.329   7.677   4.638 -0.5563  0.5582 -0.0950
 3438TIP3    H110271   6.367   7.762   4.615 -0.4496  0.2238 -1.1918
 3438TIP3    H210272   6.345   7.622   4.562 -1.6130 -0.1320  0.1631
 3439TIP3   OH210273   4.553   0.375   4.550 -0.3032 -0.1503  0.0380
 3439TIP3    H110274   4.623   0.426   4.591  0.5339 -0.0224 -1.4649
 3439TIP3    H210275   4.506   0.438   4.496 -1.0489 -0.4179  0.3667
 3440TIP3   OH210276   4.955   5.963   3.795  0.3363 -0.1847  0.2445
 3440TIP3    H110277   5.004   5.938   3.716  0.5665 -0.0269  0.3369
 3440TIP3    H210278   4.893   5.892   3.808 -0.8967  0.6003 -1.0881
 3441TIP3   OH210279   0.398   1.635   0.624 -0.2624 -0.3809  0.3822
 3441TIP3    H110280   0.373   1.725   0.644  0.7100  0.2216 -0.9553
 3441TIP3    H210281   0.329   1.603   0.566  0.0538 -0.0439 -0.1875
 3442TIP3   OH210282   0.612   1.127   5.536 -0.5616 -1.4880  0.5306
 3442TIP3    H110283   0.639   1.055   5.479  2.6761  1.9096 -2.6963
 3442TIP3    H210284   0.681   1.133   5.602  1.9304  1.2577 -2.0254
 3443TIP3   OH210285   7.148   0.792   6.202 -0.1445 -0.5990  0.3320
 3443TIP3    H110286   7.227   0.738   6.205 -0.6029 -1.2851  0.1697
 3443TIP3    H210287   7.076   0.730   6.201 -0.7937  0.0145  2.5366
 3444TIP3   OH210288   6.299   6.592   4.642  0.2133  0.7411 -0.3800
 3444TIP3    H110289   6.347   6.519   4.680 -1.2264 -1.2048 -2.0744
 3444TIP3    H210290   6.367   6.652   4.611  1.4258  0.3325  1.3636
 3445TIP3   OH210291   7.234   5.008   2.674 -0.1500 -0.7787  0.2513
 3445TIP3    H110292   7.171   5.079   2.689  1.2975  0.8264 -0.8619
 3445TIP3    H210293   7.191   4.950   2.611 -1.4319 -1.0348  1.3208
 3446TIP3   OH210294   6.005   4.236   3.831 -0.1149  0.4520 -0.3761
 3446TIP3    H110295   5.922   4.276   3.802  1.0472  3.4940  0.1192
 3446TIP3    H210296   6.001   4.239   3.926  0.3711  0.1353 -0.3438
 3447TIP3   OH210297   3.617   0.937   1.777  0.1307 -0.5205  0.0702
 3447TIP3    H110298   3.686   0.956   1.713 -1.2700  0.6139 -1.1627
 3447TIP3    H210299   3.539   0.981   1.742 -1.3228 -2.0635  1.2142
 3448TIP3   OH210300   5.425   2.543   5.410  0.8606  0.0807  0.2763
 3448TIP3    H110301   5.487   2.578   5.346  1.1138 -0.9530 -0.0599
 3448TIP3    H210302   5.478   2.490   5.469  0.5592  0.6527  1.0880
 3449TIP3   OH210303   1.765   6.894   5.260  0.2434 -0.0434  0.5389
 3449TIP3    H110304   1.768   6.900   5.165  3.2831  0.4559  0.5861
 3449TIP3    H210305   1.846   6.849   5.284  1.2493  2.7880  3.0269
 3450TIP3   OH210306   2.669   5.197   1.771  0.4484 -0.2761 -0.6120
 3450TIP3    H110307   2.596   5.139   1.751 -2.4184  2.0629  2.0221
 3450TIP3    H210308   2.740   5.138   1.798 -1.1046 -2.6086 -1.3427
 3451TIP3   OH210309   2.336   2.491   0.506 -0.5501  0.3238 -0.1952
 3451TIP3    H110310   2.395   2.551   0.552  0.7468 -1.3330  0.4062
 3451TIP3    H210311   2.295   2.440   0.576 -0.9433 -0.1069 -0.7405
 3452TIP3   OH210312   4.564   2.950   4.500 -0.3740  0.2398 -0.0433
 3452TIP3    H110313   4.614   2.968   4.579  0.1438  0.5088 -0.4266
 3452TIP3    H210314   4.568   2.855   4.490 -0.0444  0.2486  0.0003
 3453TIP3   OH210315   0.600   5.521   2.956 -0.0862  0.0104  0.2085
 3453TIP3    H110316   0.560   5.484   2.877 -1.3393  1.1929  0.2678
 3453TIP3    H210317   0.692   5.494   2.950 -0.6620 -2.0139 -0.3774
 3454TIP3   OH210318   3.667   1.270   3.275 -0.2338  0.0460 -0.5473
 3454TIP3    H110319   3.705   1.219   3.346 -1.5643 -2.2768 -1.4167
 3454TIP3    H210320   3.665   1.360   3.309  1.8268 -0.4789  1.1886
 3455TIP3   OH210321   6.426   3.397   0.897  0.5430 -0.2101 -0.4245
 3455TIP3    H110322   6.450   3.381   0.989  0.3058  3.3416  0.3878
 3455TIP3    H210323   6.331   3.390   0.895  0.1830  2.9273  0.5031
 3456TIP3   OH210324   5.372   7.086   4.313 -0.1139 -0.2294 -0.0679
 3456TIP3    H110325   5.436   7.017   4.294 -0.3041 -0.7784  1.2314
 3456TIP3    H210326   5.413   7.166   4.280  0.9877 -0.6637  0.2082
 3457TIP3   OH210327   3.215   1.005   5.775  0.5005  0.0152 -0.4862
 3457TIP3    H110328   3.289   0.948   5.796  0.8544  0.8113  0.5034
 3457TIP3    H210329   3.144   0.945   5.753  1.7217 -0.7573 -2.6058
 3458TIP3   OH210330   0.146   0.937   3.309  0.2242  0.0863  0.0970
 3458TIP3    H110331   0.219   0.888   3.347 -0.5517 -1.1215  0.1062
 3458TIP3    H210332   0.074   0.874   3.308  0.0065  0.2641 -2.6966
 3459TIP3   OH210333   2.157   5.592   4.098 -0.3079  0.4118  0.0378
 3459TIP3    H110334   2.119   5.505   4.089  0.0791  0.2567 -0.1535
 3459TIP3    H210335   2.180   5.600   4.191 -0.4962  0.3752  0.0874
 3460TIP3   OH210336   6.269   3.343   0.236 -0.6601  0.2246 -0.3228
 3460TIP3    H110337   6.207   3.413   0.252 -0.7511  0.6129 -2.1814
 3460TIP3    H210338   6.351   3.388   0.214 -0.2753 -0.2721  0.0590
 3461TIP3   OH210339   0.672   4.748   4.698  0.7421 -0.5573 -0.3509
 3461TIP3    H110340   0.750   4.716   4.743  2.1189  0.5365 -1.8388
 3461TIP3    H210341   0.675   4.843   4.710 -0.3868 -0.5073 -0.4016
 3462TIP3   OH210342   2.403   6.222   5.222  0.0476 -0.2162  0.1063
 3462TIP3    H110343   2.371   6.273   5.148  0.3631  1.5203  1.1237
 3462TIP3    H210344   2.491   6.194   5.196 -0.2081 -0.4419 -0.5409
 3463TIP3   OH210345   0.832   4.158   1.905 -0.3330  0.2174  0.1028
 3463TIP3    H110346   0.830   4.163   1.809 -0.6393 -0.7028  0.0592
 3463TIP3    H210347   0.783   4.079   1.927 -0.3083  0.4460  1.0261
 3464TIP3   OH210348   1.570   6.918   6.039  0.0434 -0.3009 -0.1221
 3464TIP3    H110349   1.633   6.846   6.032  1.3953  0.8678 -0.4382
 3464TIP3    H210350   1.488   6.876   6.065  0.5366 -2.0751 -1.2540
 3465TIP3   OH210351   7.296   6.635   3.801  0.0326  0.3256 -0.2948
 3465TIP3    H110352   7.328   6.657   3.888  1.1773 -3.0108  0.3017
 3465TIP3    H210353   7.202   6.656   3.804  0.0595  0.3837  1.7177
 3466TIP3   OH210354   5.535   1.470   3.520 -0.2499  0.0103 -0.7474
 3466TIP3    H110355   5.584   1.535   3.470 -0.0519  2.5943  2.5165
 3466TIP3    H210356   5.447   1.471   3.482 -0.5307  2.9868 -0.2497
 3467TIP3   OH210357   7.027   6.655   3.308 -0.4945  0.0396 -0.1336
 3467TIP3    H110358   6.934   6.666   3.325 -0.7654 -2.6781  0.7186
 3467TIP3    H210359   7.069   6.673   3.392 -0.5364 -1.0984  0.1478
 3468TIP3   OH210360   0.528   1.498   6.573 -0.0399  0.5276  0.3212
 3468TIP3    H110361   0.486   1.418   6.602 -1.2911  0.0432 -2.4946
 3468TIP3    H210362   0.618   1.473   6.552 -0.8042 -0.6210 -1.9590
 3469TIP3   OH210363   6.468   7.069   1.128 -0.7871 -0.1385 -0.3011
 3469TIP3    H110364   6.414   7.032   1.058  0.5075  1.0594 -2.0308
 3469TIP3    H210365   6.412   7.134   1.170 -1.3550 -0.3698 -0.6864
 3470TIP3   OH210366   1.830   1.762   3.180 -0.1510  0.0793  0.4677
 3470TIP3    H110367   1.769   1.769   3.106  0.5718 -0.0830 -0.1482
 3470TIP3    H210368   1.905   1.714   3.146  0.2162  0.0393  1.2977
 3471TIP3   OH210369   6.744   3.631   5.496  0.6303 -0.1833 -0.3935
 3471TIP3    H110370   6.666   3.638   5.550  0.4173  2.9584 -0.9279
 3471TIP3    H210371   6.731   3.551   5.445 -1.1821 -0.8848  1.0648
 3472TIP3   OH210372   5.231   5.307   5.716 -0.1570  0.5438 -0.5403
 3472TIP3    H110373   5.259   5.234   5.660 -0.6180  0.3011 -0.4569
 3472TIP3    H210374   5.176   5.361   5.660 -2.5412 -0.9109  0.2623
 3473TIP3   OH210375   4.179   2.704   4.421  0.2630  0.3113 -0.2286
 3473TIP3    H110376   4.115   2.636   4.398 -0.5030  1.0369 -0.2807
 3473TIP3    H210377   4.128   2.785   4.423  0.8013  0.6555  1.5111
 3474TIP3   OH210378   6.270   1.426   5.110 -0.2274 -0.2288  0.0750
 3474TIP3    H110379   6.293   1.373   5.186  0.6077  2.2731  1.6994
 3474TIP3    H210380   6.264   1.364   5.038 -1.0963 -2.7419  2.1545
 3475TIP3   OH210381   4.328   4.517   1.580 -0.4888 -0.3281  0.4511
 3475TIP3    H110382   4.357   4.426   1.577  2.4246  0.4681  1.2747
 3475TIP3    H210383   4.323   4.538   1.673 -0.5347  0.5184  0.2637
 3476TIP3   OH210384   0.809   7.471   5.028 -0.1019 -0.0821  0.4780
 3476TIP3    H110385   0.799   7.486   4.934 -1.4970  0.7733  0.7294
 3476TIP3    H210386   0.844   7.554   5.061  0.3042 -0.3504  0.7297
 3477TIP3   OH210387   0.911   3.045   5.634  0.2754 -0.5860  0.2245
 3477TIP3    H110388   0.927   3.139   5.623 -1.2062 -0.1761  1.2219
 3477TIP3    H210389   0.961   3.004   5.564  0.5550  0.9776 -0.5462
 3478TIP3   OH210390   4.466   5.466   3.155  0.3173  0.0706  0.4252
 3478TIP3    H110391   4.398   5.420   3.204 -0.3825  0.0673 -0.5257
 3478TIP3    H210392   4.536   5.480   3.219 -0.5418  0.0126  1.4106
 3479TIP3   OH210393   5.494   2.052   5.245 -0.0855  0.0237 -0.3798
 3479TIP3    H110394   5.532   1.982   5.298 -1.0551  0.0703  0.4102
 3479TIP3    H210395   5.458   2.113   5.309  0.8589  1.3271 -1.0611
 3480TIP3   OH210396   6.693   5.936   0.825 -0.0451 -0.1294 -0.1561
 3480TIP3    H110397   6.694   5.996   0.750 -1.7063  0.0177 -0.1071
 3480TIP3    H210398   6.758   5.972   0.885 -0.1995  0.9738 -0.6173
 3481TIP3   OH210399   6.925   3.209   0.703  0.3466  0.6025 -0.3054
 3481TIP3    H110400   6.877   3.242   0.778 -0.8271 -1.3816 -0.0972
 3481TIP3    H210401   6.873   3.236   0.627 -0.9218 -1.0666 -0.1086
 3482TIP3   OH210402   4.650   3.165   5.172  0.0604 -0.3191  0.0082
 3482TIP3    H110403   4.599   3.093   5.136 -2.2423  0.3314  1.7420
 3482TIP3    H210404   4.699   3.126   5.244  0.8388 -0.6072 -0.6488
 3483TIP3   OH210405   5.784   5.433   0.250  0.4520 -0.1347 -0.4236
 3483TIP3    H110406   5.711   5.440   0.313 -0.9682 -0.8602 -1.9114
 3483TIP3    H210407   5.809   5.524   0.232  0.9064  0.0867  1.1695
 3484TIP3   OH210408   4.266   4.015   3.255 -0.1969  0.0365  0.0686
 3484TIP3    H110409   4.319   4.070   3.311  0.9192 -0.3974 -0.5350
 3484TIP3    H210410   4.296   4.034   3.166 -0.3785 -0.9222 -0.2093
 3485TIP3   OH210411   3.386   5.939   2.352  0.2655  0.2854 -0.1684
 3485TIP3    H110412   3.475   5.906   2.341  0.4200  0.6548 -0.0480
 3485TIP3    H210413   3.396   6.035   2.348  0.1676  0.4102  1.9268
 3486TIP3   OH210414   0.555   3.113   5.449 -0.2756  0.1109  0.0088
 3486TIP3    H110415   0.554   3.098   5.544  1.8378  0.9900  0.2408
 3486TIP3    H210416   0.573   3.207   5.441  1.0106 -0.2195 -1.2377
 3487TIP3   OH210417   0.986   4.942   1.834  0.3694 -0.0793  0.1247
 3487TIP3    H110418   0.982   4.886   1.757  1.5720  0.7410 -0.5740
 3487TIP3    H210419   0.936   4.895   1.901  0.3835 -1.4169 -0.7696
 3488TIP3   OH210420   6.304   4.456   3.096 -0.2653 -0.1182 -0.4054
 3488TIP3    H110421   6.370   4.526   3.098 -0.6316  0.2169  0.2137
 3488TIP3    H210422   6.329   4.398   3.169 -1.2041  0.5303  0.4567
 3489TIP3   OH210423   5.243   0.498   3.031 -0.0407 -0.5448 -0.5106
 3489TIP3    H110424   5.221   0.482   2.940 -1.9973  0.9564 -0.3772
 3489TIP3    H210425   5.330   0.538   3.028  0.2015 -1.1187 -1.6373
 3490TIP3   OH210426   1.233   2.173   2.231 -0.2816 -0.0372  0.0221
 3490TIP3    H110427   1.153   2.200   2.277  0.2963  0.1683  0.9241
 3490TIP3    H210428   1.303   2.220   2.276  0.3572 -0.2589 -0.7291
 3491TIP3   OH210429   0.535   5.276   5.197  0.2586 -0.3354 -0.2559
 3491TIP3    H110430   0.550   5.314   5.110  1.9007  1.4293  0.6966
 3491TIP3    H210431   0.487   5.195   5.180 -1.7277  1.1824 -2.6036
 3492TIP3   OH210432   6.740   7.738   4.252  0.2140  0.0194 -0.1224
 3492TIP3    H110433   6.661   7.788   4.273  0.1442 -0.8675  1.9286
 3492TIP3    H210434   6.777   7.713   4.337  1.6819 -1.1771 -1.0505
 3493TIP3   OH210435   0.747   0.918   2.119  0.0893  0.2647 -0.1611
 3493TIP3    H110436   0.699   0.943   2.040 -0.8091 -0.5243  0.1222
 3493TIP3    H210437   0.762   1.001   2.165  1.5682  0.8737 -1.6436
 3494TIP3   OH210438   3.146   6.714   3.752  0.3778 -0.1405  0.2672
 3494TIP3    H110439   3.227   6.710   3.802  0.0156 -3.3546  0.7899
 3494TIP3    H210440   3.107   6.627   3.761 -3.0578  1.1688 -0.1192
 3495TIP3   OH210441   1.814   1.648   1.093  0.2364 -0.2350 -0.6222
 3495TIP3    H110442   1.769   1.599   1.025  0.6848 -1.9404  0.2508
 3495TIP3    H210443   1.769   1.733   1.096 -2.5740 -1.6414 -0.1600
 3496TIP3   OH210444   5.070   2.620   6.653  0.3772 -0.0937 -0.9902
 3496TIP3    H110445   5.006   2.549   6.659 -0.4125  0.4133 -2.9164
 3496TIP3    H210446   5.133   2.589   6.588  1.3347  0.0332 -0.1560
 3497TIP3   OH210447   0.502   4.917   3.557 -0.1731  0.2173  0.0835
 3497TIP3    H110448   0.591   4.912   3.524  0.1873  0.8199  0.9407
 3497TIP3    H210449   0.453   4.853   3.505  0.7708 -0.1785 -0.3269
 3498TIP3   OH210450   5.589   0.566   5.253  0.2526 -0.4099 -0.1399
 3498TIP3    H110451   5.580   0.600   5.164  0.9916 -0.7190 -0.3379
 3498TIP3    H210452   5.505   0.587   5.295 -0.8104 -1.8487 -1.4488
 3499TIP3   OH210453   4.647   2.490   6.039 -0.5432  0.2394  0.0535
 3499TIP3    H110454   4.674   2.570   5.995  1.7246 -1.1021 -1.2090
 3499TIP3    H210455   4.720   2.468   6.096 -2.1151  0.2423  2.1785
 3500TIP3   OH210456   4.380   0.204   3.939 -0.9936 -0.1624  0.3618
 3500TIP3    H110457   4.465   0.200   3.895 -2.2877 -0.3098 -2.3022
 3500TIP3    H210458   4.372   0.120   3.985  1.1228  0.6796  2.4779
 3501TIP3   OH210459   4.600   2.267   6.747 -0.0218  0.4320  0.3121
 3501TIP3    H110460   4.692   2.250   6.723 -0.7640 -0.5908 -2.1604
 3501TIP3    H210461   4.589   2.225   6.832  1.6494  0.0419  0.3684
 3502TIP3   OH210462   5.257   0.174   0.372 -0.3566 -0.0893  0.2559
 3502TIP3    H110463   5.201   0.115   0.321 -0.0697 -0.8019  0.7399
 3502TIP3    H210464   5.204   0.253   0.385 -0.1159  0.4788 -1.8787
 3503TIP3   OH210465   2.842   2.190   5.946  0.3429 -0.4041 -0.3859
 3503TIP3    H110466   2.801   2.144   5.873  0.0844 -0.7393 -0.0341
 3503TIP3    H210467   2.865   2.121   6.008  0.5390 -0.1211 -0.1386
 3504TIP3   OH210468   5.905   4.024   2.760  0.1517  0.0447  0.3929
 3504TIP3    H110469   5.986   3.976   2.740  0.6822  1.1726 -0.2885
 3504TIP3    H210470   5.867   3.977   2.834  1.3805 -0.5785  0.6591
 3505TIP3   OH210471   6.824   2.482   2.428 -0.2612  0.3488 -0.8029
 3505TIP3    H110472   6.784   2.498   2.514 -3.3539  0.6822 -2.1935
 3505TIP3    H210473   6.751   2.467   2.369  1.7695 -0.2206 -3.3865
 3506TIP3   OH210474   6.193   0.409   6.235  0.3497  0.1832  0.0796
 3506TIP3    H110475   6.149   0.330   6.204 -1.6669  1.1307  0.3796
 3506TIP3    H210476   6.123   0.463   6.271  1.8895  1.4125  1.4022
 3507TIP3   OH210477   5.889   5.617   3.895 -0.0585 -0.2347 -0.7818
 3507TIP3    H110478   5.868   5.605   3.802  0.5767 -1.5959 -0.7820
 3507TIP3    H210479   5.806   5.602   3.940  0.0787 -1.9931 -1.0144
 3508TIP3   OH210480   3.287   7.375   0.864  0.0942  0.4233 -0.2471
 3508TIP3    H110481   3.343   7.449   0.843  2.8253 -1.0995  1.1533
 3508TIP3    H210482   3.294   7.365   0.959 -1.9243 -0.3861 -0.1172
 3509TIP3   OH210483   7.660   7.829   4.929 -0.1050  0.5178  0.3688
 3509TIP3    H110484   7.683   7.736   4.927 -0.6550  0.3142  2.0479
 3509TIP3    H210485   7.573   7.831   4.970 -1.0677  1.6351 -1.5881
 3510TIP3   OH210486   7.431   1.038   0.700  0.5773  0.2088 -0.3182
 3510TIP3    H110487   7.369   1.107   0.727 -0.0871 -0.9793  1.3722
 3510TIP3    H210488   7.491   1.030   0.773  2.7142  1.1943 -1.8555
 3511TIP3   OH210489   2.028   5.529   2.455  0.4579 -0.0015 -0.1689
 3511TIP3    H110490   2.039   5.483   2.372  0.7121  1.1909 -0.8202
 3511TIP3    H210491   2.072   5.613   2.442  0.5886  0.1724  1.2109
 3512TIP3   OH210492   2.847   1.566   0.030 -0.0254 -0.0053  0.2089
 3512TIP3    H110493   2.797   1.564   0.112 -0.4243 -1.7848 -0.0454
 3512TIP3    H210494   2.925   1.513   0.048  1.1898  1.6607  0.1833
 3513TIP3   OH210495   4.497   4.640   0.350 -0.3862  0.3231  0.3097
 3513TIP3    H110496   4.551   4.665   0.274 -1.0049  0.8430  0.0303
 3513TIP3    H210497   4.512   4.710   0.414 -0.5874  0.3793  0.2969
 3514TIP3   OH210498   6.480   2.541   6.008  0.2858  0.2091 -0.0445
 3514TIP3    H110499   6.479   2.606   5.939  2.1523 -1.2727 -1.5772
 3514TIP3    H210500   6.388   2.516   6.019 -0.1838  1.4362 -1.0050
 3515TIP3   OH210501   5.430   3.946   4.771  0.5026 -0.1686  0.2887
 3515TIP3    H110502   5.487   4.020   4.750  1.3196 -0.6697  0.6993
 3515TIP3    H210503   5.478   3.896   4.836  0.2252 -1.3921 -0.4073
 3516TIP3   OH210504   6.222   2.809   3.755 -0.4142  0.3408 -0.1792
 3516TIP3    H110505   6.165   2.819   3.680 -2.2880 -0.0410  1.1315
 3516TIP3    H210506   6.205   2.720   3.787 -1.7234  1.3761  2.2497
 3517TIP3   OH210507   2.134   3.300   1.918 -0.1950 -0.3955  0.3251
 3517TIP3    H110508   2.224   3.269   1.909 -0.0829  0.1633 -0.5462
 3517TIP3    H210509   2.140   3.395   1.914 -0.6715 -0.2767  1.7402
 3518TIP3   OH210510   2.333   6.979   2.378  0.0046  0.2020 -0.1808
 3518TIP3    H110511   2.255   6.924   2.388 -0.3169  0.7085  0.1911
 3518TIP3    H210512   2.400   6.935   2.429 -0.2742  0.2013  0.1903
 3519TIP3   OH210513   4.743   1.028   3.322 -0.4821 -0.5282 -0.3071
 3519TIP3    H110514   4.816   1.090   3.322 -0.3411 -0.6907 -0.8304
 3519TIP3    H210515   4.717   1.022   3.230 -2.4864  1.0803  0.0762
 3520TIP3   OH210516   0.266   3.992   5.963  0.2019 -0.0572 -0.0387
 3520TIP3    H110517   0.345   4.037   5.993  0.4813  0.2153 -1.1260
 3520TIP3    H210518   0.284   3.971   5.871 -1.7882  1.8856 -0.9764
 3521TIP3   OH210519   4.767   0.258   4.919 -0.1161  0.1482 -0.8275
 3521TIP3    H110520   4.756   0.165   4.939  2.3414  0.0905  0.6465
 3521TIP3    H210521   4.688   0.281   4.870 -2.4442 -1.8923  1.6282
 3522TIP3   OH210522   5.346   1.847   4.961 -0.0922 -0.1824 -0.9570
 3522TIP3    H110523   5.278   1.782   4.942 -0.5689 -1.2393  3.4196
 3522TIP3    H210524   5.422   1.795   4.988  0.3879  1.0272  0.1346
 3523TIP3   OH210525   3.130   7.089   1.764 -0.4502 -0.3137 -0.1764
 3523TIP3    H110526   3.053   7.139   1.793 -2.4133 -2.2358 -1.7198
 3523TIP3    H210527   3.194   7.156   1.740 -1.9286  1.3879  0.3730
 3524TIP3   OH210528   3.509   2.465   3.545 -0.4077  0.0546  0.7743
 3524TIP3    H110529   3.432   2.505   3.586 -0.5237 -0.4285  1.0245
 3524TIP3    H210530   3.541   2.533   3.485 -0.4605  0.6189  1.3726
 3525TIP3   OH210531   3.651   1.989   6.366 -0.2275  0.4983 -0.8854
 3525TIP3    H110532   3.689   1.912   6.323  1.2999  0.2412  0.7856
 3525TIP3    H210533   3.578   1.955   6.417  0.7970 -0.0049  0.3076
 3526TIP3   OH210534   6.925   6.176   5.245 -0.1617 -0.1386 -0.3443
 3526TIP3    H110535   6.840   6.146   5.215  0.5531 -1.7405 -0.8710
 3526TIP3    H210536   6.974   6.096   5.264  1.7712  0.6756 -1.5714
 3527TIP3   OH210537   6.002   5.757   4.872  0.2943  0.5505  0.1787
 3527TIP3    H110538   5.971   5.786   4.958  0.4332  0.9537  0.0965
 3527TIP3    H210539   5.990   5.662   4.873  1.3980  0.3900  1.0952
 3528TIP3   OH210540   7.398   4.240   2.059 -0.1644  0.1378 -0.1779
 3528TIP3    H110541   7.403   4.180   1.984 -0.1225 -0.0163 -0.0524
 3528TIP3    H210542   7.363   4.186   2.130  1.8994 -0.3441  0.5457
 3529TIP3   OH210543   7.396   0.151   3.899  0.1617  0.6588  0.7016
 3529TIP3    H110544   7.358   0.233   3.869 -0.8266 -0.5180 -1.5500
 3529TIP3    H210545   7.378   0.148   3.993 -0.5263  2.6083  0.6634
 3530TIP3   OH210546   6.408   0.079   3.295  0.3898  0.1483  0.4115
 3530TIP3    H110547   6.315   0.067   3.312  0.4413 -0.9363 -0.0049
 3530TIP3    H210548   6.433   0.004   3.242  1.7160 -0.1006  1.3370
 3531TIP3   OH210549   8.194   5.071   4.067  0.0658 -0.1188  0.0518
 3531TIP3    H110550   8.128   5.135   4.038 -0.1066  0.2568  1.2036
 3531TIP3    H210551   8.252   5.121   4.124 -0.0832 -0.9872  0.9960
 3532TIP3   OH210552   4.898   0.618   0.699  0.0961 -0.2863  0.3560
 3532TIP3    H110553   4.945   0.670   0.634  0.2650 -0.6425  0.1928
 3532TIP3    H210554   4.884   0.533   0.657  1.7188 -1.1099  1.3993
 3533TIP3   OH210555   5.810   2.892   1.063  0.0417  0.1370  0.1360
 3533TIP3    H110556   5.849   2.970   1.104  0.8387 -0.7725  1.1708
 3533TIP3    H210557   5.860   2.879   0.983 -0.2862  0.8447 -0.1950
 3534TIP3   OH210558   2.823   0.480   3.800 -0.1431 -0.2899 -0.0122
 3534TIP3    H110559   2.877   0.548   3.841  0.3178 -0.2686 -0.6338
 3534TIP3    H210560   2.788   0.430   3.873  0.5455 -0.1613  0.4180
 3535TIP3   OH210561   2.282   3.550   3.860  0.0112 -0.2642 -0.5184
 3535TIP3    H110562   2.310   3.547   3.952  0.1607  0.0135 -0.5545
 3535TIP3    H210563   2.363   3.548   3.810  0.0058  1.0372 -0.6151
 3536TIP3   OH210564   6.184   2.320   5.196  0.2623 -0.4629 -0.1120
 3536TIP3    H110565   6.120   2.352   5.132  0.2581  0.0497  0.1428
 3536TIP3    H210566   6.267   2.319   5.148 -0.2088 -2.9018 -1.0155
 3537TIP3   OH210567   0.915   1.010   6.659 -0.0163 -0.2362 -0.2108
 3537TIP3    H110568   1.000   1.031   6.621  0.7388 -2.1010  0.3387
 3537TIP3    H210569   0.870   0.958   6.592 -1.0373  1.2650 -0.7563
 3538TIP3   OH210570   6.201   1.453   5.548 -0.4266 -0.4502 -0.1771
 3538TIP3    H110571   6.187   1.484   5.459 -0.6949  0.8533  0.2884
 3538TIP3    H210572   6.178   1.361   5.546  1.3233 -0.9026 -1.8574
 3539TIP3   OH210573   1.824   5.880   6.539 -0.0665  0.0369 -0.2098
 3539TIP3    H110574   1.851   5.793   6.509  1.2582 -0.1225  1.3137
 3539TIP3    H210575   1.879   5.897   6.615 -0.0132  2.4088 -0.7151
 3540TIP3   OH210576   3.991   3.745   4.692  0.4088  0.0233  0.2035
 3540TIP3    H110577   4.042   3.765   4.613  0.9773 -0.9321  0.3128
 3540TIP3    H210578   3.922   3.686   4.663  0.0191  0.4525  0.2500
 3541TIP3   OH210579   8.134   6.946   5.774 -0.2658 -0.1867 -0.3284
 3541TIP3    H110580   8.167   6.871   5.726  0.1932 -0.1003 -0.1587
 3541TIP3    H210581   8.109   6.911   5.860 -0.9925 -0.3230 -0.5900
 3542TIP3   OH210582   4.308   1.073   4.400  0.0069 -0.6658 -0.1332
 3542TIP3    H110583   4.348   1.015   4.335  0.1653 -1.6568  0.8050
 3542TIP3    H210584   4.223   1.032   4.418 -0.0002 -0.4459  0.3315
 3543TIP3   OH210585   5.741   2.546   2.695 -0.0918 -0.7396  0.2865
 3543TIP3    H110586   5.735   2.556   2.790  0.0370 -1.3128  0.3614
 3543TIP3    H210587   5.698   2.463   2.677 -2.8167  0.7197 -0.5203
 3544TIP3   OH210588   1.584   0.232   5.366 -0.0071 -0.5405 -0.2515
 3544TIP3    H110589   1.625   0.305   5.320  0.6652 -2.3596 -2.7317
 3544TIP3    H210590   1.656   0.192   5.415 -0.0085 -0.5690 -0.2734
 3545TIP3   OH210591   1.105   5.541   0.638 -0.5219 -0.3806  0.1114
 3545TIP3    H110592   1.100   5.614   0.577  0.7521  0.0722  0.5229
 3545TIP3    H210593   1.060   5.573   0.717  1.5492  0.6691  0.9326
 3546TIP3   OH210594   5.904   1.478   0.533  0.2730 -0.5602  0.4466
 3546TIP3    H110595   5.931   1.407   0.592  0.7270 -1.7212 -1.0845
 3546TIP3    H210596   5.974   1.542   0.539  0.2345 -0.5826  1.2815
 3547TIP3   OH210597   4.470   6.778   1.062  0.5306 -0.4249 -0.0690
 3547TIP3    H110598   4.545   6.802   1.116  1.0220 -1.2323 -0.3809
 3547TIP3    H210599   4.464   6.848   0.997 -0.3083  0.7695  1.2304
 3548TIP3   OH210600   5.142   7.219   1.860 -0.2908  0.7451 -0.0317
 3548TIP3    H110601   5.060   7.220   1.910 -1.0092  1.7637 -1.1520
 3548TIP3    H210602   5.179   7.133   1.875 -2.1806 -0.1839 -0.4270
 3549TIP3   OH210603   6.015   4.925   6.435 -0.6665  0.0604  0.3414
 3549TIP3    H110604   5.972   4.979   6.369  0.0933  1.1139  0.6776
 3549TIP3    H210605   6.107   4.947   6.428 -0.4287 -0.6603  0.9962
 3550TIP3   OH210606   5.557   1.101   1.649 -0.3785 -0.1695  0.3306
 3550TIP3    H110607   5.525   1.191   1.642 -1.8311 -0.7719 -1.6843
 3550TIP3    H210608   5.483   1.047   1.620 -0.1406 -2.1727  3.0888
 3551TIP3   OH210609   6.582   6.292   4.520  0.0414  0.1120  0.1397
 3551TIP3    H110610   6.670   6.275   4.555 -0.2577  0.6355  1.2156
 3551TIP3    H210611   6.535   6.210   4.532  0.1870  0.0367  0.1979
 3552TIP3   OH210612   1.515   5.766   3.076 -0.5674 -0.1942 -0.0201
 3552TIP3    H110613   1.519   5.694   3.140 -2.0443 -0.6775 -0.4285
 3552TIP3    H210614   1.466   5.730   3.002  0.4446  0.6062 -1.1266
 3553TIP3   OH210615   3.884   0.532   5.400 -0.4506 -0.3276  0.6645
 3553TIP3    H110616   3.833   0.612   5.406  0.7211  0.5288 -0.2722
 3553TIP3    H210617   3.864   0.485   5.481 -3.1833 -0.3659  0.0785
 3554TIP3   OH210618   7.233   6.433   0.803 -0.4437 -0.4229 -0.4661
 3554TIP3    H110619   7.158   6.426   0.862  1.4655  0.0528  2.1865
 3554TIP3    H210620   7.240   6.527   0.783  0.1257 -0.2876  0.3090
 3555TIP3   OH210621   0.426   3.840   6.672  0.4611 -0.4370 -0.0274
 3555TIP3    H110622   0.506   3.852   6.621 -0.2440  0.4665 -0.9694
 3555TIP3    H210623   0.372   3.782   6.618  0.4157 -0.9315  0.5411
 3556TIP3   OH210624   1.084   7.692   1.965  0.2545  0.2928 -0.4124
 3556TIP3    H110625   1.017   7.731   2.022 -0.0102 -2.3508  1.2930
 3556TIP3    H210626   1.154   7.666   2.025  1.1055 -0.4053 -1.6606
 3557TIP3   OH210627   0.189   2.658   4.896 -0.1595  0.0341  0.1422
 3557TIP3    H110628   0.112   2.714   4.882  1.1703  2.0022  0.2477
 3557TIP3    H210629   0.202   2.660   4.991 -0.4974 -1.0463  0.2172
 3558TIP3   OH210630   4.343   7.065   2.172  0.0447 -0.0706  0.2610
 3558TIP3    H110631   4.253   7.035   2.161  0.0591  0.0533 -0.2428
 3558TIP3    H210632   4.384   7.000   2.228 -0.0160 -0.8154 -0.5363
 3559TIP3   OH210633   3.372   6.632   1.975 -0.0958  0.0405  0.0733
 3559TIP3    H110634   3.298   6.669   1.926  0.4174 -0.2816 -0.9823
 3559TIP3    H210635   3.431   6.705   1.989  0.1409 -0.0252 -0.5403
 3560TIP3   OH210636   5.525   2.614   3.980 -0.0069 -0.3741 -0.7346
 3560TIP3    H110637   5.443   2.599   3.933 -1.6421  0.7804  1.5641
 3560TIP3    H210638   5.501   2.609   4.072  2.3718  0.7397  0.0296
 3561TIP3   OH210639   3.920   7.461   6.671  0.1368 -0.0775 -0.1489
 3561TIP3    H110640   3.918   7.446   6.576 -1.0123  1.0270 -0.3308
 3561TIP3    H210641   3.932   7.556   6.680 -0.9721  0.0084  0.7627
 3562TIP3   OH210642   2.683   6.619   4.164 -0.2573 -0.1679 -0.2949
 3562TIP3    H110643   2.696   6.685   4.095  0.1894  0.8419  0.7309
 3562TIP3    H210644   2.598   6.580   4.143 -1.2420  1.7565 -0.1119
 3563TIP3   OH210645   3.601   7.386   6.071  0.3167  0.0924 -0.6194
 3563TIP3    H110646   3.690   7.352   6.070  0.2200 -0.2134  0.3940
 3563TIP3    H210647   3.608   7.475   6.036  0.9832 -0.0147 -0.7561
 3564TIP3   OH210648   6.091   0.022   6.614  0.3326 -0.0186 -0.1083
 3564TIP3    H110649   6.064   0.055   6.528 -0.0143 -0.6259 -0.2412
 3564TIP3    H210650   6.010   0.013   6.663  0.5830  0.8665  0.4917
 3565TIP3   OH210651   6.792   0.070   2.099  0.2751  0.0409  0.4071
 3565TIP3    H110652   6.757   0.018   2.171  0.2148  0.7650  0.9070
 3565TIP3    H210653   6.782   0.161   2.128  0.0297  0.3511 -0.6093
 3566TIP3   OH210654   4.756   6.731   6.081 -0.0682  0.1537 -0.1232
 3566TIP3    H110655   4.790   6.651   6.041  0.0871  0.6915 -1.0859
 3566TIP3    H210656   4.673   6.748   6.035 -0.5006  0.1124  0.6249
 3567TIP3   OH210657   2.455   0.285   5.704 -0.4914 -0.5514 -0.0004
 3567TIP3    H110658   2.447   0.198   5.743  0.4238 -0.6013  0.0985
 3567TIP3    H210659   2.479   0.268   5.612  1.8756 -0.4315  0.5245
 3568TIP3   OH210660   5.986   2.998   0.097  0.2031 -0.0828  0.1513
 3568TIP3    H110661   5.966   3.037   0.183  2.1777  0.2677  0.4820
 3568TIP3    H210662   5.981   2.904   0.112 -2.3750 -0.0639 -0.1112
 3569TIP3   OH210663   1.384   6.587   3.388  0.3034 -0.1079 -0.5285
 3569TIP3    H110664   1.394   6.681   3.402 -0.6713 -0.1417  0.5074
 3569TIP3    H210665   1.455   6.548   3.439  0.4295  0.0364 -0.5892
 3570TIP3   OH210666   2.127   0.532   3.610  0.6796 -0.4928  0.1941
 3570TIP3    H110667   2.149   0.567   3.696 -1.9430  0.4244  0.6067
 3570TIP3    H210668   2.147   0.439   3.615 -0.9546 -0.8204  2.4569
 3571TIP3   OH210669   3.174   0.207   2.331  0.4428 -0.3332 -0.6734
 3571TIP3    H110670   3.214   0.196   2.418 -0.7697 -0.8484 -0.1537
 3571TIP3    H210671   3.125   0.289   2.338 -0.9010 -1.1340 -0.3407
 3572TIP3   OH210672   3.069   7.255   3.815 -0.2607  0.0958 -0.3143
 3572TIP3    H110673   3.048   7.298   3.732  1.8930  1.2057 -0.3394
 3572TIP3    H210674   3.158   7.222   3.804 -0.7459 -1.7908  0.7930
 3573TIP3   OH210675   0.261   4.950   1.154  0.0040 -1.2095 -0.0125
 3573TIP3    H110676   0.220   4.865   1.166  1.7141 -2.1499 -0.5266
 3573TIP3    H210677   0.267   4.961   1.059  1.6272 -1.4904  0.0295
 3574TIP3   OH210678   3.139   1.220   4.020  0.2592 -0.3260 -0.8626
 3574TIP3    H110679   3.162   1.155   3.954  2.3390 -0.9836  0.4265
 3574TIP3    H210680   3.141   1.172   4.102 -2.4806  0.4262 -0.2361
 3575TIP3   OH210681   7.098   1.729   4.815  0.0881 -0.5639  0.3855
 3575TIP3    H110682   7.089   1.821   4.791  0.1394 -0.4740  0.7009
 3575TIP3    H210683   7.114   1.684   4.732 -2.0570 -0.5962 -0.0704
 3576TIP3   OH210684   1.241   1.454   0.882 -0.0912  0.3636  0.3186
 3576TIP3    H110685   1.243   1.427   0.790 -0.4967 -0.6692  0.6083
 3576TIP3    H210686   1.249   1.550   0.879  1.6756  0.2172 -0.7121
 3577TIP3   OH210687   7.149   2.488   2.183 -0.0216 -0.0223  0.7673
 3577TIP3    H110688   7.147   2.462   2.275  1.3977 -2.1554  0.2626
 3577TIP3    H210689   7.240   2.480   2.157 -0.6596 -1.5624 -1.3508
 3578TIP3   OH210690   6.330   4.921   4.983  0.1285 -0.2779  0.1220
 3578TIP3    H110691   6.258   4.947   5.040  0.7604  1.9294 -0.0264
 3578TIP3    H210692   6.292   4.853   4.926 -1.0918 -0.9924  1.7064
 3579TIP3   OH210693   5.876   7.333   4.049 -0.0231 -0.1345 -0.4688
 3579TIP3    H110694   5.944   7.273   4.015 -0.5619 -0.8139 -0.3743
 3579TIP3    H210695   5.803   7.275   4.070 -0.9921  0.7035 -1.4702
 3580TIP3   OH210696   2.083   3.521   4.092  0.0036 -0.2896 -0.2294
 3580TIP3    H110697   2.169   3.560   4.110 -0.1700  0.8116 -1.6455
 3580TIP3    H210698   2.039   3.522   4.177  1.5124 -1.2514  0.6058
 3581TIP3   OH210699   0.662   6.000   6.038 -0.4035 -0.1747 -0.6805
 3581TIP3    H110700   0.687   5.910   6.058  0.1694  0.2457  0.6651
 3581TIP3    H210701   0.699   6.017   5.952  0.4610 -0.8710 -0.4617
 3582TIP3   OH210702   0.469   6.223   5.286 -0.3742  0.1383 -0.0285
 3582TIP3    H110703   0.482   6.308   5.243  1.9702 -0.3357 -0.3924
 3582TIP3    H210704   0.458   6.161   5.214 -0.0893 -0.1380  0.1605
 3583TIP3   OH210705   4.320   7.799   2.091  0.7275  0.4397  0.0866
 3583TIP3    H110706   4.339   7.864   2.158 -1.5250 -0.3892  1.6399
 3583TIP3    H210707   4.242   7.832   2.046  1.4333  0.3327 -1.2846
 3584TIP3   OH210708   1.756   4.803   3.424  0.0632 -0.4949  0.4241
 3584TIP3    H110709   1.789   4.796   3.334  0.2102 -1.6698  0.5575
 3584TIP3    H210710   1.829   4.839   3.474  0.3289 -0.8197  0.2713
 3585TIP3   OH210711   3.026   6.910   1.577  0.5978 -0.0365  0.7029
 3585TIP3    H110712   3.061   6.983   1.628  1.4780 -0.6229  0.9596
 3585TIP3    H210713   3.027   6.941   1.486 -0.8085  0.9471  0.9949
 3586TIP3   OH210714   6.278   0.365   5.071 -0.0351 -0.1323 -0.0621
 3586TIP3    H110715   6.260   0.354   4.977  0.1034 -3.6485  0.1950
 3586TIP3    H210716   6.371   0.343   5.080  0.1284  0.8457  0.8533
 3587TIP3   OH210717   3.815   6.061   6.624  0.1669  0.2047  0.5320
 3587TIP3    H110718   3.726   6.031   6.641 -0.1162 -0.0093 -1.1385
 3587TIP3    H210719   3.864   6.038   6.703 -0.4582 -2.9696  0.1047
 3588TIP3   OH210720   1.503   0.413   3.683 -0.2493  0.1387 -0.4675
 3588TIP3    H110721   1.529   0.451   3.598  0.4248  0.8434  0.0404
 3588TIP3    H210722   1.575   0.354   3.705  0.1856  0.9027  0.1993
 3589TIP3   OH210723   0.574   0.615   0.825  0.1561 -0.1057 -0.3565
 3589TIP3    H110724   0.615   0.688   0.778 -1.9320  0.6348 -1.1194
 3589TIP3    H210725   0.495   0.652   0.863 -0.4526 -1.7614  0.0659
 3590TIP3   OH210726   2.531   0.730   2.969 -0.2636 -0.5249 -0.4085
 3590TIP3    H110727   2.537   0.701   3.060 -0.1659  0.7619  0.0166
 3590TIP3    H210728   2.462   0.675   2.931 -0.3817 -1.0088  0.4649
 3591TIP3   OH210729   6.916   0.890   2.611  0.4410  0.1056  0.5984
 3591TIP3    H110730   6.909   0.825   2.681  0.8538 -0.9629 -0.3331
 3591TIP3    H210731   6.833   0.882   2.563  1.2038 -1.0113 -0.5834
 3592TIP3   OH210732   2.671   7.542   2.363 -0.2557  0.0462  0.5629
 3592TIP3    H110733   2.690   7.633   2.340  1.3074 -0.4506 -0.3379
 3592TIP3    H210734   2.578   7.540   2.382 -0.2125  1.9429  1.1844
 3593TIP3   OH210735   1.029   3.660   2.378 -0.3045  0.1161  0.6792
 3593TIP3    H110736   0.952   3.672   2.432 -0.3036 -1.8070  1.1959
 3593TIP3    H210737   1.101   3.695   2.429 -0.5873  0.1897  1.0270
 3594TIP3   OH210738   3.297   6.869   1.290 -0.1252 -0.5756 -0.3313
 3594TIP3    H110739   3.338   6.934   1.233 -0.0271  0.1444  0.5330
 3594TIP3    H210740   3.352   6.791   1.281  0.1786 -0.3089 -0.8235
 3595TIP3   OH210741   1.808   2.545   2.306  0.0429  0.7069 -0.1530
 3595TIP3    H110742   1.790   2.464   2.355  1.2936 -0.1379 -1.0371
 3595TIP3    H210743   1.777   2.615   2.363 -0.1662 -0.3417  1.0610
 3596TIP3   OH210744   6.239   4.163   0.397  0.5984  0.1163 -0.0149
 3596TIP3    H110745   6.267   4.099   0.332 -0.8648 -1.3153  0.6915
 3596TIP3    H210746   6.320   4.194   0.437  1.3802 -0.7386 -0.8899
 3597TIP3   OH210747   0.116   0.730   4.132  0.2649 -0.1117  0.3851
 3597TIP3    H110748   0.115   0.817   4.093  1.0680  0.3317  1.3010
 3597TIP3    H210749   0.065   0.676   4.072  0.4249  0.8119 -0.6128
 3598TIP3   OH210750   0.448   6.610   0.357 -0.5698  0.2590  0.4319
 3598TIP3    H110751   0.477   6.673   0.423 -0.8043 -0.1253  0.9060
 3598TIP3    H210752   0.474   6.525   0.392 -2.7888 -0.1629  1.1690
 3599TIP3   OH210753   5.422   0.715   5.687  0.0935 -0.2474  0.2492
 3599TIP3    H110754   5.497   0.767   5.715  0.5761 -0.4062 -0.7055
 3599TIP3    H210755   5.451   0.624   5.693 -0.7857 -0.4573  2.0185
 3600TIP3   OH210756   0.046   2.408   4.474  0.1809  0.5178 -0.2155
 3600TIP3    H110757   0.111   2.338   4.466 -0.2482  0.0010  0.6298
 3600TIP3    H210758   0.038   2.422   4.568 -0.7716  0.7158 -0.3154
 3601TIP3   OH210759   7.168   6.468   2.683  0.2487  0.1731  0.2454
 3601TIP3    H110760   7.089   6.498   2.728  0.3071 -0.3196  0.6893
 3601TIP3    H210761   7.234   6.534   2.704  0.0790  0.3342  0.2727
 3602TIP3   OH210762   7.506   3.156   1.957  0.0063  0.4609  0.1470
 3602TIP3    H110763   7.502   3.204   1.874  1.5546  1.0452  0.3738
 3602TIP3    H210764   7.597   3.126   1.962  0.1739  1.1860  2.0403
 3603TIP3   OH210765   7.462   2.178   2.396 -0.0107 -0.3157  0.5712
 3603TIP3    H110766   7.486   2.088   2.375  0.5576  0.0512 -0.4002
 3603TIP3    H210767   7.368   2.174   2.414 -0.0433 -1.0506  0.2690
 3604TIP3   OH210768   5.700   1.166   0.594 -0.4723  0.2871  0.3420
 3604TIP3    H110769   5.727   1.105   0.662  0.1818  0.7013  0.4625
 3604TIP3    H210770   5.763   1.151   0.523 -0.9450  0.0940 -0.0396
 3605TIP3   OH210771   4.501   7.026   5.605  0.2613 -0.2804 -0.0067
 3605TIP3    H110772   4.474   6.961   5.669 -1.4554  1.0420  0.6707
 3605TIP3    H210773   4.535   6.974   5.532 -1.9894 -2.0052  0.0609
 3606TIP3   OH210774   0.822   5.674   0.276  0.1959 -0.0979  0.4186
 3606TIP3    H110775   0.827   5.671   0.181  2.9102  0.3707  0.4639
 3606TIP3    H210776   0.740   5.629   0.298 -0.2175 -0.6861 -2.0783
 3607TIP3   OH210777   4.723   0.567   4.675  0.8459 -0.2526  0.2369
 3607TIP3    H110778   4.686   0.564   4.763  0.0372  0.3625 -0.0733
 3607TIP3    H210779   4.795   0.503   4.677 -0.9028 -2.3273  0.5513
 3608TIP3   OH210780   2.880   5.717   2.198 -0.1217  0.5119 -0.0610
 3608TIP3    H110781   2.929   5.670   2.265  0.2498  1.0111  0.0191
 3608TIP3    H210782   2.803   5.662   2.183  0.1647  0.0165  0.2287
 3609TIP3   OH210783   1.571   1.530   0.954 -0.5573  0.2982 -0.4196
 3609TIP3    H110784   1.620   1.543   0.872  0.3978 -1.2268 -0.1298
 3609TIP3    H210785   1.483   1.562   0.934  0.0073  1.2077 -1.6100
 3610TIP3   OH210786   6.071   6.635   2.858 -0.3538 -0.0178 -0.2533
 3610TIP3    H110787   6.086   6.546   2.827 -3.4191 -0.4952 -0.7256
 3610TIP3    H210788   6.048   6.624   2.950 -1.5103  0.1301 -0.5029
 3611TIP3   OH210789   0.344   2.588   6.151  0.4458 -0.0682  0.8472
 3611TIP3    H110790   0.372   2.528   6.081  0.8355 -0.4545  1.3239
 3611TIP3    H210791   0.248   2.584   6.149  0.4552 -0.0200  0.2881
 3612TIP3   OH210792   1.776   4.822   6.539  0.2685 -0.3673  0.2232
 3612TIP3    H110793   1.851   4.780   6.497 -0.1258  0.1440 -1.0252
 3612TIP3    H210794   1.754   4.895   6.482 -0.4919  0.1632  1.1666
 3613TIP3   OH210795   1.029   6.803   3.780 -0.2357  0.3597 -0.3823
 3613TIP3    H110796   1.039   6.828   3.872  1.7059 -2.2438  0.2321
 3613TIP3    H210797   1.100   6.741   3.764  0.8128  2.2504 -4.2836
 3614TIP3   OH210798   7.043   2.229   0.092  0.1168  0.8401  0.0492
 3614TIP3    H110799   7.102   2.193   0.159  1.2016  0.3686 -1.1184
 3614TIP3    H210800   7.057   2.173   0.016 -0.9117  1.5157 -0.6585
 3615TIP3   OH210801   2.673   5.628   0.704  0.0241 -0.2599 -0.0212
 3615TIP3    H110802   2.741   5.589   0.649  0.5616 -0.2193  0.6123
 3615TIP3    H210803   2.714   5.704   0.744 -0.1284 -0.6908  0.9957
 3616TIP3   OH210804   5.230   3.942   2.086 -0.8536  0.0512 -0.3095
 3616TIP3    H110805   5.178   3.892   2.150  0.3492 -1.6571 -0.5767
 3616TIP3    H210806   5.225   4.032   2.116 -3.0200 -0.2145  0.3014
 3617TIP3   OH210807   4.478   4.233   3.583  0.0536 -0.2009 -0.6705
 3617TIP3    H110808   4.562   4.273   3.563 -0.0531  0.4768  0.1788
 3617TIP3    H210809   4.438   4.292   3.647 -0.6230 -1.0524 -0.2930
 3618TIP3   OH210810   0.629   6.198   3.877 -0.0357 -0.1630  0.0620
 3618TIP3    H110811   0.569   6.130   3.847 -0.6029  0.2794  0.1706
 3618TIP3    H210812   0.650   6.248   3.798 -0.3919  0.1228  0.1425
 3619TIP3   OH210813   7.502   1.867   6.344  0.1115  0.5151 -0.8940
 3619TIP3    H110814   7.545   1.789   6.308 -1.7767 -0.8790 -0.2823
 3619TIP3    H210815   7.410   1.856   6.320 -0.4672  1.7234  0.6388
 3620TIP3   OH210816   3.668   1.390   4.566 -0.0507  0.4090  0.2799
 3620TIP3    H110817   3.672   1.449   4.641  1.2155  2.5440 -1.3697
 3620TIP3    H210818   3.589   1.418   4.518 -0.5159 -0.5346  0.4793
 3621TIP3   OH210819   3.522   6.628   2.635 -0.0463  0.3297  0.2276
 3621TIP3    H110820   3.569   6.705   2.664 -0.4058  0.5214  0.3072
 3621TIP3    H210821   3.590   6.568   2.605  0.1705  1.0633 -0.7749
 3622TIP3   OH210822   7.709   2.294   5.920  0.1392 -0.0537 -0.3251
 3622TIP3    H110823   7.789   2.247   5.943 -1.1403 -1.8209  0.6970
 3622TIP3    H210824   7.662   2.306   6.002 -0.0004  2.3548 -0.6621
 3623TIP3   OH210825   4.138   1.919   1.698 -0.1107  0.1274 -0.0112
 3623TIP3    H110826   4.106   1.858   1.764 -1.0085  0.5512 -0.0489
 3623TIP3    H210827   4.060   1.966   1.668  0.5338  1.1769 -0.0968
 3624TIP3   OH210828   0.485   5.779   4.705  0.0910  0.3094  0.0107
 3624TIP3    H110829   0.521   5.744   4.623 -1.8759  1.2065 -1.2962
 3624TIP3    H210830   0.413   5.719   4.727 -0.6462  1.1607 -0.0087
 3625TIP3   OH210831   6.015   3.832   3.004 -0.2408 -0.2740 -0.4315
 3625TIP3    H110832   6.073   3.768   3.045 -1.1487  0.6162  2.4951
 3625TIP3    H210833   6.016   3.907   3.063  0.1858  2.1985 -3.3457
 3626TIP3   OH210834   5.014   0.478   5.837 -0.1522  0.2173  0.1119
 3626TIP3    H110835   5.067   0.535   5.892 -0.3779  0.7482 -0.2207
 3626TIP3    H210836   4.994   0.403   5.894 -0.6357  0.8966  0.8688
 3627TIP3   OH210837   3.039   0.859   5.507 -0.2563  0.5743  0.0631
 3627TIP3    H110838   2.957   0.839   5.463 -1.5860 -0.0631  2.6439
 3627TIP3    H210839   3.049   0.954   5.498 -1.8852  0.8249  0.6574
 3628TIP3   OH210840   0.564   0.399   3.385 -0.1918 -0.2847 -0.2908
 3628TIP3    H110841   0.539   0.414   3.294  0.9765  1.5632 -0.3565
 3628TIP3    H210842   0.658   0.417   3.388 -0.1567 -0.5428  1.2514
 3629TIP3   OH210843   2.716   6.283   0.751  0.4235 -0.3552  0.0160
 3629TIP3    H110844   2.764   6.291   0.834  1.1973 -3.4580  0.0071
 3629TIP3    H210845   2.768   6.333   0.688  1.2376 -0.0767  0.8856
 3630TIP3   OH210846   1.706   7.531   0.739 -0.0018 -0.5782  0.3142
 3630TIP3    H110847   1.709   7.611   0.791 -0.7819 -1.1630  1.2962
 3630TIP3    H210848   1.691   7.461   0.803 -0.3034 -1.3975 -0.6242
 3631TIP3   OH210849   3.338   7.779   1.742  0.2313  0.1157  0.2454
 3631TIP3    H110850   3.331   7.838   1.667 -0.9909  0.3152  0.4814
 3631TIP3    H210851   3.368   7.835   1.814  0.2217  0.1974  0.1856
 3632TIP3   OH210852   0.730   0.934   2.499 -0.2357 -0.3533 -0.5427
 3632TIP3    H110853   0.746   0.953   2.591  1.3478  0.8646 -1.0046
 3632TIP3    H210854   0.763   1.012   2.453  0.5030 -1.5845 -2.2077
 3633TIP3   OH210855   4.569   2.760   3.694 -0.5427  0.4131 -0.2801
 3633TIP3    H110856   4.600   2.723   3.776 -0.1793  0.1571 -0.5296
 3633TIP3    H210857   4.643   2.751   3.634 -0.5748  1.1926 -0.4546
 3634TIP3   OH210858   5.720   5.515   6.244  0.3326 -0.1900 -0.0262
 3634TIP3    H110859   5.673   5.456   6.303  0.3210  1.2841  1.4952
 3634TIP3    H210860   5.811   5.485   6.248 -0.0296 -1.5797 -1.1650
 3635TIP3   OH210861   0.173   4.671   3.288  0.1127 -0.2085  0.0186
 3635TIP3    H110862   0.113   4.607   3.250 -0.8827  0.1202  1.0210
 3635TIP3    H210863   0.159   4.750   3.237 -1.8265  0.4833  1.5137
 3636TIP3   OH210864   6.422   3.549   5.160  0.1547  0.0478 -0.1101
 3636TIP3    H110865   6.402   3.631   5.204  1.6906  1.0627 -1.2370
 3636TIP3    H210866   6.471   3.574   5.082  0.8471 -1.9494 -0.3779
 3637TIP3   OH210867   2.663   6.978   5.890 -0.1762  0.9792 -0.2413
 3637TIP3    H110868   2.724   7.023   5.832  2.9623 -1.2190  1.1058
 3637TIP3    H210869   2.660   6.888   5.858  0.5343  0.0621  2.0666
 3638TIP3   OH210870   1.544   1.950   4.413  0.4885 -0.4814  0.0308
 3638TIP3    H110871   1.483   1.920   4.481  0.8996 -0.9937  0.1743
 3638TIP3    H210872   1.609   1.881   4.406  0.1349 -0.6992 -1.3081
 3639TIP3   OH210873   7.094   4.413   5.919 -0.2615  0.1985  0.3825
 3639TIP3    H110874   7.080   4.434   5.827 -1.1104  1.0429  0.6919
 3639TIP3    H210875   7.110   4.318   5.919  1.0288  0.3721 -0.7492
 3640TIP3   OH210876   3.806   4.102   0.765  0.0211  0.4915 -0.3413
 3640TIP3    H110877   3.742   4.075   0.832  0.7106 -1.7026 -0.4842
 3640TIP3    H210878   3.761   4.087   0.682 -0.1065  1.2808 -0.4270
 3641TIP3   OH210879   4.074   2.320   0.706  0.4617 -0.0369  0.1111
 3641TIP3    H110880   4.170   2.320   0.704  0.5112 -1.5305 -2.2396
 3641TIP3    H210881   4.049   2.386   0.641 -0.0865  0.0905  0.4503
 3642TIP3   OH210882   4.918   3.428   4.799  0.4192  0.7537 -0.1535
 3642TIP3    H110883   4.878   3.467   4.877 -0.7358  1.2577 -0.9745
 3642TIP3    H210884   4.900   3.490   4.729 -1.4676 -1.1677 -1.5081
 3643TIP3   OH210885   7.876   7.133   2.799  0.4063  0.2665  0.2816
 3643TIP3    H110886   7.871   7.091   2.713 -0.2728 -0.8890  0.8581
 3643TIP3    H210887   7.898   7.062   2.859  2.4753  1.3321  0.8834
 3644TIP3   OH210888   4.775   6.875   0.613  0.0290  0.0650 -1.0309
 3644TIP3    H110889   4.686   6.850   0.591 -0.0310  1.2313 -2.2300
 3644TIP3    H210890   4.831   6.815   0.563 -0.0456 -0.9988  0.1100
 3645TIP3   OH210891   5.293   3.877   0.582  0.2501  0.1939  0.2629
 3645TIP3    H110892   5.200   3.856   0.570  0.4230 -0.4293 -0.0577
 3645TIP3    H210893   5.328   3.882   0.493  0.3195  1.4191  0.3486
 3646TIP3   OH210894   8.203   4.923   1.461 -0.1212 -0.9226  0.7341
 3646TIP3    H110895   8.122   4.966   1.435  0.7233 -0.8865 -2.1943
 3646TIP3    H210896   8.187   4.830   1.445 -0.3267 -1.1958  2.3965
 3647TIP3   OH210897   4.844   1.897   6.323  0.2025 -0.3150  0.6659
 3647TIP3    H110898   4.917   1.902   6.261  0.8846 -0.8726  1.3958
 3647TIP3    H210899   4.873   1.946   6.399 -1.1612  1.5072  0.0933
 3648TIP3   OH210900   4.708   7.007   0.270 -0.0767  0.8564 -0.0442
 3648TIP3    H110901   4.764   6.938   0.233 -0.8764  0.6519 -0.8983
 3648TIP3    H210902   4.717   7.079   0.208  0.9517  1.6389  0.9769
 3649TIP3   OH210903   6.337   7.316   5.252  0.4974  0.0003  0.0006
 3649TIP3    H110904   6.254   7.347   5.216  1.0192 -0.4197 -1.6218
 3649TIP3    H210905   6.330   7.220   5.247  1.0953 -0.0341 -0.2000
 3650TIP3   OH210906   5.060   7.414   2.737  0.2634  0.3133  0.5095
 3650TIP3    H110907   5.121   7.452   2.673 -2.2488  0.8160 -1.7982
 3650TIP3    H210908   5.018   7.490   2.778  0.6058 -0.0174  1.4967
 3651TIP3   OH210909   0.262   5.663   0.389 -0.2883  0.3386 -0.2771
 3651TIP3    H110910   0.271   5.589   0.450 -0.5637 -0.2933 -0.9813
 3651TIP3    H210911   0.207   5.628   0.318 -0.6283  1.3044 -0.4961
 3652TIP3   OH210912   7.345   1.541   1.434 -0.2502  0.6750  1.0210
 3652TIP3    H110913   7.401   1.534   1.357 -0.6351 -0.7862  0.8477
 3652TIP3    H210914   7.404   1.526   1.508 -0.2484  0.0023  0.8877
 3653TIP3   OH210915   5.103   6.481   5.489 -0.1005 -0.3231 -0.1626
 3653TIP3    H110916   5.041   6.434   5.433 -0.6522  0.8636 -0.5882
 3653TIP3    H210917   5.146   6.413   5.540  0.1179 -1.4195 -1.7276
 3654TIP3   OH210918   2.033   6.830   4.204  0.0400  0.2398  0.3038
 3654TIP3    H110919   2.028   6.843   4.109  1.2697 -1.9298 -0.1076
 3654TIP3    H210920   1.945   6.805   4.230 -0.6866  2.2940  0.0429
 3655TIP3   OH210921   2.032   5.982   2.014 -0.5527  0.0332  0.1365
 3655TIP3    H110922   2.034   6.037   1.935 -1.1127  1.7184  1.2443
 3655TIP3    H210923   2.117   5.997   2.055 -1.1890  1.1367  1.1057
 3656TIP3   OH210924   4.554   1.018   5.059  0.1624 -0.2654  0.2765
 3656TIP3    H110925   4.606   0.944   5.027  1.2806  0.8010 -0.4242
 3656TIP3    H210926   4.567   1.087   4.994  2.0905  1.8218  2.6607
 3657TIP3   OH210927   2.057   2.039   3.555  0.8399  0.0687  0.0564
 3657TIP3    H110928   2.052   2.017   3.462  2.0496  0.6309 -0.1649
 3657TIP3    H210929   2.093   2.128   3.557 -0.6495  0.6977  1.0318
 3658TIP3   OH210930   0.740   5.399   3.404  0.3992  0.0217  0.5147
 3658TIP3    H110931   0.777   5.398   3.316  0.2323  0.1458  0.4410
 3658TIP3    H210932   0.794   5.339   3.454 -0.0771 -0.7875  0.0905
 3659TIP3   OH210933   6.268   0.023   5.003 -0.4603  0.0482 -0.1086
 3659TIP3    H110934   6.273   0.028   4.908  1.0008  2.6655  0.0145
 3659TIP3    H210935   6.182   0.059   5.025 -0.2658  0.7084 -0.4059
 3660TIP3   OH210936   0.569   5.645   4.196  0.1234 -0.3351  0.7134
 3660TIP3    H110937   0.630   5.718   4.195  0.1846 -0.3838 -0.1759
 3660TIP3    H210938   0.514   5.658   4.119 -1.5347  0.1447  1.9261
 3661TIP3   OH210939   1.346   0.169   4.533 -0.5487 -0.3768  0.0344
 3661TIP3    H110940   1.378   0.123   4.455  2.3936  2.3868 -0.6257
 3661TIP3    H210941   1.301   0.246   4.499  1.5173  1.3285  0.8934
 3662TIP3   OH210942   6.377   5.365   3.472  0.1827  0.4212  0.2403
 3662TIP3    H110943   6.427   5.446   3.477  0.7542  0.0028  3.2455
 3662TIP3    H210944   6.408   5.323   3.392  0.8010  2.5572 -0.7080
 3663TIP3   OH210945   5.379   4.784   3.852  0.1856  0.0739  0.0208
 3663TIP3    H110946   5.320   4.745   3.917  0.3446  2.2371  1.6049
 3663TIP3    H210947   5.467   4.760   3.881  0.1974 -2.3014 -1.7626
 3664TIP3   OH210948   0.172   2.638   4.409  0.2218 -0.0794  0.4479
 3664TIP3    H110949   0.146   2.551   4.441 -0.5053  0.4382  1.3094
 3664TIP3    H210950   0.153   2.697   4.481 -0.9686  1.0629 -0.7469
 3665TIP3   OH210951   5.387   5.549   0.426  0.3036 -0.5336  0.3687
 3665TIP3    H110952   5.359   5.479   0.485  0.4350  0.1391  1.2461
 3665TIP3    H210953   5.388   5.627   0.480  0.1202  0.1666 -0.6089
 3666TIP3   OH210954   3.374   3.127   5.779  0.1869  0.1810  1.2289
 3666TIP3    H110955   3.384   3.181   5.858  0.0690  0.4034  1.0924
 3666TIP3    H210956   3.359   3.038   5.812  0.0442  0.2899  1.4561
 3667TIP3   OH210957   3.718   4.566   2.621 -0.3802 -0.5434 -0.5754
 3667TIP3    H110958   3.682   4.479   2.642 -1.2521 -0.3412 -1.2059
 3667TIP3    H210959   3.647   4.611   2.575 -0.3167  0.8912  0.6435
 3668TIP3   OH210960   6.648   5.357   2.066  0.0093 -0.0902  0.1027
 3668TIP3    H110961   6.613   5.428   2.012  1.2376  0.8508  0.5020
 3668TIP3    H210962   6.574   5.331   2.122 -0.4308  0.9222  0.0102
 3669TIP3   OH210963   1.345   5.733   6.004  0.0557  0.2489  0.0571
 3669TIP3    H110964   1.375   5.798   6.068  0.2355  0.4018 -0.1825
 3669TIP3    H210965   1.404   5.658   6.017 -0.0510  0.1932  0.2238
 3670TIP3   OH210966   2.675   7.430   5.181  0.5055  0.2651 -0.0019
 3670TIP3    H110967   2.636   7.517   5.174 -0.3583 -0.0696  0.5410
 3670TIP3    H210968   2.607   7.377   5.222  1.0807 -0.6328 -0.2024
 3671TIP3   OH210969   5.273   1.600   0.473  0.1461 -0.1380 -0.3431
 3671TIP3    H110970   5.244   1.673   0.419  0.9341 -0.0259 -0.6322
 3671TIP3    H210971   5.340   1.556   0.420  0.4181 -0.4497  0.2471
 3672TIP3   OH210972   2.210   3.054   0.838 -0.2947  0.5115 -0.1553
 3672TIP3    H110973   2.170   3.137   0.864  1.2722  1.2653 -0.0820
 3672TIP3    H210974   2.193   2.996   0.912 -0.7453  0.9841  0.1183
 3673TIP3   OH210975   6.714   2.870   5.554  0.1453 -0.6716 -0.0461
 3673TIP3    H110976   6.639   2.816   5.527 -1.0853  0.9525 -0.0893
 3673TIP3    H210977   6.768   2.812   5.607 -1.5744 -1.7046  0.6851
 3674TIP3   OH210978   1.732   5.619   1.708 -0.3900  0.1457 -0.1110
 3674TIP3    H110979   1.760   5.541   1.659  1.0215  2.3095 -3.0204
 3674TIP3    H210980   1.811   5.651   1.750 -0.4454  1.1980 -0.7679
 3675TIP3   OH210981   3.189   6.834   1.866  1.0963 -0.0418 -0.2229
 3675TIP3    H110982   3.161   6.910   1.815 -0.5024 -0.6808 -0.3582
 3675TIP3    H210983   3.121   6.824   1.933  0.3234 -2.3487 -1.2635
 3676TIP3   OH210984   0.250   6.648   4.943  0.4286 -0.5619  0.1330
 3676TIP3    H110985   0.201   6.618   4.866  1.5552  0.2983 -0.9686
 3676TIP3    H210986   0.299   6.571   4.972  0.5910 -0.7004 -0.4934
 3677TIP3   OH210987   6.466   4.727   6.668 -0.4568 -0.4274 -0.1837
 3677TIP3    H110988   6.535   4.702   6.607 -1.3820 -1.9064 -0.6883
 3677TIP3    H210989   6.512   4.746   6.750  0.4988 -2.8545 -0.0443
 3678TIP3   OH210990   5.781   5.374   2.317 -0.1745  0.7923  0.3745
 3678TIP3    H110991   5.724   5.306   2.353  1.0741 -0.7882 -0.4951
 3678TIP3    H210992   5.764   5.372   2.223  2.0283 -0.5128 -0.0707
 3679TIP3   OH210993   0.661   2.184   5.963 -0.1870  0.0018 -0.1491
 3679TIP3    H110994   0.721   2.136   5.907 -1.3933 -0.3724 -1.1625
 3679TIP3    H210995   0.629   2.119   6.025 -0.4068 -0.0633 -0.3315
 3680TIP3   OH210996   6.313   1.903   5.254 -0.3991 -0.0342  0.6396
 3680TIP3    H110997   6.400   1.932   5.280 -0.0381  0.7179 -1.2290
 3680TIP3    H210998   6.327   1.848   5.177 -1.5362 -0.0881  0.4437
 3681TIP3   OH210999   0.535   0.401   4.541 -0.0070 -0.0528 -0.2753
 3681TIP3    H111000   0.579   0.358   4.467  0.3147 -0.7579  0.3073
 3681TIP3    H211001   0.605   0.446   4.587 -0.0238 -0.4893  0.1875
 3682TIP3   OH211002   4.515   5.629   4.868  0.4196 -0.5589 -0.3130
 3682TIP3    H111003   4.421   5.620   4.859  0.5435 -0.9315 -1.3291
 3682TIP3    H211004   4.548   5.634   4.778  1.3412 -0.1751  0.0309
 3683TIP3   OH211005   2.469   1.251   2.332  0.0104  0.9488  0.6193
 3683TIP3    H111006   2.399   1.196   2.368  0.2317  0.2327 -0.0340
 3683TIP3    H211007   2.448   1.339   2.364  0.6739  0.2592  3.2464
 3684TIP3   OH211008   1.882   7.644   5.073 -0.4023 -0.0806 -0.2839
 3684TIP3    H111009   1.969   7.677   5.095 -0.5391 -0.5062  0.9485
 3684TIP3    H211010   1.880   7.555   5.108  0.4924 -2.1555 -4.7824
 3685TIP3   OH211011   6.772   1.827   3.317 -0.2729  0.2397 -0.2297
 3685TIP3    H111012   6.787   1.747   3.367  1.2787  0.4491 -0.3100
 3685TIP3    H211013   6.825   1.893   3.361 -1.2324  1.1378 -0.3924
 3686TIP3   OH211014   3.068   0.200   1.295  0.0575 -0.1983 -0.3038
 3686TIP3    H111015   3.070   0.138   1.368 -1.9096  0.8846  0.7615
 3686TIP3    H211016   3.025   0.153   1.224  2.9810 -1.6506 -1.2781
 3687TIP3   OH211017   1.704   6.798   4.527  0.7278  0.1318  0.3874
 3687TIP3    H111018   1.784   6.753   4.555 -0.1324 -0.3345  2.2650
 3687TIP3    H211019   1.711   6.885   4.565 -0.2173 -0.3374  1.7261
 3688TIP3   OH211020   7.009   4.703   1.894  0.1207 -0.4640  0.0933
 3688TIP3    H111021   6.918   4.707   1.924 -0.5919  1.0009 -1.9727
 3688TIP3    H211022   7.048   4.785   1.924  0.1323 -0.1597 -0.7060
 3689TIP3   OH211023   7.196   7.009   4.121  0.5834  0.1198  0.0130
 3689TIP3    H111024   7.136   6.941   4.093  0.6798  0.6786 -1.6804
 3689TIP3    H211025   7.216   7.058   4.041  0.2680  2.3398  1.1958
 3690TIP3   OH211026   0.075   2.175   2.299  0.2451  0.3042 -0.0239
 3690TIP3    H111027   0.135   2.250   2.303  1.3184 -0.5165 -0.4175
 3690TIP3    H211028  -0.006   2.212   2.263  0.4802  1.4392  0.5682
 3691TIP3   OH211029   4.058   7.305   3.588  0.4838 -0.2652 -0.2175
 3691TIP3    H111030   4.127   7.276   3.647  1.0682 -0.3420 -0.9201
 3691TIP3    H211031   4.011   7.373   3.636  0.8494 -0.4407  0.3865
 3692TIP3   OH211032   5.678   3.054   3.977  0.1392  0.0489  0.2466
 3692TIP3    H111033   5.692   3.141   3.940 -0.0528 -0.3047 -0.6785
 3692TIP3    H211034   5.604   3.018   3.928 -0.2169 -0.3839  1.0742
 3693TIP3   OH211035   0.532   5.289   3.901  0.2235  0.4118  0.6446
 3693TIP3    H111036   0.577   5.263   3.821 -0.1395  1.7537 -0.0284
 3693TIP3    H211037   0.551   5.219   3.964  0.9374 -0.4044 -0.4523
 3694TIP3   OH211038   1.598   2.424   3.466 -0.5392 -0.3201  0.2316
 3694TIP3    H111039   1.657   2.363   3.421 -1.5936 -1.3999  0.2757
 3694TIP3    H211040   1.622   2.510   3.432  0.9874 -0.7448  0.1746
 3695TIP3   OH211041   0.521   6.122   5.557 -0.3188  0.0577 -0.2044
 3695TIP3    H111042   0.584   6.194   5.549  0.3497 -0.4134  0.5486
 3695TIP3    H211043   0.486   6.110   5.469 -0.9711  1.7568 -0.1982
 3696TIP3   OH211044   6.794   4.929   3.198  0.5929  0.7574  0.2052
 3696TIP3    H111045   6.742   4.903   3.122 -1.4376  0.4929  1.5908
 3696TIP3    H211046   6.871   4.974   3.161  0.2191 -0.2856 -1.9912
 3697TIP3   OH211047   3.574   3.422   0.731 -0.4035 -0.6219  0.0973
 3697TIP3    H111048   3.496   3.409   0.678  0.2011 -1.0195 -0.7257
 3697TIP3    H211049   3.557   3.374   0.812 -0.4938 -1.8149 -0.6122
 3698TIP3   OH211050   3.206   0.366   3.780 -0.4509 -0.1837  0.2097
 3698TIP3    H111051   3.140   0.325   3.836 -1.5153  0.2711 -0.6799
 3698TIP3    H211052   3.206   0.458   3.806 -0.8533  0.0019 -0.4285
 3699TIP3   OH211053   5.696   1.454   4.852  0.1979  0.2264  0.2372
 3699TIP3    H111054   5.644   1.410   4.919  0.0380  0.0379 -0.0046
 3699TIP3    H211055   5.702   1.389   4.781 -0.5715  0.8190 -0.3878
 3700TIP3   OH211056   7.000   4.584   6.460  0.5219 -0.0952  0.0542
 3700TIP3    H111057   6.924   4.595   6.404  0.1911 -0.1890  0.4808
 3700TIP3    H211058   6.964   4.559   6.545  1.0587 -0.7431  0.1033
 3701TIP3   OH211059   5.741   4.795   5.278  0.1007  0.2983 -0.3368
 3701TIP3    H111060   5.668   4.749   5.318  0.7310  1.4903  2.3885
 3701TIP3    H211061   5.814   4.734   5.284  0.2339  0.5317  0.5805
 3702TIP3   OH211062   5.763   0.117   4.058  0.0011 -0.3308 -0.3189
 3702TIP3    H111063   5.676   0.087   4.085  0.0072 -1.2458 -1.2478
 3702TIP3    H211064   5.754   0.211   4.048  0.1298  0.2068  3.2599
 3703TIP3   OH211065   4.238   7.171   4.003  0.3924  0.0327 -0.1513
 3703TIP3    H111066   4.306   7.137   4.062  0.4379 -0.1105 -0.2850
 3703TIP3    H211067   4.214   7.255   4.040  1.6430  0.7417 -0.8763
 3704TIP3   OH211068   7.236   2.374   0.481  0.1549 -0.0497  0.2820
 3704TIP3    H111069   7.253   2.320   0.404  2.5885  0.5655  0.3069
 3704TIP3    H211070   7.292   2.451   0.469 -2.0932  1.8218  0.9581
 3705TIP3   OH211071   2.885   5.859   6.659  0.3867  0.0276  0.2134
 3705TIP3    H111072   2.821   5.829   6.722 -0.0132  3.6656  1.7698
 3705TIP3    H211073   2.836   5.915   6.599  1.5994  0.6018 -0.2883
 3706TIP3   OH211074   7.053   2.620   6.034 -0.2121 -0.0363 -0.0524
 3706TIP3    H111075   6.967   2.630   6.075  0.3323  1.1959  0.8272
 3706TIP3    H211076   7.102   2.697   6.060  1.4228 -1.0570  0.0601
 3707TIP3   OH211077   2.775   5.912   4.012  0.1903  0.1025  0.3073
 3707TIP3    H111078   2.700   5.913   3.952  1.0554 -0.6581 -0.8414
 3707TIP3    H211079   2.801   5.820   4.016  1.2121  0.3915  0.4772
 3708TIP3   OH211080   6.852   1.868   2.628  0.1717  0.3161 -0.3099
 3708TIP3    H111081   6.859   1.821   2.545  1.1158  1.3963 -0.8719
 3708TIP3    H211082   6.870   1.959   2.606  0.9586  0.5523  1.1620
 3709TIP3   OH211083   6.861   0.702   0.535 -0.6699 -0.3573  0.3729
 3709TIP3    H111084   6.815   0.773   0.491 -0.5793 -1.4293 -1.5581
 3709TIP3    H211085   6.842   0.715   0.628 -0.2042  2.4738  0.1436
 3710TIP3   OH211086   2.737   5.641   2.501  0.0960 -0.1076  0.3652
 3710TIP3    H111087   2.694   5.559   2.477 -1.0143  0.6451 -0.3083
 3710TIP3    H211088   2.830   5.625   2.484 -0.3138 -0.5932 -1.6353
 3711TIP3   OH211089   5.964   0.543   6.249 -0.2975  0.1409 -0.2211
 3711TIP3    H111090   5.966   0.501   6.163  0.3104 -1.6318  0.6092
 3711TIP3    H211091   5.989   0.634   6.232  3.0534 -0.8807 -1.5570
 3712TIP3   OH211092   2.805   4.459   6.767  0.3503 -0.4721  0.1518
 3712TIP3    H111093   2.743   4.529   6.788  0.7073  0.1158 -0.6925
 3712TIP3    H211094   2.874   4.502   6.715  1.1378 -1.2342  0.5349
 3713TIP3   OH211095   6.322   7.507   4.017 -0.0082  0.3430 -0.8295
 3713TIP3    H111096   6.324   7.435   3.954 -1.1428  0.4657 -1.0282
 3713TIP3    H211097   6.330   7.586   3.963 -2.9646  0.5649 -1.1086
 3714TIP3   OH211098   3.495   6.391   1.450  0.0626 -0.9172 -0.4612
 3714TIP3    H111099   3.581   6.372   1.488 -0.2208 -0.3077  0.4965
 3714TIP3    H211100   3.446   6.309   1.459 -0.1582 -0.6449  0.9360
 3715TIP3   OH211101   7.726   1.419   4.600 -0.1336 -0.2616  0.3726
 3715TIP3    H111102   7.814   1.422   4.636  0.3352  0.4850 -0.7730
 3715TIP3    H211103   7.705   1.510   4.579 -0.6673 -0.5663 -0.5229
 3716TIP3   OH211104   7.742   7.346   4.548  0.2442  0.5601  0.6100
 3716TIP3    H111105   7.776   7.314   4.631  0.4045  0.0587  0.3587
 3716TIP3    H211106   7.733   7.440   4.560 -0.0184  0.4529  1.2915
 3717TIP3   OH211107   5.463   4.653   0.915  0.7908  0.3087  0.2122
 3717TIP3    H111108   5.481   4.561   0.896  0.1341  0.5036 -1.6215
 3717TIP3    H211109   5.369   4.657   0.931  0.8129  0.6504  0.2701
 3718TIP3   OH211110   4.396   2.471   5.957  0.5256 -0.3651  0.8650
 3718TIP3    H111111   4.399   2.480   5.862  0.3075  1.3180  0.9840
 3718TIP3    H211112   4.488   2.468   5.984  0.6218  0.6440  0.6908
 3719TIP3   OH211113   0.039   5.480   4.684 -0.5116  0.3593 -0.1694
 3719TIP3    H111114   0.002   5.508   4.768  0.9465 -0.3932  0.7789
 3719TIP3    H211115   0.049   5.385   4.694 -0.2011  0.2854 -1.1517
 3720TIP3   OH211116   3.335   4.260   5.163  0.1882  0.1236 -0.3683
 3720TIP3    H111117   3.402   4.326   5.147  0.5468 -0.3071 -0.6569
 3720TIP3    H211118   3.382   4.176   5.158  0.0922 -0.1078  1.6431
 3721TIP3   OH211119   7.411   4.963   6.308 -0.2644  0.2356  0.0922
 3721TIP3    H111120   7.371   4.951   6.223 -1.2142  0.8508  0.4430
 3721TIP3    H211121   7.418   4.874   6.344 -1.1497  0.1042 -0.0492
 3722TIP3   OH211122   2.839   7.460   0.107  0.2354  0.3099 -0.1976
 3722TIP3    H111123   2.789   7.474   0.187  1.1518  1.8297  0.1521
 3722TIP3    H211124   2.908   7.398   0.133  0.2964  0.4992  0.0988
 3723TIP3   OH211125   5.767   6.168   1.059 -0.1226  0.6403 -0.2707
 3723TIP3    H111126   5.671   6.166   1.062 -0.1209 -0.5330 -0.5644
 3723TIP3    H211127   5.789   6.261   1.048 -1.2606  0.7990 -1.4179
 3724TIP3   OH211128   2.647   3.428   6.281 -0.1100  0.3277  0.0824
 3724TIP3    H111129   2.653   3.349   6.336 -0.0937 -0.6000 -1.2048
 3724TIP3    H211130   2.648   3.395   6.191 -0.9110  1.7458 -0.4895
 3725TIP3   OH211131   0.148   0.681   1.876 -0.3464  0.1599  0.1672
 3725TIP3    H111132   0.167   0.600   1.922  1.6439 -0.3499 -1.3845
 3725TIP3    H211133   0.185   0.668   1.788 -0.1407  2.6467 -0.2037
 3726TIP3   OH211134   6.140   0.062   6.217 -0.1792 -0.6190  0.0922
 3726TIP3    H111135   6.166   0.100   6.301  0.7623  1.1350 -0.9409
 3726TIP3    H211136   6.207  -0.004   6.199  0.5075  0.1017 -0.0134
 3727TIP3   OH211137   6.112   5.767   1.978  0.4436  0.2224  0.4096
 3727TIP3    H111138   6.050   5.697   1.958 -1.0629  1.1852  1.4422
 3727TIP3    H211139   6.098   5.833   1.909 -0.1856  0.7357  1.0152
 3728TIP3   OH211140   2.059   6.430   0.646  0.2123  0.0751 -0.0233
 3728TIP3    H111141   1.986   6.407   0.588  0.5747 -0.0759 -0.4256
 3728TIP3    H211142   2.043   6.521   0.671  0.4250  0.3682 -0.9263
 3729TIP3   OH211143   1.902   6.914   6.705 -0.0907 -0.3217  0.9760
 3729TIP3    H111144   1.904   6.990   6.647  0.3688 -0.2486  1.0811
 3729TIP3    H211145   1.989   6.911   6.744  0.4453 -1.8227 -0.2268
 3730TIP3   OH211146   7.632   0.368   2.727 -0.6900  0.2101 -0.3765
 3730TIP3    H111147   7.677   0.417   2.658 -0.3729  0.5137  0.0442
 3730TIP3    H211148   7.629   0.427   2.802  0.0122 -0.5212  0.2538
 3731TIP3   OH211149   3.058   7.163   0.090  0.4540 -0.1448 -0.8687
 3731TIP3    H111150   3.136   7.110   0.070  2.1538  1.6925  0.4100
 3731TIP3    H211151   3.026   7.128   0.173  0.8551  0.0524 -0.6275
 3732TIP3   OH211152   0.180   6.007   5.926 -0.2152 -0.2277  0.0380
 3732TIP3    H111153   0.145   5.921   5.904 -0.8737  0.0210  0.0961
 3732TIP3    H211154   0.218   6.040   5.844  0.1575 -0.6228  0.0484
 3733TIP3   OH211155   1.103   6.341   2.085  0.4981  0.4804  0.2920
 3733TIP3    H111156   1.009   6.359   2.089  0.5825  1.2166 -0.7529
 3733TIP3    H211157   1.140   6.394   2.156 -0.0683 -1.4477  2.1377
 3734TIP3   OH211158   2.313   5.840   0.832  0.2260  0.2508  0.2895
 3734TIP3    H111159   2.388   5.809   0.882  0.6058 -0.3329 -0.6192
 3734TIP3    H211160   2.252   5.766   0.831  0.0114  0.4267  0.3019
 3735TIP3   OH211161   4.515   2.561   1.664 -0.5169 -0.3678  0.1675
 3735TIP3    H111162   4.445   2.498   1.646 -0.0677 -0.3516 -1.8215
 3735TIP3    H211163   4.590   2.507   1.690 -0.1180 -0.7085 -1.5805
 3736TIP3   OH211164   6.498   6.657   3.457  0.3302  0.0600  0.8067
 3736TIP3    H111165   6.416   6.649   3.408  0.6944 -0.7329  0.3129
 3736TIP3    H211166   6.519   6.567   3.484  0.3856  0.4152  2.0249
 3737TIP3   OH211167   7.673   7.538   0.497 -0.3439  0.1280  0.0950
 3737TIP3    H111168   7.710   7.452   0.475 -1.1298  0.2397 -1.7859
 3737TIP3    H211169   7.594   7.517   0.546 -1.0168 -0.2693 -1.1310
 3738TIP3   OH211170   3.731   2.125   0.309  0.2116 -0.3693  0.3020
 3738TIP3    H111171   3.670   2.081   0.368  1.1640 -0.2625  1.3990
 3738TIP3    H211172   3.759   2.202   0.357  1.1619 -0.3858 -0.2028
 3739TIP3   OH211173   5.014   5.352   0.705  0.0488 -0.0059 -0.6372
 3739TIP3    H111174   4.949   5.310   0.648  0.5523 -1.8893  0.0863
 3739TIP3    H211175   5.000   5.311   0.791  0.9129  0.9881 -0.0111
 3740TIP3   OH211176   0.025   1.329   4.539 -0.1755  0.3772  0.2013
 3740TIP3    H111177   0.105   1.283   4.513  0.1945  1.2454 -0.2683
 3740TIP3    H211178  -0.036   1.314   4.467  0.6738  2.3485 -1.0264
 3741TIP3   OH211179   5.225   0.215   5.129 -0.2436  0.5710 -0.5127
 3741TIP3    H111180   5.248   0.219   5.036  0.7787  2.3510 -0.2306
 3741TIP3    H211181   5.307   0.189   5.172 -0.1166  1.8719  0.0603
 3742TIP3   OH211182   1.923   4.977   4.592 -0.5119 -0.7490 -0.0844
 3742TIP3    H111183   1.982   4.961   4.666 -1.5336 -0.2080  0.8799
 3742TIP3    H211184   1.930   4.897   4.539  1.4860 -0.4803 -0.3227
 3743TIP3   OH211185   4.524   2.346   2.458 -0.1104 -0.2180  0.2764
 3743TIP3    H111186   4.572   2.415   2.504  1.1118  0.1459 -1.4309
 3743TIP3    H211187   4.467   2.394   2.397  1.1776 -0.6619 -1.3465
 3744TIP3   OH211188   6.399   5.750   4.487 -0.1839 -0.3062 -0.0158
 3744TIP3    H111189   6.484   5.749   4.530 -0.2061 -1.8817  0.0355
 3744TIP3    H211190   6.409   5.812   4.415 -0.4936  3.3675  2.8118
 3745TIP3   OH211191   0.074   5.529   2.392  0.6854 -0.0876  0.2699
 3745TIP3    H111192   0.067   5.604   2.333 -0.4644  0.0980  0.6026
 3745TIP3    H211193  -0.015   5.494   2.397  0.9838 -0.7877  1.0005
 3746TIP3   OH211194   0.846   1.341   5.934 -0.1997 -0.2742 -0.2981
 3746TIP3    H111195   0.765   1.312   5.977 -0.3534 -0.5557 -0.7677
 3746TIP3    H211196   0.816   1.398   5.863  0.1059  1.2040  0.7167
 3747TIP3   OH211197   2.733   5.870   0.871 -0.5748 -0.5565  0.2034
 3747TIP3    H111198   2.780   5.893   0.951 -0.4056  0.1360 -0.0883
 3747TIP3    H211199   2.729   5.952   0.822  0.8620 -1.3205 -1.2869
 3748TIP3   OH211200   1.507   0.956   2.160 -0.1710  0.0763 -0.3512
 3748TIP3    H111201   1.477   0.929   2.247  0.3557  0.2814 -0.1026
 3748TIP3    H211202   1.435   1.009   2.125  0.6207  2.2013  1.0207
 3749TIP3   OH211203   7.745   7.269   4.819  0.2369  0.2473 -0.0073
 3749TIP3    H111204   7.711   7.342   4.870  0.3199 -0.2659  0.8036
 3749TIP3    H211205   7.669   7.212   4.806 -0.3569  1.4583 -2.4865
 3750TIP3   OH211206   4.965   4.593   5.611 -0.0704 -0.1825  1.1547
 3750TIP3    H111207   5.045   4.642   5.593  0.5241 -1.7450 -0.7674
 3750TIP3    H211208   4.911   4.605   5.533 -0.8939 -0.7480  1.6177
 3751TIP3   OH211209   2.100   1.545   3.803  0.2749  0.5878 -0.4178
 3751TIP3    H111210   2.043   1.470   3.784 -1.6075  1.9398 -0.3299
 3751TIP3    H211211   2.063   1.583   3.882  0.4011  2.3589 -1.1757
 3752TIP3   OH211212   3.025   7.465   5.036  0.1908  0.8138  0.5335
 3752TIP3    H111213   2.994   7.547   5.074  0.7756  1.1858  0.2234
 3752TIP3    H211214   3.112   7.453   5.073 -0.3106 -0.2454  1.4352
 3753TIP3   OH211215   5.634   0.853   6.788 -0.2469  0.3978 -0.0001
 3753TIP3    H111216   5.669   0.818   6.707 -1.4388  0.4892 -0.5775
 3753TIP3    H211217   5.688   0.930   6.806 -0.4639  0.8319 -1.1372
 3754TIP3   OH211218   0.503   7.336   5.825 -0.4233  0.1460 -0.2781
 3754TIP3    H111219   0.516   7.395   5.751  0.8878  0.3911  0.1287
 3754TIP3    H211220   0.413   7.304   5.814 -0.2918  0.2324 -1.9206
 3755TIP3   OH211221   4.727   3.602   2.940 -0.2934 -0.4892  0.5229
 3755TIP3    H111222   4.810   3.570   2.974 -0.5870 -0.1637  1.5837
 3755TIP3    H211223   4.662   3.539   2.971 -0.8094  0.7623  2.1975
 3756TIP3   OH211224   2.801   6.551   3.620  0.6590  0.7987 -0.1359
 3756TIP3    H111225   2.863   6.478   3.620  0.1399  0.3385 -0.8806
 3756TIP3    H211226   2.833   6.610   3.552  1.0973  1.2818  0.4903
 3757TIP3   OH211227   1.924   0.050   1.466 -0.4470 -0.3990  0.0109
 3757TIP3    H111228   1.955   0.014   1.550  1.4132 -1.1093 -0.9129
 3757TIP3    H211229   1.876  -0.021   1.425  2.7561 -1.8575 -1.5681
 3758TIP3   OH211230   8.260   0.938   1.024 -0.2665  0.0257  0.1385
 3758TIP3    H111231   8.194   0.997   1.062 -0.5783 -1.1080  1.4390
 3758TIP3    H211232   8.331   0.997   0.996 -0.9853  1.0983  0.5141
 3759TIP3   OH211233   1.990   5.144   0.432  0.1975 -0.5209 -0.0684
 3759TIP3    H111234   1.935   5.084   0.483 -0.5296 -1.1303 -1.4955
 3759TIP3    H211235   1.933   5.173   0.360  1.0188  0.7264 -0.2479
 3760TIP3   OH211236   7.308   4.918   6.576  0.0673  0.1677  0.1436
 3760TIP3    H111237   7.261   4.926   6.493  1.1486 -2.6807 -0.8883
 3760TIP3    H211238   7.247   4.871   6.633 -0.0916  0.7417  0.4538
 3761TIP3   OH211239   3.012   6.150   4.737 -0.2239 -0.4930 -0.2212
 3761TIP3    H111240   3.000   6.182   4.648 -1.7169 -2.2221 -0.7066
 3761TIP3    H211241   3.107   6.147   4.748 -0.0223  1.1876 -1.1804
 3762TIP3   OH211242   5.068   6.114   3.997 -0.3138  0.3987 -0.0116
 3762TIP3    H111243   5.027   6.094   4.081 -0.3126 -0.8810 -0.2881
 3762TIP3    H211244   5.019   6.062   3.933  1.5049 -0.9752 -0.3887
 3763TIP3   OH211245   5.507   0.098   0.864  0.5934  0.0566 -0.3473
 3763TIP3    H111246   5.563   0.022   0.846  0.2886  0.0204 -1.1844
 3763TIP3    H211247   5.450   0.068   0.935  1.6189  0.0962  0.5161
 3764TIP3   OH211248   0.910   5.691   4.026  0.4565 -0.2628 -0.1228
 3764TIP3    H111249   0.983   5.702   4.088 -1.1849  2.4096  1.5553
 3764TIP3    H211250   0.880   5.601   4.041  3.5242 -1.6034 -1.1561
 3765TIP3   OH211251   5.580   3.186   6.764  0.3574  0.1848 -0.6033
 3765TIP3    H111252   5.582   3.202   6.858 -0.1119 -0.5792 -0.4489
 3765TIP3    H211253   5.499   3.227   6.734  0.7720  0.8854 -0.7668
 3766TIP3   OH211254   1.988   5.089   1.334  0.2239 -0.3532  0.2478
 3766TIP3    H111255   2.062   5.030   1.324 -0.2834 -1.0357  0.4473
 3766TIP3    H211256   1.912   5.032   1.338 -0.3114  0.3317  0.1206
 3767TIP3   OH211257   0.154   5.541   6.278  0.1115  0.3170 -0.0956
 3767TIP3    H111258   0.115   5.521   6.193 -0.3203 -1.0241  0.3921
 3767TIP3    H211259   0.247   5.522   6.266 -0.3459 -2.9396  0.5149
 3768TIP3   OH211260   4.339   1.353   4.311  0.2445 -0.2948  0.4877
 3768TIP3    H111261   4.399   1.375   4.240 -0.4031 -0.7643 -0.2226
 3768TIP3    H211262   4.352   1.259   4.326  0.3722 -0.2015  0.9873
 3769TIP3   OH211263   3.630   6.592   0.808 -0.0039 -0.5811  0.1029
 3769TIP3    H111264   3.578   6.573   0.886 -0.7900  0.1190 -0.2308
 3769TIP3    H211265   3.668   6.678   0.825  0.2248 -0.6468 -0.0802
 3770TIP3   OH211266   7.896   1.418   2.940 -0.1950  0.1008  0.0518
 3770TIP3    H111267   7.842   1.362   2.885 -0.0402 -0.5107  0.5076
 3770TIP3    H211268   7.970   1.443   2.884 -0.0496 -0.4964 -0.0298
 3771TIP3   OH211269   5.078   5.878   3.531  0.0429  0.3033 -0.2293
 3771TIP3    H111270   5.044   5.800   3.487 -0.5623  0.3256  0.1717
 3771TIP3    H211271   5.157   5.847   3.576  0.6160  0.2680 -1.2530
 3772TIP3   OH211272   1.637   7.838   4.089 -0.0282 -0.1578 -0.2931
 3772TIP3    H111273   1.719   7.790   4.073 -0.6803 -0.7521 -2.1108
 3772TIP3    H211274   1.642   7.864   4.181  1.5462 -1.4483  0.0313
 3773TIP3   OH211275   0.109   7.427   3.773  0.1070 -0.2208 -0.0633
 3773TIP3    H111276   0.065   7.444   3.690  0.9680  0.3544 -0.4165
 3773TIP3    H211277   0.039   7.424   3.837 -0.5383 -0.3159 -0.7567
 3774TIP3   OH211278   7.972   3.871   1.466 -0.3445  0.0986 -0.6161
 3774TIP3    H111279   8.042   3.930   1.494 -0.1747 -0.2317 -0.3315
 3774TIP3    H211280   7.898   3.929   1.446 -0.1689  0.4093 -0.3753
 3775TIP3   OH211281   4.480   5.499   0.540 -0.5543  0.2036 -0.2189
 3775TIP3    H111282   4.439   5.512   0.626 -0.6452 -1.0675 -0.0421
 3775TIP3    H211283   4.407   5.499   0.478 -0.4217  1.8706 -0.4172
 3776TIP3   OH211284   2.119   1.251   6.456  0.1714 -0.6453 -0.4333
 3776TIP3    H111285   2.055   1.181   6.449 -0.1883 -0.4519  0.7190
 3776TIP3    H211286   2.095   1.298   6.536  1.2164 -0.0301 -0.4578
 3777TIP3   OH211287   6.876   6.024   2.731  0.1955 -0.5426  0.0945
 3777TIP3    H111288   6.941   6.069   2.786 -0.4399 -1.3720  1.5816
 3777TIP3    H211289   6.856   6.087   2.662 -0.1341  1.1948  1.6848
 3778TIP3   OH211290   1.620   4.218   0.485  0.0223  0.0513 -0.1862
 3778TIP3    H111291   1.625   4.309   0.514 -1.3130  0.6300 -1.5779
 3778TIP3    H211292   1.623   4.166   0.565  0.6822  1.3307  0.6401
 3779TIP3   OH211293   6.901   5.239   0.347 -0.0823 -0.5654 -0.2716
 3779TIP3    H111294   6.961   5.218   0.276  0.1479  0.1230 -0.2866
 3779TIP3    H211295   6.918   5.172   0.414 -1.1058 -1.9319 -1.3047
 3780TIP3   OH211296   7.380   7.316   0.172 -0.0944 -0.2847 -0.2228
 3780TIP3    H111297   7.373   7.224   0.145  0.3098  0.0131 -1.4211
 3780TIP3    H211298   7.401   7.363   0.091  1.7930  0.5873  0.6952
 3781TIP3   OH211299   2.623   2.711   4.466 -0.4526  0.0909 -0.2685
 3781TIP3    H111300   2.557   2.708   4.535 -0.0354 -0.4095  0.1223
 3781TIP3    H211301   2.579   2.751   4.392 -0.8036  1.0081  0.4137
 3782TIP3   OH211302   6.675   0.180   5.178  0.2910  0.4142  0.3022
 3782TIP3    H111303   6.602   0.118   5.179 -0.6426  1.4115  2.9054
 3782TIP3    H211304   6.745   0.135   5.225 -0.1344  1.0311  1.5449
 3783TIP3   OH211305   7.514   4.958   3.787  0.3507 -0.3268 -0.2691
 3783TIP3    H111306   7.420   4.947   3.795  0.2098  0.0744 -1.2195
 3783TIP3    H211307   7.537   5.021   3.855  0.4011 -2.4735  1.8440
 3784TIP3   OH211308   0.254   5.526   4.288 -0.4686 -0.0307  0.5094
 3784TIP3    H111309   0.341   5.492   4.306 -0.8485 -0.3176  1.8927
 3784TIP3    H211310   0.225   5.565   4.370 -0.9760  1.6033 -0.3998
 3785TIP3   OH211311   1.101   7.339   0.862 -0.1699 -0.4100 -0.0516
 3785TIP3    H111312   1.113   7.424   0.820 -2.5518  1.0890  2.0399
 3785TIP3    H211313   1.190   7.304   0.871  1.1423  2.7421  0.7079
 3786TIP3   OH211314   1.456   5.804   5.413 -0.1283  0.1214 -0.0173
 3786TIP3    H111315   1.495   5.779   5.329 -2.5302 -1.4884 -0.7446
 3786TIP3    H211316   1.485   5.736   5.474 -0.4349 -0.1378 -0.1586
 3787TIP3   OH211317   0.851   0.836   0.559 -0.3080  0.6803  0.4186
 3787TIP3    H111318   0.906   0.775   0.608 -0.2600 -0.1217 -0.6093
 3787TIP3    H211319   0.818   0.897   0.626  2.0455  1.3948  1.0592
 3788TIP3   OH211320   3.429   3.674   4.597 -0.4630  0.6979  0.1192
 3788TIP3    H111321   3.475   3.689   4.679 -0.9305  0.2037  0.4798
 3788TIP3    H211322   3.352   3.622   4.621  0.2740 -0.9240 -0.8687
 3789TIP3   OH211323   3.068   1.429   0.636 -0.1531  0.1702 -0.2271
 3789TIP3    H111324   3.065   1.489   0.710 -0.5959  1.0718 -0.9540
 3789TIP3    H211325   3.007   1.360   0.658  0.3461 -0.0085  0.6126
 3790TIP3   OH211326   0.231   1.139   1.378 -0.6461 -0.5651 -0.3518
 3790TIP3    H111327   0.186   1.209   1.426 -0.4961 -1.1360  0.6372
 3790TIP3    H211328   0.208   1.155   1.286 -1.5451  0.1069 -0.0264
 3791TIP3   OH211329   2.750   0.770   0.465  0.5594  0.0332 -0.3028
 3791TIP3    H111330   2.712   0.757   0.378 -0.4895  1.4284 -0.0952
 3791TIP3    H211331   2.844   0.779   0.450  0.3101  1.0276 -1.3975
 3792TIP3   OH211332   7.838   1.927   4.232  0.2959 -0.0533  0.0863
 3792TIP3    H111333   7.821   2.009   4.278  0.7887 -0.1691  0.4728
 3792TIP3    H211334   7.753   1.904   4.194 -0.0229  0.2525  0.5948
 3793TIP3   OH211335   2.104   1.139   6.084  0.0948  0.1484  0.7877
 3793TIP3    H111336   2.141   1.096   6.161 -0.6406  0.2592  1.2190
 3793TIP3    H211337   2.114   1.076   6.014 -1.7032 -1.1219  1.5813
 3794TIP3   OH211338   8.284   1.416   3.684  0.6110  0.1032  0.0609
 3794TIP3    H111339   8.268   1.494   3.737  0.2522  0.5498 -0.6769
 3794TIP3    H211340   8.312   1.350   3.746  1.3946  0.9565  0.6511
 3795TIP3   OH211341   3.199   1.794   4.410  0.0410 -0.2704  0.2951
 3795TIP3    H111342   3.114   1.762   4.441 -1.3803  0.4038 -2.5348
 3795TIP3    H211343   3.218   1.740   4.334  1.3855  0.6018 -0.0133
 3796TIP3   OH211344   3.386   6.804   3.878  0.1172  0.4168 -0.3035
 3796TIP3    H111345   3.431   6.748   3.941  0.1693 -1.5261 -1.9231
 3796TIP3    H211346   3.452   6.868   3.851  1.0341 -0.6077 -0.5569
 3797TIP3   OH211347   3.965   3.037   2.112 -0.0088  0.1895 -0.4586
 3797TIP3    H111348   3.918   2.954   2.115 -1.6418  1.1104  2.0787
 3797TIP3    H211349   4.043   3.017   2.060  0.3919 -3.3027  1.1571
 3798TIP3   OH211350   7.759   7.728   0.321  0.1631 -0.4273 -0.1044
 3798TIP3    H111351   7.750   7.813   0.364  3.0834 -0.1777  0.2150
 3798TIP3    H211352   7.735   7.665   0.389 -2.6079  0.0428 -0.5211
 3799TIP3   OH211353   3.858   7.828   4.097  0.4369 -0.0109  0.6254
 3799TIP3    H111354   3.892   7.865   4.016 -0.0265  3.0836  1.7028
 3799TIP3    H211355   3.767   7.803   4.076  0.0538  1.5334  0.3677
 3800TIP3   OH211356   6.813   3.166   2.634 -0.3351 -0.4357  0.8523
 3800TIP3    H111357   6.753   3.136   2.703 -1.5511 -1.2166 -0.4755
 3800TIP3    H211358   6.856   3.085   2.604 -2.4932 -0.7678 -1.7082
 3801TIP3   OH211359   8.077   4.039   2.069 -0.0538  0.2371 -0.3133
 3801TIP3    H111360   8.051   4.050   1.978 -0.7816 -0.3452 -0.1894
 3801TIP3    H211361   8.138   4.110   2.086 -1.4703  1.6089 -0.6821
 3802TIP3   OH211362   5.659   2.771   3.787  0.4800 -0.6887  0.5010
 3802TIP3    H111363   5.594   2.837   3.759  0.4830 -0.4508  1.0508
 3802TIP3    H211364   5.607   2.701   3.825  0.5946  0.1443  2.2909
 3803TIP3   OH211365   0.664   2.493   0.435 -0.5950 -0.1709  0.4705
 3803TIP3    H111366   0.583   2.541   0.455 -0.2304  0.5554  0.2455
 3803TIP3    H211367   0.634   2.405   0.411 -1.6732  0.9414 -2.8650
 3804TIP3   OH211368   5.129   0.818   1.185  0.5451  0.0240  0.1258
 3804TIP3    H111369   5.185   0.797   1.110  0.1961 -0.5801  0.0249
 3804TIP3    H211370   5.189   0.825   1.259  0.9985  1.5047 -0.3556
 3805TIP3   OH211371   5.174   5.646   5.950 -0.6651  0.5525 -0.6518
 3805TIP3    H111372   5.236   5.573   5.951  1.0677  1.9045 -2.1255
 3805TIP3    H211373   5.228   5.724   5.940 -2.4834  2.0461  0.4452
 3806TIP3   OH211374   5.353   0.307   1.620  0.5888  0.1632  0.2667
 3806TIP3    H111375   5.355   0.394   1.579 -1.4563  1.3847  2.4801
 3806TIP3    H211376   5.443   0.292   1.648  0.9626  1.6412 -0.0438
 3807TIP3   OH211377   7.370   4.166   5.850 -0.2218 -0.1334  0.2999
 3807TIP3    H111378   7.326   4.237   5.802 -0.0375 -0.0390  0.2677
 3807TIP3    H211379   7.368   4.092   5.790 -1.7380 -0.6077  0.9011
 3808TIP3   OH211380   2.854   5.614   5.067  0.5548 -0.4277 -0.1919
 3808TIP3    H111381   2.861   5.671   5.143 -0.3178 -1.3296  0.5980
 3808TIP3    H211382   2.892   5.665   4.995  2.2073  0.1088  0.9989
 3809TIP3   OH211383   6.595   0.092   0.651  0.4070 -0.3030  0.2178
 3809TIP3    H111384   6.504   0.090   0.620 -0.0059 -1.2581  1.4051
 3809TIP3    H211385   6.590   0.130   0.739  1.2671  0.4096 -0.0336
 3810TIP3   OH211386   1.683   5.547   3.490 -0.5463 -0.3236 -0.4853
 3810TIP3    H111387   1.624   5.569   3.562  0.4937  2.5664 -0.3862
 3810TIP3    H211388   1.741   5.480   3.526  1.0259  2.1896  2.0915
 3811TIP3   OH211389   0.726   7.743   0.333  0.2091  0.2889  0.2487
 3811TIP3    H111390   0.715   7.769   0.424 -0.2612 -1.1352  0.6361
 3811TIP3    H211391   0.682   7.658   0.327  0.3604  0.2796 -1.2723
 3812TIP3   OH211392   0.680   4.814   5.263 -0.1401 -0.0946  0.5548
 3812TIP3    H111393   0.690   4.718   5.261  1.4622  0.0261  0.9831
 3812TIP3    H211394   0.731   4.841   5.340 -1.6558  1.0100  1.2130
 3813TIP3   OH211395   2.510   2.782   5.250  0.2626 -0.2441  0.4095
 3813TIP3    H111396   2.588   2.837   5.257  0.0332 -0.0857  2.0333
 3813TIP3    H211397   2.513   2.725   5.327  0.7051 -2.8656 -1.4004
 3814TIP3   OH211398   5.189   2.705   1.291 -0.4201  0.5253  0.0407
 3814TIP3    H111399   5.168   2.667   1.376  0.2544 -0.3658 -0.1755
 3814TIP3    H211400   5.262   2.651   1.258 -1.5530 -0.0205 -1.6982
 3815TIP3   OH211401   0.523   6.978   1.166 -0.2799 -0.6519  0.9022
 3815TIP3    H111402   0.444   6.944   1.208 -0.2854 -1.7942 -0.0098
 3815TIP3    H211403   0.524   6.938   1.079  0.6321  0.3516  0.4310
 3816TIP3   OH211404   0.721   1.399   3.567  0.4911  0.4280  0.2933
 3816TIP3    H111405   0.780   1.402   3.642  1.9668  0.5587 -0.8430
 3816TIP3    H211406   0.718   1.489   3.535  0.1443  0.3051 -0.0353
 3817TIP3   OH211407   0.747   2.427   3.305 -0.0762 -0.1116 -0.0421
 3817TIP3    H111408   0.757   2.506   3.358 -0.2582 -0.5744  0.7162
 3817TIP3    H211409   0.664   2.390   3.335  0.3240 -0.9249  0.0854
 3818TIP3   OH211410   2.482   5.666   0.505 -0.5192  0.8797  0.2997
 3818TIP3    H111411   2.472   5.760   0.486  0.6745  1.3227  1.7101
 3818TIP3    H211412   2.549   5.662   0.573  0.1667 -1.0777 -0.4086
 3819TIP3   OH211413   3.800   5.390   0.818  0.5846  0.3768  0.5203
 3819TIP3    H111414   3.825   5.330   0.748  0.3909  0.4074  0.4233
 3819TIP3    H211415   3.750   5.459   0.774  0.5473  0.4488  0.6736
 3820TIP3   OH211416   7.237   0.292   0.088  0.3725 -0.1960 -0.2255
 3820TIP3    H111417   7.197   0.340   0.161 -1.0026  1.4102 -1.9651
 3820TIP3    H211418   7.315   0.343   0.067 -0.0335  0.1808 -0.8228
 3821TIP3   OH211419   0.326   0.798   2.227  0.3996  0.0299  0.1927
 3821TIP3    H111420   0.295   0.708   2.218  0.0590  0.0979  0.6150
 3821TIP3    H211421   0.418   0.789   2.252  0.5694 -0.1860 -0.4862
 3822TIP3   OH211422   7.738   0.961   3.744 -0.4563 -0.5630 -0.6361
 3822TIP3    H111423   7.661   0.991   3.793 -0.3341 -0.2852 -0.6115
 3822TIP3    H211424   7.744   1.022   3.670 -0.7705 -1.1139 -1.1262
 3823TIP3   OH211425   3.760   0.525   4.824 -0.3245 -0.2625 -0.1735
 3823TIP3    H111426   3.722   0.526   4.912  1.1348  1.3824  0.5052
 3823TIP3    H211427   3.823   0.453   4.825 -0.6078 -0.5099 -0.0255
 3824TIP3   OH211428   3.675   2.433   3.777  0.1003 -0.8241 -0.3972
 3824TIP3    H111429   3.608   2.399   3.836 -0.1264  0.8015  0.3544
 3824TIP3    H211430   3.628   2.456   3.697 -0.3549  0.5683  0.2247
 3825TIP3   OH211431   6.181   7.807   6.710  0.0019 -0.0712 -0.3894
 3825TIP3    H111432   6.240   7.857   6.654  0.3913 -0.4594 -0.3348
 3825TIP3    H211433   6.137   7.747   6.651 -0.2176  0.1055 -0.4055
 3826TIP3   OH211434   1.764   4.382   2.295  0.1871 -0.5985 -0.0546
 3826TIP3    H111435   1.801   4.333   2.368 -2.7865 -1.3398  1.1299
 3826TIP3    H211436   1.774   4.324   2.219 -0.4625 -1.7199  0.6895
 3827TIP3   OH211437   2.845   6.739   1.746 -0.1276  0.1172  0.3998
 3827TIP3    H111438   2.771   6.734   1.685 -0.6090  0.3613  0.9500
 3827TIP3    H211439   2.921   6.755   1.691  0.0020 -2.9402 -0.5283
 3828TIP3   OH211440   1.939   1.073   6.323 -0.1285  0.1091  0.0795
 3828TIP3    H111441   1.943   1.012   6.249 -0.9497  0.2939 -0.1226
 3828TIP3    H211442   1.860   1.125   6.307  0.8033  1.5616 -0.0010
 3829TIP3   OH211443   6.945   1.615   0.715  0.1698  0.0648 -0.0486
 3829TIP3    H111444   6.987   1.559   0.650 -0.6168  0.9500 -1.3577
 3829TIP3    H211445   6.967   1.704   0.689  1.0244  0.4283  1.7378
 3830TIP3   OH211446   3.420   1.279   2.029  0.3287 -0.0929  0.3678
 3830TIP3    H111447   3.355   1.219   1.993  0.0173  1.1199 -1.2138
 3830TIP3    H211448   3.436   1.248   2.118 -2.1086 -0.6733  0.6536
 3831TIP3   OH211449   5.659   7.567   2.587 -0.2717  0.3432  0.0471
 3831TIP3    H111450   5.567   7.542   2.574 -0.1932  0.6304 -1.1337
 3831TIP3    H211451   5.705   7.531   2.512  0.3566  1.3552 -0.0714
 3832TIP3   OH211452   1.431   1.995   3.677 -0.7334 -0.1930  0.4304
 3832TIP3    H111453   1.416   1.988   3.772  1.9849 -0.3676  0.9277
 3832TIP3    H211454   1.495   2.066   3.668  1.2188 -2.0113 -0.9625
 3833TIP3   OH211455   2.665   1.326   2.107  0.1202  0.2561 -0.2732
 3833TIP3    H111456   2.590   1.270   2.085  1.0510 -0.8527 -0.7360
 3833TIP3    H211457   2.658   1.401   2.048 -0.3686 -0.0657 -0.6310
 3834TIP3   OH211458   1.732   5.517   6.490 -0.5180  0.3293  0.5449
 3834TIP3    H111459   1.677   5.500   6.414 -0.1004 -1.3089  0.5627
 3834TIP3    H211460   1.677   5.568   6.549 -1.4146  0.2067 -0.1599
 3835TIP3   OH211461   0.950   3.173   1.944 -0.0979 -0.0542 -0.1418
 3835TIP3    H111462   1.040   3.206   1.942  0.4303 -1.3509  0.5663
 3835TIP3    H211463   0.944   3.127   2.028 -2.2594  2.1809  1.0678
 3836TIP3   OH211464   3.026   1.377   5.943  0.2911  0.3808 -0.1963
 3836TIP3    H111465   2.936   1.372   5.977  0.5794 -1.7369  0.4144
 3836TIP3    H211466   3.081   1.380   6.021  0.7829  1.1465 -0.5638
 3837TIP3   OH211467   0.901   0.023   1.644  0.2449 -0.2603 -0.1206
 3837TIP3    H111468   0.923   0.057   1.557 -2.6866  0.1292 -0.8007
 3837TIP3    H211469   0.876  -0.068   1.629 -1.0873  0.0426  0.1468
 3838TIP3   OH211470   7.478   5.194   1.208 -0.2648 -0.0780  0.0765
 3838TIP3    H111471   7.393   5.239   1.204  0.0583  0.4582 -1.4150
 3838TIP3    H211472   7.475   5.130   1.137  0.2623 -0.6281  0.5449
 3839TIP3   OH211473   2.179   6.433   0.152 -0.3718  0.0216  0.1846
 3839TIP3    H111474   2.224   6.447   0.235 -0.2361  0.1863  0.0832
 3839TIP3    H211475   2.087   6.424   0.176 -0.2959 -0.2157  0.3811
 3840TIP3   OH211476   3.707   3.684   1.398  0.4495 -0.0413 -0.6396
 3840TIP3    H111477   3.763   3.658   1.471 -0.1881 -0.1669 -0.1959
 3840TIP3    H211478   3.625   3.711   1.438 -0.0201 -0.4214 -1.3277
 3841TIP3   OH211479   3.638   3.200   6.398 -0.6138  0.0304  0.4711
 3841TIP3    H111480   3.718   3.208   6.450 -0.5768  0.0898  0.4070
 3841TIP3    H211481   3.614   3.290   6.378  0.3157 -0.0011 -1.0294
 3842TIP3   OH211482   7.169   5.084   3.131  0.2648  0.5507 -0.5344
 3842TIP3    H111483   7.171   5.051   3.220  1.5952 -0.5104 -0.9302
 3842TIP3    H211484   7.135   5.012   3.078  1.3768  0.4423 -1.1432
 3843TIP3   OH211485   2.641   2.317   1.691 -0.2584  0.1748 -0.2915
 3843TIP3    H111486   2.722   2.353   1.655 -0.5255  1.8103  0.6692
 3843TIP3    H211487   2.627   2.236   1.641  1.5517  0.2426 -0.9866
 3844TIP3   OH211488   5.492   3.079   1.849 -0.0829 -0.6051 -0.1889
 3844TIP3    H111489   5.545   3.011   1.890 -1.3536 -1.1174  0.6670
 3844TIP3    H211490   5.422   3.097   1.912 -2.7886 -2.1988 -2.4780
 3845TIP3   OH211491   3.012   0.963   6.800  0.3389  0.5790 -0.4512
 3845TIP3    H111492   3.018   1.001   6.713 -0.8071  1.9956  0.0479
 3845TIP3    H211493   2.934   1.004   6.839  0.1638 -0.8780  0.8226
 3846TIP3   OH211494   2.250   4.777   4.510  0.1315  0.1443 -0.6155
 3846TIP3    H111495   2.222   4.821   4.430 -3.8853 -2.3299 -0.8354
 3846TIP3    H211496   2.227   4.838   4.580  1.1652  1.1895 -1.1376
 3847TIP3   OH211497   2.716   2.298   1.101 -1.0537  0.3186  0.1809
 3847TIP3    H111498   2.663   2.364   1.056  0.3342  0.4215 -1.3851
 3847TIP3    H211499   2.796   2.291   1.049 -0.5305 -1.5518  1.1344
 3848TIP3   OH211500   0.302   7.480   2.351  0.2361  0.6426 -0.4852
 3848TIP3    H111501   0.347   7.556   2.389 -1.4142  1.8950 -0.9218
 3848TIP3    H211502   0.370   7.412   2.348  2.0484  2.3610 -0.9883
 3849TIP3   OH211503   1.738   5.053   3.150  0.1519 -0.2761  0.2913
 3849TIP3    H111504   1.650   5.091   3.153  0.3998  0.2838  0.5447
 3849TIP3    H211505   1.794   5.125   3.124  0.2341 -1.1733 -2.3149
 3850TIP3   OH211506   5.070   2.393   0.289  0.0948 -0.0299 -0.0435
 3850TIP3    H111507   4.979   2.401   0.318  0.1759  0.4138  0.1022
 3850TIP3    H211508   5.079   2.461   0.222  0.1171 -0.5578 -0.5752
 3851TIP3   OH211509   0.809   3.828   6.712 -0.1183 -0.5612 -0.6777
 3851TIP3    H111510   0.830   3.747   6.666 -0.1504 -0.8293 -0.2187
 3851TIP3    H211511   0.773   3.800   6.796  0.9527 -0.0667 -0.0296
 3852TIP3   OH211512   7.580   0.343   5.422 -0.2839  0.1556  0.1866
 3852TIP3    H111513   7.489   0.318   5.434 -0.4840  1.2661  1.1622
 3852TIP3    H211514   7.624   0.262   5.394 -1.3328 -0.6713  0.8568
 3853TIP3   OH211515   5.560   1.821   0.270  0.2960  0.4808  0.0418
 3853TIP3    H111516   5.639   1.804   0.218 -1.0290  0.0206 -1.8981
 3853TIP3    H211517   5.547   1.916   0.262  1.1217  0.7072  1.1253
 3854TIP3   OH211518   3.914   3.451   4.997  0.2055  0.0985  0.8330
 3854TIP3    H111519   3.838   3.396   4.978 -0.1387  0.9515 -0.4206
 3854TIP3    H211520   3.979   3.391   5.034  0.1917 -1.3562 -1.3440
 3855TIP3   OH211521   4.335   3.163   4.229 -0.1540 -0.0170 -0.2760
 3855TIP3    H111522   4.324   3.234   4.166 -1.0405 -1.4117 -1.7897
 3855TIP3    H211523   4.430   3.149   4.232 -0.1265 -0.4372 -1.9690
 3856TIP3   OH211524   6.864   2.663   0.407 -0.4128  0.5144  0.2492
 3856TIP3    H111525   6.943   2.697   0.366 -1.0803  0.6575 -0.9720
 3856TIP3    H211526   6.792   2.699   0.355 -1.2351 -0.6693  0.5034
 3857TIP3   OH211527   1.159   7.049   3.168  0.1691 -0.0932  0.0490
 3857TIP3    H111528   1.185   6.968   3.210  1.2908  0.6154  0.7992
 3857TIP3    H211529   1.075   7.072   3.208 -0.2729 -0.9879 -0.3465
 3858TIP3   OH211530   0.065   6.255   0.110  0.4780  0.5329 -0.1903
 3858TIP3    H111531   0.091   6.168   0.081  0.5203  0.5553 -0.2195
 3858TIP3    H211532   0.118   6.315   0.057  0.7914  0.5697  0.1610
 3859TIP3   OH211533   5.221   5.393   4.149 -0.6816  0.0370  0.5444
 3859TIP3    H111534   5.220   5.427   4.238  1.5032 -0.3901  0.8063
 3859TIP3    H211535   5.297   5.434   4.109 -1.8430  0.5102 -1.2785
 3860TIP3   OH211536   5.981   2.758   2.338 -0.2237  0.0091 -0.7759
 3860TIP3    H111537   5.988   2.789   2.428 -0.7728 -2.0240  0.0266
 3860TIP3    H211538   6.009   2.832   2.285 -1.1065  1.7226  0.9930
 3861TIP3   OH211539   4.639   3.361   1.340  0.2127  0.3932  0.3908
 3861TIP3    H111540   4.703   3.432   1.339  0.1261  0.5298  2.1328
 3861TIP3    H211541   4.580   3.383   1.412 -0.5971 -0.7724  0.1134
 3862TIP3   OH211542   0.163   1.324   5.689  0.0696  0.7918  0.1716
 3862TIP3    H111543   0.166   1.347   5.596 -0.9833 -0.6194 -0.2412
 3862TIP3    H211544   0.220   1.247   5.697 -0.5277  0.3729  0.5102
 3863TIP3   OH211545   7.990   5.897   0.528  0.1898  0.3541 -0.6169
 3863TIP3    H111546   7.982   5.820   0.585  0.2336  0.6522 -0.2040
 3863TIP3    H211547   7.932   5.878   0.454  0.1902 -0.0705 -0.5132
 3864TIP3   OH211548   3.139   0.633   2.976  0.0414 -0.2503  0.2051
 3864TIP3    H111549   3.149   0.662   3.067 -0.3286  0.4106  0.0401
 3864TIP3    H211550   3.215   0.669   2.931  1.3399 -2.2852  0.6397
 3865TIP3   OH211551   3.096   5.420   5.427 -0.1905  0.7232  0.2299
 3865TIP3    H111552   3.161   5.351   5.419 -2.0599 -1.0371 -0.9689
 3865TIP3    H211553   3.079   5.427   5.521  0.3494 -0.1561  0.4047
 3866TIP3   OH211554   3.314   2.735   4.379 -0.9588 -0.8930  0.1375
 3866TIP3    H111555   3.271   2.820   4.377  0.8629  0.1384  1.4430
 3866TIP3    H211556   3.341   2.719   4.289  0.9013  1.1935  0.2379
 3867TIP3   OH211557   5.702   1.421   2.675 -0.1361 -0.2349  0.0385
 3867TIP3    H111558   5.783   1.464   2.647  0.4721  0.0823  2.0974
 3867TIP3    H211559   5.698   1.341   2.622  0.8161  0.3884 -1.0234
 3868TIP3   OH211560   6.815   1.018   5.016 -0.5597 -0.0501  0.3397
 3868TIP3    H111561   6.851   1.085   4.957  1.9667 -0.4297  1.3586
 3868TIP3    H211562   6.798   0.943   4.958  0.6171  0.0354 -0.1423
 3869TIP3   OH211563   1.904   1.743   5.756  0.4254  0.1109 -0.0825
 3869TIP3    H111564   1.863   1.658   5.773  0.5675  0.0694  0.0527
 3869TIP3    H211565   1.984   1.742   5.808  0.0850  0.6067  0.4574
 3870TIP3   OH211566   3.972   3.128   1.500  0.0416  0.2830 -0.3594
 3870TIP3    H111567   3.964   3.199   1.436  1.3466  2.3442  1.6042
 3870TIP3    H211568   4.053   3.083   1.476  0.3084  0.7815 -0.4129
 3871TIP3   OH211569   2.429   6.453   4.534  0.1443 -0.2868 -0.4134
 3871TIP3    H111570   2.379   6.462   4.615  0.3514  0.2493 -0.3370
 3871TIP3    H211571   2.521   6.457   4.561  0.3080 -2.7930 -0.3674
 3872TIP3   OH211572   2.861   1.190   3.042  0.3187 -0.0886  0.1188
 3872TIP3    H111573   2.788   1.250   3.048  2.3172  2.6518 -0.8301
 3872TIP3    H211574   2.878   1.182   2.948  1.9586  0.3339  0.3449
 3873TIP3   OH211575   2.137   2.618   0.898  0.3233  0.4182 -0.3623
 3873TIP3    H111576   2.123   2.624   0.804 -1.7801  1.2214 -0.0589
 3873TIP3    H211577   2.082   2.687   0.935  0.3120 -0.5229  1.5168
 3874TIP3   OH211578   5.414   7.634   6.049  0.3575 -0.2870  0.3187
 3874TIP3    H111579   5.342   7.638   5.986  1.4185  0.4410 -0.8896
 3874TIP3    H211580   5.483   7.586   6.003  1.7309  1.6270  0.2789
 3875TIP3   OH211581   1.382   5.044   2.497  0.2372  0.4305  0.0462
 3875TIP3    H111582   1.365   5.137   2.481 -0.9743  0.2105 -0.0418
 3875TIP3    H211583   1.375   5.003   2.411  0.1435  0.1605  0.1809
 3876TIP3   OH211584   0.292   3.763   1.898 -0.1734  0.4385  0.3227
 3876TIP3    H111585   0.335   3.847   1.915  0.8962  0.0200 -0.2114
 3876TIP3    H211586   0.327   3.735   1.814 -1.8217  0.2568 -0.3375
 3877TIP3   OH211587   1.518   4.264   5.790 -0.2988  0.3613  0.5810
 3877TIP3    H111588   1.591   4.255   5.729 -0.8473  0.0663 -0.0428
 3877TIP3    H211589   1.526   4.354   5.824  0.9615  0.0016  1.3304
 3878TIP3   OH211590   7.978   2.873   1.364 -0.2450 -0.3082 -0.5946
 3878TIP3    H111591   8.053   2.929   1.344 -0.9661  0.6120 -0.7526
 3878TIP3    H211592   8.012   2.784   1.353  0.9340  0.0777 -0.2735
 3879TIP3   OH211593   5.956   1.051   1.788 -0.2022 -0.4407  0.2886
 3879TIP3    H111594   5.892   1.001   1.738 -1.0114 -0.8355  1.6424
 3879TIP3    H211595   6.040   1.010   1.767 -0.2995  0.3330 -1.8224
 3880TIP3   OH211596   2.874   2.230   5.212  0.5855  0.2108  0.1218
 3880TIP3    H111597   2.792   2.241   5.164  0.7738 -0.8096 -0.4507
 3880TIP3    H211598   2.890   2.136   5.211  1.6928  0.3848  0.3488
 3881TIP3   OH211599   6.726   0.909   0.400 -0.4222 -0.0172 -0.3923
 3881TIP3    H111600   6.634   0.927   0.416 -0.6916  0.0724 -1.8925
 3881TIP3    H211601   6.753   0.976   0.336 -0.0364 -1.6292 -2.0054
 3882TIP3   OH211602   1.050   3.188   4.407 -0.4575 -0.1360 -0.2457
 3882TIP3    H111603   0.962   3.150   4.402 -0.6561  0.3900 -0.9933
 3882TIP3    H211604   1.109   3.116   4.387 -0.7069 -0.5090  0.3235
 3883TIP3   OH211605   6.706   5.766   0.338 -0.2695  0.3014 -0.0853
 3883TIP3    H111606   6.751   5.810   0.409 -0.2510  0.8641 -0.4405
 3883TIP3    H211607   6.684   5.679   0.373  1.8641 -0.3219 -0.1934
 3884TIP3   OH211608   0.999   6.342   5.800 -0.1354  0.5670  0.3047
 3884TIP3    H111609   1.010   6.253   5.764  0.4848  1.1375 -0.9935
 3884TIP3    H211610   1.016   6.399   5.725 -0.5044  1.7898  1.1381
 3885TIP3   OH211611   1.131   4.746   5.379 -0.0097  0.3212  0.1046
 3885TIP3    H111612   1.105   4.762   5.288  0.4690 -0.1243 -0.1179
 3885TIP3    H211613   1.153   4.653   5.381  1.3991  0.6353  0.3060
 3886TIP3   OH211614   4.347   0.518   4.712 -0.5011  0.1514 -0.0935
 3886TIP3    H111615   4.344   0.590   4.775 -0.6531 -0.0081  0.0866
 3886TIP3    H211616   4.316   0.556   4.630  0.0197  0.4421 -0.1532
 3887TIP3   OH211617   8.283   0.262   1.529  0.4313 -0.1136  0.0643
 3887TIP3    H111618   8.273   0.240   1.622 -4.3790 -1.3814 -0.4864
 3887TIP3    H211619   8.228   0.339   1.516  1.4741  0.4009 -1.7101
 3888TIP3   OH211620   6.555   3.703   2.978 -0.0677 -0.2917  0.2291
 3888TIP3    H111621   6.508   3.777   2.940  1.3808  0.2664 -0.5195
 3888TIP3    H211622   6.490   3.661   3.035 -2.0365 -0.5423 -2.0042
 3889TIP3   OH211623   8.025   3.656   5.153 -0.4876 -0.3078 -0.3313
 3889TIP3    H111624   8.048   3.658   5.246 -1.4985 -0.4046 -0.0659
 3889TIP3    H211625   7.935   3.688   5.150 -0.6047 -0.6837 -1.2380
 3890TIP3   OH211626   7.236   5.336   3.201  0.2336  0.1907 -0.3771
 3890TIP3    H111627   7.193   5.353   3.286  0.4791 -0.1501 -0.1824
 3890TIP3    H211628   7.207   5.248   3.177 -0.4791  0.5927 -1.0454
 3891TIP3   OH211629   6.273   4.276   5.706  0.5581  0.0058  0.1654
 3891TIP3    H111630   6.196   4.309   5.660 -0.0620 -1.7832 -0.1578
 3891TIP3    H211631   6.347   4.304   5.651  0.0452  0.4060 -0.3420
 3892TIP3   OH211632   7.295   1.482   2.084  0.0524  0.3051 -0.0058
 3892TIP3    H111633   7.346   1.563   2.080  1.8885 -0.6695  1.6744
 3892TIP3    H211634   7.317   1.436   2.003 -0.4225  1.1526 -0.6259
 3893TIP3   OH211635   2.393   3.711   4.979 -0.0711  0.4423 -0.0446
 3893TIP3    H111636   2.426   3.689   5.066  0.1818 -0.9710 -0.4664
 3893TIP3    H211637   2.336   3.637   4.955 -0.0778  0.7634 -1.1064
 3894TIP3   OH211638   4.252   0.222   6.189  0.3035 -0.0040  0.4670
 3894TIP3    H111639   4.175   0.251   6.237  0.3248 -0.5960  0.8688
 3894TIP3    H211640   4.320   0.286   6.211 -0.9378  2.7938 -2.7673
 3895TIP3   OH211641   7.526   3.611   6.334 -0.6565 -0.3366  0.3115
 3895TIP3    H111642   7.507   3.673   6.404  0.5730  0.4803 -0.0406
 3895TIP3    H211643   7.593   3.554   6.371  0.7270  0.7063 -0.4679
 3896TIP3   OH211644   1.346   3.490   1.098  0.0294  0.4245 -0.0316
 3896TIP3    H111645   1.256   3.502   1.068 -0.4443 -3.1022 -0.4835
 3896TIP3    H211646   1.337   3.435   1.176  1.7637 -0.3971 -0.3624
 3897TIP3   OH211647   4.668   2.693   3.924 -0.0248  0.5265  0.3038
 3897TIP3    H111648   4.678   2.600   3.944 -0.2208  0.1235 -1.3427
 3897TIP3    H211649   4.738   2.736   3.973  2.2735 -0.8746 -1.5924
 3898TIP3   OH211650   2.993   2.313   5.612 -0.2995 -0.1558 -0.1609
 3898TIP3    H111651   3.051   2.260   5.558 -0.2445 -1.4090  1.0714
 3898TIP3    H211652   2.941   2.363   5.549  0.6434 -0.5925 -1.3297
 3899TIP3   OH211653   1.954   1.235   1.254  0.2650  0.0527 -0.3990
 3899TIP3    H111654   1.966   1.263   1.345 -0.5915  0.7268 -0.4784
 3899TIP3    H211655   1.968   1.314   1.202 -0.4028 -0.0547 -0.7630
 3900TIP3   OH211656   0.718   4.704   0.244  0.0080 -0.1551 -0.7970
 3900TIP3    H111657   0.697   4.614   0.217  1.5747 -0.7617 -0.0837
 3900TIP3    H211658   0.802   4.697   0.288  0.5905  1.8200 -1.5016
 3901TIP3   OH211659   7.281   3.964   4.791  0.3111 -0.1620  0.6481
 3901TIP3    H111660   7.223   3.924   4.725  1.5308  0.5625 -0.9055
 3901TIP3    H211661   7.261   3.915   4.872 -1.1247 -1.1702 -0.2581
 3902TIP3   OH211662   6.906   5.870   3.121  0.0967 -0.0689  0.1723
 3902TIP3    H111663   6.846   5.796   3.111 -0.1176  0.1493 -0.1846
 3902TIP3    H211664   6.854   5.946   3.094  0.9630 -0.0413 -1.4709
 3903TIP3   OH211665   1.669   4.240   1.193  0.2049 -0.3982  0.3783
 3903TIP3    H111666   1.757   4.253   1.229  1.2288 -1.6550 -1.4915
 3903TIP3    H211667   1.627   4.179   1.254  0.0193  1.4041  2.1299
 3904TIP3   OH211668   5.240   2.245   2.527 -0.7970 -0.4805 -0.1502
 3904TIP3    H111669   5.225   2.284   2.441 -2.2869  0.1556  0.3644
 3904TIP3    H211670   5.248   2.320   2.586 -0.0011 -0.9133  0.3114
 3905TIP3   OH211671   4.144   2.999   4.113  0.4485 -0.0560  0.5867
 3905TIP3    H111672   4.226   3.038   4.144 -0.1859  1.9364 -0.0340
 3905TIP3    H211673   4.086   3.002   4.188 -0.3700  2.6462 -0.0362
 3906TIP3   OH211674   0.504   3.629   5.913  0.3205  0.2389  0.2265
 3906TIP3    H111675   0.478   3.634   5.821  0.3309  0.2055  0.2213
 3906TIP3    H211676   0.441   3.568   5.952  0.8170 -0.3807  0.0648
 3907TIP3   OH211677   7.892   0.548   4.112  0.5228  0.2888  0.3519
 3907TIP3    H111678   7.950   0.472   4.107  0.5503  0.3555 -0.6460
 3907TIP3    H211679   7.890   0.572   4.205  2.0725  0.2741  0.4065
 3908TIP3   OH211680   1.194   4.498   5.533 -0.1639  0.3252  0.1159
 3908TIP3    H111681   1.277   4.467   5.494 -0.5847 -0.2413 -0.3534
 3908TIP3    H211682   1.221   4.562   5.598  0.6166  0.7018 -0.5469
 3909TIP3   OH211683   4.331   5.812   0.084 -0.0002 -0.5459  0.2060
 3909TIP3    H111684   4.318   5.797  -0.009  1.8742  1.1458 -0.4018
 3909TIP3    H211685   4.261   5.872   0.109  0.2042 -0.0405 -0.4181
 3910TIP3   OH211686   7.983   1.804   6.545 -0.3371 -0.6771  0.4333
 3910TIP3    H111687   8.027   1.871   6.597 -1.3557  0.8802 -0.6392
 3910TIP3    H211688   7.891   1.832   6.542 -0.3915 -0.9394 -1.8027
 3911TIP3   OH211689   7.670   2.269   3.263 -0.2853  0.2798 -0.1720
 3911TIP3    H111690   7.623   2.233   3.338 -0.6427  0.4356 -0.3164
 3911TIP3    H211691   7.753   2.301   3.298 -0.3084  0.0475  0.0953
 3912TIP3   OH211692   0.026   1.645   5.408  0.2711  0.0726 -0.9162
 3912TIP3    H111693   0.045   1.623   5.316  0.9282  0.0015 -0.7625
 3912TIP3    H211694   0.111   1.660   5.447  0.1267 -1.5627  0.1186
 3913TIP3   OH211695   2.628   1.061   2.667 -0.2971  0.9779  0.2029
 3913TIP3    H111696   2.642   0.975   2.708  0.2297  0.7814 -0.3705
 3913TIP3    H211697   2.563   1.044   2.598  0.2054  0.9250 -0.2631
 3914TIP3   OH211698   2.828   2.127   0.148  0.3483  0.7476  0.1009
 3914TIP3    H111699   2.806   2.046   0.193  0.7819  0.2925 -0.4875
 3914TIP3    H211700   2.761   2.134   0.079  1.8606 -0.5590 -1.5954
 3915TIP3   OH211701   6.844   3.727   1.721 -0.2285 -0.6891  0.2263
 3915TIP3    H111702   6.850   3.782   1.799  1.2885 -0.5031  0.0112
 3915TIP3    H211703   6.913   3.662   1.731 -0.5834 -1.2098 -0.5549
 3916TIP3   OH211704   5.994   3.099   4.501 -0.1158  0.5218 -0.1403
 3916TIP3    H111705   6.036   3.185   4.507  0.8057  0.0348  0.7062
 3916TIP3    H211706   6.067   3.037   4.508 -0.9213 -0.3394  0.8358
 3917TIP3   OH211707   5.141   4.869   1.424  0.1274 -0.0320 -0.1266
 3917TIP3    H111708   5.191   4.886   1.504 -1.3649  0.3281  0.7616
 3917TIP3    H211709   5.159   4.944   1.369  0.8242 -0.0698  0.0318
 3918TIP3   OH211710   8.176   7.194   2.411 -0.7468  0.2272 -0.2299
 3918TIP3    H111711   8.185   7.142   2.491 -2.7334 -1.7144 -1.1602
 3918TIP3    H211712   8.266   7.216   2.386 -0.0133 -0.3489  1.7335
 3919TIP3   OH211713   2.536   3.310   6.675  0.1425 -0.4449  0.2385
 3919TIP3    H111714   2.500   3.360   6.601  0.8500 -0.7195 -0.2991
 3919TIP3    H211715   2.631   3.320   6.667  0.2291 -0.2526  1.2752
 3920TIP3   OH211716   4.645   0.342   1.917 -0.2474 -0.0012 -0.3462
 3920TIP3    H111717   4.720   0.402   1.910 -2.3479  2.7326 -1.5782
 3920TIP3    H211718   4.683   0.255   1.910  2.7367  1.2688 -1.7921
 3921TIP3   OH211719   5.825   6.327   2.051  0.6075  0.5179  0.1525
 3921TIP3    H111720   5.784   6.400   2.097 -0.8101  1.3443 -2.2434
 3921TIP3    H211721   5.906   6.364   2.016  2.3594 -0.4587  2.8625
 3922TIP3   OH211722   3.489   7.209   5.507  0.2693  0.8858 -0.0812
 3922TIP3    H111723   3.488   7.282   5.445  1.0287  1.4934  0.5861
 3922TIP3    H211724   3.560   7.153   5.476  0.1314  0.7819 -0.2092
 3923TIP3   OH211725   0.210   5.706   1.132 -0.4502  0.1471 -0.1428
 3923TIP3    H111726   0.199   5.621   1.174 -1.8353  0.6422  0.5249
 3923TIP3    H211727   0.130   5.719   1.082 -1.9916  2.6601  2.6875
 3924TIP3   OH211728   3.010   2.866   6.703  0.4136  0.0269 -0.3581
 3924TIP3    H111729   2.950   2.917   6.649 -0.6926 -0.3023  0.5167
 3924TIP3    H211730   2.956   2.795   6.737  0.9413  0.4849  1.5467
 3925TIP3   OH211731   7.315   0.244   0.454 -0.1803  0.2159  0.3389
 3925TIP3    H111732   7.287   0.320   0.403 -1.0000 -0.2021  0.1605
 3925TIP3    H211733   7.243   0.227   0.514  0.0250 -0.3958  0.4138
 3926TIP3   OH211734   7.428   4.313   2.767  0.1677  0.2514 -0.1285
 3926TIP3    H111735   7.362   4.251   2.798 -0.8016  1.2405 -0.1312
 3926TIP3    H211736   7.456   4.360   2.846  1.2540 -0.4955 -0.0496
 3927TIP3   OH211737   3.796   6.736   2.396  0.6495  0.3284 -0.1464
 3927TIP3    H111738   3.764   6.754   2.308 -0.4438 -0.6707  0.0172
 3927TIP3    H211739   3.774   6.644   2.411  0.9109  0.4568  1.1285
 3928TIP3   OH211740   7.934   4.238   3.970 -0.3390  0.1510 -0.8499
 3928TIP3    H111741   7.855   4.197   4.006 -0.9161  2.0444  0.1949
 3928TIP3    H211742   7.917   4.332   3.977  2.1398  0.6306 -0.3105
 3929TIP3   OH211743   2.978   4.273   3.722 -0.2991 -0.5048  0.2787
 3929TIP3    H111744   2.911   4.312   3.665 -0.5109 -0.8704  0.2680
 3929TIP3    H211745   2.963   4.179   3.713 -1.1149 -0.5554  1.8645
 3930TIP3   OH211746   5.080   0.143   3.655 -0.0673 -0.1518  0.0749
 3930TIP3    H111747   5.077   0.082   3.581 -0.8738  0.4085 -0.3628
 3930TIP3    H211748   5.157   0.198   3.638  0.0136 -0.3190 -0.1076
 3931TIP3   OH211749   2.455   5.085   6.482 -0.4667 -0.0034 -0.3056
 3931TIP3    H111750   2.416   5.159   6.435 -0.3685 -0.1429 -0.6112
 3931TIP3    H211751   2.382   5.041   6.524 -0.6251 -0.2046 -0.7918
 3932TIP3   OH211752   6.570   4.325   4.261  0.4291  0.9989 -0.3645
 3932TIP3    H111753   6.664   4.341   4.252  0.5764  0.0522 -0.5501
 3932TIP3    H211754   6.532   4.364   4.183  0.7561  0.7019 -0.6779
 3933TIP3   OH211755   7.410   3.609   1.630  0.2820 -0.3950 -0.3227
 3933TIP3    H111756   7.382   3.517   1.627  0.8615 -0.7837  2.8885
 3933TIP3    H211757   7.473   3.617   1.558  2.0565 -3.2398  0.7270
 3934TIP3   OH211758   2.672   5.970   1.516  0.2644  0.6758  0.2326
 3934TIP3    H111759   2.758   5.975   1.558  0.3019 -0.1282  0.2673
 3934TIP3    H211760   2.612   6.011   1.579  0.2335 -0.9710  1.3535
 3935TIP3   OH211761   5.519   3.981   4.416  0.4530  0.3625 -0.2392
 3935TIP3    H111762   5.507   4.076   4.415 -1.1595  0.2021  0.3767
 3935TIP3    H211763   5.501   3.953   4.327  0.9501  0.6160 -0.4266
 3936TIP3   OH211764   1.959   6.870   1.775  0.1821 -0.1454  0.2230
 3936TIP3    H111765   1.884   6.884   1.833  1.9870  2.7811  2.1454
 3936TIP3    H211766   1.931   6.905   1.691 -0.0799  2.8461  1.4369
 3937TIP3   OH211767   6.073   1.704   0.500 -0.3958  0.3543  0.1270
 3937TIP3    H111768   6.006   1.770   0.482 -1.3436  0.0483  2.2330
 3937TIP3    H211769   6.151   1.754   0.523 -0.8352  0.7510  0.7754
 3938TIP3   OH211770   4.670   5.110   3.979  0.4980  0.4223  0.2135
 3938TIP3    H111771   4.622   5.045   4.030  0.6082  0.0293 -0.1690
 3938TIP3    H211772   4.682   5.068   3.893  3.0180 -0.2449  0.8013
 3939TIP3   OH211773   2.795   2.043   5.493 -0.2399 -0.0803  0.0043
 3939TIP3    H111774   2.818   2.136   5.493 -1.8294  0.3423  0.5802
 3939TIP3    H211775   2.831   2.009   5.411  2.2947  0.5005  0.7991
 3940TIP3   OH211776   1.092   4.692   1.252 -0.7344  0.3176 -0.3087
 3940TIP3    H111777   1.172   4.738   1.227  0.2832 -1.6786 -0.8761
 3940TIP3    H211778   1.122   4.615   1.301 -2.1627 -1.3298 -1.8845
 3941TIP3   OH211779   2.588   1.386   3.300 -0.6506 -0.7431  0.1229
 3941TIP3    H111780   2.635   1.394   3.217 -0.0577 -1.4017  0.3824
 3941TIP3    H211781   2.589   1.474   3.337  0.3143 -0.7310  0.0867
 3942TIP3   OH211782   2.582   4.699   2.778 -0.0127 -0.6366 -0.2266
 3942TIP3    H111783   2.526   4.623   2.796 -2.7606  0.5039 -2.9502
 3942TIP3    H211784   2.632   4.674   2.700  1.4693 -0.7102  0.7129
 3943TIP3   OH211785   7.835   0.429   0.651 -0.2301 -0.1710 -0.3464
 3943TIP3    H111786   7.795   0.495   0.595 -1.1418 -1.7562 -1.6470
 3943TIP3    H211787   7.762   0.391   0.700  0.4669  0.7229  1.4764
 3944TIP3   OH211788   0.875   4.109   0.676 -0.2247 -0.1220  0.1486
 3944TIP3    H111789   0.878   4.018   0.705  0.2673 -1.2407 -3.0062
 3944TIP3    H211790   0.965   4.140   0.681 -0.4883  0.5160  1.8739
 3945TIP3   OH211791   7.799   1.255   5.766  0.7004 -0.2275  0.3823
 3945TIP3    H111792   7.796   1.265   5.862  2.2454 -0.8200  0.5133
 3945TIP3    H211793   7.859   1.182   5.751 -1.4628 -1.8621 -0.9756
 3946TIP3   OH211794   6.572   0.283   5.529  0.3491  0.7931 -0.3861
 3946TIP3    H111795   6.491   0.284   5.581 -0.2762 -0.1232 -1.2977
 3946TIP3    H211796   6.567   0.361   5.474  0.3078  0.9772 -0.1249
 3947TIP3   OH211797   8.234   2.390   0.375 -0.7823  0.6189  0.1398
 3947TIP3    H111798   8.254   2.359   0.464 -3.0339  0.1535  0.5464
 3947TIP3    H211799   8.145   2.359   0.359  0.5342 -1.9732 -3.4974
 3948TIP3   OH211800   1.108   5.622   5.728  0.4828 -0.5032  0.6845
 3948TIP3    H111801   1.102   5.557   5.658  0.7196 -0.5531  0.7085
 3948TIP3    H211802   1.138   5.572   5.804  0.5470 -0.3899  0.7339
 3949TIP3   OH211803   7.234   4.729   4.618 -0.3765  0.0006  0.0104
 3949TIP3    H111804   7.265   4.643   4.591 -0.4863 -0.7839  2.2021
 3949TIP3    H211805   7.304   4.789   4.593  0.0249 -0.8042 -0.8810
 3950TIP3   OH211806   7.287   2.804   4.816 -0.0081  0.3807 -0.0920
 3950TIP3    H111807   7.297   2.891   4.854  0.3068  0.8119 -1.1291
 3950TIP3    H211808   7.353   2.801   4.746 -2.7061  0.8615 -2.8536
 3951TIP3   OH211809   3.818   0.431   5.656 -0.0840  0.2222  0.4355
 3951TIP3    H111810   3.838   0.518   5.693  1.7177  0.5855 -1.2587
 3951TIP3    H211811   3.750   0.397   5.714 -1.5438  3.1352  0.6518
 3952TIP3   OH211812   7.356   7.390   3.354  0.0434  0.0934 -0.6137
 3952TIP3    H111813   7.439   7.405   3.400 -0.4148  0.7278  0.0179
 3952TIP3    H211814   7.304   7.468   3.373 -0.3290  0.1603 -1.8307
 3953TIP3   OH211815   3.763   1.449   3.457 -0.3717 -1.0903  0.0156
 3953TIP3    H111816   3.690   1.474   3.513 -0.4536  0.1693 -0.6157
 3953TIP3    H211817   3.808   1.380   3.506 -0.1962  0.2294  1.8426
 3954TIP3   OH211818   6.160   0.847   2.738  0.1245  1.1302  0.3105
 3954TIP3    H111819   6.137   0.778   2.676 -2.7710  1.4124  0.9361
 3954TIP3    H211820   6.229   0.808   2.792  0.7419 -0.1153 -1.2833
 3955TIP3   OH211821   1.492   7.524   5.749 -0.3489  0.0730  0.1756
 3955TIP3    H111822   1.496   7.485   5.662 -0.2661 -0.0139  0.2179
 3955TIP3    H211823   1.494   7.618   5.734 -1.6791  0.0979  0.0061
 3956TIP3   OH211824   0.438   1.698   1.192 -0.3145  0.2508  0.1077
 3956TIP3    H111825   0.399   1.613   1.208  0.9909 -0.4535 -0.2408
 3956TIP3    H211826   0.438   1.706   1.096  2.4525 -0.8665 -0.0884
 3957TIP3   OH211827   4.714   0.929   2.363 -0.5283  0.2345 -0.2740
 3957TIP3    H111828   4.792   0.981   2.381 -0.1878 -0.8320  1.6652
 3957TIP3    H211829   4.641   0.990   2.377 -0.0945  0.6440  0.2547
 3958TIP3   OH211830   3.919   0.678   5.724  0.3161 -0.7526 -0.0573
 3958TIP3    H111831   3.940   0.655   5.814  3.2166 -1.0349 -0.6991
 3958TIP3    H211832   4.001   0.668   5.677 -1.0975 -0.6587 -2.7729
 3959TIP3   OH211833   2.214   6.655   5.428  0.6709 -0.0383  0.5245
 3959TIP3    H111834   2.176   6.598   5.495 -0.0722  0.6697  0.7191
 3959TIP3    H211835   2.306   6.628   5.423  0.2553 -1.5142  0.3282
 3960TIP3   OH211836   4.894   2.312   3.322  0.2298  1.0673  0.1848
 3960TIP3    H111837   4.986   2.295   3.339 -0.0852  0.3847  1.2816
 3960TIP3    H211838   4.851   2.301   3.407 -1.0343  0.1132 -0.5403
 3961TIP3   OH211839   6.571   6.798   3.796  0.0617 -0.1866 -0.3816
 3961TIP3    H111840   6.585   6.704   3.788  0.1334 -0.1760 -0.3893
 3961TIP3    H211841   6.519   6.809   3.875 -1.5151 -0.3671 -1.3572
 3962TIP3   OH211842   6.557   7.602   4.801 -0.5682  0.4260 -0.3486
 3962TIP3    H111843   6.504   7.624   4.724 -0.3096  0.8633 -0.4044
 3962TIP3    H211844   6.503   7.630   4.875 -0.8116  0.0168 -0.3654
 3963TIP3   OH211845   2.083   6.271   1.245 -0.2978  0.1750  0.2504
 3963TIP3    H111846   2.008   6.215   1.264  0.1275 -1.0642 -1.4104
 3963TIP3    H211847   2.158   6.224   1.283  0.0694 -0.5100 -1.2062
 3964TIP3   OH211848   1.721   7.194   0.320 -0.5959 -0.5410 -0.8066
 3964TIP3    H111849   1.699   7.222   0.231  1.0002  1.0428 -0.7503
 3964TIP3    H211850   1.756   7.273   0.362 -2.1216 -1.0128  1.5414
 3965TIP3   OH211851   6.899   6.589   6.623 -0.1585 -0.4680  0.0048
 3965TIP3    H111852   6.835   6.645   6.579  0.6160 -0.3688 -1.0181
 3965TIP3    H211853   6.875   6.500   6.597  0.1160 -0.4317 -0.3684
 3966TIP3   OH211854   1.141   6.080   4.703 -0.1996  0.0331  0.6813
 3966TIP3    H111855   1.188   6.060   4.784 -0.5977 -0.5020  0.7773
 3966TIP3    H211856   1.050   6.090   4.730 -0.3421 -0.2113  0.2842
 3967TIP3   OH211857   0.591   3.310   6.567 -0.2868 -0.1494 -0.1811
 3967TIP3    H111858   0.600   3.217   6.589 -0.2427  0.3076  1.9104
 3967TIP3    H211859   0.667   3.330   6.513  0.1607 -1.1248  0.0799
 3968TIP3   OH211860   4.624   2.486   4.357 -0.9425  0.5785  0.1422
 3968TIP3    H111861   4.599   2.499   4.266  0.3763  1.2479 -0.1504
 3968TIP3    H211862   4.720   2.494   4.357 -1.0625  3.3236  1.9920
 3969TIP3   OH211863   4.101   1.815   0.946 -0.4621  0.3473  0.0757
 3969TIP3    H111864   4.070   1.781   1.030  1.9621  1.0606  1.3802
 3969TIP3    H211865   4.160   1.747   0.913  2.3025  1.9472  1.3787
 3970TIP3   OH211866   2.875   1.685   0.884  0.0605  0.0124 -0.0024
 3970TIP3    H111867   2.926   1.610   0.855  0.9314  1.0758 -1.3650
 3970TIP3    H211868   2.825   1.712   0.807 -0.6533  0.5143  0.6133
 3971TIP3   OH211869   6.441   4.962   2.757 -0.2107  0.3930 -0.1896
 3971TIP3    H111870   6.517   4.909   2.782 -0.6297 -0.5236 -0.8195
 3971TIP3    H211871   6.377   4.947   2.826 -1.2273 -1.8474 -1.5079
 3972TIP3   OH211872   3.071   4.629   2.948  0.0181 -0.7079  0.1419
 3972TIP3    H111873   2.986   4.585   2.943 -0.6572  0.6321 -1.2450
 3972TIP3    H211874   3.095   4.644   2.856  2.0447 -1.5395  0.4774
 3973TIP3   OH211875   0.878   4.534   1.826 -0.1315 -0.2348  0.1905
 3973TIP3    H111876   0.879   4.504   1.917 -2.7400  0.5707  0.5891
 3973TIP3    H211877   0.793   4.505   1.792 -0.6892  2.3159 -0.8967
 3974TIP3   OH211878   3.197   2.741   4.992 -0.5736  0.0290  0.1676
 3974TIP3    H111879   3.290   2.761   4.988  0.1119 -2.8138 -0.2458
 3974TIP3    H211880   3.154   2.825   5.007  1.7264  2.1015 -3.4837
 3975TIP3   OH211881   1.297   4.552   1.940  0.6320 -0.2346  0.4153
 3975TIP3    H111882   1.391   4.544   1.925  0.4723  0.1954 -0.9569
 3975TIP3    H211883   1.258   4.476   1.895  0.2156  0.4369 -0.3799
 3976TIP3   OH211884   3.340   5.810   6.651 -0.1867  0.0112  0.2118
 3976TIP3    H111885   3.287   5.734   6.671  1.3981 -1.4445 -0.7835
 3976TIP3    H211886   3.334   5.819   6.556  0.8008  0.1993  0.1566
 3977TIP3   OH211887   2.541   7.097   6.735 -0.0685  0.0922  0.0544
 3977TIP3    H111888   2.628   7.070   6.764  0.2435  0.0238 -0.9282
 3977TIP3    H211889   2.542   7.192   6.739  0.3612  0.1311 -0.8068
 3978TIP3   OH211890   4.151   7.494   0.058  0.3812 -0.3191 -0.1469
 3978TIP3    H111891   4.199   7.415   0.083  0.8251  0.6624  2.4628
 3978TIP3    H211892   4.072   7.462   0.015  2.2688 -2.0401 -2.5963
 3979TIP3   OH211893   8.177   6.046   4.732  0.3309 -0.2289 -0.0818
 3979TIP3    H111894   8.264   6.012   4.753 -0.1811 -0.7431  1.3354
 3979TIP3    H211895   8.183   6.072   4.640  2.4363  1.1960  0.3918
 3980TIP3   OH211896   0.260   3.395   5.535 -0.6355  0.0675  0.3575
 3980TIP3    H111897   0.231   3.374   5.445 -1.4787  1.0422  0.3817
 3980TIP3    H211898   0.182   3.378   5.588 -0.7605  1.4143  0.6239
 3981TIP3   OH211899   4.729   7.703   1.662 -0.1317  0.0909 -0.2753
 3981TIP3    H111900   4.758   7.646   1.590 -0.4941 -0.4818  0.0243
 3981TIP3    H211901   4.758   7.658   1.741 -2.0392 -0.6458  0.0524
 3982TIP3   OH211902   3.297   2.432   0.961  0.6116 -0.8856  0.0707
 3982TIP3    H111903   3.245   2.351   0.962 -0.1845 -0.3972  1.5124
 3982TIP3    H211904   3.261   2.483   1.034  1.5666  0.4737 -0.3970
 3983TIP3   OH211905   4.032   3.274   0.551  0.3661  0.0980 -0.7888
 3983TIP3    H111906   3.983   3.353   0.574 -0.1226 -0.6839  1.0885
 3983TIP3    H211907   4.061   3.238   0.635  3.3751 -0.0207 -1.7608
 3984TIP3   OH211908   6.149   1.839   0.796  0.8087  0.1211 -0.6409
 3984TIP3    H111909   6.222   1.778   0.809  1.6022  1.4167  1.4157
 3984TIP3    H211910   6.162   1.907   0.862 -1.3164  1.3294 -1.3673
 3985TIP3   OH211911   5.338   5.160   2.828 -0.2850 -0.0473  0.0776
 3985TIP3    H111912   5.347   5.228   2.894  1.0967  0.2126 -0.3569
 3985TIP3    H211913   5.409   5.099   2.846  0.1557  0.0658 -1.2084
 3986TIP3   OH211914   7.368   2.421   0.938 -0.6464 -0.6998 -0.2820
 3986TIP3    H111915   7.278   2.411   0.908  0.1833 -0.5259 -3.0624
 3986TIP3    H211916   7.403   2.333   0.939 -0.5085 -0.6448 -0.3112
 3987TIP3   OH211917   4.656   0.039   5.842  0.2540 -0.1575 -0.2317
 3987TIP3    H111918   4.623   0.128   5.829  0.5416  0.0386  0.3449
 3987TIP3    H211919   4.750   0.045   5.823  0.5105 -0.0579  0.9869
 3988TIP3   OH211920   6.285   2.697   1.245  0.6080 -0.2474  0.1337
 3988TIP3    H111921   6.231   2.765   1.205 -0.2338 -0.3674  1.0446
 3988TIP3    H211922   6.265   2.617   1.195  0.2341 -0.2092  0.2233
 3989TIP3   OH211923   0.917   5.589   0.821  0.6175 -0.0010 -0.4970
 3989TIP3    H111924   0.943   5.585   0.913 -0.0900 -2.8557 -0.3372
 3989TIP3    H211925   0.828   5.554   0.819  0.2801  0.7988 -2.2018
 3990TIP3   OH211926   0.103   0.282   3.384 -0.6265 -0.2094  0.1217
 3990TIP3    H111927   0.172   0.318   3.327 -1.2854  3.1403  1.1915
 3990TIP3    H211928   0.146   0.214   3.435  1.0444 -0.3543 -1.3861
 3991TIP3   OH211929   2.878   5.409   2.792  0.4516 -0.3228 -0.1374
 3991TIP3    H111930   2.801   5.402   2.848 -0.2298  0.8245 -0.9022
 3991TIP3    H211931   2.859   5.483   2.734  2.5550  0.6874  0.3505
 3992TIP3   OH211932   7.758   2.257   6.209  0.3590 -0.0165  0.2326
 3992TIP3    H111933   7.695   2.239   6.278 -0.1783 -0.5093 -0.3681
 3992TIP3    H211934   7.840   2.220   6.241  0.0868 -0.3473  0.5557
 3993TIP3   OH211935   4.672   2.488   4.781 -0.5939 -0.1137 -0.1154
 3993TIP3    H111936   4.661   2.404   4.824 -0.9055  1.3818  3.0189
 3993TIP3    H211937   4.593   2.537   4.802 -0.3566  1.0528 -1.7177
 3994TIP3   OH211938   1.613   7.694   1.272 -0.0632  0.0323  0.5266
 3994TIP3    H111939   1.587   7.718   1.183 -1.2696 -0.4855  0.7200
 3994TIP3    H211940   1.567   7.757   1.328 -0.1380 -0.2989  0.8387
 3995TIP3   OH211941   4.452   7.088   6.267  0.4696 -0.0208  0.0326
 3995TIP3    H111942   4.491   7.175   6.279 -1.1053  0.4106  2.7890
 3995TIP3    H211943   4.488   7.036   6.339  1.7179 -1.8803 -1.8102
 3996TIP3   OH211944   4.520   5.450   1.750 -0.4677 -0.4259 -0.4396
 3996TIP3    H111945   4.590   5.514   1.755  0.0938 -1.0494 -0.2468
 3996TIP3    H211946   4.510   5.433   1.656  0.0941 -0.8307 -0.4271
 3997TIP3   OH211947   2.384   6.358   5.626  0.2338  0.2289  0.3804
 3997TIP3    H111948   2.379   6.444   5.583 -1.1140 -0.6298 -1.3083
 3997TIP3    H211949   2.467   6.360   5.674  0.8208  2.0275 -0.6067
 3998TIP3   OH211950   4.041   3.558   1.848  0.2122  0.7206  0.2289
 3998TIP3    H111951   4.132   3.561   1.876 -0.4794  0.8450  2.7310
 3998TIP3    H211952   3.991   3.573   1.928 -2.0408 -0.3697 -0.8802
 3999TIP3   OH211953   6.184   4.544   6.490  0.4657  0.2434  0.0546
 3999TIP3    H111954   6.182   4.477   6.558  0.8649  1.3115  1.1559
 3999TIP3    H211955   6.131   4.508   6.419 -3.7836  0.8709  2.5740
 4000TIP3   OH211956   3.194   5.031   5.813  0.4265  0.3801 -0.4046
 4000TIP3    H111957   3.138   5.040   5.890  1.9864  1.9616  0.6269
 4000TIP3    H211958   3.268   4.978   5.844  1.0676  1.0307 -0.7838
 4001TIP3   OH211959   0.763   0.004   1.357  0.5043 -0.4140 -0.0463
 4001TIP3    H111960   0.715   0.041   1.431 -0.7237 -0.6882 -0.6645
 4001TIP3    H211961   0.706   0.021   1.281  2.2335  0.9038 -1.1393
 4002TIP3   OH211962   1.718   7.500   3.835 -0.2907  0.1793  0.1038
 4002TIP3    H111963   1.709   7.494   3.740 -2.0579  0.4387  0.2269
 4002TIP3    H211964   1.772   7.425   3.859  0.1326  0.0797 -1.0828
 4003TIP3   OH211965   3.160   1.186   1.231 -0.2802  0.2473  0.5546
 4003TIP3    H111966   3.163   1.199   1.136  0.2289  0.0918  0.5458
 4003TIP3    H211967   3.236   1.234   1.264  0.2060 -0.6577  0.7639
 4004TIP3   OH211968   4.623   2.005   1.276  0.1290 -0.1256 -1.1115
 4004TIP3    H111969   4.642   2.071   1.343 -0.3776  0.1444 -1.2290
 4004TIP3    H211970   4.583   2.055   1.205  1.7701 -0.2089 -2.1381
 4005TIP3   OH211971   7.930   6.726   0.065  0.7263 -0.0972 -0.0202
 4005TIP3    H111972   8.014   6.689   0.093  0.8026  0.2230  0.1850
 4005TIP3    H211973   7.897   6.665  -0.001  1.1274 -0.2174 -0.1103
 4006TIP3   OH211974   5.927   4.591   5.226  0.2106  0.2627 -0.4710
 4006TIP3    H111975   5.883   4.524   5.175 -0.5789  0.8863 -0.6237
 4006TIP3    H211976   5.929   4.556   5.315 -1.8760  0.7988 -0.1643
 4007TIP3   OH211977   2.297   4.971   4.343 -0.2319  0.1688  0.0922
 4007TIP3    H111978   2.306   5.065   4.331  1.1322  0.1725  0.8921
 4007TIP3    H211979   2.374   4.946   4.395 -0.9596 -1.2657  0.5329
 4008TIP3   OH211980   1.301   6.858   3.472 -0.0316 -0.2697 -0.4876
 4008TIP3    H111981   1.309   6.894   3.384 -0.8118  0.8047 -0.1399
 4008TIP3    H211982   1.209   6.868   3.495  0.2938  0.1951  0.7381
 4009TIP3   OH211983   0.033   3.081   2.337 -0.5214 -0.3240 -0.3678
 4009TIP3    H111984   0.094   3.069   2.409 -0.4729 -0.3672 -0.4162
 4009TIP3    H211985   0.085   3.069   2.258 -0.3420  0.7918 -0.4387
 4010TIP3   OH211986   7.175   7.475   1.554  0.1762  0.2254  0.0642
 4010TIP3    H111987   7.234   7.547   1.530 -0.3598  0.0606 -1.9663
 4010TIP3    H211988   7.088   7.515   1.559 -0.4567 -0.4869 -3.0100
 4011TIP3   OH211989   3.670   3.426   4.646  0.0944  0.4003 -0.0583
 4011TIP3    H111990   3.633   3.469   4.723  0.7750 -1.5143  1.4093
 4011TIP3    H211991   3.594   3.409   4.590 -0.6612  0.3259  0.9494
 4012TIP3   OH211992   0.716   2.861   1.364 -0.1768  1.0356  0.3354
 4012TIP3    H111993   0.690   2.908   1.443 -0.7737  1.3905 -0.0683
 4012TIP3    H211994   0.638   2.812   1.339 -0.4744  2.0773 -0.8658
 4013TIP3   OH211995   6.201   4.329   0.793 -0.6835  0.6727 -0.1372
 4013TIP3    H111996   6.151   4.379   0.728 -0.2387 -1.4567 -2.2668
 4013TIP3    H211997   6.179   4.237   0.775  0.6497 -0.0857  1.7623
 4014TIP3   OH211998   0.420   2.331   4.276 -0.3489 -0.2861  0.1471
 4014TIP3    H111999   0.382   2.323   4.364  0.3004  2.9461  0.8483
 4014TIP3    H212000   0.508   2.366   4.291 -0.6079  1.3881 -1.7625
 4015TIP3   OH212001   2.132   7.559   2.850  0.1081  0.4424 -0.1071
 4015TIP3    H112002   2.085   7.478   2.870  0.9505  0.5086  2.6359
 4015TIP3    H212003   2.120   7.613   2.928 -0.8872  3.2546 -2.0670
 4016TIP3   OH212004   7.158   5.151   0.913 -0.1004  0.2248 -0.0503
 4016TIP3    H112005   7.158   5.191   0.826  0.6515  1.1588  0.3575
 4016TIP3    H212006   7.111   5.068   0.902  0.7195 -0.0744 -1.5255
 4017TIP3   OH212007   3.891   3.081   5.141  0.2821  0.5800  0.3373
 4017TIP3    H112008   3.821   3.018   5.158  0.4814 -0.4738 -2.2302
 4017TIP3    H212009   3.861   3.130   5.065  2.6898 -0.6687 -1.5737
 4018TIP3   OH212010   6.157   4.192   5.933  0.0573  0.2908 -0.1812
 4018TIP3    H112011   6.197   4.246   5.864  1.1326 -2.3004 -1.7166
 4018TIP3    H212012   6.077   4.158   5.893  0.6331 -1.1534 -0.1481
 4019TIP3   OH212013   5.630   5.318   0.067 -0.4934 -0.0388  0.6961
 4019TIP3    H112014   5.696   5.357   0.125 -0.0226 -1.2483  0.9945
 4019TIP3    H212015   5.546   5.347   0.104 -0.1645  0.3537  1.1455
 4020TIP3   OH212016   4.716   3.604   6.062 -0.3353 -0.4867 -0.0312
 4020TIP3    H112017   4.703   3.529   6.002 -0.6862  0.2618 -0.9179
 4020TIP3    H212018   4.802   3.589   6.101  0.6354 -0.2130 -1.9176
 4021TIP3   OH212019   2.552   3.093   5.408 -0.1119  0.1658 -0.2711
 4021TIP3    H112020   2.626   3.035   5.428  0.1071  0.1499 -1.0692
 4021TIP3    H212021   2.487   3.073   5.476 -0.3692 -1.6183 -0.9638
 4022TIP3   OH212022   3.415   1.327   6.453  0.0458  1.0026  0.1344
 4022TIP3    H112023   3.420   1.254   6.392  0.7464 -1.1098  2.5497
 4022TIP3    H212024   3.324   1.356   6.448 -0.3923 -0.3946 -0.5041
 4023TIP3   OH212025   3.016   0.362   0.357 -0.1360  0.4442 -0.0135
 4023TIP3    H112026   2.997   0.270   0.338  0.6521  0.1203  0.6852
 4023TIP3    H212027   3.041   0.400   0.273 -1.5280  0.2992 -0.5071
 4024TIP3   OH212028   2.340   4.198   2.327 -0.0469  0.4732  0.4754
 4024TIP3    H112029   2.392   4.258   2.274  1.9708 -0.4706  1.3076
 4024TIP3    H212030   2.330   4.243   2.411  0.2090  0.2665  0.6170
 4025TIP3   OH212031   0.404   5.459   0.034 -0.5009  0.1189  0.3390
 4025TIP3    H112032   0.378   5.434   0.123 -0.0981 -0.1100  0.3916
 4025TIP3    H212033   0.415   5.554   0.038  1.3942 -0.0966  1.0230
 4026TIP3   OH212034   5.034   1.029   2.014  0.3222  0.5209  0.1787
 4026TIP3    H112035   4.964   0.968   2.038  1.3123 -0.7076 -0.0228
 4026TIP3    H212036   5.039   1.024   1.919  1.9209 -0.8260  0.3010
 4027TIP3   OH212037   7.206   3.844   6.628 -0.3300 -0.4561  0.2879
 4027TIP3    H112038   7.208   3.935   6.658 -1.4931  0.1568 -1.2972
 4027TIP3    H212039   7.145   3.800   6.687 -1.4921  0.3785 -0.2325
 4028TIP3   OH212040   7.670   3.492   2.300 -0.3855  0.1618 -0.4692
 4028TIP3    H112041   7.721   3.501   2.380 -0.1563  0.0990 -0.6081
 4028TIP3    H212042   7.634   3.403   2.304  0.4303 -0.1977 -0.9055
 4029TIP3   OH212043   6.962   5.595   3.498  0.4312 -0.5745 -0.3536
 4029TIP3    H112044   6.962   5.691   3.500 -1.6612 -0.5141 -0.9744
 4029TIP3    H212045   7.030   5.573   3.434 -0.2336  0.5762 -1.4983
 4030TIP3   OH212046   1.402   7.118   6.304  0.1593 -0.0750 -0.4008
 4030TIP3    H112047   1.386   7.027   6.331 -1.6053  0.1927 -0.3859
 4030TIP3    H212048   1.486   7.140   6.342  0.2597 -1.4680  0.2463
 4031TIP3   OH212049   5.966   5.113   3.673  0.5225  0.2936  0.2466
 4031TIP3    H112050   6.037   5.162   3.631  2.4904  0.0836  3.0767
 4031TIP3    H212051   6.009   5.035   3.708 -1.7773 -1.4905 -0.6528
 4032TIP3   OH212052   8.116   1.045   6.244  0.0771  0.0078  0.0281
 4032TIP3    H112053   8.201   1.071   6.207  0.6010 -0.5670  0.8062
 4032TIP3    H212054   8.072   1.128   6.263  1.6621  0.4083  2.3164
 4033TIP3   OH212055   1.458   6.915   4.832  0.0365 -0.2302  0.4035
 4033TIP3    H112056   1.397   6.945   4.765  0.1397 -1.2616 -0.1727
 4033TIP3    H212057   1.515   6.990   4.848 -0.6670  0.3795  0.1344
 4034TIP3   OH212058   6.159   7.359   4.212  0.2143  0.2326 -0.4871
 4034TIP3    H112059   6.198   7.423   4.153  1.2856  1.4274  1.4225
 4034TIP3    H212060   6.066   7.360   4.190  0.5901  0.5139 -2.2310
 4035TIP3   OH212061   7.572   5.743   3.227  0.0138  0.2398 -0.1513
 4035TIP3    H112062   7.528   5.799   3.290 -0.8511 -0.0416 -0.4903
 4035TIP3    H212063   7.549   5.654   3.254  0.0336  0.1044 -0.5761
 4036TIP3   OH212064   7.713   2.530   0.204 -0.1538 -0.2754  0.1774
 4036TIP3    H112065   7.802   2.524   0.169 -0.3102 -2.9399  0.0328
 4036TIP3    H212066   7.725   2.529   0.299 -0.0124  0.3678  0.1728
 4037TIP3   OH212067   6.091   6.741   1.485  0.1069 -0.1136 -0.1885
 4037TIP3    H112068   6.135   6.678   1.542  0.1604 -0.3966 -0.5362
 4037TIP3    H212069   6.163   6.794   1.449 -0.0446  1.2252  1.3361
 4038TIP3   OH212070   5.379   3.737   6.352 -0.2147 -0.2650 -0.0367
 4038TIP3    H112071   5.444   3.683   6.398  1.3962  0.6463 -1.1401
 4038TIP3    H212072   5.414   3.826   6.357  0.1757 -0.1202 -3.1147
 4039TIP3   OH212073   8.177   0.472   4.192 -0.4907 -0.2942  0.2594
 4039TIP3    H112074   8.219   0.494   4.275 -0.2568 -1.3861  0.4570
 4039TIP3    H212075   8.214   0.532   4.128 -0.3317  0.2534  0.8633
 4040TIP3   OH212076   5.261   4.162   1.563 -0.1021 -0.0584 -0.1210
 4040TIP3    H112077   5.338   4.209   1.531  0.7429 -1.3553 -0.0664
 4040TIP3    H212078   5.189   4.197   1.512  0.4860  1.2969 -0.0671
 4041TIP3   OH212079   8.140   2.599   4.611  0.4784  0.1682  0.0511
 4041TIP3    H112080   8.219   2.553   4.641 -0.1953 -0.8543  0.2860
 4041TIP3    H212081   8.097   2.628   4.692  0.1844 -0.0048 -0.0436
 4042TIP3   OH212082   4.353   1.297   5.435 -0.2759 -0.4476 -0.1529
 4042TIP3    H112083   4.401   1.218   5.411 -0.0823  0.1454 -1.8675
 4042TIP3    H212084   4.422   1.361   5.455 -0.3439  0.0475 -1.4142
 4043TIP3   OH212085   3.023   1.932   0.960  0.0012  0.1479 -0.7278
 4043TIP3    H112086   2.982   1.846   0.968 -0.3162  0.2640 -1.1021
 4043TIP3    H212087   3.084   1.936   1.034 -0.8498  0.0791 -0.0065
 4044TIP3   OH212088   4.122   0.733   3.345 -0.3668 -0.3991 -0.9048
 4044TIP3    H112089   4.109   0.680   3.424  1.2427 -3.0908 -2.2876
 4044TIP3    H212090   4.213   0.763   3.351  0.0124 -1.2474 -2.0040
 4045TIP3   OH212091   3.024   5.294   2.583  0.1531  0.6663 -0.4932
 4045TIP3    H112092   2.996   5.338   2.664 -0.9053 -0.3117 -0.2927
 4045TIP3    H212093   3.081   5.223   2.613 -2.2695 -1.3339 -0.3003
 4046TIP3   OH212094   8.042   6.143   0.152 -0.3847  0.3456 -0.3354
 4046TIP3    H112095   8.036   6.116   0.243  2.5681  2.1534  0.5486
 4046TIP3    H212096   8.078   6.066   0.107 -1.4276 -0.4057  0.0821
 4047TIP3   OH212097   1.332   5.630   3.960 -0.2568  0.1919  0.3849
 4047TIP3    H112098   1.406   5.663   4.011  0.2580  0.7103 -0.6637
 4047TIP3    H212099   1.255   5.670   4.001  0.4019  3.9139 -1.5719
 4048TIP3   OH212100   3.969   2.536   4.539 -0.1832 -0.4372  0.5474
 4048TIP3    H112101   3.885   2.523   4.582 -0.3322  2.1615  1.2244
 4048TIP3    H212102   3.970   2.472   4.468 -1.4729 -2.4144  2.2034
 4049TIP3   OH212103   5.300   2.603   0.559 -0.0601 -0.1771  0.3338
 4049TIP3    H112104   5.341   2.682   0.595  1.1210  0.2902 -1.8593
 4049TIP3    H212105   5.207   2.625   0.554  0.2482  1.0964 -0.2488
 4050TIP3   OH212106   7.591   3.508   0.956 -0.0489  0.5101 -0.2903
 4050TIP3    H112107   7.621   3.552   0.877 -0.7850 -1.3890 -1.7310
 4050TIP3    H212108   7.671   3.487   1.005  0.5646  0.3383 -1.3385
 4051TIP3   OH212109   5.511   5.799   3.044  0.4730 -0.4433  0.3545
 4051TIP3    H112110   5.606   5.796   3.057  0.7008  1.2543 -0.7511
 4051TIP3    H212111   5.489   5.892   3.046 -1.1045 -0.7846  0.0817
 4052TIP3   OH212112   4.217   5.934   2.809  0.2900  0.4292 -0.0701
 4052TIP3    H112113   4.270   5.896   2.879  0.1159  0.3313  0.0079
 4052TIP3    H212114   4.132   5.890   2.816  1.0195 -1.4570 -1.9210
 4053TIP3   OH212115   7.535   7.668   2.785 -0.2270 -0.0275  0.0832
 4053TIP3    H112116   7.574   7.722   2.854 -0.3940 -1.1223  1.0758
 4053TIP3    H212117   7.512   7.586   2.830 -0.9867 -0.4959 -1.1332
 4054TIP3   OH212118   4.833   5.109   3.491 -0.1501 -0.0637 -0.5384
 4054TIP3    H112119   4.752   5.156   3.471 -0.0356  0.4798  0.2211
 4054TIP3    H212120   4.820   5.022   3.454 -0.8044  0.2299 -1.0202
 4055TIP3   OH212121   5.478   5.905   1.047 -0.2231  0.2934  0.3972
 4055TIP3    H112122   5.465   5.881   1.139  0.4452 -0.6202  0.2597
 4055TIP3    H212123   5.477   6.001   1.047 -3.1732  0.3592  0.9192
 4056TIP3   OH212124   7.924   0.611   4.388 -0.1827  0.4021  0.4162
 4056TIP3    H112125   7.980   0.645   4.457 -0.1569  0.3926  0.4004
 4056TIP3    H212126   7.843   0.660   4.395  0.2286  1.2181 -0.2864
 4057TIP3   OH212127   3.823   7.207   6.723  0.2443 -0.3322 -0.4487
 4057TIP3    H112128   3.904   7.158   6.711  0.7186  0.3977 -0.2958
 4057TIP3    H212129   3.840   7.291   6.681 -0.7354 -0.4623 -1.1418
 4058TIP3   OH212130   7.114   5.312   3.470  0.1473  0.4935  0.3266
 4058TIP3    H112131   7.101   5.325   3.564 -1.4380 -2.3120  0.6121
 4058TIP3    H212132   7.034   5.269   3.440  2.1442 -2.4174 -1.4410
 4059TIP3   OH212133   3.799   2.525   0.892 -0.1203  0.1590 -0.1923
 4059TIP3    H112134   3.723   2.468   0.881 -0.6438  0.6928  0.5787
 4059TIP3    H212135   3.767   2.598   0.946  0.4062  1.4108 -1.5051
 4060TIP3   OH212136   3.257   6.762   0.214 -0.3203 -0.2537  0.1120
 4060TIP3    H112137   3.171   6.791   0.184 -1.4087 -1.2746  2.0879
 4060TIP3    H212138   3.285   6.700   0.146 -0.4449  1.1158 -1.2667
 4061TIP3   OH212139   7.967   4.946   0.059  0.2021  0.4307 -0.4773
 4061TIP3    H112140   8.038   4.914   0.114 -1.0238 -0.7254  0.5049
 4061TIP3    H212141   7.956   4.879  -0.008 -1.6699 -0.8309  0.9621
 4062TIP3   OH212142   2.431   6.664   4.880 -0.3185  0.0463  0.4725
 4062TIP3    H112143   2.473   6.749   4.894  0.5483  0.3943 -3.2782
 4062TIP3    H212144   2.349   6.685   4.835  0.2229 -1.0801 -1.1109
 4063TIP3   OH212145   8.161   2.876   3.124  0.9738 -0.2444  0.0939
 4063TIP3    H112146   8.081   2.841   3.086  0.5647 -0.2075  0.9033
 4063TIP3    H212147   8.151   2.863   3.218  1.1510  1.3179  0.3585
 4064TIP3   OH212148   7.779   1.784   2.330  0.1977  0.1275  0.0198
 4064TIP3    H112149   7.863   1.741   2.347 -0.4280 -0.1568  2.8330
 4064TIP3    H212150   7.715   1.713   2.331 -0.4519  0.6898  1.3841
 4065TIP3   OH212151   6.267   5.856   5.256 -0.1974 -0.3995  0.5508
 4065TIP3    H112152   6.284   5.764   5.233 -2.0153 -0.4705 -0.6734
 4065TIP3    H212153   6.200   5.851   5.325 -0.9184 -0.0041 -0.1008
 4066TIP3   OH212154   7.251   0.175   2.988  0.5223  0.0864  0.0453
 4066TIP3    H112155   7.285   0.244   3.045  1.3713 -0.0814 -0.2449
 4066TIP3    H212156   7.328   0.124   2.964 -0.1807 -1.4005  0.8105
 4067TIP3   OH212157   7.889   1.886   3.304  0.1861 -0.8284 -0.0275
 4067TIP3    H112158   7.858   1.971   3.274  0.2381 -0.7023  0.2767
 4067TIP3    H212159   7.827   1.823   3.266 -0.9890 -0.5219  1.3142
 4068TIP3   OH212160   4.629   4.208   0.137 -0.0824  0.3845 -0.5030
 4068TIP3    H112161   4.688   4.136   0.156  0.4647  0.9705  0.0537
 4068TIP3    H212162   4.663   4.282   0.188  1.4745  2.0578 -3.6735
 4069TIP3   OH212163   6.238   6.384   0.225 -0.0700 -0.1141 -0.3025
 4069TIP3    H112164   6.184   6.448   0.270  0.3858 -0.1372  0.2886
 4069TIP3    H212165   6.328   6.411   0.244  0.1303 -0.4191 -0.7828
 4070TIP3   OH212166   0.871   1.678   6.365 -0.3865 -0.4678  0.4690
 4070TIP3    H112167   0.812   1.614   6.325 -0.9793  0.5450 -0.3099
 4070TIP3    H212168   0.862   1.756   6.311  3.1139 -0.8222 -0.9070
 4071TIP3   OH212169   6.965   5.421   4.770  0.0384 -0.1005  0.2250
 4071TIP3    H112170   7.001   5.474   4.698 -0.1314  1.1483  1.0300
 4071TIP3    H212171   7.002   5.334   4.756  1.5082  0.5791 -0.3031
 4072TIP3   OH212172   7.453   3.974   2.550  0.1667 -0.4386 -0.1933
 4072TIP3    H112173   7.505   4.032   2.607 -0.3903  1.8477 -1.8918
 4072TIP3    H212174   7.518   3.924   2.501  0.6864 -0.2757  0.3148
 4073TIP3   OH212175   0.872   0.129   6.495  0.5349  0.2763 -0.4223
 4073TIP3    H112176   0.896   0.063   6.431  0.3415 -0.0427 -0.1681
 4073TIP3    H212177   0.948   0.134   6.554  0.2194 -0.3178  0.0438
 4074TIP3   OH212178   3.448   2.462   4.163 -0.0475 -0.3652 -0.0924
 4074TIP3    H112179   3.430   2.554   4.143  0.9100  0.0762  0.9268
 4074TIP3    H212180   3.461   2.421   4.078  1.8229  0.9748 -0.5198
 4075TIP3   OH212181   1.998   4.639   4.174  0.1224  0.2144 -0.0615
 4075TIP3    H112182   1.936   4.575   4.206  1.3288 -0.1408  1.7151
 4075TIP3    H212183   1.989   4.637   4.078 -2.9067  0.5726  0.1295
 4076TIP3   OH212184   5.535   0.944   2.331 -0.1203 -0.3710  0.3413
 4076TIP3    H112185   5.615   0.997   2.335 -0.3661 -0.0730  1.8894
 4076TIP3    H212186   5.520   0.916   2.421 -0.8690 -1.7955 -0.1966
 4077TIP3   OH212187   4.292   5.280   6.631  0.0781 -0.2112 -0.1915
 4077TIP3    H112188   4.262   5.198   6.670  0.1118 -0.7974 -1.3414
 4077TIP3    H212189   4.214   5.319   6.593  0.3817 -0.6993 -1.3570
 4078TIP3   OH212190   4.392   2.368   1.364  0.0997  0.0461  0.0766
 4078TIP3    H112191   4.299   2.350   1.374  0.3521 -2.0878 -1.0216
 4078TIP3    H212192   4.436   2.288   1.393  1.4523 -0.0332 -2.0140
 4079TIP3   OH212193   8.087   6.568   5.409 -0.1115  0.3675  0.3306
 4079TIP3    H112194   8.009   6.533   5.366  0.4825 -0.6609  0.0644
 4079TIP3    H212195   8.089   6.660   5.383 -1.3458  0.4627  0.5130
 4080TIP3   OH212196   5.321   6.106   4.104  0.1506  0.8220  0.3927
 4080TIP3    H112197   5.247   6.107   4.044  1.3012  1.1802 -1.0767
 4080TIP3    H212198   5.321   6.193   4.144  2.0778  2.3605 -2.6332
 4081TIP3   OH212199   4.513   7.562   5.064 -0.1246 -0.9159  0.1536
 4081TIP3    H112200   4.502   7.624   4.993 -2.8684 -0.5808  0.7524
 4081TIP3    H212201   4.488   7.477   5.026 -2.9552 -0.5290  0.9436
 4082TIP3   OH212202   5.572   7.706   1.413 -0.6672  0.2203  0.4284
 4082TIP3    H112203   5.490   7.661   1.397  0.3437 -1.7049  0.3841
 4082TIP3    H212204   5.570   7.728   1.506 -1.7154  1.3102  0.1801
 4083TIP3   OH212205   0.565   4.464   2.317  0.1563 -0.9681  0.0968
 4083TIP3    H112206   0.481   4.436   2.353 -1.0012  1.0381 -0.8303
 4083TIP3    H212207   0.580   4.550   2.358  0.4884 -0.1925 -1.5822
 4084TIP3   OH212208   6.628   4.892   0.071  0.2336 -0.8731 -0.1508
 4084TIP3    H112209   6.554   4.952   0.084 -0.1065 -1.3899  0.3473
 4084TIP3    H212210   6.697   4.947   0.034 -0.1209 -0.2008  0.1659
 4085TIP3   OH212211   2.500   3.444   3.698 -0.3920 -0.5874 -0.2969
 4085TIP3    H112212   2.566   3.387   3.660  0.4457 -1.5439  2.3846
 4085TIP3    H212213   2.423   3.431   3.643  0.8868 -1.3827 -1.9870
 4086TIP3   OH212214   5.143   1.697   6.697 -0.1633 -0.1321 -0.7814
 4086TIP3    H112215   5.228   1.653   6.687 -1.1841 -2.8244  1.1148
 4086TIP3    H212216   5.082   1.643   6.646 -1.2121 -0.0340  0.3333
 4087TIP3   OH212217   5.533   4.387   0.374 -0.3703 -0.2920  0.4198
 4087TIP3    H112218   5.599   4.407   0.308 -1.4857 -0.0832 -0.6820
 4087TIP3    H212219   5.536   4.292   0.383 -0.4346 -0.3568 -0.1974
 4088TIP3   OH212220   7.488   2.588   3.535 -0.0361  0.3590  0.7116
 4088TIP3    H112221   7.452   2.631   3.458 -0.7207  0.7272  1.2241
 4088TIP3    H212222   7.563   2.539   3.503  0.4037  1.4719  0.0213
 4089TIP3   OH212223   3.959   2.195   3.141 -0.6151  0.0817 -0.0772
 4089TIP3    H112224   3.899   2.192   3.216  1.5907 -0.4511  1.7948
 4089TIP3    H212225   3.931   2.124   3.084 -2.4787  0.6308  0.0846
 4090TIP3   OH212226   7.150   6.422   5.932  0.6341  0.4816  0.0978
 4090TIP3    H112227   7.085   6.452   5.868  0.8882  0.0484 -0.3705
 4090TIP3    H212228   7.105   6.352   5.980  0.6407  0.4054 -0.0052
 4091TIP3   OH212229   3.741   3.005   3.811  0.1450 -0.3661  0.2192
 4091TIP3    H112230   3.737   3.072   3.879  2.5105  1.7080 -1.4844
 4091TIP3    H212231   3.831   2.975   3.811  0.0021 -0.9268 -1.3794
 4092TIP3   OH212232   4.863   5.442   2.638 -0.2730 -0.0654  0.5265
 4092TIP3    H112233   4.838   5.514   2.696  0.2524  0.6828 -0.1660
 4092TIP3    H212234   4.907   5.380   2.696 -0.9869  0.0171  1.1836
 4093TIP3   OH212235   7.140   1.888   3.032 -0.1779 -0.1129  0.2069
 4093TIP3    H112236   7.053   1.856   3.056 -0.0294 -1.2864 -0.7503
 4093TIP3    H212237   7.200   1.825   3.071  0.2194  0.3282  0.3115
 4094TIP3   OH212238   1.471   6.268   4.001  0.3931 -0.2051 -0.3364
 4094TIP3    H112239   1.548   6.324   3.990 -1.0997  1.7680 -1.5041
 4094TIP3    H212240   1.421   6.309   4.072  1.2555 -2.5516  1.7354
 4095TIP3   OH212241   2.653   1.039   3.394 -0.2357 -0.2524 -0.3046
 4095TIP3    H112242   2.664   1.067   3.304  0.9462 -1.8315 -0.6888
 4095TIP3    H212243   2.566   0.997   3.395  0.2068 -1.2230 -1.0039
 4096TIP3   OH212244   2.786   3.456   3.588 -0.0360  0.8107  0.2713
 4096TIP3    H112245   2.823   3.448   3.676 -0.3037 -1.7916  0.2298
 4096TIP3    H212246   2.863   3.462   3.531  0.2436 -0.3794  0.4952
 4097TIP3   OH212247   4.850   4.495   2.348  0.5930  0.6671  0.6952
 4097TIP3    H112248   4.896   4.443   2.414 -0.5818 -0.4435  0.6940
 4097TIP3    H212249   4.818   4.572   2.396 -0.4489 -0.2455  1.5129
 4098TIP3   OH212250   3.653   4.015   2.864  0.0256 -0.1205 -0.0823
 4098TIP3    H112251   3.587   4.053   2.806 -0.3493 -0.2886  0.2348
 4098TIP3    H212252   3.657   4.075   2.939  1.1288  0.5670 -0.6669
 4099TIP3   OH212253   7.699   2.224   4.157  0.1517  0.2187  0.2159
 4099TIP3    H112254   7.729   2.228   4.248  0.9091  1.1106 -0.0659
 4099TIP3    H212255   7.720   2.310   4.121 -2.1348  0.6712 -0.1922
 4100TIP3   OH212256   2.799   3.413   0.892  0.6780  0.3231  0.0006
 4100TIP3    H112257   2.886   3.404   0.932  0.1282 -0.8774  1.0051
 4100TIP3    H212258   2.742   3.438   0.964 -0.1829 -1.0100 -0.1816
 4101TIP3   OH212259   0.516   0.666   2.795  0.1811  0.1171  0.1899
 4101TIP3    H112260   0.472   0.683   2.879 -1.7838  1.2563 -0.9939
 4101TIP3    H212261   0.452   0.694   2.729  1.6055 -0.9208 -1.7029
 4102TIP3   OH212262   4.657   0.409   6.041  0.9306  0.1852  0.2328
 4102TIP3    H112263   4.693   0.322   6.057 -0.2241 -0.7208 -1.6025
 4102TIP3    H212264   4.624   0.404   5.951 -0.8563  1.9165  0.7240
 4103TIP3   OH212265   6.991   0.572   5.062  0.3110 -0.4987  0.4569
 4103TIP3    H112266   7.065   0.521   5.093  0.4474  0.1161  1.1542
 4103TIP3    H212267   7.025   0.661   5.050 -0.6717  0.1901  2.3791
 4104TIP3   OH212268   0.535   7.739   3.166 -0.3415 -0.0948  0.0947
 4104TIP3    H112269   0.546   7.814   3.107 -0.7148  0.3021  0.5236
 4104TIP3    H212270   0.441   7.720   3.162 -0.1342 -1.0762 -0.6525
 4105TIP3   OH212271   1.611   1.756   5.261 -0.2571 -0.3876 -0.2734
 4105TIP3    H112272   1.609   1.706   5.180 -0.5891  0.2650 -0.6768
 4105TIP3    H212273   1.615   1.848   5.233 -0.7136 -0.1397  0.4418
 4106TIP3   OH212274   5.425   4.609   4.838 -0.0596  0.4554  0.3300
 4106TIP3    H112275   5.481   4.653   4.902 -0.7803 -0.9379  2.0143
 4106TIP3    H212276   5.366   4.677   4.807  1.2635  1.4992  0.0007
 4107TIP3   OH212277   0.519   4.414   0.310  0.4605 -0.4236  0.0108
 4107TIP3    H112278   0.581   4.452   0.372  0.9859 -0.2008 -0.6379
 4107TIP3    H212279   0.556   4.433   0.224  1.3915 -3.4115 -0.3719
 4108TIP3   OH212280   5.640   2.017   0.597  0.1853  0.1371 -0.4043
 4108TIP3    H112281   5.575   1.985   0.659  1.8807 -0.6037  1.0789
 4108TIP3    H212282   5.634   2.112   0.601 -0.2424  0.0841  0.3337
 4109TIP3   OH212283   6.389   5.434   0.015 -0.1443  0.5495 -0.5491
 4109TIP3    H112284   6.365   5.444   0.107  1.3248 -1.0162  0.0695
 4109TIP3    H212285   6.485   5.437   0.015  0.0212 -1.9025 -1.6113
 4110TIP3   OH212286   3.268   7.644   4.960  0.3487 -0.0358 -0.4179
 4110TIP3    H112287   3.358   7.653   4.931 -0.0192 -0.4932 -1.7675
 4110TIP3    H212288   3.244   7.732   4.991  0.6460  0.5960 -1.8901
 4111TIP3   OH212289   4.555   1.648   5.876 -0.0484 -0.1145  0.0309
 4111TIP3    H112290   4.464   1.655   5.904  0.2049 -1.9123  1.5593
 4111TIP3    H212291   4.603   1.704   5.938  0.2346 -2.1123  1.7218
 4112TIP3   OH212292   3.259   3.689   6.216  0.2778  0.0778  0.2292
 4112TIP3    H112293   3.329   3.651   6.163 -0.7945  0.2826 -1.3798
 4112TIP3    H212294   3.302   3.711   6.299  1.6964 -1.4724 -0.0367
 4113TIP3   OH212295   5.196   4.177   2.286  0.2551 -0.4152 -0.0652
 4113TIP3    H112296   5.250   4.235   2.339  0.5776 -0.7610 -0.0153
 4113TIP3    H212297   5.203   4.091   2.329  1.9008 -1.1229 -1.6023
 4114TIP3   OH212298   7.685   0.052   0.621 -0.9239  0.1540 -0.3523
 4114TIP3    H112299   7.683   0.105   0.701  0.5890  0.4155 -0.4508
 4114TIP3    H212300   7.594   0.049   0.592 -1.3326  1.0094  0.7604
 4115TIP3   OH212301   5.878   3.581   6.609  0.5439 -0.2656 -0.2131
 4115TIP3    H112302   5.911   3.607   6.695  0.3747  1.2286 -0.5749
 4115TIP3    H212303   5.945   3.521   6.575  0.9154 -0.3862  0.6871
 4116TIP3   OH212304   3.387   3.682   4.333  0.5858  0.2905  0.6534
 4116TIP3    H112305   3.403   3.668   4.426  0.1710 -0.1859  0.6548
 4116TIP3    H212306   3.474   3.698   4.296  0.9767 -1.2490  0.8276
 4117TIP3   OH212307   5.631   7.510   4.110  0.0438 -0.3019 -0.2439
 4117TIP3    H112308   5.697   7.573   4.081 -0.4279  0.2063 -0.2439
 4117TIP3    H212309   5.644   7.433   4.054  1.6635 -0.8456  0.8151
 4118TIP3   OH212310   7.919   0.889   6.471 -0.2437 -0.4990  0.4743
 4118TIP3    H112311   8.004   0.893   6.428 -1.0100 -0.8719 -1.1403
 4118TIP3    H212312   7.908   0.976   6.511  0.6891 -0.2973  0.3080
 4119TIP3   OH212313   2.294   3.745   0.338 -0.1385  0.0159  0.7238
 4119TIP3    H112314   2.367   3.717   0.283  0.5275  1.8580  0.5876
 4119TIP3    H212315   2.309   3.839   0.351 -1.8992  0.2131  1.6062
 4120TIP3   OH212316   2.211   0.907   1.491  0.0077 -0.1156  0.2508
 4120TIP3    H112317   2.180   0.873   1.575 -1.1190 -3.0718 -1.1969
 4120TIP3    H212318   2.244   0.994   1.511  0.2006 -0.8406  3.8212
 4121TIP3   OH212319   3.595   3.523   1.186 -0.0755 -0.3756 -0.3253
 4121TIP3    H112320   3.651   3.525   1.109  1.6978 -2.2205  0.8137
 4121TIP3    H212321   3.633   3.587   1.245 -0.5536 -0.0147 -0.3986
 4122TIP3   OH212322   5.716   6.052   6.499  0.3553 -0.1965 -0.3036
 4122TIP3    H112323   5.796   6.095   6.531  1.2459 -0.8190 -1.6179
 4122TIP3    H212324   5.705   6.084   6.410 -0.2695 -0.9304 -0.4997
 4123TIP3   OH212325   8.142   0.707   2.329  0.1228  0.7725  0.1534
 4123TIP3    H112326   8.205   0.649   2.373  0.9769  0.4637 -1.3768
 4123TIP3    H212327   8.179   0.718   2.241 -2.0753  0.4252 -0.8690
 4124TIP3   OH212328   5.856   5.087   6.202  0.1662 -0.1588 -0.0554
 4124TIP3    H112329   5.906   5.164   6.231  0.8401 -0.1882 -1.1213
 4124TIP3    H212330   5.887   5.070   6.114 -0.5908 -1.1600 -0.1378
 4125TIP3   OH212331   4.272   6.374   2.350  0.0389  0.3598 -0.2181
 4125TIP3    H112332   4.293   6.372   2.443 -0.0066 -1.7467 -0.1862
 4125TIP3    H212333   4.354   6.400   2.308  1.2268 -2.2265  0.2550
 4126TIP3   OH212334   7.847   0.807   1.668 -0.4426  0.0294  0.5569
 4126TIP3    H112335   7.862   0.869   1.596 -1.7258 -0.3840 -0.0969
 4126TIP3    H212336   7.876   0.854   1.746 -0.0348  0.9014 -0.0973
 4127TIP3   OH212337   3.086   2.476   5.035 -0.2638 -0.1911 -0.0514
 4127TIP3    H112338   3.119   2.558   4.999  0.4857 -1.2808 -2.0611
 4127TIP3    H212339   2.998   2.467   4.997 -0.1951 -0.4759 -0.1474
 4128TIP3   OH212340   8.247   1.784   3.038 -0.3443  0.0328 -0.4768
 4128TIP3    H112341   8.247   1.842   3.115 -2.2306 -0.1624 -0.2723
 4128TIP3    H212342   8.313   1.718   3.058  1.5531  1.8011 -0.5155
 4129TIP3   OH212343   2.272   6.715   2.645 -0.1557  0.2121  0.8106
 4129TIP3    H112344   2.180   6.706   2.669 -0.1905  1.8163  1.3484
 4129TIP3    H212345   2.315   6.640   2.688 -1.4081 -1.5603 -0.8505
 4130TIP3   OH212346   3.074   3.465   5.005 -0.1777  0.0867 -0.2147
 4130TIP3    H112347   3.129   3.391   4.980  0.8088 -0.4025  2.9841
 4130TIP3    H212348   3.006   3.427   5.060 -2.1850  1.0878 -1.8397
 4131TIP3   OH212349   2.881   6.119   5.567  0.6652 -0.7500  0.4353
 4131TIP3    H112350   2.799   6.080   5.537  1.0411  0.0607 -1.8351
 4131TIP3    H212351   2.935   6.045   5.596 -0.3142 -1.4126  0.6046
 4132TIP3   OH212352   7.929   7.598   5.230  0.1918  0.2016 -0.3559
 4132TIP3    H112353   7.837   7.619   5.218 -0.2728 -1.5058 -0.0011
 4132TIP3    H212354   7.933   7.503   5.224  1.5535  0.0305  2.0148
 4133TIP3   OH212355   5.471   2.883   2.442 -0.2874  0.0612  0.5741
 4133TIP3    H112356   5.560   2.894   2.407 -0.6578  1.4658 -0.0089
 4133TIP3    H212357   5.467   2.791   2.468  0.2845 -0.9100 -2.3532
 4134TIP3   OH212358   0.515   2.238   1.195 -0.5516  0.5317 -0.0814
 4134TIP3    H112359   0.578   2.282   1.252 -0.0082 -0.9934  0.5555
 4134TIP3    H212360   0.560   2.229   1.111 -1.1576  2.3101 -0.6413
 4135TIP3   OH212361   5.089   1.737   4.671  0.5073  0.2788 -0.2906
 4135TIP3    H112362   5.028   1.793   4.718 -0.7391 -0.6314 -0.7544
 4135TIP3    H212363   5.168   1.736   4.725  0.5614  2.3949 -0.2437
 4136TIP3   OH212364   6.017   2.707   6.486  0.0053 -0.0895  0.3398
 4136TIP3    H112365   5.935   2.736   6.447  1.5187 -0.9058 -3.9758
 4136TIP3    H212366   6.060   2.788   6.513 -1.0343  0.5831  0.0468
 4137TIP3   OH212367   2.567   4.983   0.052  0.1228 -0.1754 -0.1884
 4137TIP3    H112368   2.532   5.070   0.035 -0.9059 -0.3318  0.9544
 4137TIP3    H212369   2.497   4.938   0.101  1.6229 -0.7621  1.5581
 4138TIP3   OH212370   3.228   3.551   6.597  0.0722 -0.3698  0.3349
 4138TIP3    H112371   3.323   3.551   6.584 -0.2089  0.5770 -2.3503
 4138TIP3    H212372   3.210   3.472   6.647  2.3907  0.2321  2.3303
 4139TIP3   OH212373   4.185   6.863   3.762 -0.2811  0.0910  0.1980
 4139TIP3    H112374   4.157   6.775   3.787  0.7603 -0.7157 -1.3158
 4139TIP3    H212375   4.272   6.873   3.800 -0.1420  0.2096 -0.1389
 4140TIP3   OH212376   4.244   2.670   6.061  0.0164  0.0459 -0.8317
 4140TIP3    H112377   4.316   2.609   6.046 -0.5642 -0.4147 -1.9024
 4140TIP3    H212378   4.173   2.616   6.095  0.4615  0.6621  1.1751
 4141TIP3   OH212379   5.012   2.742   2.398  0.2982 -0.3337  0.2773
 4141TIP3    H112380   4.933   2.791   2.422  0.8311  0.5601  0.2643
 4141TIP3    H212381   4.998   2.655   2.435 -1.3036 -0.6350 -0.9187
 4142TIP3   OH212382   2.345   1.508   3.905  0.0680 -0.4234  0.4838
 4142TIP3    H112383   2.372   1.594   3.937 -2.5019 -0.2075  2.4461
 4142TIP3    H212384   2.262   1.525   3.859 -0.4437 -1.8128  0.8356
 4143TIP3   OH212385   3.709   5.602   1.420  0.1295  0.0554 -0.2717
 4143TIP3    H112386   3.802   5.595   1.402  0.0042  0.7355 -1.2804
 4143TIP3    H212387   3.698   5.692   1.453 -0.1580 -0.0474 -0.0823
 4144TIP3   OH212388   5.569   0.151   2.800  0.4346 -0.4569  0.5288
 4144TIP3    H112389   5.535   0.161   2.890  1.2876  1.7605  0.6611
 4144TIP3    H212390   5.660   0.125   2.812  0.0189 -2.1522  0.2328
 4145TIP3   OH212391   7.029   2.649   1.152 -0.3933 -0.1593 -0.1177
 4145TIP3    H112392   7.080   2.715   1.105 -1.5393 -0.0969 -1.3257
 4145TIP3    H212393   6.940   2.660   1.120 -0.4924 -2.8809 -1.0829
 4146TIP3   OH212394   2.404   5.051   3.768 -0.4776 -0.3799  0.2134
 4146TIP3    H112395   2.317   5.010   3.774 -0.1079 -1.2998 -0.4598
 4146TIP3    H212396   2.447   5.027   3.850 -1.2112  0.9685  1.0274
 4147TIP3   OH212397   6.861   1.977   4.631  0.1445 -0.1694 -0.1480
 4147TIP3    H112398   6.882   1.968   4.724  0.8815  1.2398 -0.1434
 4147TIP3    H212399   6.945   1.970   4.586  0.2153  1.8478 -0.4468
 4148TIP3   OH212400   2.464   4.834   0.566 -0.1577  0.0984 -0.0710
 4148TIP3    H112401   2.424   4.921   0.575 -1.0901 -0.3660  0.4360
 4148TIP3    H212402   2.558   4.851   0.565 -0.2428  0.9792  1.9135
 4149TIP3   OH212403   3.550   0.683   1.535  0.3088 -0.3233 -0.3276
 4149TIP3    H112404   3.473   0.627   1.539  0.0514  0.0002 -0.7933
 4149TIP3    H212405   3.567   0.707   1.627  0.1767 -0.8184 -0.1701
 4150TIP3   OH212406   0.978   7.765   6.735 -0.6964 -0.7454  0.2422
 4150TIP3    H112407   0.950   7.854   6.714 -2.5622 -0.9907  1.4215
 4150TIP3    H212408   1.013   7.771   6.824  1.1034 -0.8702 -0.4071
 4151TIP3   OH212409   6.907   4.631   4.950 -0.3205 -0.1431 -0.8498
 4151TIP3    H112410   6.992   4.648   4.909  0.5084 -1.3408  0.3207
 4151TIP3    H212411   6.920   4.552   5.001 -2.2401 -0.5168 -0.8681
 4152TIP3   OH212412   5.573   3.707   5.575  0.1679  0.0866  0.5659
 4152TIP3    H112413   5.584   3.802   5.584  1.5563  0.3032 -2.1552
 4152TIP3    H212414   5.627   3.670   5.645 -0.6851  1.2522  1.9057
 4153TIP3   OH212415   3.138   3.232   3.554  0.5496 -0.4149 -0.6776
 4153TIP3    H112416   3.042   3.225   3.556  0.3879  1.4318 -0.0897
 4153TIP3    H212417   3.160   3.228   3.461 -0.0946 -0.8897 -0.8154
 4154TIP3   OH212418   7.508   2.356   4.905 -0.2398 -0.0224 -0.6135
 4154TIP3    H112419   7.504   2.393   4.993 -1.4939  0.6972 -0.9570
 4154TIP3    H212420   7.477   2.266   4.916 -1.9548  0.5360 -0.5403
 4155TIP3   OH212421   6.082   0.556   1.658  0.4222  0.4044  0.3397
 4155TIP3    H112422   5.995   0.595   1.662  0.3984  0.3300  3.4798
 4155TIP3    H212423   6.142   0.630   1.647  0.0538  0.5529 -0.7883
 4156TIP3   OH212424   5.202   3.622   0.430 -0.3120  0.2426  0.3081
 4156TIP3    H112425   5.154   3.676   0.492 -0.9660 -1.6167  1.5196
 4156TIP3    H212426   5.243   3.554   0.484 -0.6565 -1.2571 -1.2189
 4157TIP3   OH212427   5.571   3.193   2.142 -0.5497  0.1658  0.0431
 4157TIP3    H112428   5.496   3.146   2.105 -1.8871  0.9550  1.6218
 4157TIP3    H212429   5.532   3.262   2.196  1.3159  0.5031  1.0506
 4158TIP3   OH212430   4.468  -0.014   0.671 -0.3157 -0.0315 -0.3843
 4158TIP3    H112431   4.478   0.052   0.603  2.2449 -0.4212 -0.4584
 4158TIP3    H212432   4.436   0.035   0.747  0.9143  1.1976 -0.6230
 4159TIP3   OH212433   4.190   7.177   2.873 -0.2821 -0.7901  0.2007
 4159TIP3    H112434   4.215   7.130   2.793 -2.7422 -0.7373 -0.6828
 4159TIP3    H212435   4.170   7.107   2.936 -2.3685 -0.9892 -0.6038
 4160TIP3   OH212436   3.083   3.505   3.636  0.3449 -0.2455  0.1260
 4160TIP3    H112437   3.128   3.531   3.716  2.1686  0.9510 -1.2035
 4160TIP3    H212438   3.115   3.416   3.619 -0.9830 -0.9929  1.3055
 4161TIP3   OH212439   5.763   4.711   3.905  0.3502 -0.0910  0.0029
 4161TIP3    H112440   5.744   4.747   3.818  2.3590 -0.8085 -0.7987
 4161TIP3    H212441   5.853   4.737   3.923 -0.2636  0.7089  2.2648
 4162TIP3   OH212442   0.321   0.789   3.442 -0.5591  0.1494 -0.3688
 4162TIP3    H112443   0.409   0.759   3.420 -1.0815 -0.5593 -1.6420
 4162TIP3    H212444   0.277   0.711   3.475 -0.8573  0.3747 -0.2336
 4163TIP3   OH212445   0.334   0.244   5.076 -0.1788 -0.5688  0.0366
 4163TIP3    H112446   0.365   0.161   5.112  0.0716 -0.9191 -0.9559
 4163TIP3    H212447   0.327   0.228   4.982  1.5025  1.0328 -0.4058
 4164TIP3   OH212448   2.608   4.691   0.188  0.2741 -0.8084  0.3787
 4164TIP3    H112449   2.517   4.713   0.171  0.4342 -0.3120  0.1320
 4164TIP3    H212450   2.638   4.649   0.107  0.7764  0.7091 -0.2501
 4165TIP3   OH212451   7.880   3.882   4.049 -0.5476  0.2545  0.4684
 4165TIP3    H112452   7.824   3.828   3.993  0.0239 -0.5323  0.6379
 4165TIP3    H212453   7.966   3.876   4.009  0.1349 -1.2455  2.0196
 4166TIP3   OH212454   5.673   2.679   2.425  0.0288  0.2893  0.2398
 4166TIP3    H112455   5.744   2.743   2.416  1.2646 -1.1642 -1.2173
 4166TIP3    H212456   5.683   2.644   2.513  0.2190  1.1008  0.5503
 4167TIP3   OH212457   1.511   7.808   1.064  0.4558 -0.1052  0.1338
 4167TIP3    H112458   1.510   7.896   1.027  1.0532 -0.7814 -1.5696
 4167TIP3    H212459   1.419   7.790   1.083  0.4032  1.1375  1.2037
 4168TIP3   OH212460   3.558   0.205   0.445  0.4950  0.0916  0.2459
 4168TIP3    H112461   3.525   0.271   0.383 -4.3491 -0.9996  1.2121
 4168TIP3    H212462   3.608   0.144   0.391 -1.3295  0.5710 -2.1586
 4169TIP3   OH212463   5.781   7.556   4.507 -0.5673  0.2458 -0.1209
 4169TIP3    H112464   5.734   7.638   4.521  0.0645  0.3435  1.6268
 4169TIP3    H212465   5.867   7.584   4.473  0.7740  0.6222  3.2047
 4170TIP3   OH212466   2.182   4.350   4.102 -0.1088  0.2595  0.0674
 4170TIP3    H112467   2.195   4.342   4.008 -1.2218 -3.0504  0.0669
 4170TIP3    H212468   2.094   4.388   4.110 -0.2292  0.0512 -0.2404
 4171TIP3   OH212469   1.149   2.619   0.070  0.5225 -0.5586 -0.4213
 4171TIP3    H112470   1.213   2.678   0.110  0.6213 -0.9879  0.0731
 4171TIP3    H212471   1.130   2.555   0.139 -0.8702 -0.1166 -0.3744
 4172TIP3   OH212472   1.856   5.138   4.089 -0.1704 -0.2773 -0.0642
 4172TIP3    H112473   1.935   5.135   4.143  0.1714  1.6529 -0.3744
 4172TIP3    H212474   1.886   5.114   4.001 -0.3258 -1.3996  0.1750
 4173TIP3   OH212475   5.445   3.140   0.228  0.6137  0.4975  0.3502
 4173TIP3    H112476   5.369   3.187   0.194 -1.6691 -2.9182  0.2223
 4173TIP3    H212477   5.514   3.156   0.163 -0.8024  1.5720 -0.9778
 4174TIP3   OH212478   4.909   3.952   4.690  0.3298  0.0060 -0.3804
 4174TIP3    H112479   4.950   3.899   4.621 -1.3114 -0.0882 -1.3383
 4174TIP3    H212480   4.844   3.895   4.730 -0.8350  0.9589 -0.8226
 4175TIP3   OH212481   6.875   7.426   5.824 -0.1329 -0.0660  0.4657
 4175TIP3    H112482   6.794   7.386   5.791 -0.7892  2.2272 -0.8879
 4175TIP3    H212483   6.943   7.393   5.764 -0.2443 -0.9677  0.8124
 4176TIP3   OH212484   1.264   6.560   5.456  0.1209  0.0651 -1.0024
 4176TIP3    H112485   1.241   6.567   5.363 -0.1511 -1.9526 -1.1291
 4176TIP3    H212486   1.354   6.529   5.456 -0.6375 -2.3027 -0.6803
 4177TIP3   OH212487   3.752   0.552   3.852 -0.3768 -0.8424 -0.5673
 4177TIP3    H112488   3.765   0.575   3.760  1.8344 -0.5341 -0.2409
 4177TIP3    H212489   3.825   0.594   3.897 -1.1326 -1.4109  1.2716
 4178TIP3   OH212490   4.871   6.376   5.387  0.4896 -0.0916 -0.1040
 4178TIP3    H112491   4.838   6.315   5.453  0.0420 -1.0607 -1.1929
 4178TIP3    H212492   4.917   6.321   5.324  0.4785  0.7443 -0.8625
 4179TIP3   OH212493   6.178   1.137   0.371 -0.3384  0.2779  0.7511
 4179TIP3    H112494   6.197   1.047   0.344 -1.8947 -0.4113  1.8231
 4179TIP3    H212495   6.208   1.191   0.298  0.7060 -1.0923  0.1286
 4180TIP3   OH212496   3.864   3.989   4.082 -0.4841 -0.4442  0.1052
 4180TIP3    H112497   3.769   3.983   4.072 -0.3636 -0.9974 -0.7103
 4180TIP3    H212498   3.895   4.027   4.000  0.1934 -2.1996 -0.5011
 4181TIP3   OH212499   0.413   3.322   3.040  0.4465  0.2859 -0.0309
 4181TIP3    H112500   0.493   3.333   3.091 -0.0004  0.3007  0.6838
 4181TIP3    H212501   0.443   3.294   2.954  1.2231  0.3872  0.1997
 4182TIP3   OH212502   3.503   1.013   4.911 -0.1944  0.4156  0.2746
 4182TIP3    H112503   3.445   0.937   4.922 -3.8188  2.8984  0.1839
 4182TIP3    H212504   3.558   1.013   4.989 -1.7773 -1.0212  1.4699
 4183TIP3   OH212505   2.187   5.335   0.471 -0.4305  0.0475 -0.1161
 4183TIP3    H112506   2.226   5.338   0.384 -1.9013 -1.1014 -0.8543
 4183TIP3    H212507   2.107   5.285   0.460 -1.2380  0.8438  1.6840
 4184TIP3   OH212508   5.595   6.419   0.305  0.6156  0.0163  0.0205
 4184TIP3    H112509   5.644   6.375   0.235 -0.7638 -3.0358  0.8224
 4184TIP3    H212510   5.514   6.369   0.313  0.3473  0.7384  3.2796
 4185TIP3   OH212511   0.525   0.231   5.786  0.6051  0.2471  0.1389
 4185TIP3    H112512   0.547   0.215   5.695 -1.1275 -0.1680 -0.2516
 4185TIP3    H212513   0.506   0.325   5.791  2.7669  0.7101  0.5889
 4186TIP3   OH212514   2.629   7.174   0.067 -0.1752  0.6569 -0.0187
 4186TIP3    H112515   2.643   7.128   0.149 -1.0397  1.4756  0.6112
 4186TIP3    H212516   2.714   7.173   0.024  0.3387  0.3887  0.9832
 4187TIP3   OH212517   1.847   0.786   4.077 -0.1919 -0.6430 -0.2192
 4187TIP3    H112518   1.878   0.863   4.029 -0.0772 -1.9007 -2.3053
 4187TIP3    H212519   1.905   0.779   4.152  0.3429  0.8136 -0.4748
 4188TIP3   OH212520   5.777   3.994   1.759 -0.2814 -0.2459 -0.1324
 4188TIP3    H112521   5.871   3.979   1.767 -0.4918 -1.5311  0.2585
 4188TIP3    H212522   5.768   4.058   1.688  0.9280  0.6652  0.4981
 4189TIP3   OH212523   6.664   4.262   0.838 -0.0089 -0.6626 -0.0906
 4189TIP3    H112524   6.608   4.185   0.847  0.5194 -1.1526 -0.8255
 4189TIP3    H212525   6.605   4.332   0.811 -0.1688 -1.3942 -1.7740
 4190TIP3   OH212526   7.319   7.042   0.094 -0.1381 -0.7372  0.1208
 4190TIP3    H112527   7.245   6.985   0.113 -0.5534 -0.3718 -0.3689
 4190TIP3    H212528   7.373   6.992   0.033 -0.4453 -0.6619 -0.2209
 4191TIP3   OH212529   7.393   7.788   2.184  0.5695  0.1048 -0.0022
 4191TIP3    H112530   7.420   7.864   2.132 -0.9667  0.4294 -0.3802
 4191TIP3    H212531   7.307   7.765   2.149  0.8415 -1.5864  0.3694
 4192TIP3   OH212532   1.401   3.121   6.448  0.2411 -0.7177 -0.0002
 4192TIP3    H112533   1.364   3.208   6.458  2.0342 -0.1110  2.2778
 4192TIP3    H212534   1.363   3.087   6.368 -1.1888  1.8051 -0.4724
 4193TIP3   OH212535   7.192   6.797   1.487  0.0526 -0.1381  0.0148
 4193TIP3    H112536   7.271   6.786   1.434 -0.0170 -0.7753  0.0362
 4193TIP3    H212537   7.148   6.872   1.449 -0.6269 -1.3146 -1.6238
 4194TIP3   OH212538   7.319   7.030   1.193  0.1438  0.2935  0.1917
 4194TIP3    H112539   7.339   7.119   1.165  0.7858 -0.3345 -1.4486
 4194TIP3    H212540   7.393   7.006   1.249 -1.3065  1.6697  2.9135
 4195TIP3   OH212541   7.200   5.884   3.071 -0.0616 -0.6811  0.4255
 4195TIP3    H112542   7.124   5.847   3.116  1.1359 -1.0310  2.2899
 4195TIP3    H212543   7.188   5.978   3.079  0.2841 -0.7330  1.8356
 4196TIP3   OH212544   5.268   3.614   0.170  0.3658  0.1679 -0.1696
 4196TIP3    H112545   5.243   3.632   0.261 -0.2008  2.5927 -0.7277
 4196TIP3    H212546   5.279   3.701   0.131  2.5777 -0.8034 -1.9116
 4197TIP3   OH212547   0.194   0.903   6.799 -0.1901  0.1117 -0.5987
 4197TIP3    H112548   0.104   0.930   6.782 -0.1465 -0.3439 -1.6098
 4197TIP3    H212549   0.223   0.864   6.717  1.0918  0.6763 -0.4381
 4198TIP3   OH212550   0.660   4.551   3.573 -0.1036 -0.1230  0.3374
 4198TIP3    H112551   0.585   4.594   3.615 -0.0745 -0.0297  0.2928
 4198TIP3    H212552   0.662   4.464   3.613  0.0614  0.0435  0.6973
 4199TIP3   OH212553   7.966   4.346   6.537 -0.2350 -0.1839 -0.5732
 4199TIP3    H112554   7.896   4.281   6.547 -0.1605 -0.3940 -1.3633
 4199TIP3    H212555   7.972   4.387   6.623  1.7335 -3.2546  0.9473
 4200TIP3   OH212556   3.344   4.920   1.548 -0.8394  0.1515  0.0787
 4200TIP3    H112557   3.437   4.942   1.540 -1.4271  3.5796  0.7338
 4200TIP3    H212558   3.338   4.869   1.629  0.3659  1.0894  0.7933
 4201TIP3   OH212559   5.962   0.363   4.286 -0.4081 -0.1983  0.3367
 4201TIP3    H112560   5.873   0.399   4.277  0.0668  1.1188  0.6942
 4201TIP3    H212561   5.985   0.378   4.377 -0.5504 -2.4027  0.8039
 4202TIP3   OH212562   6.739   0.643   5.585 -0.3984 -0.3442  0.3629
 4202TIP3    H112563   6.664   0.676   5.635  0.5111 -0.1048  1.5970
 4202TIP3    H212564   6.748   0.552   5.613 -0.3715 -0.4500  0.0177
 4203TIP3   OH212565   3.140   2.366   5.286  0.0224  0.8044  0.0325
 4203TIP3    H112566   3.064   2.313   5.310  1.3264 -0.6700  1.0926
 4203TIP3    H212567   3.118   2.403   5.201 -1.0206 -1.3353 -0.7012
 4204TIP3   OH212568   6.606   2.038   4.496 -0.9193 -0.5821 -0.1870
 4204TIP3    H112569   6.682   2.022   4.552 -1.2093 -1.1840  0.0470
 4204TIP3    H212570   6.541   1.975   4.527 -1.7722  0.4188  0.1179
 4205TIP3   OH212571   3.639   4.577   3.107 -0.6415  0.7323 -0.3820
 4205TIP3    H112572   3.566   4.544   3.054 -0.5936  0.0553 -0.0290
 4205TIP3    H212573   3.600   4.597   3.192 -0.3423 -0.0606 -0.0454
 4206TIP3   OH212574   5.489   1.818   1.298 -0.4857  0.2692 -0.0314
 4206TIP3    H112575   5.538   1.899   1.283  1.1156 -0.9994 -2.1407
 4206TIP3    H212576   5.449   1.798   1.213 -1.7337 -0.6432  0.7235
 4207TIP3   OH212577   4.505   0.343   1.238 -0.2937 -0.0261 -0.2484
 4207TIP3    H112578   4.557   0.422   1.257 -0.3212 -0.4033  1.5279
 4207TIP3    H212579   4.414   0.372   1.248 -0.3120 -0.2211  0.1424
 4208TIP3   OH212580   1.557   0.630   0.442  0.5705 -0.2454  0.5333
 4208TIP3    H112581   1.588   0.702   0.387  0.7562  0.6604  1.7817
 4208TIP3    H212582   1.463   0.644   0.451  0.8077  0.6435  1.8672
 4209TIP3   OH212583   4.215   0.664   4.073  0.2526  0.0265  0.4210
 4209TIP3    H112584   4.225   0.585   4.021 -1.0258  0.0519  0.1205
 4209TIP3    H212585   4.128   0.657   4.112 -0.6950  2.1355 -1.1189
 4210TIP3   OH212586   3.316   0.529   1.569  0.5067  0.4352 -0.0681
 4210TIP3    H112587   3.291   0.592   1.501 -1.2535 -1.9508 -1.7908
 4210TIP3    H212588   3.233   0.505   1.610  1.1302 -0.7983  0.5147
 4211TIP3   OH212589   6.584   6.054   3.944  0.1965 -0.1347  0.2209
 4211TIP3    H112590   6.508   6.106   3.917  0.3075  0.1222  0.3993
 4211TIP3    H212591   6.569   5.968   3.906 -0.7890 -0.4443  1.2423
 4212TIP3   OH212592   0.486   0.142   2.147  0.5699  0.7907  0.1611
 4212TIP3    H112593   0.468   0.136   2.241 -0.4298  0.1117 -0.0525
 4212TIP3    H212594   0.562   0.085   2.133 -0.0145 -0.0640  0.3880
 4213TIP3   OH212595   1.747   1.338   5.231 -0.1032 -0.3070  0.1440
 4213TIP3    H112596   1.674   1.306   5.284 -1.1801  0.0179 -1.0825
 4213TIP3    H212597   1.785   1.410   5.282  1.1610 -2.1979  2.0723
 4214TIP3   OH212598   5.880   2.087   3.110 -0.3581  0.4420  0.1278
 4214TIP3    H112599   5.915   2.137   3.036  1.2013 -1.0403 -0.1882
 4214TIP3    H212600   5.824   2.021   3.071 -1.8433  1.4380  0.4995
 4215TIP3   OH212601   7.897   4.027   2.405 -0.0982  0.0470 -0.6730
 4215TIP3    H112602   7.991   4.045   2.415 -0.1983  0.4584 -0.4673
 4215TIP3    H212603   7.854   4.095   2.457 -0.4861 -0.7673  0.1001
 4216TIP3   OH212604   2.769   6.878   0.522 -0.2619  0.1734 -0.3922
 4216TIP3    H112605   2.763   6.973   0.507  0.0224  0.1551 -0.6319
 4216TIP3    H212606   2.690   6.857   0.571 -0.1879  0.5818 -0.0929
 4217TIP3   OH212607   2.910   4.892   3.999  0.0513  0.0505 -0.7156
 4217TIP3    H112608   2.912   4.966   4.060 -0.2088 -1.3691  1.0801
 4217TIP3    H212609   2.990   4.843   4.019 -1.1313 -1.6232  0.0471
 4218TIP3   OH212610   8.126   1.514   5.031 -0.2313 -0.4967  0.4597
 4218TIP3    H112611   8.162   1.549   4.950  1.0595 -0.3224  1.0763
 4218TIP3    H212612   8.068   1.583   5.063  0.1630 -0.0739  0.2776
 4219TIP3   OH212613   6.666   5.997   5.399  0.2212  0.5109  0.3917
 4219TIP3    H112614   6.676   6.012   5.305  0.7107  4.5317  0.8770
 4219TIP3    H212615   6.743   5.945   5.423  0.8602  0.6357 -1.2204
 4220TIP3   OH212616   6.964   5.466   2.635 -0.3275 -0.1718 -0.1024
 4220TIP3    H112617   6.990   5.530   2.569 -0.2419  0.8788  0.9193
 4220TIP3    H212618   6.873   5.446   2.615  0.1911 -1.2391 -1.5986
 4221TIP3   OH212619   2.254   5.872   1.340 -0.2122 -0.1465  0.4867
 4221TIP3    H112620   2.326   5.844   1.396  0.1868  1.8504  1.0354
 4221TIP3    H212621   2.274   5.962   1.318 -1.9998  0.1150 -0.2662
 4222TIP3   OH212622   3.205   5.877   3.108 -0.7240  0.7328 -0.4823
 4222TIP3    H112623   3.206   5.845   3.018  0.8653 -0.7153 -0.0071
 4222TIP3    H212624   3.284   5.931   3.116  0.4669 -1.0670  0.6255
 4223TIP3   OH212625   4.345   6.682   2.801 -0.1072 -0.9708  0.2026
 4223TIP3    H112626   4.359   6.588   2.810  0.3255 -0.8827  0.4614
 4223TIP3    H212627   4.432   6.718   2.785 -0.4638 -0.8119 -1.6606
 4224TIP3   OH212628   6.698   1.463   3.340  0.5803 -0.5501  0.1032
 4224TIP3    H112629   6.688   1.379   3.384 -2.3255 -0.6594 -0.5782
 4224TIP3    H212630   6.704   1.441   3.247  1.0549 -0.0374  0.0025
 4225TIP3   OH212631   6.799   2.971   3.717 -0.3513  0.1206  0.0230
 4225TIP3    H112632   6.725   2.994   3.661 -0.5241 -0.0939  0.1637
 4225TIP3    H212633   6.848   2.906   3.666  0.5878  1.3787 -0.7274
 4226TIP3   OH212634   7.477   5.908   4.283 -0.6633 -0.2850  0.4099
 4226TIP3    H112635   7.493   5.818   4.313  2.5850 -0.7183 -2.1257
 4226TIP3    H212636   7.512   5.910   4.194 -0.1646  3.6480  0.5441
 4227TIP3   OH212637   5.621   2.053   1.223  0.2065  0.0866  0.0434
 4227TIP3    H112638   5.548   2.116   1.229  1.1812  1.1811  1.1111
 4227TIP3    H212639   5.686   2.087   1.285  1.4466 -1.1070 -0.5635
 4228TIP3   OH212640   7.982   0.287   4.500  0.1152 -0.0246 -0.2802
 4228TIP3    H112641   7.957   0.234   4.424  0.8034 -0.5192 -0.1779
 4228TIP3    H212642   7.989   0.376   4.466  0.3562 -0.2313 -0.7859
 4229TIP3   OH212643   1.164   2.925   4.569 -0.6427  0.1621 -0.1292
 4229TIP3    H112644   1.184   2.914   4.476 -3.7291  0.5382 -0.9191
 4229TIP3    H212645   1.131   2.840   4.596 -0.9601  0.4173  0.2882
 4230TIP3   OH212646   7.212   1.471   4.622 -0.7053 -0.0868 -0.0293
 4230TIP3    H112647   7.158   1.418   4.681  0.4375 -0.8485  0.3666
 4230TIP3    H212648   7.289   1.417   4.605  0.7674  1.6218  0.8176
 4231TIP3   OH212649   0.304   4.269   5.767  0.1589 -0.2235 -0.2416
 4231TIP3    H112650   0.318   4.256   5.861  0.7234  0.2385 -0.2517
 4231TIP3    H212651   0.385   4.310   5.737 -0.7035  1.3196 -0.5839
 4232TIP3   OH212652   6.432   1.692   6.802 -0.2006 -0.9458 -0.6538
 4232TIP3    H112653   6.352   1.735   6.772  0.2847  0.0436 -0.5831
 4232TIP3    H212654   6.483   1.677   6.722  0.0780 -0.4450 -0.5714
 4233TIP3   OH212655   6.895   0.115   5.332  0.6295 -0.5798  0.0710
 4233TIP3    H112656   6.963   0.048   5.321  2.0895  1.1039 -2.1246
 4233TIP3    H212657   6.940   0.189   5.374 -0.1939  0.0936 -0.1922
 4234TIP3   OH212658   0.235   4.071   3.057 -0.3087  0.4043  0.0660
 4234TIP3    H112659   0.233   4.088   2.963  1.8504  0.2590 -0.0663
 4234TIP3    H212660   0.186   3.989   3.067  0.3993 -0.2065 -1.1265
 4235TIP3   OH212661   3.013   4.644   6.615  0.0717 -0.1371  0.4288
 4235TIP3    H112662   3.063   4.687   6.684 -0.0078  2.1205 -0.8349
 4235TIP3    H212663   2.941   4.704   6.597 -1.5976 -2.0718  0.3686
 4236TIP3   OH212664   6.814   4.482   0.942 -0.4440  0.1049 -0.2938
 4236TIP3    H112665   6.795   4.391   0.920  0.0760 -0.0613 -0.0543
 4236TIP3    H212666   6.893   4.478   0.994 -0.5110  0.6844 -0.1466
 4237TIP3   OH212667   7.287   6.477   6.174  0.4580  0.0987 -0.0783
 4237TIP3    H112668   7.224   6.489   6.102  0.1936 -2.1325 -0.2997
 4237TIP3    H212669   7.345   6.553   6.168 -1.0764  1.2525 -1.0581
 4238TIP3   OH212670   5.835   1.380   1.561 -0.4248 -0.1784  0.5196
 4238TIP3    H112671   5.879   1.296   1.548  0.0768 -0.1774  2.0195
 4238TIP3    H212672   5.901   1.445   1.537 -0.9050 -0.1725 -0.9184
 4239TIP3   OH212673   6.846   3.877   1.949  0.0921 -0.0490  0.7694
 4239TIP3    H112674   6.827   3.971   1.951  1.4880  0.2690  0.1181
 4239TIP3    H212675   6.792   3.840   2.019 -0.8288  1.1598  0.7316
 4240TIP3   OH212676   6.738   5.079   5.770 -0.0802 -0.1072 -0.0741
 4240TIP3    H112677   6.724   5.062   5.676 -0.5125 -0.1705 -0.0033
 4240TIP3    H212678   6.732   4.992   5.810 -0.3793 -0.0229  0.0667
 4241TIP3   OH212679   0.751   3.132   5.991 -0.3439 -0.4411  0.4850
 4241TIP3    H112680   0.802   3.204   5.954 -1.3597 -0.2967 -0.7226
 4241TIP3    H212681   0.687   3.175   6.048 -0.7845 -0.3806 -0.0386
 4242TIP3   OH212682   2.322   1.943   4.579 -0.4805 -0.9255 -0.6236
 4242TIP3    H112683   2.231   1.960   4.557 -0.3602  1.1894  0.2678
 4242TIP3    H212684   2.319   1.881   4.651 -1.2591 -0.4936 -0.2758
 4243TIP3   OH212685   4.474   6.320   2.028  0.2887  0.4358  0.1456
 4243TIP3    H112686   4.532   6.358   2.093  1.0153  1.3259 -0.9784
 4243TIP3    H212687   4.407   6.387   2.013 -0.9437 -0.4810  1.2485
 4244TIP3   OH212688   0.327   2.019   2.089 -0.4197 -0.2852  0.2773
 4244TIP3    H112689   0.313   2.038   1.997 -0.2762  0.5122  0.4185
 4244TIP3    H212690   0.337   2.104   2.131 -1.0145 -0.6118  1.1169
 4245TIP3   OH212691   4.336   0.928   2.739 -0.5202 -0.2010  0.5215
 4245TIP3    H112692   4.355   0.835   2.754  0.6731  0.0799  0.7824
 4245TIP3    H212693   4.395   0.975   2.797 -1.2266  0.7377  0.5150
 4246TIP3   OH212694   2.486   5.229   4.009  0.0223  0.6239  0.2962
 4246TIP3    H112695   2.404   5.201   3.969  0.6445 -0.1815 -0.4602
 4246TIP3    H212696   2.535   5.148   4.024  2.1647  1.2242 -2.5760
 4247TIP3   OH212697   2.567   2.363   5.435  0.6900  0.4568  0.0004
 4247TIP3    H112698   2.533   2.435   5.488  0.5961  1.1121 -0.9240
 4247TIP3    H212699   2.662   2.366   5.447  0.6984  0.8404 -0.1681
 4248TIP3   OH212700   7.901   0.313   5.839 -0.2445  0.0266  0.1419
 4248TIP3    H112701   7.855   0.328   5.921  0.5750 -2.7726  1.2266
 4248TIP3    H212702   7.948   0.395   5.822  1.9739 -0.2012  4.0926
 4249TIP3   OH212703   3.166   3.662   1.878 -0.0456 -0.2010 -0.2747
 4249TIP3    H112704   3.126   3.743   1.909 -0.4037 -0.8323  0.9956
 4249TIP3    H212705   3.242   3.650   1.935  0.4138 -0.3997 -0.9148
 4250TIP3   OH212706   7.398   1.107   3.297  0.0052 -0.5118 -0.0296
 4250TIP3    H112707   7.390   1.107   3.201  0.9011  0.9377 -0.1367
 4250TIP3    H212708   7.479   1.061   3.314  1.9310  2.5023 -0.2811
 4251TIP3   OH212709   7.877   0.256   3.178 -0.1851  0.1060  0.0989
 4251TIP3    H112710   7.961   0.214   3.196 -0.3629 -0.8231 -1.1160
 4251TIP3    H212711   7.819   0.223   3.246  0.7928  2.1382  2.0762
 4252TIP3   OH212712   4.127   4.903   3.978 -0.2020 -0.2093  0.4447
 4252TIP3    H112713   4.158   4.826   4.027 -1.4310 -2.1787 -1.6607
 4252TIP3    H212714   4.053   4.935   4.028 -0.7918 -1.5296  0.4662
 4253TIP3   OH212715   7.644   1.465   3.040  0.6439 -0.1797 -0.2932
 4253TIP3    H112716   7.614   1.456   2.949  0.7646 -1.0675 -0.2576
 4253TIP3    H212717   7.735   1.493   3.032  0.6553 -0.2597 -0.4541
 4254TIP3   OH212718   3.637   0.492   5.050  0.1413 -0.0532  0.2797
 4254TIP3    H112719   3.620   0.472   5.142 -2.7440 -1.0117 -0.3560
 4254TIP3    H212720   3.605   0.581   5.038 -2.3270 -0.9296 -0.3299
 4255TIP3   OH212721   1.307   1.241   0.366 -0.1677  0.6151 -0.1419
 4255TIP3    H112722   1.315   1.164   0.421  3.0314 -0.1258 -1.4006
 4255TIP3    H212723   1.394   1.281   0.368 -0.9747  2.6549 -1.6907
 4256TIP3   OH212724   2.572   4.015   5.565 -0.8067  0.3625  0.4152
 4256TIP3    H112725   2.619   4.098   5.575 -1.4096  0.7448  0.1895
 4256TIP3    H212726   2.626   3.951   5.610  0.1309  0.7086 -0.1947
 4257TIP3   OH212727   0.917   7.129   2.591  0.2506  0.3655 -0.1163
 4257TIP3    H112728   0.963   7.082   2.660  0.8764  0.6170 -0.3507
 4257TIP3    H212729   0.978   7.127   2.516 -1.1996 -1.6264 -1.3306
 4258TIP3   OH212730   4.456   0.631   6.404 -0.0375  0.0584 -0.2212
 4258TIP3    H112731   4.362   0.636   6.391 -0.0272  0.2089 -0.2424
 4258TIP3    H212732   4.480   0.543   6.377 -0.1192  0.1387 -0.5608
 4259TIP3   OH212733   0.701   5.017   6.321 -0.5508 -0.1225 -0.1023
 4259TIP3    H112734   0.791   5.017   6.353 -0.4722 -0.6004 -0.3162
 4259TIP3    H212735   0.661   4.941   6.364 -0.9257  0.2366  0.1929
 4260TIP3   OH212736   7.376   4.649   3.194 -0.2689  0.2368 -0.4394
 4260TIP3    H112737   7.453   4.706   3.201 -1.3215  1.6148  0.5939
 4260TIP3    H212738   7.395   4.592   3.119  0.3110  2.8418 -2.4443
 4261TIP3   OH212739   2.307   1.347   2.638  0.6813  0.7938  0.2188
 4261TIP3    H112740   2.344   1.412   2.698  0.6587  0.5534  0.4928
 4261TIP3    H212741   2.348   1.265   2.663 -1.4108  0.1422  1.7889
 4262TIP3   OH212742   2.496   3.112   2.805  0.0905 -0.2685  0.1072
 4262TIP3    H112743   2.463   3.138   2.719  1.2853 -2.2802 -1.0413
 4262TIP3    H212744   2.426   3.133   2.866 -1.1538  0.3776 -1.4966
 4263TIP3   OH212745   0.657   7.166   0.200  0.6919 -0.0605 -0.6117
 4263TIP3    H112746   0.744   7.152   0.237  0.7703 -0.6305 -1.0042
 4263TIP3    H212747   0.639   7.259   0.216  1.1869 -0.0422 -0.1407
 4264TIP3   OH212748   0.934   6.538   4.014 -0.6603  0.1135 -0.1998
 4264TIP3    H112749   0.910   6.452   4.048 -2.3689  0.7681  0.3299
 4264TIP3    H212750   0.888   6.546   3.931  0.2803  0.1503 -0.7389
 4265TIP3   OH212751   4.069   7.278   6.263 -0.2380  0.1455  0.1001
 4265TIP3    H112752   4.122   7.253   6.339  0.0321  1.2427  0.3017
 4265TIP3    H212753   4.090   7.213   6.196 -0.9911 -1.2381  1.1706
 4266TIP3   OH212754   4.506   0.574   1.811 -0.3873  0.3081  0.4052
 4266TIP3    H112755   4.520   0.552   1.719 -0.5280  0.2323  0.4019
 4266TIP3    H212756   4.536   0.496   1.859 -1.6393 -0.2229  0.3569
 4267TIP3   OH212757   4.493   6.981   3.760 -0.0376 -0.2343 -0.3334
 4267TIP3    H112758   4.563   6.982   3.695 -0.5183 -0.8744 -0.8859
 4267TIP3    H212759   4.531   7.019   3.839  0.3328  1.3146 -1.2249
 4268TIP3   OH212760   6.817   1.284   1.560  0.8091  0.0182  0.2193
 4268TIP3    H112761   6.854   1.304   1.646  2.6644 -1.2871 -0.2247
 4268TIP3    H212762   6.751   1.352   1.546  2.9571  2.4542  1.1371
 4269TIP3   OH212763   7.875   3.072   1.168  0.7849 -0.1019 -0.4502
 4269TIP3    H112764   7.889   2.982   1.198 -1.9386 -0.1656  0.9360
 4269TIP3    H212765   7.924   3.126   1.230  1.8359 -0.5559 -0.8562
 4270TIP3   OH212766   5.479   5.733   0.829 -0.4326 -0.4662  0.2366
 4270TIP3    H112767   5.555   5.774   0.787 -2.2038  1.7151 -1.0956
 4270TIP3    H212768   5.472   5.777   0.914  0.4818 -1.5985  0.9308
 4271TIP3   OH212769   3.476   3.436   2.712  0.2799  0.0147 -0.1517
 4271TIP3    H112770   3.551   3.495   2.725  0.1652 -0.4773  4.0888
 4271TIP3    H212771   3.415   3.459   2.782 -0.4325 -4.0762  0.8000
 4272TIP3   OH212772   5.783   4.269   0.004 -0.1025  0.4605  0.0755
 4272TIP3    H112773   5.838   4.223   0.068 -0.9311 -0.7412 -0.0440
 4272TIP3    H212774   5.738   4.200  -0.043 -3.3156  1.3496  1.5474
 4273TIP3   OH212775   1.129   5.853   5.847  0.2870  0.2547  0.2847
 4273TIP3    H112776   1.062   5.788   5.824  0.9823 -0.7401  1.0057
 4273TIP3    H212777   1.203   5.801   5.880  1.4347  1.3238 -0.5049
 4274TIP3   OH212778   2.113   7.744   6.003 -0.0628 -0.0979 -0.2918
 4274TIP3    H112779   2.024   7.709   5.998 -0.4823  0.9616 -0.5871
 4274TIP3    H212780   2.122   7.796   5.924  0.5437  0.4183  0.1084
 4275TIP3   OH212781   7.077   2.979   6.699  0.1736  0.4332  0.0053
 4275TIP3    H112782   7.100   2.928   6.777  0.3263  0.0671 -0.2765
 4275TIP3    H212783   7.112   3.067   6.717 -2.8831  1.4205  1.9289
 4276TIP3   OH212784   5.937   6.312   3.001  0.2927 -0.0374 -0.3874
 4276TIP3    H112785   5.948   6.227   3.042  1.3971  0.3556  0.1599
 4276TIP3    H212786   5.917   6.292   2.909  0.7341 -0.8834 -0.3051
 4277TIP3   OH212787   0.425   0.406   0.680 -0.4230 -0.1690 -0.2261
 4277TIP3    H112788   0.422   0.486   0.733 -0.1538  1.5867 -2.6805
 4277TIP3    H212789   0.347   0.410   0.626  0.7231 -0.3725 -1.9675
 4278TIP3   OH212790   3.378   2.880   5.883  0.0392  0.2925  0.4015
 4278TIP3    H112791   3.439   2.833   5.941  0.7006  2.1942  1.3433
 4278TIP3    H212792   3.297   2.884   5.933  0.0485  0.3165  0.4149
 4279TIP3   OH212793   4.529   0.786   4.586 -0.0731  0.3805  0.2952
 4279TIP3    H112794   4.576   0.709   4.617  0.3990  0.2747 -0.6400
 4279TIP3    H212795   4.442   0.754   4.563  1.0113 -0.6240 -3.0467
 4280TIP3   OH212796   0.179   4.787   2.701 -0.0779 -0.0832  0.0139
 4280TIP3    H112797   0.182   4.698   2.666  0.2946 -0.8869  1.9976
 4280TIP3    H212798   0.095   4.821   2.671 -0.0175 -0.9034 -1.1787
 4281TIP3   OH212799   1.557   6.556   1.746  0.2435  0.3965 -0.4687
 4281TIP3    H112800   1.500   6.627   1.774 -0.8164 -0.7334  0.3690
 4281TIP3    H212801   1.498   6.483   1.727  1.2718 -0.1936 -1.5678
 4282TIP3   OH212802   6.739   5.138   1.911  0.6669 -0.3889 -0.4518
 4282TIP3    H112803   6.715   5.209   1.970  0.7899 -0.8813  0.1982
 4282TIP3    H212804   6.830   5.118   1.932  1.2885  0.5932 -2.0166
 4283TIP3   OH212805   2.030   2.468   5.703  0.5180  0.3317  0.2018
 4283TIP3    H112806   2.018   2.561   5.725 -0.3216  1.1502 -3.1585
 4283TIP3    H212807   1.944   2.439   5.675  1.3253 -0.6468 -1.4110
 4284TIP3   OH212808   3.151   5.519   5.069 -0.5064 -0.5872  0.4477
 4284TIP3    H112809   3.221   5.481   5.123 -0.5526 -0.2130  0.7710
 4284TIP3    H212810   3.081   5.538   5.131 -0.2740  0.5409  0.3791
 4285TIP3   OH212811   6.589   3.339   3.065  0.1838 -0.2961  0.2582
 4285TIP3    H112812   6.618   3.354   3.155  2.2167  1.5562 -0.5983
 4285TIP3    H212813   6.506   3.386   3.057  1.0839  1.4360  0.6238
 4286TIP3   OH212814   7.382   6.574   4.057 -0.1105  0.4944 -0.1216
 4286TIP3    H112815   7.444   6.533   3.996 -2.6897 -2.6460 -0.9836
 4286TIP3    H212816   7.418   6.558   4.143  0.0080 -2.0119 -0.5603
 4287TIP3   OH212817   0.615   1.232   6.066  0.2348  0.5545  0.0760
 4287TIP3    H112818   0.578   1.146   6.045 -0.2716  0.8953 -0.4558
 4287TIP3    H212819   0.653   1.221   6.153  1.9338 -0.7587 -0.7820
 4288TIP3   OH212820   4.211   0.874   6.643 -0.0025 -0.4285  0.2232
 4288TIP3    H112821   4.130   0.851   6.598  0.5392 -0.2440 -0.8798
 4288TIP3    H212822   4.243   0.952   6.597  0.3509  0.0449  1.2183
 4289TIP3   OH212823   6.849   0.646   0.179  0.1970 -0.3264 -0.7144
 4289TIP3    H112824   6.886   0.560   0.198 -1.3304 -0.8143  0.2791
 4289TIP3    H212825   6.764   0.645   0.223  0.5649  2.0657  0.1827
 4290TIP3   OH212826   1.118   6.577   2.251 -0.2920 -0.3382 -0.1096
 4290TIP3    H112827   1.036   6.626   2.258 -0.1808 -0.0159 -0.9900
 4290TIP3    H212828   1.187   6.642   2.267 -0.1845 -0.5099  0.1411
 4291TIP3   OH212829   0.385   5.986   4.573 -0.0416 -0.2832 -0.3020
 4291TIP3    H112830   0.462   5.987   4.516  1.1872 -1.4215  1.2409
 4291TIP3    H212831   0.394   5.905   4.624 -1.8339 -0.0268  0.4906
 4292TIP3   OH212832   1.351   7.213   0.886 -0.2340 -0.2637 -0.0203
 4292TIP3    H112833   1.344   7.221   0.791 -0.3338 -1.4464 -0.1333
 4292TIP3    H212834   1.445   7.216   0.904 -0.0780 -1.9803 -0.3839
 4293TIP3   OH212835   5.778   4.593   6.688  0.4832  0.1860  0.8044
 4293TIP3    H112836   5.815   4.635   6.610 -1.2692  1.8223  0.7707
 4293TIP3    H212837   5.841   4.610   6.757  1.1891  0.3182  0.1412
 4294TIP3   OH212838   6.779   6.049   2.073  0.6095 -0.0576  0.9622
 4294TIP3    H112839   6.873   6.050   2.052  0.6052  0.2245  0.9517
 4294TIP3    H212840   6.743   6.122   2.024 -0.0341 -1.5535 -0.8948
 4295TIP3   OH212841   4.356   3.455   6.000  0.4503 -0.0299 -0.2030
 4295TIP3    H112842   4.308   3.526   5.956 -0.9919 -1.5497 -1.2414
 4295TIP3    H212843   4.371   3.487   6.088  0.4766  1.8345 -0.8442
 4296TIP3   OH212844   4.455   5.644   3.574  0.0328 -0.0041  0.4110
 4296TIP3    H112845   4.536   5.634   3.523 -0.1139 -0.8401  0.3228
 4296TIP3    H212846   4.467   5.587   3.650 -0.4688 -0.1291  0.4017
 4297TIP3   OH212847   3.368   4.400   4.192  0.5096 -0.3776 -0.4214
 4297TIP3    H112848   3.421   4.376   4.268  0.1887  2.6275  0.9013
 4297TIP3    H212849   3.278   4.395   4.223  0.2322 -1.2522 -1.3232
 4298TIP3   OH212850   6.895   3.600   4.628 -0.1827  0.1952 -0.7400
 4298TIP3    H112851   6.907   3.567   4.717  0.6907 -0.4747 -1.0991
 4298TIP3    H212852   6.800   3.615   4.621 -0.3461 -0.3912  0.0694
 4299TIP3   OH212853   7.980   3.731   2.347 -0.2831 -0.3086  0.1680
 4299TIP3    H112854   7.950   3.652   2.393 -1.0666  0.2415  0.6116
 4299TIP3    H212855   7.906   3.755   2.291  0.5814 -0.8635 -1.2896
 4300TIP3   OH212856   7.412   0.217   1.392  0.8746  0.3689 -0.1862
 4300TIP3    H112857   7.341   0.193   1.451 -1.1175  0.6885 -2.2898
 4300TIP3    H212858   7.491   0.198   1.440 -0.6288 -0.1073  2.2563
 4301TIP3   OH212859   4.003   6.196   4.383 -0.5497  0.5054  0.3806
 4301TIP3    H112860   3.950   6.191   4.304 -1.0604  0.2931  0.7276
 4301TIP3    H212861   3.989   6.285   4.416 -0.1896  0.6550  0.1363
 4302TIP3   OH212862   6.687   1.078   2.750  0.3288 -0.1487  0.2633
 4302TIP3    H112863   6.649   1.123   2.826  1.0884 -0.3353  0.7662
 4302TIP3    H212864   6.702   0.989   2.780 -0.4037 -0.5361 -0.4761
 4303TIP3   OH212865   5.690   5.744   1.376 -0.1170 -0.2340  0.2967
 4303TIP3    H112866   5.768   5.733   1.321  0.0613 -1.7214  0.7811
 4303TIP3    H212867   5.719   5.717   1.463 -0.8704  0.3514  0.7335
 4304TIP3   OH212868   5.334   0.566   5.331  0.0798  0.3345 -0.3269
 4304TIP3    H112869   5.245   0.586   5.360 -0.2295  0.6010 -1.3987
 4304TIP3    H212870   5.350   0.476   5.360 -0.6360  0.1985 -0.3480
 4305TIP3   OH212871   3.770   0.577   2.703 -0.2759  0.5947 -0.7434
 4305TIP3    H112872   3.849   0.606   2.747 -1.1268  0.4786  0.9542
 4305TIP3    H212873   3.781   0.482   2.695 -1.0375  0.2762  1.3159
 4306TIP3   OH212874   1.441   2.616   1.405 -0.4751  0.0807  0.1039
 4306TIP3    H112875   1.486   2.559   1.466 -1.1660 -1.5027 -0.8120
 4306TIP3    H212876   1.362   2.568   1.379 -1.8772  2.0713  0.4096
 4307TIP3   OH212877   1.378   0.424   6.516 -0.3081 -0.8844 -0.1257
 4307TIP3    H112878   1.289   0.456   6.529 -0.4010 -0.9027 -0.7029
 4307TIP3    H212879   1.367   0.332   6.491 -0.1025 -1.0152  0.2460
 4308TIP3   OH212880   2.261   7.213   4.745 -0.0361 -0.0793 -0.1207
 4308TIP3    H112881   2.337   7.209   4.803 -0.5566 -0.6268  0.5337
 4308TIP3    H212882   2.298   7.231   4.658  0.7263  1.1330  0.4284
 4309TIP3   OH212883   3.122   1.407   6.450  0.8653 -0.7532  0.2495
 4309TIP3    H112884   3.064   1.371   6.383  1.0446  2.3850 -1.7340
 4309TIP3    H212885   3.063   1.443   6.516  0.6478 -0.8549  0.1116
 4310TIP3   OH212886   4.119   0.319   3.357 -0.1280  0.1927  0.1787
 4310TIP3    H112887   4.150   0.408   3.341 -3.1958  1.7237  1.9713
 4310TIP3    H212888   4.157   0.295   3.441 -1.9903  1.2367  1.3624
 4311TIP3   OH212889   2.063   6.093   1.744 -0.3226  0.3365 -0.3146
 4311TIP3    H112890   1.979   6.048   1.730 -0.8982  1.0090  0.7600
 4311TIP3    H212891   2.055   6.174   1.694 -0.9922  1.1474  1.0507
 4312TIP3   OH212892   7.647   6.194   6.221 -0.1855 -0.1553  0.0615
 4312TIP3    H112893   7.581   6.219   6.286 -0.3741 -0.8135  0.1315
 4312TIP3    H212894   7.636   6.257   6.150 -0.9988 -0.3581  0.0013
 4313TIP3   OH212895   8.209   0.618   2.668 -0.3662 -0.7789  0.0604
 4313TIP3    H112896   8.301   0.612   2.691 -0.8177 -0.8466  2.0245
 4313TIP3    H212897   8.204   0.584   2.579  2.0113  2.6103 -1.5986
 4314TIP3   OH212898   6.275   0.353   2.217 -0.7080 -0.4920 -0.2419
 4314TIP3    H112899   6.203   0.340   2.154 -1.8491  0.7197  0.7468
 4314TIP3    H212900   6.324   0.427   2.182  0.9865 -2.1610 -1.6534
 4315TIP3   OH212901   2.381   1.540   5.793 -0.5547 -0.3954 -0.0322
 4315TIP3    H112902   2.477   1.542   5.795 -0.5613  1.9068  1.3963
 4315TIP3    H212903   2.357   1.461   5.840  0.6667  0.1138  1.5106
 4316TIP3   OH212904   5.970   7.866   5.202 -0.1109 -0.3447 -0.1774
 4316TIP3    H112905   6.049   7.844   5.251 -0.2749 -0.4647  0.0341
 4316TIP3    H212906   5.921   7.784   5.197 -1.1573  0.1342  1.4103
 4317TIP3   OH212907   1.518   0.190   2.436  0.4732 -0.5363 -0.2664
 4317TIP3    H112908   1.569   0.263   2.401  0.4523 -0.4958 -0.2131
 4317TIP3    H212909   1.575   0.114   2.424  0.8903 -0.3703  0.5239
 4318TIP3   OH212910   7.962   4.974   4.237 -0.0901 -0.0320 -0.6714
 4318TIP3    H112911   7.991   5.007   4.152  0.8182 -0.2841 -0.4720
 4318TIP3    H212912   8.041   4.938   4.277  0.0140  2.0183  1.1975
 4319TIP3   OH212913   3.658   1.827   3.382  0.3795 -0.0377  0.2428
 4319TIP3    H112914   3.581   1.874   3.412  1.2855 -0.0087  2.8063
 4319TIP3    H212915   3.677   1.863   3.296 -0.5021  2.4098  0.9870
 4320TIP3   OH212916   4.744   6.537   2.106  0.5679  0.1838 -0.2749
 4320TIP3    H112917   4.821   6.563   2.157 -0.7011  0.8943  1.3769
 4320TIP3    H212918   4.748   6.591   2.027  1.8017  0.1326 -0.2650
 4321TIP3   OH212919   6.903   4.062   5.680  0.3157 -0.2427 -0.1961
 4321TIP3    H112920   6.887   4.017   5.597 -0.3634 -0.5234  0.0773
 4321TIP3    H212921   6.864   4.005   5.746  0.9831 -0.1027  0.3412
 4322TIP3   OH212922   3.517   5.657   3.078  0.1357  0.4550 -0.3239
 4322TIP3    H112923   3.574   5.587   3.111 -0.4900  0.4927  0.8974
 4322TIP3    H212924   3.493   5.628   2.990  2.9384  0.9967 -1.3725
 4323TIP3   OH212925   3.913   2.803   3.328 -0.4066  0.3784  0.2277
 4323TIP3    H112926   3.911   2.898   3.341 -3.8126  0.2568  1.6305
 4323TIP3    H212927   3.827   2.782   3.292 -0.6524 -2.4066  2.1305
 4324TIP3   OH212928   2.613   6.700   5.141  0.3259  0.0762 -0.4085
 4324TIP3    H112929   2.626   6.607   5.125  0.2344 -0.1141  0.5985
 4324TIP3    H212930   2.610   6.739   5.053 -2.8739 -1.2814 -1.0249
 4325TIP3   OH212931   6.978   5.599   3.781  0.3847 -0.7610 -0.2381
 4325TIP3    H112932   7.052   5.660   3.777 -1.5489  1.7785 -0.2319
 4325TIP3    H212933   6.959   5.578   3.690  0.2480 -0.2785 -0.3217
 4326TIP3   OH212934   6.484   6.252   0.408  0.3925 -0.3105  0.1341
 4326TIP3    H112935   6.430   6.233   0.486  0.3251 -1.5949 -0.1902
 4326TIP3    H212936   6.551   6.184   0.410  0.6497 -0.0813 -0.6985
 4327TIP3   OH212937   6.140   7.120   0.084  0.4331  0.0462  0.2021
 4327TIP3    H112938   6.209   7.151   0.143 -0.7778  0.8900  1.2215
 4327TIP3    H212939   6.188   7.089   0.007  1.9095  2.6623 -0.0892
 4328TIP3   OH212940   0.600   1.910   1.229  0.2198  0.1311 -0.3289
 4328TIP3    H112941   0.536   1.980   1.239  0.2121 -0.0840  1.5165
 4328TIP3    H212942   0.548   1.830   1.223  0.2678  0.1214 -0.6030
 4329TIP3   OH212943   5.312   1.466   2.623  0.3470 -0.2121  0.4968
 4329TIP3    H112944   5.391   1.484   2.675  0.5584 -0.3768  0.2362
 4329TIP3    H212945   5.313   1.371   2.610  1.0247 -0.0334 -0.9468
 4330TIP3   OH212946   6.609   7.295   5.125  0.2170  0.1109 -0.0467
 4330TIP3    H112947   6.658   7.365   5.083  1.9157 -0.2388  1.2579
 4330TIP3    H212948   6.545   7.340   5.180  1.1188  0.6737  0.5750
 4331TIP3   OH212949   5.452   4.372   6.092  0.7578 -0.6322 -0.3596
 4331TIP3    H112950   5.508   4.300   6.121  1.2647  0.1888  0.8054
 4331TIP3    H212951   5.513   4.443   6.071  0.2219 -0.1904 -0.4524
 4332TIP3   OH212952   6.108   2.276   4.096 -0.1472 -0.6155  0.0372
 4332TIP3    H112953   6.044   2.229   4.150 -0.1978 -1.2761 -0.5727
 4332TIP3    H212954   6.127   2.356   4.144 -1.3243 -0.4796  0.2990
 4333TIP3   OH212955   4.739   7.534   6.063 -0.2219  0.0085 -0.1265
 4333TIP3    H112956   4.687   7.603   6.023 -2.1912 -0.7927  0.8567
 4333TIP3    H212957   4.798   7.579   6.123 -0.8209  0.8912 -0.1934
 4334TIP3   OH212958   2.783   4.782   6.579 -0.1465 -0.2306 -0.2496
 4334TIP3    H112959   2.761   4.797   6.670  0.2515  0.8980 -0.3245
 4334TIP3    H212960   2.708   4.734   6.543 -0.6206 -0.0562  0.4954
 4335TIP3   OH212961   2.878   2.734   0.884  0.5194 -0.1647 -0.0185
 4335TIP3    H112962   2.790   2.771   0.873  1.1739  1.4613 -0.0692
 4335TIP3    H212963   2.931   2.778   0.817  1.6470 -0.1222  0.8711
 4336TIP3   OH212964   2.746   0.836   2.113  0.3947 -1.0115  0.0842
 4336TIP3    H112965   2.742   0.923   2.153 -1.9836 -0.3797 -1.3560
 4336TIP3    H212966   2.718   0.777   2.183  0.4872 -0.4476  0.6092
 4337TIP3   OH212967   6.561   5.445   3.714  0.1794 -0.4773  0.0992
 4337TIP3    H112968   6.623   5.469   3.645 -0.3415 -1.4511 -0.7359
 4337TIP3    H212969   6.596   5.486   3.793  0.9165  0.4746 -0.6931
 4338TIP3   OH212970   4.708   1.748   1.949 -0.3091  0.0193 -0.4130
 4338TIP3    H112971   4.676   1.749   1.859 -1.9992 -0.2136  0.1505
 4338TIP3    H212972   4.685   1.834   1.984 -1.8760 -0.7226  0.4910
 4339TIP3   OH212973   6.054   7.324   0.397 -0.0872 -0.1405 -0.3029
 4339TIP3    H112974   6.004   7.250   0.432  0.6608 -0.2681  0.5183
 4339TIP3    H212975   6.039   7.395   0.460  2.6523 -0.8661  1.3320
 4340TIP3   OH212976   6.119   7.751   4.870 -0.2727 -0.2226  0.3177
 4340TIP3    H112977   6.069   7.682   4.826 -1.1919  0.6520 -0.0324
 4340TIP3    H212978   6.202   7.753   4.822 -1.9017  1.9647 -2.7432
 4341TIP3   OH212979   5.241   5.749   6.669 -0.3439  0.1133 -0.3808
 4341TIP3    H112980   5.281   5.755   6.582 -1.3431  0.9780 -0.8064
 4341TIP3    H212981   5.314   5.733   6.728  0.1531 -2.3731 -1.5671
 4342TIP3   OH212982   6.238   3.633   3.814 -0.7881  0.2556  0.0440
 4342TIP3    H112983   6.147   3.623   3.844 -0.4150 -0.0450  1.1117
 4342TIP3    H212984   6.279   3.689   3.881 -0.1659  0.3385 -0.4010
 4343TIP3   OH212985   3.901   5.289   2.169 -0.1207  0.4429  0.0954
 4343TIP3    H112986   3.866   5.325   2.087  1.2305  0.1799 -0.6197
 4343TIP3    H212987   3.968   5.353   2.196  2.5506 -1.5277 -1.3650
 4344TIP3   OH212988   5.932   6.750   0.182 -0.3230  0.2339 -0.0915
 4344TIP3    H112989   6.013   6.771   0.137  0.3751  1.4043  1.6004
 4344TIP3    H212990   5.865   6.754   0.114  0.9253 -0.1036 -1.3952
 4345TIP3   OH212991   3.068   7.455   2.111 -0.3753 -0.4753  0.1038
 4345TIP3    H112992   3.106   7.368   2.124  0.2541 -0.1045  0.8396
 4345TIP3    H212993   3.143   7.511   2.089 -0.2105  0.5295  2.7761
 4346TIP3   OH212994   4.099   4.428   1.924  0.1542  0.1424  0.1935
 4346TIP3    H112995   4.104   4.334   1.907 -1.3381  0.3323 -1.6913
 4346TIP3    H212996   4.038   4.436   1.998 -1.4744 -0.3276 -1.0379
 4347TIP3   OH212997   4.998   1.814   0.819  0.0171  0.1414 -0.2461
 4347TIP3    H112998   5.008   1.792   0.726 -2.1020 -1.0378 -0.2492
 4347TIP3    H212999   5.058   1.756   0.865  1.2342  0.8764 -0.8471
 4348TIP3   OH213000   6.465   0.673   0.510 -0.8933  0.1194 -0.2202
 4348TIP3    H113001   6.438   0.594   0.557  1.0984 -0.7302 -0.3736
 4348TIP3    H213002   6.496   0.732   0.579 -0.4533 -0.0697 -0.2524
 4349TIP3   OH213003   6.047   3.261   2.997  0.2444  0.2962 -0.0941
 4349TIP3    H113004   6.029   3.168   3.009  2.1177 -0.5695 -3.1290
 4349TIP3    H213005   6.104   3.284   3.070  3.9184 -2.3498 -1.8318
 4350TIP3   OH213006   5.903   5.534   4.506  0.6357  0.3541  0.2242
 4350TIP3    H113007   5.849   5.598   4.460 -0.5530 -0.9961 -0.3376
 4350TIP3    H213008   5.991   5.572   4.505 -0.1067  2.1516  0.2986
 4351TIP3   OH213009   6.589   4.570   0.999  0.0381 -0.4836  0.1753
 4351TIP3    H113010   6.543   4.503   1.049  0.8890 -0.8268  0.5100
 4351TIP3    H213011   6.677   4.534   0.986  0.2797  0.2541 -0.2692
 4352TIP3   OH213012   1.175   6.611   5.964 -0.3515 -0.3415 -0.7199
 4352TIP3    H113013   1.103   6.640   5.907 -0.4389 -0.2554 -0.5655
 4352TIP3    H213014   1.251   6.606   5.905 -0.3570  0.1065 -0.7683
 4353TIP3   OH213015   7.537   3.268   1.625  0.3758  0.2223  0.0864
 4353TIP3    H113016   7.472   3.206   1.657  1.1382 -0.9851 -0.6357
 4353TIP3    H213017   7.571   3.229   1.545  0.2225  2.0330 -0.9137
 4354TIP3   OH213018   6.412   2.176   1.142 -0.5306 -0.2935 -0.8428
 4354TIP3    H113019   6.492   2.123   1.140 -0.1698  0.0126  1.6262
 4354TIP3    H213020   6.438   2.261   1.106  0.4136 -0.0660  0.2977
 4355TIP3   OH213021   5.587   5.188   3.587  0.2939 -0.0356  0.1508
 4355TIP3    H113022   5.613   5.106   3.630 -0.2931 -0.2273  0.1587
 4355TIP3    H213023   5.630   5.257   3.637  0.2536 -0.3025  0.5560
 4356TIP3   OH213024   2.781   4.120   4.382 -0.1877 -0.2174 -0.4845
 4356TIP3    H113025   2.706   4.142   4.438  0.9048  0.2735  0.8387
 4356TIP3    H213026   2.858   4.145   4.434  0.8949 -0.4844 -1.9067
 4357TIP3   OH213027   0.447   6.023   2.749  0.0899  0.7999 -0.2259
 4357TIP3    H113028   0.386   6.067   2.690 -0.2037 -0.0064 -0.5430
 4357TIP3    H213029   0.504   5.973   2.690 -0.2076 -0.0193  0.1653
 4358TIP3   OH213030   2.404   6.112   1.269 -0.0423  0.2072 -0.3055
 4358TIP3    H113031   2.455   6.034   1.247 -0.8033 -0.6527  0.8735
 4358TIP3    H213032   2.401   6.162   1.187 -0.4231 -1.5097 -1.4081
 4359TIP3   OH213033   4.685   4.498   3.468  0.3830 -0.1613  0.0481
 4359TIP3    H113034   4.716   4.565   3.529  1.8510  0.9058 -1.7888
 4359TIP3    H213035   4.763   4.451   3.442 -0.1809 -0.4842 -1.1410
 4360TIP3   OH213036   2.309   0.123   5.081  0.3933  0.2989 -0.2124
 4360TIP3    H113037   2.283   0.088   5.166 -0.8947 -0.5631 -0.9242
 4360TIP3    H213038   2.245   0.086   5.020  2.1540 -0.2650 -1.7681
 4361TIP3   OH213039   4.092   6.720   2.273 -0.1675  0.5713 -0.6187
 4361TIP3    H113040   4.081   6.626   2.290 -1.3323  0.4103 -2.0708
 4361TIP3    H213041   4.110   6.758   2.359  0.1497 -0.9529  0.0184
 4362TIP3   OH213042   5.628   0.782   1.460  0.6869  0.1250  0.0439
 4362TIP3    H113043   5.689   0.789   1.386  2.3422 -0.4314  1.3023
 4362TIP3    H213044   5.667   0.836   1.529 -0.1296 -0.4312  0.9697
 4363TIP3   OH213045   0.985   5.287   4.515  0.2404 -0.0727  0.4693
 4363TIP3    H113046   0.947   5.233   4.445  2.3446 -1.2588  0.1307
 4363TIP3    H213047   1.033   5.224   4.570 -0.9950  0.8983  2.7684
 4364TIP3   OH213048   5.047   6.788   2.929  0.1367  0.2735 -0.0822
 4364TIP3    H113049   5.044   6.852   3.001 -2.4100  1.1568 -0.8385
 4364TIP3    H213050   4.955   6.768   2.912  0.7370 -0.9167 -2.2330
 4365TIP3   OH213051   4.256   0.193   1.649  0.3629  0.2698 -0.1021
 4365TIP3    H113052   4.265   0.236   1.734 -1.6394 -0.4423  0.5249
 4365TIP3    H213053   4.317   0.120   1.652 -1.7380 -1.5534  2.0006
 4366TIP3   OH213054   8.188   5.355   0.365  0.0893 -0.3656  0.4529
 4366TIP3    H113055   8.177   5.290   0.297 -0.2732 -0.5575  0.6949
 4366TIP3    H213056   8.252   5.316   0.425 -0.8625 -0.9216  1.1172
 4367TIP3   OH213057   1.542   1.371   0.372 -0.0482 -0.3421  0.1404
 4367TIP3    H113058   1.618   1.322   0.342  1.4371 -0.0316  2.9780
 4367TIP3    H213059   1.575   1.459   0.390 -1.2261  0.0068  0.7496
 4368TIP3   OH213060   5.961   1.874   1.431 -0.0362  0.1119 -0.5547
 4368TIP3    H113061   5.915   1.847   1.511  0.6772 -0.3012 -0.2718
 4368TIP3    H213062   6.014   1.949   1.458 -0.7228  0.7447 -0.9401
 4369TIP3   OH213063   8.023   2.658   4.346 -0.1006  0.5026  0.9088
 4369TIP3    H113064   8.087   2.693   4.284 -1.0725  1.9411  0.6736
 4369TIP3    H213065   8.068   2.659   4.430  1.2941 -1.6157  0.2862
 4370TIP3   OH213066   4.360   0.886   0.285 -0.1887  0.1949 -0.1391
 4370TIP3    H113067   4.292   0.819   0.277 -1.0024  1.1129 -1.2619
 4370TIP3    H213068   4.439   0.846   0.248 -0.4503 -0.4259 -0.0293
 4371TIP3   OH213069   3.135   7.239   6.684  0.4687  0.4962 -0.3210
 4371TIP3    H113070   3.076   7.312   6.664  0.1392  0.7007  1.2267
 4371TIP3    H213071   3.171   7.213   6.600 -1.1946  0.9167 -1.2158
 4372TIP3   OH213072   0.164   6.452   3.772 -0.8552 -0.7402  0.0645
 4372TIP3    H113073   0.259   6.445   3.762 -0.4942 -1.7591  3.1348
 4372TIP3    H213074   0.130   6.453   3.683  2.0274 -0.2381 -1.1163
 4373TIP3   OH213075   3.673   3.604   2.745 -0.2103 -0.2913 -0.0278
 4373TIP3    H113076   3.613   3.679   2.750 -0.2986 -0.4326  2.4798
 4373TIP3    H213077   3.737   3.620   2.814  0.8298 -1.6607 -0.6362
 4374TIP3   OH213078   3.222   1.810   0.464 -0.1726  0.1293 -0.9216
 4374TIP3    H113079   3.210   1.847   0.551 -0.6344 -1.0515 -0.4660
 4374TIP3    H213080   3.317   1.807   0.452 -0.1059  0.2417 -0.4293
 4375TIP3   OH213081   1.988   0.568   5.712  0.3277  0.1489 -0.3603
 4375TIP3    H113082   2.067   0.603   5.753  0.1757 -0.1144  0.1570
 4375TIP3    H213083   2.020   0.503   5.650  0.4497 -1.0703  0.9453
 4376TIP3   OH213084   6.334   0.568   6.404  0.4287  0.1803 -0.2248
 4376TIP3    H113085   6.303   0.512   6.333 -0.5184 -1.3342  1.2933
 4376TIP3    H213086   6.347   0.653   6.364 -1.4617 -0.2528 -1.9227
 4377TIP3   OH213087   6.002   4.103   2.297 -0.6374  0.2364 -0.4168
 4377TIP3    H113088   5.925   4.053   2.322 -0.2351 -0.0646  0.2261
 4377TIP3    H213089   6.073   4.040   2.297  0.2540  1.1087  2.2520
 4378TIP3   OH213090   0.090   2.097   1.083  0.5174  0.4484  0.0732
 4378TIP3    H113091   0.119   2.179   1.043 -2.4441  1.6527  0.0967
 4378TIP3    H213092   0.069   2.040   1.009 -2.1141  1.6088 -0.2212
 4379TIP3   OH213093   3.802   6.708   1.039 -0.2479  0.4745 -0.0098
 4379TIP3    H113094   3.712   6.689   1.064  0.0275 -0.4437  0.3227
 4379TIP3    H213095   3.855   6.654   1.097  0.5708  1.8903  0.5961
 4380TIP3   OH213096   2.765   5.272   5.970  0.0091 -0.1673 -0.3375
 4380TIP3    H113097   2.851   5.299   6.003  0.4524 -1.6519 -0.1840
 4380TIP3    H213098   2.721   5.235   6.047 -1.6900  2.5916  0.1237
 4381TIP3   OH213099   4.698   1.353   4.908 -0.3187  0.2548 -0.4911
 4381TIP3    H113100   4.635   1.407   4.859 -0.3562  1.1726  0.5351
 4381TIP3    H213101   4.707   1.397   4.992  3.1486  1.3103 -1.2222
 4382TIP3   OH213102   6.314   0.908   4.550 -0.0734 -0.1212 -0.0165
 4382TIP3    H113103   6.256   0.970   4.506  0.4001 -0.7316 -1.5937
 4382TIP3    H213104   6.255   0.853   4.602 -0.6318  0.7612  0.3155
 4383TIP3   OH213105   3.606   2.907   0.069  0.3003 -0.0656 -0.3588
 4383TIP3    H113106   3.632   2.990   0.109 -1.3388  0.6843 -0.7747
 4383TIP3    H213107   3.534   2.930   0.010  0.0921 -1.7239 -0.8049
 4384TIP3   OH213108   3.620   6.347   4.295 -0.3941 -0.3202  0.1284
 4384TIP3    H113109   3.691   6.410   4.284 -0.8730 -0.1605 -2.5216
 4384TIP3    H213110   3.543   6.400   4.317 -0.2933 -0.2145  0.2236
 4385TIP3   OH213111   5.586   6.414   2.886 -0.2311 -0.4607 -0.4940
 4385TIP3    H113112   5.547   6.353   2.948  1.5975 -0.5808  0.6106
 4385TIP3    H213113   5.627   6.481   2.941  1.3487 -0.5127 -1.5422
 4386TIP3   OH213114   3.628   6.062   1.439 -0.0517  0.0607  0.1838
 4386TIP3    H113115   3.545   6.066   1.392 -0.1213  2.6300  0.3628
 4386TIP3    H213116   3.689   6.021   1.378 -1.1788 -0.8750 -0.3499
 4387TIP3   OH213117   2.429   4.731   5.661  0.1594 -0.2110  0.4639
 4387TIP3    H113118   2.353   4.788   5.649  0.2793  0.0942  1.1172
 4387TIP3    H213119   2.416   4.693   5.748 -0.1029 -1.4562 -0.0979
 4388TIP3   OH213120   2.538   3.662   0.858  0.1453  0.3421  0.1527
 4388TIP3    H113121   2.609   3.705   0.904 -0.2748 -0.7250  1.8839
 4388TIP3    H213122   2.471   3.730   0.849  1.4182  1.4433 -1.7571
 4389TIP3   OH213123   7.685   1.643   5.788 -0.1614  0.4740  0.4168
 4389TIP3    H113124   7.694   1.607   5.700 -2.8028 -0.2744  0.3599
 4389TIP3    H213125   7.737   1.585   5.844 -0.8214 -0.8206 -0.2767
 4390TIP3   OH213126   7.162   5.618   3.310  0.1548 -0.0527  0.2399
 4390TIP3    H113127   7.206   5.697   3.341  0.4632 -0.1380  0.0154
 4390TIP3    H213128   7.214   5.588   3.236  0.7768 -1.1725  1.1010
 4391TIP3   OH213129   6.669   1.610   6.605  0.0732  0.3038  0.8101
 4391TIP3    H113130   6.760   1.597   6.575 -0.5953  0.5541 -1.5774
 4391TIP3    H213131   6.628   1.524   6.592 -0.8835  1.0357 -1.7198
 4392TIP3   OH213132   4.616   1.606   5.054  0.5444 -0.4510 -0.1719
 4392TIP3    H113133   4.682   1.671   5.078  0.8670 -1.0647  0.6891
 4392TIP3    H213134   4.556   1.652   4.995  0.9326  0.5258  0.1748
 4393TIP3   OH213135   4.850   0.245   2.730 -0.0738  0.1512  0.0135
 4393TIP3    H113136   4.762   0.253   2.766  1.3078  0.4714  3.6648
 4393TIP3    H213137   4.881   0.336   2.721 -0.1574  0.0617 -1.6582
 4394TIP3   OH213138   1.784   3.136   5.008  0.0490  0.0004  0.5372
 4394TIP3    H113139   1.812   3.115   4.919  1.4995 -0.1042  0.9775
 4394TIP3    H213140   1.861   3.116   5.062 -0.4521  1.0332  1.6807
 4395TIP3   OH213141   2.487   7.561   1.240 -0.5114 -0.6917 -0.3716
 4395TIP3    H113142   2.393   7.579   1.239 -0.2815  1.0495  1.7628
 4395TIP3    H213143   2.517   7.597   1.323  1.8602 -2.3427 -0.4168
 4396TIP3   OH213144   2.022   7.342   4.755  0.2713  0.4289  0.3132
 4396TIP3    H113145   2.110   7.321   4.786  0.1118  0.9399  1.1298
 4396TIP3    H213146   2.021   7.311   4.664  0.9135 -0.6307  0.6403
 4397TIP3   OH213147   1.715   3.882   5.576  0.5580 -0.3437 -0.5647
 4397TIP3    H113148   1.635   3.896   5.526  1.1440 -1.1311 -1.7765
 4397TIP3    H213149   1.756   3.806   5.534  1.4549 -0.5561  0.6453
 4398TIP3   OH213150   6.171   5.490   3.167 -0.6284 -0.1676 -0.1359
 4398TIP3    H113151   6.227   5.434   3.114  0.4198  0.2545  0.4804
 4398TIP3    H213152   6.159   5.569   3.114  1.3189  0.7160  0.6177
 4399TIP3   OH213153   3.143   2.367   2.510 -0.5198  0.6320  0.2049
 4399TIP3    H113154   3.179   2.306   2.574 -1.2949 -0.6165 -0.5058
 4399TIP3    H213155   3.182   2.451   2.533  0.1943 -0.0218  1.5233
 4400TIP3   OH213156   3.865   6.747   4.622 -0.0123 -0.0419  0.2741
 4400TIP3    H113157   3.860   6.656   4.650 -0.0716 -0.2234 -0.3056
 4400TIP3    H213158   3.922   6.790   4.686  1.5808 -0.9034 -0.5060
 4401TIP3   OH213159   7.663   3.792   4.223  0.2116 -0.3206 -0.6868
 4401TIP3    H113160   7.743   3.792   4.170  1.8083  0.9167  1.5237
 4401TIP3    H213161   7.650   3.700   4.247  1.3651 -0.4693 -0.5716
 4402TIP3   OH213162   6.220   6.831   3.769 -0.4107 -0.1732  0.6308
 4402TIP3    H113163   6.223   6.770   3.842 -1.2614  0.2391  1.0175
 4402TIP3    H213164   6.139   6.879   3.780 -0.2802  0.2910 -0.2734
 4403TIP3   OH213165   0.213   0.959   4.434 -0.3300  0.4806  0.1944
 4403TIP3    H113166   0.168   1.024   4.381  1.3685  1.6345  0.0637
 4403TIP3    H213167   0.262   0.906   4.371 -2.2196 -1.4583  0.2322
 4404TIP3   OH213168   8.308   4.468   2.475 -0.1955  0.3858  0.0368
 4404TIP3    H113169   8.234   4.521   2.506 -0.4965 -0.0163  0.0065
 4404TIP3    H213170   8.268   4.387   2.443  0.2839  0.0339  0.3169
 4405TIP3   OH213171   4.733   3.979   0.765 -0.4192  0.1469  0.5957
 4405TIP3    H113172   4.744   4.061   0.813  0.5447 -0.1451  0.9132
 4405TIP3    H213173   4.762   3.911   0.826 -1.1698 -0.4276  0.3267
 4406TIP3   OH213174   7.759   2.101   0.608 -0.1568  0.0600 -0.2731
 4406TIP3    H113175   7.849   2.081   0.584  0.0445  1.0076 -0.3343
 4406TIP3    H213176   7.706   2.043   0.552  0.3881  0.2729 -1.0281
 4407TIP3   OH213177   4.458   6.736   5.027  0.0688  0.5650  0.2386
 4407TIP3    H113178   4.510   6.776   4.957  0.3856  0.9590  0.6932
 4407TIP3    H213179   4.373   6.718   4.986 -0.0069  1.5105 -0.0384
 4408TIP3   OH213180   0.233   7.237   5.900  0.2491  0.2300  0.4463
 4408TIP3    H113181   0.157   7.216   5.846  2.5052 -0.4756 -2.7766
 4408TIP3    H213182   0.240   7.163   5.962  0.2554 -1.5917 -1.6110
 4409TIP3   OH213183   0.324   6.197   2.543 -0.0021  0.2550 -0.4480
 4409TIP3    H113184   0.333   6.107   2.510  0.5141  0.5672 -1.2011
 4409TIP3    H213185   0.289   6.246   2.468  0.0192  0.7469 -0.1386
 4410TIP3   OH213186   6.313   2.329   3.637  0.1874  0.0471 -0.3294
 4410TIP3    H113187   6.399   2.291   3.615  0.4178  0.7149 -0.5950
 4410TIP3    H213188   6.300   2.399   3.573  0.0918  0.8947  0.5899
 4411TIP3   OH213189   2.143   6.575   0.405 -0.2426 -0.0621  0.1534
 4411TIP3    H113190   2.126   6.668   0.425  0.7342  0.6591 -2.0613
 4411TIP3    H213191   2.165   6.536   0.490  1.9042  2.3299  0.8245
 4412TIP3   OH213192   7.702   1.901   3.599 -0.3321  0.2568 -0.2709
 4412TIP3    H113193   7.791   1.904   3.564 -0.3062 -1.7074 -0.4818
 4412TIP3    H213194   7.649   1.870   3.526 -0.8111 -0.7377  0.4740
 4413TIP3   OH213195   3.367   5.851   3.615  0.1648 -0.4431 -0.2406
 4413TIP3    H113196   3.299   5.804   3.664 -0.4499 -0.1970 -0.8303
 4413TIP3    H213197   3.323   5.878   3.534  1.3685 -1.5788 -1.3233
 4414TIP3   OH213198   2.456   0.587   3.215  0.3075 -0.4095 -0.0102
 4414TIP3    H113199   2.477   0.518   3.278 -0.6975  0.5657  1.4743
 4414TIP3    H213200   2.364   0.608   3.232 -0.2781 -0.7123 -2.4548
 4415TIP3   OH213201   6.049   4.486   6.236 -0.2827  0.4235 -0.3742
 4415TIP3    H113202   5.987   4.413   6.247  0.5523 -0.5067 -1.6577
 4415TIP3    H213203   6.031   4.521   6.149 -0.8045  1.9340  0.2936
 4416TIP3   OH213204   5.549   2.460   5.628  0.4473  0.1810  0.3077
 4416TIP3    H113205   5.643   2.456   5.648  0.8773  2.5219 -0.7776
 4416TIP3    H213206   5.524   2.550   5.651 -1.1183  0.1106 -0.9419
 4417TIP3   OH213207   2.479   0.815   5.191  0.2925  0.1020  0.3970
 4417TIP3    H113208   2.530   0.796   5.112  0.2691 -0.2986  0.4775
 4417TIP3    H213209   2.419   0.885   5.165  0.8911  0.5947  0.3020
 4418TIP3   OH213210   0.365   1.950   0.344  0.0188 -0.1209 -0.0551
 4418TIP3    H113211   0.294   1.954   0.280 -0.1377  0.7687  0.1675
 4418TIP3    H213212   0.431   1.895   0.302 -0.8996 -1.1789 -0.1584
 4419TIP3   OH213213   6.075   3.114   5.567  0.0067 -0.1419 -0.1718
 4419TIP3    H113214   6.081   3.121   5.662 -0.5166 -2.0199  0.0415
 4419TIP3    H213215   6.025   3.191   5.540  1.6755  1.3750  0.8485
 4420TIP3   OH213216   6.957   5.499   2.929 -0.5294 -0.0514  0.5020
 4420TIP3    H113217   6.928   5.567   2.868 -1.3897 -0.9434 -0.1243
 4420TIP3    H213218   6.889   5.432   2.924  1.1366 -1.7975 -0.2830
 4421TIP3   OH213219   5.800   2.191   6.673  0.0172 -1.1369 -0.1189
 4421TIP3    H113220   5.756   2.212   6.590  1.2326 -1.1770 -0.7832
 4421TIP3    H213221   5.764   2.105   6.698 -1.2102 -0.6161  0.0191
 4422TIP3   OH213222   2.030   6.632   3.112 -0.0905  0.3842 -0.5422
 4422TIP3    H113223   2.061   6.570   3.045  0.5501  0.7068 -0.5471
 4422TIP3    H213224   2.099   6.699   3.117  1.0698 -0.8373  2.0809
 4423TIP3   OH213225   6.978   0.776   4.089 -0.1829 -0.0436 -0.0400
 4423TIP3    H113226   6.914   0.798   4.157  1.6439  1.9012  1.1422
 4423TIP3    H213227   6.941   0.815   4.009 -1.3876 -0.6424  0.1935
 4424TIP3   OH213228   4.627   7.197   2.022  0.0742 -0.2164  0.2073
 4424TIP3    H113229   4.569   7.143   1.969  1.9125 -0.1924 -1.9549
 4424TIP3    H213230   4.636   7.279   1.974  1.6245 -0.0996  0.6180
 4425TIP3   OH213231   7.056   5.576   2.409 -0.1350 -0.1791 -0.0743
 4425TIP3    H113232   7.014   5.519   2.345  0.2064  1.3117 -1.7022
 4425TIP3    H213233   7.149   5.570   2.387 -0.2756  2.8927 -2.0133
 4426TIP3   OH213234   3.976   1.727   3.401 -0.5196 -0.2493  0.9314
 4426TIP3    H113235   4.009   1.804   3.354 -0.3047 -0.1730  1.2094
 4426TIP3    H213236   3.918   1.684   3.338  0.3603 -0.5668  0.3195
 4427TIP3   OH213237   8.135   2.405   6.141 -0.6451 -0.0963 -0.1146
 4427TIP3    H113238   8.083   2.482   6.162  0.5522  0.7605 -0.1910
 4427TIP3    H213239   8.077   2.351   6.088 -1.4010  0.9061 -0.3408
 4428TIP3   OH213240   7.327   3.137   0.582 -0.1046  0.2318 -0.0588
 4428TIP3    H113241   7.238   3.111   0.606 -0.2281  0.9163  0.2558
 4428TIP3    H213242   7.342   3.097   0.497  0.1636 -1.8545  0.9228
 4429TIP3   OH213243   6.946   0.467   4.005  0.8328 -0.2931  0.0898
 4429TIP3    H113244   6.955   0.425   4.090  1.7329 -0.0052  0.1523
 4429TIP3    H213245   6.930   0.559   4.026 -1.2884 -0.5822 -0.0415
 4430TIP3   OH213246   2.334   5.969   4.406  0.4787  0.3061 -0.0852
 4430TIP3    H113247   2.249   5.974   4.448  0.9954  0.4901  0.9662
 4430TIP3    H213248   2.320   6.007   4.319 -0.9250 -1.3612 -0.6358
 4431TIP3   OH213249   8.096   3.506   0.198 -0.2501 -0.0759 -0.0887
 4431TIP3    H113250   8.079   3.519   0.105  1.0612 -0.4129 -0.3969
 4431TIP3    H213251   8.130   3.416   0.204 -2.2356 -0.8116  0.9980
 4432TIP3   OH213252   2.183   0.767   5.399 -0.3053  0.2182  0.2522
 4432TIP3    H113253   2.272   0.740   5.421  0.0096  1.3542  0.4297
 4432TIP3    H213254   2.189   0.862   5.388 -1.2765  0.1739 -0.8137
 4433TIP3   OH213255   4.823   6.642   4.112  0.2696  0.0979 -0.0615
 4433TIP3    H113256   4.865   6.565   4.074 -0.2308  0.0156 -0.4582
 4433TIP3    H213257   4.796   6.694   4.037 -0.0782  0.2888  0.1926
 4434TIP3   OH213258   5.031   3.830   0.492 -0.4103  0.0794 -0.2730
 4434TIP3    H113259   4.988   3.754   0.532 -0.0591 -0.0598 -0.1601
 4434TIP3    H213260   5.030   3.811   0.398 -2.2733  0.9264 -0.4728
 4435TIP3   OH213261   1.175   0.333   2.543  0.1770  0.0127 -0.1686
 4435TIP3    H113262   1.203   0.281   2.468  0.2252  0.7218 -0.6533
 4435TIP3    H213263   1.193   0.424   2.517  1.7959  0.1869  1.3526
 4436TIP3   OH213264   7.697   7.595   2.159 -0.3755  0.0627 -0.4782
 4436TIP3    H113265   7.772   7.623   2.211 -0.7585 -0.3272  0.2980
 4436TIP3    H213266   7.626   7.585   2.222 -0.8560 -0.4051 -1.0775
 4437TIP3   OH213267   6.118   1.649   2.676  0.3182  0.0466  0.1813
 4437TIP3    H113268   6.028   1.665   2.649  0.5112  0.5603 -0.1630
 4437TIP3    H213269   6.111   1.622   2.768 -0.0476  1.7126  0.6716
 4438TIP3   OH213270   4.972   1.283   0.060  0.8279  0.0023 -0.3312
 4438TIP3    H113271   4.918   1.222   0.110  0.2294 -0.3341 -1.3867
 4438TIP3    H213272   5.050   1.295   0.115  0.1086 -0.2080  0.7781
 4439TIP3   OH213273   7.187   3.279   6.274  0.7503 -0.5057  0.3709
 4439TIP3    H113274   7.264   3.304   6.326  0.8486  0.2215 -0.1004
 4439TIP3    H213275   7.149   3.205   6.321  0.8111  0.1556  1.5050
 4440TIP3   OH213276   5.317   5.789   6.356  0.0946 -0.2318 -0.3903
 4440TIP3    H113277   5.282   5.845   6.286  1.1457 -0.5535 -1.1989
 4440TIP3    H213278   5.391   5.838   6.391  0.1890 -0.5297 -0.1743
 4441TIP3   OH213279   2.060   5.503   2.888 -0.5383 -0.0632 -0.3760
 4441TIP3    H113280   2.014   5.519   2.806 -0.8982 -0.1016 -0.1832
 4441TIP3    H213281   1.991   5.504   2.955 -0.1078  1.2558  0.0933
 4442TIP3   OH213282   2.705   3.816   4.667 -1.0885 -0.0166  0.5404
 4442TIP3    H113283   2.668   3.746   4.722 -1.4054 -0.4608 -0.2194
 4442TIP3    H213284   2.766   3.862   4.724 -0.4622 -1.2580  0.9002
 4443TIP3   OH213285   5.127   4.809   5.961  0.2264  0.4388  0.0196
 4443TIP3    H113286   5.156   4.879   6.020  1.8141  0.0704 -0.2801
 4443TIP3    H213287   5.120   4.852   5.876  0.3986  0.4098 -0.0088
 4444TIP3   OH213288   2.973   1.081   6.015  0.0047  0.4388 -0.4197
 4444TIP3    H113289   2.987   1.006   5.957  0.6586  1.3890 -1.5351
 4444TIP3    H213290   3.036   1.146   5.985  0.2560  1.0261  1.2828
 4445TIP3   OH213291   4.838   1.971   4.878  0.0917 -0.0546 -0.3115
 4445TIP3    H113292   4.829   2.044   4.816  0.2943 -0.1992 -0.5084
 4445TIP3    H213293   4.848   1.894   4.823  1.0588 -0.0889 -0.1007
 4446TIP3   OH213294   2.414   4.425   4.283 -0.0967  0.0270 -0.2126
 4446TIP3    H113295   2.341   4.426   4.221  0.4664  1.5650 -0.8747
 4446TIP3    H213296   2.372   4.435   4.369 -0.8358 -1.6334 -0.3401
 4447TIP3   OH213297   3.205   1.288   5.264  0.0560  0.5670 -0.4050
 4447TIP3    H113298   3.285   1.338   5.278 -0.8089  1.8123  0.2354
 4447TIP3    H213299   3.189   1.294   5.169 -0.1936  1.7870 -0.3020
 4448TIP3   OH213300   0.291   6.392   2.297  0.0812  0.2924  0.7543
 4448TIP3    H113301   0.267   6.451   2.368 -0.4724  0.4286  0.4517
 4448TIP3    H213302   0.245   6.425   2.220 -1.9812 -1.7533  1.0148
 4449TIP3   OH213303   4.149   3.520   6.401  0.3202 -0.4650 -0.1344
 4449TIP3    H113304   4.057   3.522   6.375  0.1414 -0.5865  0.4799
 4449TIP3    H213305   4.195   3.569   6.333  0.1863 -2.7139 -1.9623
 4450TIP3   OH213306   7.738   6.574   4.429 -0.4741 -0.3700 -0.4781
 4450TIP3    H113307   7.703   6.662   4.442 -2.4162 -1.3591  1.6311
 4450TIP3    H213308   7.824   6.576   4.471 -0.7462  0.3990  0.0670
 4451TIP3   OH213309   4.525   1.008   6.696 -0.1424 -0.3518  0.2103
 4451TIP3    H113310   4.483   1.081   6.651 -2.1022 -2.4195 -1.6103
 4451TIP3    H213311   4.608   1.043   6.728 -1.7682  3.1036  1.0834
 4452TIP3   OH213312   0.267   5.097   4.057  0.6629 -0.8589 -0.2920
 4452TIP3    H113313   0.267   5.014   4.106  0.0160 -1.6947 -1.6555
 4452TIP3    H213314   0.222   5.076   3.975  2.3698  0.2822 -1.5886
 4453TIP3   OH213315   0.095   6.588   0.696  0.4193  0.0794 -0.3454
 4453TIP3    H113316   0.054   6.674   0.704 -1.2399 -0.6950  0.1539
 4453TIP3    H213317   0.121   6.582   0.605 -1.4900  0.2947 -0.9624
 4454TIP3   OH213318   1.026   2.432   0.228  0.1317  0.5357 -0.1392
 4454TIP3    H113319   0.954   2.431   0.165  1.4768 -1.6170 -1.7583
 4454TIP3    H213320   1.031   2.343   0.261  1.5390  0.8486  0.5820
 4455TIP3   OH213321   7.847   5.776   1.855 -0.4725  0.0890  0.2904
 4455TIP3    H113322   7.799   5.793   1.774 -1.4183 -0.2740  0.7550
 4455TIP3    H213323   7.932   5.817   1.842 -1.2364  1.5740 -0.1979
 4456TIP3   OH213324   1.699   0.539   3.410  0.7566  0.0300  0.3617
 4456TIP3    H113325   1.779   0.488   3.406  1.4172  0.9468  1.4749
 4456TIP3    H213326   1.707   0.592   3.489 -0.3904  1.0426 -0.1563
 4457TIP3   OH213327   0.485   4.160   3.416  0.0684 -0.4101  0.1649
 4457TIP3    H113328   0.576   4.157   3.386 -0.3653 -0.3769 -1.2227
 4457TIP3    H213329   0.491   4.149   3.511  1.3345 -3.3416 -0.1629
 4458TIP3   OH213330   0.849   0.385   4.576 -0.0870  0.3000 -0.2651
 4458TIP3    H113331   0.882   0.460   4.625 -0.1852 -0.1090  0.4413
 4458TIP3    H213332   0.893   0.391   4.491  4.6866 -2.1127  1.6575
 4459TIP3   OH213333   6.001   7.575   3.348 -0.2275 -0.0069 -0.0665
 4459TIP3    H113334   5.976   7.528   3.428 -0.2333  0.4527  0.2057
 4459TIP3    H213335   6.069   7.635   3.377  0.9287 -0.9658 -0.7271
 4460TIP3   OH213336   0.567   5.216   6.607  0.2012  0.0677  0.1628
 4460TIP3    H113337   0.627   5.277   6.650 -0.0643  0.2009  0.3453
 4460TIP3    H213338   0.496   5.271   6.575  0.2305 -0.0763 -0.1526
 4461TIP3   OH213339   4.461   6.836   2.298  0.2838 -0.1389 -0.3291
 4461TIP3    H113340   4.474   6.741   2.300 -2.6475 -0.5986  1.2199
 4461TIP3    H213341   4.482   6.866   2.386 -2.0240  0.0741  0.2054
 4462TIP3   OH213342   3.388   3.417   5.035  0.4210 -0.0790  0.1768
 4462TIP3    H113343   3.334   3.350   4.992  0.8256 -0.3649  0.1058
 4462TIP3    H213344   3.430   3.371   5.108  1.1434 -0.0544 -0.2116
 4463TIP3   OH213345   4.290   5.740   4.622  0.5853  0.4255  0.1170
 4463TIP3    H113346   4.266   5.760   4.532  0.6298  1.3403  0.2970
 4463TIP3    H213347   4.209   5.710   4.663  0.6549 -0.3797 -0.3313
 4464TIP3   OH213348   0.984   0.404   2.739  0.4048  0.3727 -0.2419
 4464TIP3    H113349   0.938   0.325   2.769  0.4001 -0.0710 -1.3803
 4464TIP3    H213350   1.039   0.374   2.667  0.5702  1.3668 -0.5422
 4465TIP3   OH213351   3.997   5.435   3.556  0.2325  0.1451 -0.2372
 4465TIP3    H113352   3.956   5.507   3.604 -1.2078 -0.4269 -0.5777
 4465TIP3    H213353   4.071   5.476   3.510 -0.7606  1.4892 -0.6970
 4466TIP3   OH213354   6.111   1.558   0.765  0.2280 -0.0306 -0.0670
 4466TIP3    H113355   6.097   1.652   0.755  0.0183 -0.0808 -0.2549
 4466TIP3    H213356   6.103   1.542   0.859 -1.5682 -0.1434 -0.2082
 4467TIP3   OH213357   7.261   1.536   2.539 -0.1776  0.3595 -0.0144
 4467TIP3    H113358   7.247   1.453   2.584 -1.9988  0.3969 -0.4343
 4467TIP3    H213359   7.356   1.545   2.535  0.0539 -1.2743  0.8083
 4468TIP3   OH213360   1.809   6.414   5.538  0.7018  0.3529 -0.1759
 4468TIP3    H113361   1.868   6.468   5.590  0.6208 -0.0434  0.3395
 4468TIP3    H213362   1.865   6.345   5.501  0.1670 -1.8264  2.7318
 4469TIP3   OH213363   2.641   0.502   6.152 -0.0630  0.4499  0.1759
 4469TIP3    H113364   2.638   0.571   6.087  0.5961  0.8326  0.5425
 4469TIP3    H213365   2.664   0.423   6.103 -2.1186  0.1757 -0.4707
 4470TIP3   OH213366   6.920   7.243   5.148  0.5567  0.0903 -0.1793
 4470TIP3    H113367   6.837   7.199   5.170  1.3904 -0.8373  1.2927
 4470TIP3    H213368   6.930   7.229   5.054 -0.9754  0.2642 -0.4046
 4471TIP3   OH213369   4.825   6.104   5.506  0.2184 -0.0583  0.4044
 4471TIP3    H113370   4.742   6.066   5.475  0.4908  0.7838 -1.4995
 4471TIP3    H213371   4.891   6.039   5.484  0.3683  0.3951 -0.5492
 4472TIP3   OH213372   6.176   1.205   4.944  0.1799  0.2809  0.7173
 4472TIP3    H113373   6.188   1.120   4.902 -2.6712 -0.3023  0.9232
 4472TIP3    H213374   6.178   1.268   4.872 -0.0290 -0.2060  0.2844
 4473TIP3   OH213375   3.523   4.680   5.638 -0.4061  0.2381 -0.4276
 4473TIP3    H113376   3.542   4.751   5.577  1.0622  1.3260  1.2092
 4473TIP3    H213377   3.574   4.606   5.606 -0.8491  0.3183 -1.3573
 4474TIP3   OH213378   1.653   1.847   5.919 -0.2843  0.3914  0.0723
 4474TIP3    H113379   1.607   1.792   5.856 -1.6517 -0.4320  1.6836
 4474TIP3    H213380   1.740   1.807   5.926 -0.2555  0.2536 -0.9514
 4475TIP3   OH213381   1.454   1.433   3.623  0.1414 -0.7814 -0.2923
 4475TIP3    H113382   1.505   1.424   3.703  1.5231  1.1601 -0.8880
 4475TIP3    H213383   1.513   1.408   3.552  0.4491  1.6652 -1.0100
 4476TIP3   OH213384   2.016   1.996   3.299 -0.5390 -0.4925  0.4103
 4476TIP3    H113385   2.075   2.013   3.225  0.2839 -0.5025  1.0465
 4476TIP3    H213386   1.930   1.986   3.259 -0.0928 -0.5932 -0.5580
 4477TIP3   OH213387   3.800   4.756   4.717 -0.2430  0.0674  0.2184
 4477TIP3    H113388   3.706   4.774   4.717 -0.3025  0.0478  2.3844
 4477TIP3    H213389   3.812   4.689   4.649 -1.6666  0.5765 -0.5667
 4478TIP3   OH213390   5.428   1.483   4.153  0.2304  0.1704 -0.0395
 4478TIP3    H113391   5.440   1.570   4.116  0.8041 -0.0834 -0.4743
 4478TIP3    H213392   5.486   1.427   4.101 -1.3117 -0.7677 -0.8192
 4479TIP3   OH213393   7.128   5.375   1.568  0.5104 -0.7260  0.2249
 4479TIP3    H113394   7.144   5.281   1.571  0.3018 -0.7985 -0.7493
 4479TIP3    H213395   7.040   5.383   1.530  1.1186 -0.0968 -1.1065
 4480TIP3   OH213396   5.524   3.510   3.314 -0.2738 -0.2294  0.5051
 4480TIP3    H113397   5.447   3.520   3.258 -0.0113 -0.5939  0.0696
 4480TIP3    H213398   5.491   3.519   3.403 -0.5929  1.0061  0.2747
 4481TIP3   OH213399   1.264   2.729   2.663  0.4510  0.3446  0.1751
 4481TIP3    H113400   1.222   2.725   2.749  2.2765 -0.5593  1.0891
 4481TIP3    H213401   1.324   2.654   2.663 -0.7563 -0.7547 -2.6003
 4482TIP3   OH213402   7.450   2.148   1.426 -0.5078 -0.5005  0.3133
 4482TIP3    H113403   7.406   2.232   1.434  0.4134 -0.1050  1.5195
 4482TIP3    H213404   7.466   2.120   1.516  0.8451 -1.0586 -0.0638
 4483TIP3   OH213405   0.861   5.582   4.297  0.0455  0.7137 -0.0666
 4483TIP3    H113406   0.847   5.515   4.230  0.9259  0.8105 -0.3624
 4483TIP3    H213407   0.909   5.537   4.367 -1.4419  0.4454  0.8175
 4484TIP3   OH213408   7.178   1.644   4.405 -0.0647 -0.5726 -0.4014
 4484TIP3    H113409   7.171   1.569   4.465 -0.6195 -0.8012 -0.7416
 4484TIP3    H213410   7.151   1.609   4.320  1.5656 -0.4780 -0.9867
 4485TIP3   OH213411   1.918   6.008   4.113  0.5318 -0.3655  0.2058
 4485TIP3    H113412   1.894   5.938   4.174 -1.9675  0.1276 -0.1028
 4485TIP3    H213413   1.938   5.962   4.032 -0.2271 -0.8088  0.2557
 4486TIP3   OH213414   6.036   5.819   4.220 -0.3402 -0.0987 -0.2933
 4486TIP3    H113415   5.954   5.862   4.198 -0.8591 -0.9143 -0.0047
 4486TIP3    H213416   6.095   5.890   4.246 -0.7674  0.5437 -1.0523
 4487TIP3   OH213417   4.351   0.289   2.938 -0.5281 -0.8193  0.5791
 4487TIP3    H113418   4.345   0.267   3.031 -2.0476  0.6108  0.8699
 4487TIP3    H213419   4.340   0.206   2.893  0.3206 -1.5464  1.6684
 4488TIP3   OH213420   1.114   4.165   1.260  0.1161  0.2927 -0.2269
 4488TIP3    H113421   1.148   4.247   1.224 -1.0465  0.2866 -1.4061
 4488TIP3    H213422   1.151   4.097   1.204 -0.5935  0.1804 -0.5755
 4489TIP3   OH213423   6.449   1.835   1.498 -0.1240  0.0488  0.3971
 4489TIP3    H113424   6.508   1.834   1.574  0.5010  0.0897 -0.0805
 4489TIP3    H213425   6.382   1.771   1.519  0.3217 -0.3043  0.7763
 4490TIP3   OH213426   2.419   1.282   5.448  0.1254  0.1647  0.3383
 4490TIP3    H113427   2.335   1.275   5.494  0.6891  1.6887  1.7229
 4490TIP3    H213428   2.408   1.230   5.369 -1.3195 -1.6289  1.6256
 4491TIP3   OH213429   3.053   7.251   6.175 -0.2928  0.1545  0.2768
 4491TIP3    H113430   2.968   7.294   6.159  1.1605  4.6173  2.7731
 4491TIP3    H213431   3.040   7.200   6.254 -0.6844  0.8074  0.6407
 4492TIP3   OH213432   5.421   6.875   2.037  0.1874  0.2311 -0.0667
 4492TIP3    H113433   5.390   6.853   2.124 -0.4707  0.6350 -0.1869
 4492TIP3    H213434   5.471   6.957   2.049  0.6327 -0.0485  0.0202
 4493TIP3   OH213435   7.320   3.832   5.768  0.0871  0.1997 -0.7071
 4493TIP3    H113436   7.394   3.777   5.796 -0.3225 -0.0956 -0.1905
 4493TIP3    H213437   7.312   3.814   5.675  2.3973  2.2806 -1.4233
 4494TIP3   OH213438   0.992   5.283   2.521  0.0344  0.4150  0.0283
 4494TIP3    H113439   1.007   5.236   2.439 -0.7912  1.0194 -0.4848
 4494TIP3    H213440   1.042   5.364   2.512  0.4385  0.2082  0.3840
 4495TIP3   OH213441   7.966   1.824   2.086  0.0927  0.0343 -0.1452
 4495TIP3    H113442   7.930   1.898   2.038 -0.0337  0.6241  0.8475
 4495TIP3    H213443   7.902   1.806   2.155  0.0794 -1.0579 -0.4191
 4496TIP3   OH213444   2.308   7.280   3.224 -1.3446 -0.4869 -0.7152
 4496TIP3    H113445   2.274   7.241   3.304 -2.1269 -1.1942 -1.3742
 4496TIP3    H213446   2.321   7.206   3.165 -2.3679  0.1824 -1.8206
 4497TIP3   OH213447   3.296   4.583   2.675 -0.0623 -0.5290 -0.3326
 4497TIP3    H113448   3.324   4.662   2.720 -0.4479  0.5284 -1.8652
 4497TIP3    H213449   3.208   4.603   2.643 -0.4545 -1.8399 -0.1517
 4498TIP3   OH213450   5.405   3.304   1.169  0.4189  0.0903 -0.2514
 4498TIP3    H113451   5.405   3.256   1.252  1.6229 -1.6215 -1.1810
 4498TIP3    H213452   5.313   3.317   1.148  0.0978  0.8916  1.5111
 4499TIP3   OH213453   1.554   2.747   5.278  0.4948 -0.3627 -0.1696
 4499TIP3    H113454   1.533   2.782   5.365 -1.3088  0.3837 -0.8497
 4499TIP3    H213455   1.470   2.747   5.231  1.2695 -1.5394 -1.6473
 4500TIP3   OH213456   5.167   0.704   4.010 -0.1263 -0.1015 -0.2299
 4500TIP3    H113457   5.071   0.714   4.007 -0.3249 -0.7336  2.0659
 4500TIP3    H213458   5.201   0.782   3.966 -1.6853  0.4379 -0.5495
 4501TIP3   OH213459   8.214   0.473   4.972  0.0482  0.2033  0.1877
 4501TIP3    H113460   8.186   0.564   4.965  0.8943  0.5677  1.4147
 4501TIP3    H213461   8.207   0.452   5.065 -1.7988 -1.5470 -0.2730
 4502TIP3   OH213462   0.952   1.701   0.930 -0.1077  0.4981 -0.1041
 4502TIP3    H113463   1.006   1.657   0.864 -0.2711  1.1814 -0.7101
 4502TIP3    H213464   0.865   1.662   0.920  0.3084 -0.8018  1.0610
 4503TIP3   OH213465   6.484   3.783   3.520  0.2180  0.0894 -0.1677
 4503TIP3    H113466   6.499   3.847   3.449  0.7692  1.4887  1.1547
 4503TIP3    H213467   6.394   3.754   3.507  0.8307 -1.0328 -2.4590
 4504TIP3   OH213468   7.799   7.254   1.305  0.6024  0.1660 -0.2593
 4504TIP3    H113469   7.818   7.206   1.386 -0.2528 -0.3033 -0.3217
 4504TIP3    H213470   7.838   7.340   1.318  3.6443 -1.0190 -0.7918
 4505TIP3   OH213471   6.694   4.975   6.518  0.0907 -0.0737 -0.0414
 4505TIP3    H113472   6.676   4.883   6.534  1.7190 -0.2196  1.1477
 4505TIP3    H213473   6.719   5.011   6.603  2.1128  0.8088 -0.9345
 4506TIP3   OH213474   6.112   2.264   6.405 -0.1275 -0.2678 -0.1698
 4506TIP3    H113475   6.185   2.311   6.446  0.0502 -0.1638 -0.6011
 4506TIP3    H213476   6.057   2.236   6.479  0.8790 -1.2467  0.2326
 4507TIP3   OH213477   1.119   1.536   6.336 -0.0629 -0.1730  0.3112
 4507TIP3    H113478   1.104   1.475   6.409  0.2884 -0.8017 -0.1329
 4507TIP3    H213479   1.041   1.592   6.336 -0.9340 -1.3502  0.0240
 4508TIP3   OH213480   5.101   1.506   5.132  0.4626  0.4363 -0.2173
 4508TIP3    H113481   5.067   1.589   5.167 -0.8286 -0.4004  0.5984
 4508TIP3    H213482   5.025   1.448   5.129  1.3159 -0.7001 -0.8893
 4509TIP3   OH213483   7.724   2.526   5.698 -0.1373 -0.1148  0.0456
 4509TIP3    H113484   7.802   2.570   5.665  0.0259 -0.2845  0.2025
 4509TIP3    H213485   7.758   2.455   5.753 -0.3841 -1.0191 -0.9565
 4510TIP3   OH213486   3.523   0.268   5.232 -0.0152  0.1260 -0.2137
 4510TIP3    H113487   3.445   0.215   5.246 -1.4947  1.6815 -2.0935
 4510TIP3    H213488   3.525   0.328   5.306  0.2085 -0.7762  0.5413
 4511TIP3   OH213489   2.502   2.674   6.193  0.4690  0.8916  0.1882
 4511TIP3    H113490   2.430   2.676   6.257 -0.7073  0.8352 -1.0830
 4511TIP3    H213491   2.535   2.584   6.197 -0.6994  0.4152 -0.4302
 4512TIP3   OH213492   4.061   6.609   3.503 -0.2472  0.1575 -0.6928
 4512TIP3    H113493   4.026   6.520   3.498  1.9651 -0.7388 -1.1579
 4512TIP3    H213494   4.080   6.623   3.595  1.1934 -0.6306 -0.8409
 4513TIP3   OH213495   7.023  -0.035   4.216  0.0485 -0.4110  0.5001
 4513TIP3    H113496   7.049   0.009   4.135  0.3576  1.6035  1.6233
 4513TIP3    H213497   6.990   0.036   4.272 -0.2211 -1.7497  2.1105
 4514TIP3   OH213498   6.824   2.484   5.837  0.5788  0.3495 -0.0857
 4514TIP3    H113499   6.814   2.565   5.788 -0.2309 -1.1557 -2.5953
 4514TIP3    H213500   6.901   2.441   5.799  0.2582 -0.6401  0.3195
 4515TIP3   OH213501   1.042   0.423   5.937 -0.2709 -0.3902  0.1791
 4515TIP3    H113502   1.035   0.394   5.846 -0.1909 -1.7363  0.5766
 4515TIP3    H213503   1.010   0.513   5.936 -0.7261 -0.5455 -1.0968
 4516TIP3   OH213504   4.205   3.624   5.817  0.1367 -0.1161 -0.1821
 4516TIP3    H113505   4.120   3.581   5.804  0.3544 -0.5293 -0.2485
 4516TIP3    H213506   4.245   3.624   5.730 -0.0883  0.7084 -0.2896
 4517TIP3   OH213507   3.155   1.463   4.786  0.1946  0.2115  0.1991
 4517TIP3    H113508   3.147   1.457   4.881  1.6800 -0.6403  0.3068
 4517TIP3    H213509   3.163   1.556   4.769 -1.3071  0.4746  0.7648
 4518TIP3   OH213510   1.627   4.970   5.986  0.6302  0.3185  0.2544
 4518TIP3    H113511   1.574   5.025   6.044  0.1884  0.5536 -0.3583
 4518TIP3    H213512   1.713   4.968   6.027 -0.0594 -0.8266  1.7961
 4519TIP3   OH213513   0.517   2.221   0.506 -0.4970 -0.0963 -0.6784
 4519TIP3    H113514   0.550   2.168   0.433 -0.3013  2.0799 -2.2624
 4519TIP3    H213515   0.434   2.179   0.530  0.1195 -1.6719 -1.1968
 4520TIP3   OH213516   6.153   0.168   0.363 -0.3162  0.3500  0.4664
 4520TIP3    H113517   6.162   0.263   0.361 -2.3593  0.5929  1.1681
 4520TIP3    H213518   6.099   0.147   0.288 -1.3302 -0.0576  1.2911
 4521TIP3   OH213519   5.434   3.946   0.827  0.1085 -0.5849 -0.0899
 4521TIP3    H113520   5.390   3.917   0.747  0.5802 -0.9737 -0.2116
 4521TIP3    H213521   5.387   3.900   0.898 -1.5056  1.1360  0.0486
 4522TIP3   OH213522   3.793   1.543   6.112  0.3887  0.1577  0.8241
 4522TIP3    H113523   3.745   1.520   6.192 -0.0171  0.0829  0.5621
 4522TIP3    H213524   3.755   1.487   6.044 -1.9304  2.8174 -0.2494
 4523TIP3   OH213525   5.043   4.504   4.673  0.0310  0.1042 -0.1478
 4523TIP3    H113526   5.065   4.593   4.643 -0.1353  0.2216  0.0827
 4523TIP3    H213527   5.109   4.449   4.630  1.8548  0.6206  1.7940
 4524TIP3   OH213528   3.275   4.164   3.604  0.1308  0.0806  0.2139
 4524TIP3    H113529   3.180   4.157   3.618  0.2218 -1.3289  0.2762
 4524TIP3    H213530   3.308   4.076   3.624  1.2822  0.1762 -1.1457
 4525TIP3   OH213531   8.210   4.827   3.951 -1.6132  0.0720 -0.1555
 4525TIP3    H113532   8.177   4.912   3.981 -0.1760  0.4364  0.4907
 4525TIP3    H213533   8.282   4.849   3.891  0.3439 -0.6131  1.8100
 4526TIP3   OH213534   4.326   4.889   4.309  0.4285  0.7710  0.8459
 4526TIP3    H113535   4.333   4.816   4.369  1.0342  0.2692  0.1816
 4526TIP3    H213536   4.332   4.967   4.365  0.3228  0.3154  1.4968
 4527TIP3   OH213537   3.523   0.893   2.298  1.1430 -0.3713  0.3483
 4527TIP3    H113538   3.578   0.971   2.294  0.8071 -0.0416  1.4920
 4527TIP3    H213539   3.536   0.859   2.387  0.1288 -0.7403  0.3709
 4528TIP3   OH213540   7.559   3.664   2.576 -0.0512 -0.2055  0.0576
 4528TIP3    H113541   7.466   3.665   2.553 -0.0080 -2.6852 -0.5018
 4528TIP3    H213542   7.604   3.681   2.493  0.0088 -1.5795 -0.2026
 4529TIP3   OH213543   3.214   0.277   0.026 -0.4692 -0.2792 -0.0681
 4529TIP3    H113544   3.176   0.189   0.026 -0.0014 -0.5437  2.2106
 4529TIP3    H213545   3.140   0.335   0.007 -0.9981 -1.0864 -0.5325
 4530TIP3   OH213546   3.857   1.346   4.341 -0.1504 -0.4009  0.2157
 4530TIP3    H113547   3.861   1.262   4.387 -0.6697 -1.9819 -2.3659
 4530TIP3    H213548   3.818   1.406   4.404  2.3740 -1.4215  2.9716
 4531TIP3   OH213549   2.280   5.941   5.814 -0.2275 -0.7493  0.0183
 4531TIP3    H113550   2.311   5.870   5.871 -3.1374 -1.3202  1.0419
 4531TIP3    H213551   2.283   5.903   5.726  2.8742 -0.3757 -0.1381
 4532TIP3   OH213552   0.456   4.613   2.728  0.5400 -0.2811  0.3836
 4532TIP3    H113553   0.448   4.598   2.823  1.1905 -1.2976  0.2975
 4532TIP3    H213554   0.370   4.588   2.693  0.4481 -0.3515  0.6517
 4533TIP3   OH213555   3.297   7.060   5.859  0.2557 -0.1069  0.2329
 4533TIP3    H113556   3.252   7.024   5.935  1.9865  0.7408  1.7478
 4533TIP3    H213557   3.390   7.042   5.876  0.9170  2.3962 -0.3392
 4534TIP3   OH213558   3.086   4.285   6.532  0.5682  0.1187  0.2065
 4534TIP3    H113559   3.080   4.216   6.598  1.4284 -0.9213 -0.7635
 4534TIP3    H213560   2.999   4.290   6.493  0.0841  0.6642  1.3048
 4535TIP3   OH213561   7.035   5.990   5.601 -0.1656  0.3601  0.3953
 4535TIP3    H113562   7.099   5.919   5.589 -0.5292  0.2005 -0.7216
 4535TIP3    H213563   6.962   5.965   5.544 -1.4850  0.2508  2.0806
 4536TIP3   OH213564   4.827   7.010   5.711  0.0760 -0.5846  0.1327
 4536TIP3    H113565   4.913   7.027   5.674 -0.4716 -1.1828 -1.4958
 4536TIP3    H213566   4.772   7.083   5.680 -0.5271 -1.3984 -0.7759
 4537TIP3   OH213567   0.857   0.008   0.038  0.5638 -0.5993 -0.1784
 4537TIP3    H113568   0.874   0.082   0.096 -2.8079  0.3243 -0.1868
 4537TIP3    H213569   0.896  -0.067   0.083  0.7898  0.5858  1.7195
 4538TIP3   OH213570   4.467   5.813   1.393 -0.0593  0.4698  0.2785
 4538TIP3    H113571   4.544   5.856   1.355  0.8604 -1.3465 -0.0442
 4538TIP3    H213572   4.463   5.846   1.483  1.1409  0.5901  0.3054
 4539TIP3   OH213573   3.261   2.143   3.945  0.7095 -0.8711 -0.2885
 4539TIP3    H113574   3.201   2.069   3.948  1.4111 -1.4228  0.4051
 4539TIP3    H213575   3.218   2.211   3.999  0.4649 -1.0722 -0.2289
 4540TIP3   OH213576   3.280   5.297   1.966  0.5117  0.0315  0.3485
 4540TIP3    H113577   3.249   5.243   1.893 -2.2545  1.1040  0.5958
 4540TIP3    H213578   3.310   5.378   1.925  0.7807 -0.1099  0.2656
 4541TIP3   OH213579   5.885   4.244   5.317  0.0017 -0.1663  0.1712
 4541TIP3    H113580   5.885   4.333   5.354 -0.3374 -0.0920 -0.0128
 4541TIP3    H213581   5.922   4.255   5.230  0.4781 -0.2909  0.3538
 4542TIP3   OH213582   1.750   1.097   4.409  0.0793 -0.6161 -0.2999
 4542TIP3    H113583   1.794   1.106   4.494  0.4355  0.5113 -0.5929
 4542TIP3    H213584   1.762   1.005   4.386  1.0931 -0.6447  0.2802
 4543TIP3   OH213585   3.234   1.824   3.648 -0.2479  0.2032  0.1342
 4543TIP3    H113586   3.203   1.744   3.691 -0.6350 -0.2021 -0.8521
 4543TIP3    H213587   3.194   1.895   3.698 -1.4381 -0.2773 -0.0898
 4544TIP3   OH213588   7.194   3.307   0.843 -0.6334 -0.5467  0.0672
 4544TIP3    H113589   7.139   3.306   0.764  1.0057 -1.6467 -1.1339
 4544TIP3    H213590   7.207   3.215   0.864  0.4460 -0.3002  0.5339
 4545TIP3   OH213591   2.068   1.485   6.299 -0.2364 -0.3605 -0.3567
 4545TIP3    H113592   2.090   1.404   6.345 -0.0509  1.4819  3.1768
 4545TIP3    H213593   2.150   1.512   6.257  0.0079 -1.3982 -0.5646
 4546TIP3   OH213594   5.675   0.153   5.671  0.1750  0.0229 -0.0699
 4546TIP3    H113595   5.675   0.232   5.726  0.2010 -0.4407  0.6137
 4546TIP3    H213596   5.766   0.140   5.648  0.4111 -0.7028  1.1627
 4547TIP3   OH213597   0.936   7.422   4.617  0.3659 -0.5404 -0.3294
 4547TIP3    H113598   0.954   7.511   4.644 -1.1215 -0.1921 -0.4111
 4547TIP3    H213599   1.002   7.403   4.550  1.5645 -0.0198  0.6801
 4548TIP3   OH213600   2.219   2.073   5.253  0.6924 -0.3209 -0.8276
 4548TIP3    H113601   2.151   2.098   5.191  1.2797  0.4577 -1.1731
 4548TIP3    H213602   2.171   2.042   5.330 -0.0760  0.7985 -0.8237
 4549TIP3   OH213603   4.191   6.779   4.950  0.5572 -0.3770 -0.1828
 4549TIP3    H113604   4.130   6.708   4.970  0.2427 -0.0531  0.0372
 4549TIP3    H213605   4.206   6.822   5.034  2.5610 -1.5634  0.1322
 4550TIP3   OH213606   1.820   3.947   6.329 -0.3142  0.2717  0.0639
 4550TIP3    H113607   1.837   3.964   6.421 -0.8601 -0.7864  0.3830
 4550TIP3    H213608   1.828   4.032   6.286 -0.3477  0.8232  1.1317
 4551TIP3   OH213609   0.665   0.845   5.890  0.2412 -0.4561 -0.1887
 4551TIP3    H113610   0.644   0.751   5.895 -0.4123 -0.3149 -0.1896
 4551TIP3    H213611   0.580   0.889   5.895  0.6446  0.2165  1.4559
 4552TIP3   OH213612   3.526   0.169   4.103 -0.3603  0.2336  0.2751
 4552TIP3    H113613   3.459   0.167   4.035 -0.4359  1.0298  0.3168
 4552TIP3    H213614   3.567   0.255   4.094  0.7996 -0.3024  0.1131
 4553TIP3   OH213615   5.174   4.115   3.629  0.0732 -0.2015 -0.2561
 4553TIP3    H113616   5.166   4.027   3.592  1.1418 -0.7497  0.7499
 4553TIP3    H213617   5.250   4.153   3.585 -1.9825  1.3694 -2.7871
 4554TIP3   OH213618   6.785   1.651   5.120 -0.1573  0.5031  0.0082
 4554TIP3    H113619   6.777   1.580   5.056  0.9248 -0.2476  0.6661
 4554TIP3    H213620   6.706   1.644   5.174 -0.8286  0.8222 -0.9008
 4555TIP3   OH213621   5.921   6.667   1.258 -0.1734  0.2529 -0.4351
 4555TIP3    H113622   5.976   6.660   1.336 -1.9859 -2.3556  0.7405
 4555TIP3    H213623   5.914   6.762   1.243  1.4760  0.7919  1.6068
 4556TIP3   OH213624   5.879   7.482   2.720 -0.4904 -0.2064  0.7137
 4556TIP3    H113625   5.835   7.499   2.804 -0.5906  1.1583  0.4131
 4556TIP3    H213626   5.840   7.545   2.660  0.9075  0.0986  0.0905
 4557TIP3   OH213627   4.170   7.558   6.323  0.2191  0.2556 -0.1983
 4557TIP3    H113628   4.137   7.469   6.333 -0.5783  0.5650 -0.0222
 4557TIP3    H213629   4.199   7.563   6.233 -0.2144 -0.0302 -0.3563
 4558TIP3   OH213630   7.371   3.408   0.653 -0.3889 -0.4571  0.0452
 4558TIP3    H113631   7.389   3.322   0.616  0.2576 -0.4800  0.3924
 4558TIP3    H213632   7.310   3.390   0.725 -0.2608 -0.6254  0.1134
 4559TIP3   OH213633   5.828   1.204   4.671  0.2390  0.2357 -0.1004
 4559TIP3    H113634   5.822   1.248   4.586  1.0020 -2.0809 -1.4196
 4559TIP3    H213635   5.738   1.204   4.704 -0.6504 -1.4416 -2.3299
 4560TIP3   OH213636   0.116   5.999   1.810 -0.5543  0.1969 -0.3384
 4560TIP3    H113637   0.145   5.924   1.758  0.4370 -0.8074  1.5526
 4560TIP3    H213638   0.130   6.074   1.752  0.0367 -0.8924 -1.6825
 4561TIP3   OH213639   4.098   6.938   2.117 -0.0639 -0.4017  0.3982
 4561TIP3    H113640   4.101   6.857   2.168 -0.5078 -0.7816 -0.1726
 4561TIP3    H213641   4.055   7.001   2.175 -1.0518 -0.9731  0.2967
 4562TIP3   OH213642   6.794   7.373   6.525  0.0236 -0.0914 -0.2098
 4562TIP3    H113643   6.723   7.384   6.462  0.2794  0.9067 -0.3495
 4562TIP3    H213644   6.751   7.343   6.605 -0.4540 -0.2631 -0.5291
 4563TIP3   OH213645   5.996   7.320   5.570  0.2069 -0.2394 -0.4389
 4563TIP3    H113646   5.954   7.405   5.557 -0.7202 -0.5725  0.2171
 4563TIP3    H213647   5.981   7.300   5.662  1.6987 -0.4613 -0.2209
 4564TIP3   OH213648   5.000   6.079   0.735  0.8705  0.4485 -0.3556
 4564TIP3    H113649   5.085   6.099   0.775  1.3612 -0.1323 -1.0697
 4564TIP3    H213650   4.989   5.985   0.749  0.5618  0.4366 -0.6613
 4565TIP3   OH213651   1.977   3.097   6.381 -0.7568  0.1516  0.4070
 4565TIP3    H113652   2.031   3.062   6.452  2.0771  0.3420 -1.4914
 4565TIP3    H213653   1.956   3.186   6.409  1.0440  0.5202  0.6813
 4566TIP3   OH213654   0.611   1.739   5.313  0.3660  0.1196  0.4763
 4566TIP3    H113655   0.625   1.833   5.325  1.7033  0.6698 -3.7218
 4566TIP3    H213656   0.698   1.705   5.293 -0.6717 -1.0966 -2.4284
 4567TIP3   OH213657   2.843   1.189   6.583 -0.8747  0.3532  0.0732
 4567TIP3    H113658   2.750   1.177   6.605 -1.1191 -1.7044 -1.7817
 4567TIP3    H213659   2.843   1.247   6.507 -0.4411  1.9122  1.1862
 4568TIP3   OH213660   0.321   6.064   3.867 -0.1080 -0.2716  0.3180
 4568TIP3    H113661   0.345   6.036   3.956  1.2073  0.6090  0.2673
 4568TIP3    H213662   0.259   6.135   3.881 -0.0504 -0.2620  0.5344
 4569TIP3   OH213663   2.360   7.442   1.848  0.2255  0.2253 -1.0409
 4569TIP3    H113664   2.443   7.407   1.882  0.2303  1.4224  0.2924
 4569TIP3    H213665   2.380   7.466   1.757  1.5116  0.9444 -0.6068
 4570TIP3   OH213666   6.902   2.787   4.106  0.0209 -0.1546  0.3671
 4570TIP3    H113667   6.830   2.747   4.156 -0.6513 -0.5652 -0.8827
 4570TIP3    H213668   6.966   2.717   4.097 -0.1142 -0.2537  0.1679
 4571TIP3   OH213669   1.772   6.774   4.266 -0.3347  0.4115  0.5215
 4571TIP3    H113670   1.724   6.709   4.215  0.8711  1.0351 -1.5225
 4571TIP3    H213671   1.720   6.786   4.346 -2.0941 -0.9010 -0.3688
 4572TIP3   OH213672   0.421   6.373   4.385  0.2720  0.1863  0.1142
 4572TIP3    H113673   0.376   6.456   4.369  0.8623  0.4818 -0.0571
 4572TIP3    H213674   0.373   6.309   4.333 -0.0499  0.4663  0.0647
 4573TIP3   OH213675   5.295   3.763   5.513  0.0383  0.4789 -0.1400
 4573TIP3    H113676   5.277   3.741   5.422 -0.0182  1.1463 -0.2979
 4573TIP3    H213677   5.386   3.737   5.526  0.3652  1.2998 -0.6896
 4574TIP3   OH213678   2.474   7.122   1.747 -0.1190 -0.1041  0.2727
 4574TIP3    H113679   2.549   7.173   1.778 -0.0166 -0.5767  0.8174
 4574TIP3    H213680   2.513   7.045   1.706 -0.2942 -0.0745  0.0502
 4575TIP3   OH213681   6.451   3.251   3.718 -0.4116 -0.1780  0.1463
 4575TIP3    H113682   6.409   3.334   3.740 -0.0906 -0.0125  0.1362
 4575TIP3    H213683   6.421   3.190   3.785  1.7049  0.6565  1.9478
 4576TIP3   OH213684   6.081   1.659   1.218 -0.0523  0.0439 -0.0809
 4576TIP3    H113685   6.170   1.689   1.232  0.0448 -0.3386  0.1314
 4576TIP3    H213686   6.026   1.731   1.247  0.1512 -0.3765  1.4420
 4577TIP3   OH213687   0.390   6.424   4.901  0.1364  0.2896  0.1581
 4577TIP3    H113688   0.467   6.438   4.846  1.2166 -2.3302  0.8170
 4577TIP3    H213689   0.334   6.366   4.850 -0.1287  0.0300  0.7277
 4578TIP3   OH213690   1.843   7.577   2.520  0.0339 -0.5708  0.4665
 4578TIP3    H113691   1.838   7.521   2.442 -0.9176  2.2664 -1.7096
 4578TIP3    H213692   1.753   7.604   2.536  0.4460  0.3018  1.4333
 4579TIP3   OH213693   7.334   6.323   1.974 -0.4115  0.3363 -0.1596
 4579TIP3    H113694   7.297   6.292   2.056 -0.5461  1.2842  0.1526
 4579TIP3    H213695   7.428   6.322   1.988 -0.3947 -0.3245 -0.3032
 4580TIP3   OH213696   4.640   2.916   0.106  0.4228  0.0473  0.1557
 4580TIP3    H113697   4.647   2.861   0.184  0.5973  0.8164  0.6903
 4580TIP3    H213698   4.651   2.855   0.033 -2.1966 -1.1475  0.6118
 4581TIP3   OH213699   2.653   0.903   6.513  0.2608 -0.1055 -0.0968
 4581TIP3    H113700   2.665   0.983   6.462 -2.1030  1.4089  1.5300
 4581TIP3    H213701   2.731   0.851   6.495  1.6636  2.3453 -1.5912
 4582TIP3   OH213702   1.296   7.216   6.083  0.0130 -0.5573 -0.1145
 4582TIP3    H113703   1.361   7.191   6.018  2.8714  1.5224  1.7385
 4582TIP3    H213704   1.328   7.177   6.165 -0.1339  1.8201  1.1480
 4583TIP3   OH213705   7.404   0.234   4.899  0.1701 -0.6364 -0.3160
 4583TIP3    H113706   7.313   0.233   4.928  0.7649 -2.8278  1.8436
 4583TIP3    H213707   7.426   0.142   4.886  2.2387 -0.2147 -0.1327
 4584TIP3   OH213708   0.541   6.141   6.803  0.5904 -0.0089 -0.3225
 4584TIP3    H113709   0.558   6.229   6.770  1.2895 -0.7043 -1.9497
 4584TIP3    H213710   0.461   6.114   6.759  0.6566 -0.3729 -0.2253
 4585TIP3   OH213711   1.001   0.551   5.617  0.2419  0.0444 -0.1382
 4585TIP3    H113712   1.067   0.483   5.633 -0.5549 -0.8586 -0.5556
 4585TIP3    H213713   0.961   0.526   5.533 -0.8647  0.3634  0.2764
 4586TIP3   OH213714   6.310   7.708   2.560 -0.2070 -0.4177 -0.2782
 4586TIP3    H113715   6.395   7.741   2.529 -0.8720 -0.6126 -2.5482
 4586TIP3    H213716   6.313   7.614   2.540 -0.9580 -0.4209 -0.3859
 4587TIP3   OH213717   0.259   0.529   2.226 -0.1459  0.0020  0.0425
 4587TIP3    H113718   0.332   0.532   2.164 -1.5754 -0.0829 -1.7211
 4587TIP3    H213719   0.259   0.439   2.259  0.3643 -0.0729 -0.1587
 4588TIP3   OH213720   1.310   5.331   6.291  0.2655 -0.2449  0.4726
 4588TIP3    H113721   1.302   5.378   6.374 -0.5115  1.1448 -0.3438
 4588TIP3    H213722   1.240   5.265   6.294  0.4028 -0.3661  1.0261
 4589TIP3   OH213723   0.312   4.146   6.333 -0.2368 -0.0779 -0.3785
 4589TIP3    H113724   0.384   4.102   6.289  0.4758  0.0448  0.6212
 4589TIP3    H213725   0.287   4.086   6.404 -1.4982 -0.3705 -1.0316
 4590TIP3   OH213726   1.946   7.773   0.519 -0.4847 -0.2773 -0.2237
 4590TIP3    H113727   1.857   7.807   0.518 -0.3894 -0.0235 -0.0587
 4590TIP3    H213728   1.968   7.763   0.426 -0.7910 -0.6272 -0.2613
 4591TIP3   OH213729   5.681   4.513   3.025  0.0689 -0.6830  0.1013
 4591TIP3    H113730   5.648   4.503   3.115 -0.2732  1.5212  0.2813
 4591TIP3    H213731   5.671   4.426   2.986 -1.5924 -1.2259  1.5965
 4592TIP3   OH213732   5.995   5.913   1.420  0.0668 -0.0411 -0.2450
 4592TIP3    H113733   5.956   5.977   1.480  0.6305 -1.3859  1.6708
 4592TIP3    H213734   6.087   5.910   1.444  0.2859 -0.7319 -1.0979
 4593TIP3   OH213735   2.882   7.409   0.414 -0.5509  0.7404  0.3740
 4593TIP3    H113736   2.891   7.349   0.488  0.4075  1.0618  0.5357
 4593TIP3    H213737   2.965   7.402   0.367  0.7384  3.8523  1.9024
 4594TIP3   OH213738   2.870   6.427   0.587 -0.3528 -0.0324  0.5777
 4594TIP3    H113739   2.904   6.516   0.575 -1.3139  0.2626 -0.0646
 4594TIP3    H213740   2.929   6.371   0.537 -0.6418  0.4387 -0.3023
 4595TIP3   OH213741   7.092   5.753   1.974  0.0248  0.2084 -0.3190
 4595TIP3    H113742   7.178   5.791   1.994 -0.6518  0.6759  2.0144
 4595TIP3    H213743   7.031   5.825   1.988 -0.8967 -0.5333 -0.4498
 4596TIP3   OH213744   4.852   0.382   3.884 -0.2965  0.3157  0.6216
 4596TIP3    H113745   4.932   0.329   3.879  0.4899  1.6265 -2.0807
 4596TIP3    H213746   4.876   0.455   3.941  0.0636  0.1634  0.6719
 4597TIP3   OH213747   4.352   3.901   0.200  0.3920  0.0962 -0.3569
 4597TIP3    H113748   4.346   3.806   0.191  3.1120 -0.5039  2.2772
 4597TIP3    H213749   4.308   3.920   0.283  0.4025  1.0174 -0.5558
 4598TIP3   OH213750   5.640   0.349   0.380 -0.1564 -0.3092  0.3199
 4598TIP3    H113751   5.697   0.359   0.455 -1.0095 -0.8027  1.0556
 4598TIP3    H213752   5.636   0.254   0.365  1.8565 -0.1337 -1.8410
 4599TIP3   OH213753   0.356   2.832   0.202 -0.0472 -0.5457  0.1398
 4599TIP3    H113754   0.363   2.905   0.140  0.5002 -1.5078 -0.9934
 4599TIP3    H213755   0.263   2.828   0.223 -0.0771  0.5146  0.2848
 4600TIP3   OH213756   0.290   2.286   4.497 -0.2821 -0.2100 -0.2680
 4600TIP3    H113757   0.280   2.279   4.592  0.9216  0.8776 -0.0483
 4600TIP3    H213758   0.293   2.195   4.467  0.2523 -0.5785  0.8439
 4601TIP3   OH213759   1.014   6.711   3.321 -0.5852  0.3887 -0.1130
 4601TIP3    H113760   1.010   6.699   3.416  0.2939  1.1437  0.0338
 4601TIP3    H213761   0.995   6.804   3.308 -1.7996  0.0733 -0.7835
 4602TIP3   OH213762   2.267   3.680   1.687  0.7436 -0.0768  0.1452
 4602TIP3    H113763   2.199   3.718   1.631  1.2952  1.4199  0.4482
 4602TIP3    H213764   2.335   3.747   1.691  0.8790 -0.2816  2.3260
 4603TIP3   OH213765   2.761   3.609   0.613 -0.3777 -0.0221 -0.0806
 4603TIP3    H113766   2.735   3.565   0.694  1.4808 -1.3482 -0.1368
 4603TIP3    H213767   2.832   3.667   0.640  0.2352 -0.4564 -0.7288
 4604TIP3   OH213768   8.306   6.238   6.458 -0.4740  0.1110  0.3062
 4604TIP3    H113769   8.344   6.246   6.371 -0.4551  1.2328  0.4024
 4604TIP3    H213770   8.240   6.169   6.450 -1.1464  0.8583 -0.8367
 4605TIP3   OH213771   7.944   0.566   5.291  0.0808  0.7199  0.6652
 4605TIP3    H113772   8.037   0.550   5.277  0.1795  0.8025  1.2008
 4605TIP3    H213773   7.931   0.657   5.263  0.2335  0.8168  0.9011
 4606TIP3   OH213774   2.660   5.407   3.198 -0.0386 -0.6443  0.3050
 4606TIP3    H113775   2.666   5.416   3.103 -1.7234 -0.4967  0.1901
 4606TIP3    H213776   2.693   5.490   3.232 -0.6792 -0.1706 -0.2075
 4607TIP3   OH213777   4.146   1.020   5.348  0.4348  0.0443  0.5384
 4607TIP3    H113778   4.179   1.014   5.258  1.3939  1.6643  0.7362
 4607TIP3    H213779   4.198   0.957   5.397  0.3092 -0.4317  0.0676
 4608TIP3   OH213780   0.674   1.926   0.506 -0.0653 -0.3338 -0.1748
 4608TIP3    H113781   0.677   1.984   0.581 -2.2875 -1.7101  1.0823
 4608TIP3    H213782   0.694   1.839   0.542 -0.8948 -0.9747 -1.2042
 4609TIP3   OH213783   3.757   2.249   5.933 -0.2410 -0.4023 -0.2617
 4609TIP3    H113784   3.776   2.295   6.015 -0.1461 -2.2623  0.8062
 4609TIP3    H213785   3.662   2.245   5.930 -0.2470 -0.2399 -0.2990
 4610TIP3   OH213786   2.529   7.679   5.128 -0.5773  0.5060  0.7036
 4610TIP3    H113787   2.613   7.709   5.094 -0.2090 -1.6423 -0.5149
 4610TIP3    H213788   2.523   7.718   5.215  0.4282  2.8181 -0.1742
 4611TIP3   OH213789   1.058   3.500   1.096  0.1521  0.1168 -0.0097
 4611TIP3    H113790   1.034   3.412   1.064  0.3025 -0.3638  1.1584
 4611TIP3    H213791   1.004   3.512   1.174 -0.1576  1.2459 -0.3789
 4612TIP3   OH213792   7.867   5.296   0.724 -0.4619 -0.2459  0.0134
 4612TIP3    H113793   7.883   5.389   0.706  0.4629 -0.3987 -0.0330
 4612TIP3    H213794   7.813   5.266   0.652 -0.4715  0.1819 -0.1577
 4613TIP3   OH213795   4.951   7.535   4.135 -0.3767  0.1441 -0.5152
 4613TIP3    H113796   4.988   7.535   4.223 -2.0438  1.0493  0.2315
 4613TIP3    H213797   5.022   7.569   4.080  0.9547 -1.1698  0.3133
 4614TIP3   OH213798   3.794   6.980   1.867 -0.5510 -0.2815  0.1066
 4614TIP3    H113799   3.864   6.919   1.843 -0.5088 -0.8783  1.6480
 4614TIP3    H213800   3.781   7.033   1.788  3.0770  1.2728  0.3347
 4615TIP3   OH213801   4.712   3.137   0.548  0.3324 -0.1672  0.1487
 4615TIP3    H113802   4.735   3.101   0.633  3.3721  0.9442 -0.0875
 4615TIP3    H213803   4.750   3.076   0.485  1.6270  1.0478 -0.3004
 4616TIP3   OH213804   4.905   6.642   3.745  0.0169 -0.2071  0.4371
 4616TIP3    H113805   4.869   6.701   3.812  1.0079 -1.2137  1.9065
 4616TIP3    H213806   5.000   6.655   3.751  0.1103 -0.2093 -0.8924
 4617TIP3   OH213807   1.736   1.330   3.861 -0.0895  0.0198 -0.0846
 4617TIP3    H113808   1.734   1.275   3.940  0.0186  0.9320  0.5726
 4617TIP3    H213809   1.821   1.311   3.821 -0.3263 -0.7734 -0.2209
 4618TIP3   OH213810   5.072   1.405   4.308  0.6567  0.4646 -0.3153
 4618TIP3    H113811   5.160   1.390   4.341  0.8263  0.0284 -0.9466
 4618TIP3    H213812   5.074   1.372   4.218 -0.1054  0.5917 -0.3878
 4619TIP3   OH213813   4.451   2.296   4.447  0.0109 -0.0394 -0.1856
 4619TIP3    H113814   4.388   2.349   4.495  0.2972  0.2298 -0.1029
 4619TIP3    H213815   4.519   2.358   4.419  0.4266 -0.3842  0.0424
 4620TIP3   OH213816   0.108   0.954   3.592 -0.0151 -0.0890 -0.0629
 4620TIP3    H113817   0.106   0.947   3.497  0.1279 -1.5699  0.0246
 4620TIP3    H213818   0.193   0.995   3.612 -0.3335  0.8498 -0.5841
 4621TIP3   OH213819   6.620   1.687   3.581 -1.0714  0.2962  1.0788
 4621TIP3    H113820   6.578   1.770   3.603  1.1144  1.2906  1.7796
 4621TIP3    H213821   6.617   1.684   3.485  1.5336  2.8289  0.7654
 4622TIP3   OH213822   5.405   0.387   5.779  0.7790  0.2805 -0.0654
 4622TIP3    H113823   5.423   0.460   5.839 -0.3969  0.6724 -0.1515
 4622TIP3    H213824   5.367   0.319   5.835  0.2624  0.4060 -0.2589
 4623TIP3   OH213825   0.650   0.280   5.552  0.3475  0.0043  0.3712
 4623TIP3    H113826   0.664   0.212   5.485 -0.0104 -0.7524  1.0375
 4623TIP3    H213827   0.604   0.350   5.506 -0.4060 -0.7560 -0.0567
 4624TIP3   OH213828   1.855   4.241   2.067  0.3989 -0.4752  0.0714
 4624TIP3    H113829   1.892   4.169   2.117  0.4429 -1.7451 -1.7076
 4624TIP3    H213830   1.775   4.205   2.029 -0.5729  1.0053  0.6058
 4625TIP3   OH213831   4.428   0.061   3.653  0.2002  0.4015  0.4711
 4625TIP3    H113832   4.477  -0.017   3.630 -0.0683  0.2832  0.2934
 4625TIP3    H213833   4.391   0.042   3.739 -0.3381  0.1047  0.1774
 4626TIP3   OH213834   5.963   5.624   1.389  0.3812  0.3756  0.0860
 4626TIP3    H113835   6.000   5.689   1.330  0.1252  0.0627 -0.4196
 4626TIP3    H213836   5.957   5.670   1.473  0.2747  0.9834 -0.2454
 4627TIP3   OH213837   5.203   7.552   5.848  0.6116 -0.3387 -0.0096
 4627TIP3    H113838   5.267   7.481   5.847  1.5552  0.1728  4.1991
 4627TIP3    H213839   5.135   7.521   5.908 -0.6555  1.0283 -0.6868
 4628TIP3   OH213840   3.964   3.567   5.680 -0.3292  0.5066 -0.3124
 4628TIP3    H113841   3.876   3.533   5.700 -0.4875 -0.3678 -2.3277
 4628TIP3    H213842   3.996   3.511   5.609  1.2844  1.7400 -0.6042
 4629TIP3   OH213843   7.299   3.337   2.536  0.0053  0.0658  0.3182
 4629TIP3    H113844   7.343   3.399   2.479 -1.1187  0.1265 -0.5276
 4629TIP3    H213845   7.230   3.388   2.578  0.7393 -0.0092  1.6653
 4630TIP3   OH213846   6.801   3.042   4.319 -0.1204  0.2110 -0.5891
 4630TIP3    H113847   6.884   3.037   4.272 -0.1302  0.7171 -0.6656
 4630TIP3    H213848   6.824   3.075   4.406 -0.2668  0.5708 -0.6851
 4631TIP3   OH213849   0.265   1.194   6.643 -0.2075 -0.1576  0.1577
 4631TIP3    H113850   0.197   1.138   6.682  0.1619 -0.0190  1.0330
 4631TIP3    H213851   0.334   1.197   6.709 -0.3663  1.6242  0.3035
 4632TIP3   OH213852   2.540   2.632   0.304 -0.2625  0.0609  0.2061
 4632TIP3    H113853   2.484   2.565   0.264 -1.7695  0.2483  1.8657
 4632TIP3    H213854   2.599   2.583   0.360 -1.0618  0.0619  1.0694
 4633TIP3   OH213855   7.779   7.740   6.277  0.1744  0.6468 -0.5918
 4633TIP3    H113856   7.826   7.808   6.326  0.1012 -0.6321  1.3688
 4633TIP3    H213857   7.691   7.775   6.266  0.3961  1.2553 -0.4611
 4634TIP3   OH213858   6.120   4.075   0.944  0.3250  0.1026  0.2620
 4634TIP3    H113859   6.065   4.006   0.981  1.8910 -1.1242  0.3778
 4634TIP3    H213860   6.180   4.030   0.886  1.0087  1.4556 -0.1229
 4635TIP3   OH213861   3.504   6.020   4.930 -0.0316  0.4819 -0.6978
 4635TIP3    H113862   3.581   6.076   4.942  0.2414 -0.2669  1.3120
 4635TIP3    H213863   3.504   5.962   5.006 -3.1016  1.0677 -0.1233
 4636TIP3   OH213864   1.508   0.300   2.721 -0.0473 -0.3975  0.0254
 4636TIP3    H113865   1.428   0.295   2.772 -0.3074  1.2115 -0.1742
 4636TIP3    H213866   1.488   0.254   2.639 -0.4641 -0.7508  0.3242
 4637TIP3   OH213867   1.111   1.276   4.875 -0.6465  0.3622  0.2508
 4637TIP3    H113868   1.104   1.206   4.940 -2.4873  0.7874  0.5739
 4637TIP3    H213869   1.205   1.287   4.861 -0.3015 -1.7656  0.6258
 4638TIP3   OH213870   0.636   5.993   4.458  0.3682  0.2789  0.6952
 4638TIP3    H113871   0.693   5.919   4.478 -1.3428 -0.7463  2.0613
 4638TIP3    H213872   0.678   6.067   4.501  0.1906 -0.6486  2.5752
 4639TIP3   OH213873   0.625   3.996   5.825  0.6519 -0.2223 -0.3828
 4639TIP3    H113874   0.650   3.950   5.745 -1.8689 -2.8548  0.1555
 4639TIP3    H213875   0.609   3.926   5.889 -2.5768  1.3350  0.7583
 4640TIP3   OH213876   8.186   5.519   1.818 -0.4331  0.8295  0.1850
 4640TIP3    H113877   8.263   5.545   1.767  0.4736  0.1812  1.1807
 4640TIP3    H213878   8.197   5.425   1.833  0.0443  1.1907  2.6435
 4641TIP3   OH213879   6.758   7.772   4.833  0.1043  0.5230 -0.4253
 4641TIP3    H113880   6.678   7.722   4.814  0.6552 -0.6233  0.1419
 4641TIP3    H213881   6.732   7.833   4.902  0.1762 -1.2611  1.2522
 4642TIP3   OH213882   0.497   6.908   5.419 -0.3246 -0.0278  0.7729
 4642TIP3    H113883   0.506   6.838   5.483  0.4929  0.7125  1.4964
 4642TIP3    H213884   0.557   6.976   5.450 -2.2377  1.6487  1.0067
 4643TIP3   OH213885   0.983   6.494   0.909  0.3633  0.2536 -0.3561
 4643TIP3    H113886   0.976   6.411   0.956  1.6059  1.0485  1.3688
 4643TIP3    H213887   0.893   6.516   0.885 -0.1039 -1.0969  0.0573
 4644TIP3   OH213888   6.950   2.010   3.478  0.0764  0.2627 -0.1198
 4644TIP3    H113889   6.931   2.104   3.473  1.1144  0.5460  0.8683
 4644TIP3    H213890   6.969   1.994   3.571 -0.8705 -1.0948 -0.1320
 4645TIP3   OH213891   5.803   2.909   4.637  0.3108 -0.1017  0.1337
 4645TIP3    H113892   5.792   2.865   4.553  0.9976  1.3350 -0.7635
 4645TIP3    H213893   5.846   2.992   4.615 -0.3139  0.7184  1.8030
 4646TIP3   OH213894   7.832   1.736   0.290 -0.1846  0.1844  0.1136
 4646TIP3    H113895   7.848   1.737   0.195  1.1191 -1.6761  0.2767
 4646TIP3    H213896   7.885   1.809   0.323  0.9337 -0.3800 -0.3802
 4647TIP3   OH213897   1.511   3.614   4.470  0.1338 -0.0208  0.0445
 4647TIP3    H113898   1.471   3.528   4.478 -2.1241  0.9716  0.0805
 4647TIP3    H213899   1.568   3.621   4.548 -1.3645 -0.6234  1.2411
 4648TIP3   OH213900   3.354   0.776   5.374 -0.1812  0.1273 -0.1033
 4648TIP3    H113901   3.280   0.771   5.313 -0.7979  2.6175  0.3291
 4648TIP3    H213902   3.315   0.761   5.460  0.4696 -2.0138 -0.1118
 4649TIP3   OH213903   4.216   3.430   6.761 -0.3487  0.1035 -0.1821
 4649TIP3    H113904   4.140   3.486   6.744 -0.9282 -0.9849 -1.3362
 4649TIP3    H213905   4.209   3.408   6.854  0.1261  2.2130  0.4179
 4650TIP3   OH213906   2.715   2.801   0.185  0.0049 -0.0371 -0.5732
 4650TIP3    H113907   2.640   2.751   0.216 -0.5100  0.1403 -1.4795
 4650TIP3    H213908   2.772   2.808   0.261 -0.3618 -1.1519 -0.1681
 4651TIP3   OH213909   5.173   5.891   1.226 -0.2452 -0.0863  0.2554
 4651TIP3    H113910   5.195   5.845   1.308 -1.9632 -1.9750 -0.2526
 4651TIP3    H213911   5.218   5.841   1.158 -0.4356  0.2613 -0.1292
 4652TIP3   OH213912   0.322   4.365   2.378  0.3172 -0.0826  0.1741
 4652TIP3    H113913   0.275   4.393   2.300 -1.3594  0.5937  1.3592
 4652TIP3    H213914   0.275   4.286   2.407  0.0758  0.4192  1.1981
 4653TIP3   OH213915   2.406   3.671   6.222 -0.0345  0.6832  0.0418
 4653TIP3    H113916   2.401   3.747   6.280 -1.2017  1.0946 -0.5669
 4653TIP3    H213917   2.406   3.596   6.282  0.5248  1.1401  0.6298
 4654TIP3   OH213918   1.525   2.520   3.705 -0.8757 -0.0932  0.3744
 4654TIP3    H113919   1.542   2.471   3.624  0.5550  0.5757  0.2454
 4654TIP3    H213920   1.503   2.608   3.675  0.4041  0.3651  0.7008
 4655TIP3   OH213921   0.350   4.724   2.056 -0.1212 -0.0720 -0.0698
 4655TIP3    H113922   0.428   4.777   2.074 -0.6181 -0.0458  2.2563
 4655TIP3    H213923   0.283   4.787   2.032 -0.4210  0.3014  1.6537
 4656TIP3   OH213924   5.314   6.433   6.738  0.4344  0.0857 -0.0906
 4656TIP3    H113925   5.288   6.407   6.826 -0.8980  0.5404 -0.3263
 4656TIP3    H213926   5.409   6.432   6.740  0.4227 -0.3766  1.2124
 4657TIP3   OH213927   6.862   6.184   3.512 -0.2923  0.0615 -0.0586
 4657TIP3    H113928   6.916   6.263   3.506  1.0604 -0.9069 -1.2111
 4657TIP3    H213929   6.849   6.172   3.606 -1.9546  2.5429  0.1145
 4658TIP3   OH213930   4.344   6.559   1.971 -0.3695  0.2129 -0.5889
 4658TIP3    H113931   4.268   6.599   2.014  0.4113  2.3996 -1.0798
 4658TIP3    H213932   4.417   6.618   1.992  0.6123 -0.2657 -2.4382
 4659TIP3   OH213933   3.435   6.234   3.750 -0.0564 -0.3505 -0.5545
 4659TIP3    H113934   3.408   6.320   3.781 -0.4365 -1.0467  1.2173
 4659TIP3    H213935   3.521   6.248   3.711 -0.0294  0.7946 -0.1181
 4660TIP3   OH213936   3.973   4.633   3.621  0.5632  0.0273  0.2534
 4660TIP3    H113937   3.953   4.634   3.527  1.9134 -0.9926 -0.0697
 4660TIP3    H213938   3.991   4.725   3.642  1.8824  0.0610 -0.8753
 4661TIP3   OH213939   1.370   6.432   4.222 -0.3208  0.1534  0.1984
 4661TIP3    H113940   1.459   6.466   4.230 -0.0367 -0.1915 -1.1926
 4661TIP3    H213941   1.321   6.502   4.180 -0.9846  0.7418  1.8934
 4662TIP3   OH213942   2.209   4.974   0.379 -0.2565  0.0545  0.2301
 4662TIP3    H113943   2.143   5.043   0.367 -0.0993  0.1316 -0.2023
 4662TIP3    H213944   2.242   4.988   0.468  1.3701  1.9581 -0.5925
 4663TIP3   OH213945   0.217   4.560   1.393 -0.1804 -0.3466 -0.2137
 4663TIP3    H113946   0.249   4.474   1.365 -0.0895 -0.6859  0.8909
 4663TIP3    H213947   0.294   4.605   1.426 -0.5516 -0.6367  1.1375
 4664TIP3   OH213948   2.346   2.477   4.305 -0.4683 -0.5485 -0.2813
 4664TIP3    H113949   2.260   2.506   4.336 -0.1226  2.3995 -1.7179
 4664TIP3    H213950   2.327   2.420   4.231 -1.2017 -0.7352  0.0502
 4665TIP3   OH213951   7.040   0.419   1.356 -0.3474 -0.1122 -0.3856
 4665TIP3    H113952   7.023   0.326   1.343 -0.4259 -0.2268  0.4910
 4665TIP3    H213953   7.008   0.437   1.444 -1.4525  1.0048 -0.9782
 4666TIP3   OH213954   7.007   6.140   3.965 -0.0341 -0.1700  0.1810
 4666TIP3    H113955   6.975   6.152   4.054  1.4884  0.4919  0.6794
 4666TIP3    H213956   7.007   6.228   3.928 -0.1926 -0.3726 -0.3062
 4667TIP3   OH213957   1.104   0.988   6.270 -0.0926 -0.1303 -0.3689
 4667TIP3    H113958   1.061   1.039   6.201 -2.1728 -1.2302  0.0297
 4667TIP3    H213959   1.120   1.051   6.340 -2.4692  0.0810  0.0516
 4668TIP3   OH213960   6.861   6.084   1.682 -0.0796 -1.0271 -0.0619
 4668TIP3    H113961   6.836   5.992   1.680 -0.4300 -0.9316 -0.2444
 4668TIP3    H213962   6.946   6.085   1.725  0.0615 -1.4683 -0.3195
 4669TIP3   OH213963   1.100   0.267   4.834 -0.0318 -0.8281  0.3499
 4669TIP3    H113964   1.172   0.298   4.778 -0.8717 -1.4846 -1.1417
 4669TIP3    H213965   1.030   0.244   4.773 -2.1871  1.3550  1.8027
 4670TIP3   OH213966   2.124   6.547   5.687 -0.1878 -0.3776 -0.1506
 4670TIP3    H113967   2.172   6.599   5.752 -0.0076 -1.8271  0.9181
 4670TIP3    H213968   2.032   6.558   5.710 -0.0697 -1.7785  1.0781
 4671TIP3   OH213969   0.133   5.991   0.213 -0.4158 -0.6382  0.3730
 4671TIP3    H113970   0.129   6.012   0.307 -1.5387  1.1865 -0.0305
 4671TIP3    H213971   0.222   5.957   0.201  1.1371  2.5233  1.5114
 4672TIP3   OH213972   6.949   4.981   3.570  0.2906  0.0641  0.6580
 4672TIP3    H113973   7.005   4.919   3.524  1.6390  0.4814  1.6887
 4672TIP3    H213974   6.911   5.035   3.502 -0.2913 -1.3615 -0.2055
 4673TIP3   OH213975   1.624   5.643   0.615 -0.1391  0.0002 -0.1822
 4673TIP3    H113976   1.657   5.611   0.531  0.1950  0.7758 -0.3543
 4673TIP3    H213977   1.681   5.602   0.681  0.3790  0.3541 -0.4069
 4674TIP3   OH213978   7.904   4.228   3.398  0.0041 -0.0356  0.0111
 4674TIP3    H113979   7.908   4.244   3.304 -0.1646  0.4864  0.0888
 4674TIP3    H213980   7.883   4.313   3.436 -0.7621 -0.4051  0.4556
 4675TIP3   OH213981   4.816   0.409   0.328  0.1492  0.0644 -0.3064
 4675TIP3    H113982   4.852   0.380   0.411  0.4307  1.2511  0.0010
 4675TIP3    H213983   4.723   0.387   0.332  0.2093 -0.0852  0.2266
 4676TIP3   OH213984   4.656   2.690   1.901  0.0571  0.5677  0.4974
 4676TIP3    H113985   4.636   2.653   1.815  0.1662  0.0158  0.7103
 4676TIP3    H213986   4.693   2.618   1.951  1.1650  1.1946  0.6079
 4677TIP3   OH213987   6.371   7.321   0.169  0.0338 -0.1239 -0.1664
 4677TIP3    H113988   6.397   7.359   0.253 -1.3233  1.0362 -0.2282
 4677TIP3    H213989   6.430   7.359   0.105 -1.5732  2.3541 -0.2916
 4678TIP3   OH213990   7.200   0.417   5.171 -0.3017 -0.0251 -0.0436
 4678TIP3    H113991   7.213   0.323   5.176  0.8848 -0.0253 -2.2222
 4678TIP3    H213992   7.287   0.453   5.154 -1.3295  0.9561 -4.2528
 4679TIP3   OH213993   8.085   5.093   5.830  0.2615 -0.1183 -0.1732
 4679TIP3    H113994   8.131   5.115   5.748  0.4666  0.9664  0.2147
 4679TIP3    H213995   8.017   5.160   5.838 -0.4480 -0.8438  0.0181
 4680TIP3   OH213996   5.346   7.307   2.263  0.1317  0.5288  0.4288
 4680TIP3    H113997   5.293   7.260   2.326 -1.4473  1.0657 -0.4496
 4680TIP3    H213998   5.286   7.368   2.220  1.1313  0.2051 -1.5818
 4681TIP3   OH213999   4.862   5.013   6.136  0.3816  0.5042 -0.3324
 4681TIP3    H114000   4.896   5.083   6.191  1.7972 -0.1690 -0.3001
 4681TIP3    H214001   4.871   5.045   6.046 -0.7457  1.0908 -0.2614
 4682TIP3   OH214002   1.306   1.768   0.321 -0.0879  0.2130  0.3386
 4682TIP3    H114003   1.340   1.695   0.268 -0.2035  0.0874  0.4361
 4682TIP3    H214004   1.217   1.741   0.343 -0.2539  0.5461  0.0788
 4683TIP3   OH214005   5.648   2.128   3.344 -0.1883 -0.2566  0.4376
 4683TIP3    H114006   5.728   2.136   3.292  0.1350 -0.5085  0.8883
 4683TIP3    H214007   5.598   2.207   3.324  0.7811  0.5645  1.1626
 4684TIP3   OH214008   5.773   1.728   0.713  0.1601  0.6232  0.0151
 4684TIP3    H114009   5.831   1.654   0.695  1.3040  1.2834  0.8776
 4684TIP3    H214010   5.707   1.725   0.643  2.0138  0.6403 -1.8136
 4685TIP3   OH214011   5.504   3.647   2.557  0.1932  0.3153  0.1192
 4685TIP3    H114012   5.432   3.625   2.499  1.4257 -2.5260 -0.4875
 4685TIP3    H214013   5.581   3.606   2.517  1.6170  0.7453  2.2409
 4686TIP3   OH214014   7.584   1.777   1.031 -0.1378  0.2898  0.2442
 4686TIP3    H114015   7.561   1.843   1.096 -1.9284 -0.3744  0.3365
 4686TIP3    H214016   7.638   1.824   0.967 -0.9439  1.7305  0.5740
 4687TIP3   OH214017   2.373   6.564   1.737  0.0070  0.5605 -0.1462
 4687TIP3    H114018   2.323   6.621   1.678 -0.1574  1.3073  0.6953
 4687TIP3    H214019   2.310   6.501   1.770 -0.1804  0.9414  0.2209
 4688TIP3   OH214020   0.390   4.010   1.908 -0.8176  0.1997  0.2004
 4688TIP3    H114021   0.363   4.099   1.934  2.3912  0.6398  2.6372
 4688TIP3    H214022   0.398   4.015   1.813  1.1496  3.2204  0.3770
 4689TIP3   OH214023   6.415   7.746   0.471 -0.3931  0.4595  0.1364
 4689TIP3    H114024   6.348   7.707   0.414 -0.8731  0.0781  0.9442
 4689TIP3    H214025   6.374   7.826   0.503 -0.5325  0.1379  0.7686
 4690TIP3   OH214026   8.261   0.215   5.904  0.3391 -0.8983 -0.6942
 4690TIP3    H114027   8.263   0.157   5.828 -0.2968 -1.5775 -0.2083
 4690TIP3    H214028   8.241   0.157   5.978 -0.1422 -0.0883 -0.1743
 4691TIP3   OH214029   3.162   5.056   6.570 -0.0226 -0.1248 -0.3959
 4691TIP3    H114030   3.155   4.974   6.619 -2.1273 -0.7563 -1.5956
 4691TIP3    H214031   3.152   5.124   6.636  0.9029 -0.8427  0.5131
 4692TIP3   OH214032   1.101   1.506   4.047  0.0043 -0.5053 -0.0564
 4692TIP3    H114033   1.134   1.505   3.957 -0.4289 -2.5046 -0.2450
 4692TIP3    H214034   1.100   1.413   4.073  1.3938  0.1052  2.5064
 4693TIP3   OH214035   1.848   3.264   4.526 -0.0978  0.2741  0.0327
 4693TIP3    H114036   1.941   3.274   4.506 -0.3578  2.1523 -0.4290
 4693TIP3    H214037   1.837   3.170   4.542  1.6660 -0.1554 -0.9610
 4694TIP3   OH214038   0.578   6.678   3.536  0.7652 -0.2869 -0.9029
 4694TIP3    H114039   0.607   6.760   3.575  1.2045 -1.7476  2.1480
 4694TIP3    H214040   0.630   6.669   3.457  1.2556  1.9887 -0.8949
 4695TIP3   OH214041   2.741   0.630   4.750  0.0514  0.8580 -0.2816
 4695TIP3    H114042   2.817   0.689   4.748  0.0595  0.9183  0.9460
 4695TIP3    H214043   2.764   0.562   4.813  0.1383 -0.6399 -1.8715
 4696TIP3   OH214044   4.053   2.658   2.557 -0.0657 -0.1224  0.2593
 4696TIP3    H114045   4.023   2.746   2.578 -0.1931 -0.2240  0.5133
 4696TIP3    H214046   3.995   2.628   2.487  1.1492  0.6909 -1.1645
 4697TIP3   OH214047   7.111   6.189   3.113  0.2331  0.3897 -0.0850
 4697TIP3    H114048   7.150   6.262   3.161  1.6245 -0.5651  0.2786
 4697TIP3    H214049   7.018   6.193   3.136  0.6802  0.5993  1.8730
 4698TIP3   OH214050   6.468   0.976   0.417 -0.1205 -0.5363  0.3785
 4698TIP3    H114051   6.402   0.965   0.486 -0.3881 -0.4033  0.1431
 4698TIP3    H214052   6.426   0.944   0.337 -0.1406  0.1827  0.0970
 4699TIP3   OH214053   5.058   3.200   4.119 -0.0240  0.5390 -0.6210
 4699TIP3    H114054   5.032   3.197   4.211  1.1457  1.3849 -0.2401
 4699TIP3    H214055   5.143   3.156   4.116 -0.4058 -0.1785 -1.4450
 4700TIP3   OH214056   7.968   4.718   1.842 -0.2527  0.3528 -0.5411
 4700TIP3    H114057   7.895   4.774   1.818 -1.1369 -0.4039  0.3146
 4700TIP3    H214058   7.930   4.652   1.901  0.8220 -0.8865 -1.1745
 4701TIP3   OH214059   2.591   3.421   3.262 -0.6328  0.3248  0.2440
 4701TIP3    H114060   2.553   3.371   3.190 -1.6393  0.4535  0.6726
 4701TIP3    H214061   2.577   3.366   3.339  0.3322  0.2423  0.3671
 4702TIP3   OH214062   6.521   3.095   6.775 -0.4819 -1.1219 -0.1667
 4702TIP3    H114063   6.544   3.131   6.689  0.8974 -0.6865  0.3458
 4702TIP3    H214064   6.427   3.107   6.781 -0.3069  1.0997 -0.6643
 4703TIP3   OH214065   0.212   4.621   5.060 -0.5345 -0.5339 -0.1308
 4703TIP3    H114066   0.229   4.608   4.966  0.9591  0.7561 -0.0959
 4703TIP3    H214067   0.192   4.715   5.067 -1.3949 -0.7747  0.7540
 4704TIP3   OH214068   0.874   4.517   3.939  0.1073  0.2409 -0.7872
 4704TIP3    H114069   0.907   4.442   3.890  0.6820  0.3271 -0.5427
 4704TIP3    H214070   0.812   4.480   4.001  1.1041 -0.1623 -0.0097
 4705TIP3   OH214071   5.149   4.251   3.929 -0.2915  0.1979 -0.2399
 4705TIP3    H114072   5.196   4.307   3.867  1.1314 -1.9005 -1.1566
 4705TIP3    H214073   5.060   4.287   3.930 -0.1513  0.8316 -2.8461
 4706TIP3   OH214074   5.919   0.587   1.135  0.3989  0.0299  0.0317
 4706TIP3    H114075   5.839   0.534   1.142  0.6966 -0.6040 -1.2030
 4706TIP3    H214076   5.935   0.594   1.041  1.5630  0.5270  0.2548
 4707TIP3   OH214077   3.211   1.142   4.953 -0.0430  0.6970 -0.1858
 4707TIP3    H114078   3.245   1.194   4.880 -0.4322  0.1180 -0.7855
 4707TIP3    H214079   3.118   1.132   4.934  0.1630 -0.8472 -0.4658
 4708TIP3   OH214080   0.148   6.738   3.655 -0.2409 -0.5358  0.3641
 4708TIP3    H114081   0.130   6.664   3.712  0.3509 -0.6094  0.4700
 4708TIP3    H214082   0.201   6.797   3.710  0.2459 -0.5592 -0.0690
 4709TIP3   OH214083   6.703   1.439   4.627 -0.1811  0.0703  0.2825
 4709TIP3    H114084   6.778   1.460   4.571  0.0820 -0.5601  0.3907
 4709TIP3    H214085   6.681   1.348   4.605 -0.2716 -0.0816  0.9752
 4710TIP3   OH214086   3.648   3.619   5.242 -0.7136 -0.3403 -0.2992
 4710TIP3    H114087   3.725   3.578   5.280  0.4415 -0.3947 -2.5289
 4710TIP3    H214088   3.575   3.585   5.293  0.5912 -1.5009  0.8816
 4711TIP3   OH214089   3.484   5.038   1.944 -0.3463  0.4311  0.4019
 4711TIP3    H114090   3.434   4.970   1.900 -0.9664  0.3970  1.1362
 4711TIP3    H214091   3.456   5.033   2.036 -1.1365  2.2869  0.3088
 4712TIP3   OH214092   6.510   0.811   5.039  0.1482 -0.0223 -0.3254
 4712TIP3    H114093   6.580   0.770   4.988 -0.3137 -1.3625  0.0662
 4712TIP3    H214094   6.555   0.865   5.103  0.7896  0.0050 -0.7900
 4713TIP3   OH214095   0.521   5.387   4.959  0.0627  0.0703 -0.5011
 4713TIP3    H114096   0.475   5.443   4.897 -0.9577 -1.7390 -1.4475
 4713TIP3    H214097   0.609   5.378   4.923 -0.0095  0.4152 -0.7650
 4714TIP3   OH214098   3.111   6.946   0.536 -0.1963  0.3284  0.3417
 4714TIP3    H114099   3.084   6.863   0.574 -0.9463  0.8756  1.0253
 4714TIP3    H214100   3.111   7.007   0.609 -0.8300  1.2052 -0.3723
 4715TIP3   OH214101   6.463   4.367   5.536 -0.2010  0.0082  1.0277
 4715TIP3    H114102   6.423   4.453   5.528 -1.2058 -0.4077  1.4355
 4715TIP3    H214103   6.523   4.361   5.462 -1.1013  0.5451  0.2431
 4716TIP3   OH214104   3.315   7.100   0.339 -0.3646  0.3022 -0.3175
 4716TIP3    H114105   3.309   7.061   0.252 -0.5439 -0.1449 -0.1104
 4716TIP3    H214106   3.226   7.098   0.372 -0.4384  1.2564 -0.4545
 4717TIP3   OH214107   0.213   0.525   1.520  0.0813 -0.0231 -0.0510
 4717TIP3    H114108   0.209   0.476   1.438 -1.4081  3.3389 -2.2016
 4717TIP3    H214109   0.135   0.496   1.568 -0.1424 -0.5504 -0.7103
 4718TIP3   OH214110   7.911   2.183   2.569 -0.0182 -0.2984  0.2702
 4718TIP3    H114111   7.866   2.122   2.511 -1.9549  1.3182 -0.0477
 4718TIP3    H214112   8.001   2.186   2.536 -0.2364 -1.8758 -0.5631
 4719TIP3   OH214113   7.639   3.021   4.888  0.1916 -0.3980 -0.7576
 4719TIP3    H114114   7.643   2.988   4.978  1.8013  3.1880  0.6660
 4719TIP3    H214115   7.562   3.077   4.886 -0.1403 -0.8757 -1.8069
 4720TIP3   OH214116   8.027   3.834   0.808  0.0816  0.3330 -0.0685
 4720TIP3    H114117   8.034   3.840   0.713  0.5524 -0.1376 -0.0694
 4720TIP3    H214118   8.109   3.792   0.835 -0.0160  0.5328  0.5489
 4721TIP3   OH214119   2.680   7.607   0.295 -0.1171 -0.4115 -0.0930
 4721TIP3    H114120   2.771   7.621   0.321 -0.3078 -0.1637  0.4699
 4721TIP3    H214121   2.630   7.620   0.376 -0.7583  0.5907 -0.6184
 4722TIP3   OH214122   0.623   3.186   4.558  0.4227  0.6079 -0.1038
 4722TIP3    H114123   0.607   3.249   4.487 -0.0394 -0.0172 -0.5577
 4722TIP3    H214124   0.546   3.194   4.614 -1.6077 -2.2678 -2.1919
 4723TIP3   OH214125   1.404   2.713   5.883 -1.1866  0.1181 -0.4667
 4723TIP3    H114126   1.329   2.737   5.828 -0.6805  0.7709 -0.8890
 4723TIP3    H214127   1.463   2.668   5.823 -1.0082  0.0723 -0.2555
 4724TIP3   OH214128   5.585   6.932   3.272  0.2111 -0.8038  0.4129
 4724TIP3    H114129   5.550   6.944   3.184 -0.6642 -1.2951  0.6913
 4724TIP3    H214130   5.564   6.842   3.295  0.0917 -0.5682  1.2730
 4725TIP3   OH214131   4.549   7.812   4.369 -0.0749  0.0691  0.4153
 4725TIP3    H114132   4.588   7.829   4.284 -0.6709  3.6022  0.7061
 4725TIP3    H214133   4.455   7.806   4.351 -0.1018 -0.3692  0.6912
 4726TIP3   OH214134   3.052   1.961   4.961  0.3571  0.1540  0.4874
 4726TIP3    H114135   2.964   1.994   4.978  0.6449  1.6675 -0.7325
 4726TIP3    H214136   3.110   2.024   5.004  0.8800  0.1064 -0.1278
 4727TIP3   OH214137   8.153   5.332   2.505  0.3461 -0.0169 -0.0535
 4727TIP3    H114138   8.142   5.295   2.417 -1.1931 -1.4253  0.6658
 4727TIP3    H214139   8.195   5.262   2.555  1.8222  1.0147  0.2185
 4728TIP3   OH214140   5.357   2.028   3.652 -0.1743 -0.1314 -0.0658
 4728TIP3    H114141   5.340   2.074   3.570 -1.8053  0.0543  0.3338
 4728TIP3    H214142   5.400   2.093   3.707 -1.1556  0.4990 -0.0073
 4729TIP3   OH214143   6.132   4.736   4.322  0.1138  0.2618 -0.3743
 4729TIP3    H114144   6.209   4.703   4.276  0.1955  0.7214 -0.5835
 4729TIP3    H214145   6.135   4.696   4.408  1.1165  1.0124 -0.0409
 4730TIP3   OH214146   4.554   7.360   6.250 -0.2505 -0.1153 -0.1748
 4730TIP3    H114147   4.634   7.328   6.292 -1.5792 -1.4832  1.4275
 4730TIP3    H214148   4.578   7.447   6.218  0.8798  1.1286  3.5451
 4731TIP3   OH214149   0.908   3.359   0.899 -0.0710  0.2734 -0.1448
 4731TIP3    H114150   0.914   3.315   0.814  0.6538 -0.1277  0.1049
 4731TIP3    H214151   0.823   3.333   0.934  0.3829 -1.0127  0.0426
 4732TIP3   OH214152   7.664   6.369   5.972 -0.0131 -0.2921  0.2064
 4732TIP3    H114153   7.659   6.446   5.915  2.0462  0.1017  0.4825
 4732TIP3    H214154   7.608   6.304   5.929 -2.8451  1.6809  0.6043
 4733TIP3   OH214155   4.159   3.909   6.221 -0.0534  0.0275 -0.1976
 4733TIP3    H114156   4.114   3.954   6.150  0.7414  0.5132 -0.3957
 4733TIP3    H214157   4.109   3.932   6.299 -0.3341  0.3087 -0.4602
 4734TIP3   OH214158   8.111   6.392   5.066 -0.0693  0.0131  0.1096
 4734TIP3    H114159   8.093   6.338   4.988  2.2549  0.6539 -0.9592
 4734TIP3    H214160   8.179   6.344   5.112  0.3152  0.8616  0.4290
 4735TIP3   OH214161   2.841   7.028   0.923 -0.1657  0.4256 -0.2082
 4735TIP3    H114162   2.746   7.025   0.930 -0.1186 -1.3545  0.0388
 4735TIP3    H214163   2.858   7.059   0.834 -1.0221 -1.7510 -1.1824
 4736TIP3   OH214164   5.279   5.361   3.021  0.0047 -0.3284  0.4609
 4736TIP3    H114165   5.365   5.355   3.064 -0.2138 -2.1143  0.7153
 4736TIP3    H214166   5.217   5.371   3.093  0.0377  2.1183  0.2249
 4737TIP3   OH214167   5.791   1.590   0.294  0.0406  0.6355 -0.5341
 4737TIP3    H114168   5.836   1.546   0.366 -0.4493  1.0874  0.0596
 4737TIP3    H214169   5.839   1.672   0.283  0.4976  0.2990 -1.1493
 4738TIP3   OH214170   4.343   2.697   2.087  0.2067 -0.2885  0.2757
 4738TIP3    H114171   4.313   2.694   1.996  0.5282 -1.1105  0.1970
 4738TIP3    H214172   4.418   2.756   2.086  0.1511 -0.2221  0.0291
 4739TIP3   OH214173   4.878   0.837   4.241 -0.0103  0.3147  0.3131
 4739TIP3    H114174   4.783   0.826   4.231 -0.0083  1.1344 -0.7455
 4739TIP3    H214175   4.900   0.782   4.317 -1.0174 -1.5050 -0.6301
 4740TIP3   OH214176   6.697   0.309   0.522  0.1139 -0.8922  0.0119
 4740TIP3    H114177   6.791   0.320   0.511 -0.0970 -0.2817 -1.4011
 4740TIP3    H214178   6.688   0.230   0.575  1.4317 -0.1969  1.3404
 4741TIP3   OH214179   3.122   4.649   0.163 -0.9364  0.1232 -0.0890
 4741TIP3    H114180   3.180   4.609   0.098 -0.3236  0.8815 -0.0228
 4741TIP3    H214181   3.052   4.689   0.112 -0.2848  0.9934 -0.3084
 4742TIP3   OH214182   6.912   7.660   5.952 -0.4644 -0.1124  0.5566
 4742TIP3    H114183   6.889   7.581   5.904  0.0558  0.0544  0.0097
 4742TIP3    H214184   6.996   7.687   5.914 -0.5148  0.5578  0.9078
 4743TIP3   OH214185   3.868   6.908   4.952  0.0440  0.4199  0.0925
 4743TIP3    H114186   3.871   6.821   4.991  1.4674  0.3409 -0.1209
 4743TIP3    H214187   3.866   6.968   5.027  0.1044  0.2146  0.2595
 4744TIP3   OH214188   0.253   3.730   5.435  0.9626 -1.0749 -0.2908
 4744TIP3    H114189   0.246   3.815   5.392 -0.3373 -0.2672  1.3799
 4744TIP3    H214190   0.169   3.688   5.421  0.5460 -0.8366  1.2724
 4745TIP3   OH214191   2.412   1.029   3.090 -0.5006  0.9229 -0.5370
 4745TIP3    H114192   2.412   1.084   3.168 -1.2799  0.3726 -0.1423
 4745TIP3    H214193   2.499   0.989   3.090 -0.8091  0.2150  0.5687
 4746TIP3   OH214194   7.493   6.735   4.997  0.4110  0.5852  0.2802
 4746TIP3    H114195   7.525   6.654   5.036  0.5830  0.3134 -0.4136
 4746TIP3    H214196   7.557   6.801   5.023  1.5950  0.0531 -1.0880
 4747TIP3   OH214197   1.342   2.583   6.324 -0.1982  0.3928 -0.3371
 4747TIP3    H114198   1.369   2.493   6.345 -0.5322 -0.2350 -2.3736
 4747TIP3    H214199   1.397   2.607   6.250 -0.4777  1.7014 -0.1366
 4748TIP3   OH214200   2.175   4.439   6.732 -0.9405  1.0651  0.1963
 4748TIP3    H114201   2.173   4.403   6.644  0.6373 -0.5691  0.7567
 4748TIP3    H214202   2.212   4.527   6.722  1.0061  0.2058 -0.6198
 4749TIP3   OH214203   6.854   4.216   6.066 -0.2961  0.3839 -0.5128
 4749TIP3    H114204   6.913   4.192   5.995  0.2903  0.9853 -0.2364
 4749TIP3    H214205   6.781   4.154   6.059  1.2795 -1.6747  0.3712
 4750TIP3   OH214206   0.148   6.494   6.271 -0.5052 -0.0618  0.3661
 4750TIP3    H114207   0.084   6.531   6.209 -1.0368  0.4864  1.2101
 4750TIP3    H214208   0.145   6.400   6.255  0.2866  0.1584 -1.2876
 4751TIP3   OH214209   4.248   6.665   1.160 -0.5199  1.0073  0.5982
 4751TIP3    H114210   4.195   6.646   1.083  0.7625 -2.4694  0.3778
 4751TIP3    H214211   4.323   6.715   1.126  0.5117 -1.2739 -0.7058
 4752TIP3   OH214212   2.997   0.409   5.618  0.1581  1.0364 -0.0425
 4752TIP3    H114213   2.914   0.418   5.571  0.2089 -0.2035 -0.4199
 4752TIP3    H214214   2.978   0.440   5.707 -0.2937  2.1612 -0.5170
 4753TIP3   OH214215   2.420   5.677   4.225  0.2183 -0.0436  0.3234
 4753TIP3    H114216   2.396   5.746   4.163  0.2923  0.0245  0.3701
 4753TIP3    H214217   2.507   5.702   4.256 -0.7041  1.0954  2.1120
 4754TIP3   OH214218   7.684   6.515   0.954  0.5637  0.1250 -0.0024
 4754TIP3    H114219   7.652   6.595   0.912 -0.1392 -0.6935 -1.0799
 4754TIP3    H214220   7.658   6.523   1.046 -1.6504  0.0810 -0.5789
 4755TIP3   OH214221   0.835   4.057   6.558  0.4459 -0.2948 -0.1798
 4755TIP3    H114222   0.924   4.027   6.576  0.9276  0.7765 -0.6400
 4755TIP3    H214223   0.780   3.981   6.574  1.3945 -0.8510  0.5748
 4756TIP3   OH214224   2.719   4.326   4.207  0.0830 -0.4969 -0.3325
 4756TIP3    H114225   2.736   4.288   4.121  1.9570 -1.0475  0.2296
 4756TIP3    H214226   2.729   4.253   4.268 -1.1120 -0.0899  0.3904
 4757TIP3   OH214227   1.670   2.658   3.379  0.1236  0.1909  0.3333
 4757TIP3    H114228   1.750   2.682   3.427  0.4771  2.1863 -1.1266
 4757TIP3    H214229   1.695   2.664   3.287 -1.2292 -1.0523 -0.1415
 4758TIP3   OH214230   5.456   7.598   0.154  0.3722 -0.2932 -0.4239
 4758TIP3    H114231   5.394   7.596   0.082 -0.3398  0.2624  0.1592
 4758TIP3    H214232   5.463   7.507   0.183 -2.2884 -0.0610  1.2525
 4759TIP3   OH214233   4.368   6.463   1.283 -0.4709  0.2774  1.5642
 4759TIP3    H114234   4.333   6.544   1.246  4.4812  1.7132 -0.7911
 4759TIP3    H214235   4.333   6.394   1.226 -0.6703  1.3946  0.2962
 4760TIP3   OH214236   6.105   3.713   0.798  0.5985 -0.0655 -0.3708
 4760TIP3    H114237   6.192   3.715   0.839  0.6216 -1.3244 -0.3023
 4760TIP3    H214238   6.046   3.742   0.867  0.8878  0.0881 -0.1835
 4761TIP3   OH214239   0.398   1.433   2.844 -0.3822 -0.1232 -0.2908
 4761TIP3    H114240   0.309   1.468   2.842 -0.5776 -0.4664  1.3761
 4761TIP3    H214241   0.438   1.467   2.763 -0.9940  2.7931  0.5000
 4762TIP3   OH214242   2.739   4.054   5.025 -0.2864  0.4708 -0.4497
 4762TIP3    H114243   2.681   4.002   5.081 -0.1677  0.7041 -0.1021
 4762TIP3    H214244   2.681   4.096   4.962 -0.2204 -1.4125 -1.8491
 4763TIP3   OH214245   6.061   2.455   3.214 -0.2199  0.5685 -0.3691
 4763TIP3    H114246   6.000   2.487   3.147  0.2231 -0.6375 -1.3845
 4763TIP3    H214247   6.146   2.490   3.187 -0.2923  1.4389  0.4996
 4764TIP3   OH214248   0.075   0.806   5.057  0.2802 -0.3870  0.5964
 4764TIP3    H114249   0.131   0.771   4.988  0.8682 -0.0898  0.9110
 4764TIP3    H214250   0.116   0.890   5.081 -1.6731  1.0762 -0.8639
 4765TIP3   OH214251   4.243   2.728   4.020  0.0986 -0.2233  0.1414
 4765TIP3    H114252   4.226   2.821   4.011 -0.5206 -0.3434  0.0075
 4765TIP3    H214253   4.200   2.688   3.944  3.0878 -0.3432 -1.6660
 4766TIP3   OH214254   8.309   0.964   5.679  0.2750  0.4824 -0.1084
 4766TIP3    H114255   8.333   0.952   5.587 -2.4039  0.1859 -0.8659
 4766TIP3    H214256   8.287   0.876   5.711 -2.3785  0.9364 -0.3928
 4767TIP3   OH214257   7.831   3.051   2.338  0.2944 -0.5398  0.5690
 4767TIP3    H114258   7.823   3.063   2.243  1.1708 -0.3167  0.5136
 4767TIP3    H214259   7.924   3.064   2.356  0.1346 -0.5699  1.4671
 4768TIP3   OH214260   1.557   1.982   6.626 -0.5937 -0.1403  0.4719
 4768TIP3    H114261   1.612   1.965   6.549 -0.0401 -0.0533  0.8460
 4768TIP3    H214262   1.562   2.077   6.638  1.8393 -0.4169  2.4420
 4769TIP3   OH214263   7.123   2.982   3.335 -0.2759 -0.6836 -0.6446
 4769TIP3    H114264   7.096   2.948   3.420  0.0589 -0.9898 -0.6571
 4769TIP3    H214265   7.218   2.969   3.333 -0.1441  0.2107 -0.6686
 4770TIP3   OH214266   7.531   3.052   4.214  0.3242  0.0213  0.0075
 4770TIP3    H114267   7.618   3.025   4.185 -0.0673  0.7246 -1.9797
 4770TIP3    H214268   7.546   3.093   4.300  1.9263  0.0687 -0.2625
 4771TIP3   OH214269   7.936   6.661   1.644 -0.0334 -0.2497  0.3596
 4771TIP3    H114270   8.024   6.668   1.681 -0.3643  2.3661  0.8302
 4771TIP3    H214271   7.902   6.750   1.646 -1.8940 -0.8184 -1.8495
 4772TIP3   OH214272   6.360   4.059   6.071  0.4073  0.0132 -0.0964
 4772TIP3    H114273   6.451   4.075   6.046  0.5955 -1.4279 -0.4126
 4772TIP3    H214274   6.308   4.110   6.008  0.9690 -0.4539 -0.9569
 4773TIP3   OH214275   3.384   5.386   6.744  0.3389  0.6370  0.6725
 4773TIP3    H114276   3.399   5.330   6.821  0.1693 -1.0777 -0.4965
 4773TIP3    H214277   3.466   5.382   6.695 -0.3000 -0.1046 -0.3552
 4774TIP3   OH214278   6.845   7.167   4.595 -0.1752  1.4702 -0.0657
 4774TIP3    H114279   6.882   7.105   4.531 -0.2533 -0.3132  1.5253
 4774TIP3    H214280   6.815   7.241   4.542 -1.2611 -0.3906 -2.2504
 4775TIP3   OH214281   0.562   3.154   1.387 -0.4995 -0.1087 -0.2337
 4775TIP3    H114282   0.537   3.079   1.441  0.2792 -0.3361 -0.1797
 4775TIP3    H214283   0.513   3.227   1.425 -0.4140 -0.3781  0.4187
 4776TIP3   OH214284   0.076   5.624   4.122 -0.2308  0.3832 -0.2931
 4776TIP3    H114285   0.022   5.552   4.089 -1.3640  1.0070  0.1416
 4776TIP3    H214286   0.138   5.582   4.182 -1.5895 -0.1245  0.8168
 4777TIP3   OH214287   7.559   6.152   2.288 -0.0937  0.1534 -0.3565
 4777TIP3    H114288   7.478   6.144   2.338 -1.1514 -2.3202 -2.3054
 4777TIP3    H214289   7.615   6.083   2.322 -0.6191 -1.1928 -2.1200
 4778TIP3   OH214290   4.161   1.072   3.720  0.6282 -0.1336 -0.4269
 4778TIP3    H114291   4.214   1.029   3.786 -2.2072 -1.2854  1.2799
 4778TIP3    H214292   4.179   1.022   3.639  1.0239 -1.4446  0.4333
 4779TIP3   OH214293   5.499   5.096   6.698  0.6836  0.0056 -0.4540
 4779TIP3    H114294   5.447   5.091   6.778  1.9571  0.2765  0.4197
 4779TIP3    H214295   5.494   5.008   6.660 -1.0002  0.2162 -0.7988
 4780TIP3   OH214296   6.733   3.294   3.679  0.7123  0.2568 -0.0866
 4780TIP3    H114297   6.754   3.308   3.771 -0.1214  0.3389  0.0983
 4780TIP3    H214298   6.642   3.263   3.679  1.1017 -0.9495 -0.7970
 4781TIP3   OH214299   0.937   2.066   6.480  0.1433  0.0727  0.3097
 4781TIP3    H114300   0.856   2.085   6.527 -0.2042  1.1439 -0.6729
 4781TIP3    H214301   0.911   2.007   6.409  0.5565 -1.0419  1.0641
 4782TIP3   OH214302   0.280   4.309   5.125 -0.3557 -0.6178  0.0030
 4782TIP3    H114303   0.218   4.309   5.052 -0.9072  0.3544  0.4474
 4782TIP3    H214304   0.233   4.264   5.196  0.1319 -1.4509 -0.1791
 4783TIP3   OH214305   3.206   2.237   2.026 -0.3663  0.5227  0.0975
 4783TIP3    H114306   3.132   2.265   1.972 -0.7624  0.6513  0.7030
 4783TIP3    H214307   3.173   2.240   2.116 -0.7135 -2.6858  0.1951
 4784TIP3   OH214308   5.771   4.609   5.690 -0.2176 -0.1985  0.5135
 4784TIP3    H114309   5.848   4.637   5.739  0.9393  0.5545 -1.6129
 4784TIP3    H214310   5.741   4.687   5.644 -0.1523 -1.1962 -1.3532
 4785TIP3   OH214311   4.155   0.143   3.580 -0.0687  0.0463 -0.1466
 4785TIP3    H114312   4.240   0.105   3.600  0.0786  0.2766 -0.3199
 4785TIP3    H214313   4.095   0.106   3.645 -0.0982 -1.1068 -0.8136
 4786TIP3   OH214314   3.196   5.776   2.828  0.1708  0.1235  0.4021
 4786TIP3    H114315   3.181   5.684   2.804  0.4016  0.1750  0.0591
 4786TIP3    H214316   3.239   5.814   2.752  1.5737  0.1181  1.1569
 4787TIP3   OH214317   1.910   7.367   5.151 -0.0719  0.0324 -0.5292
 4787TIP3    H114318   1.894   7.298   5.215  0.3356  0.0896 -0.3609
 4787TIP3    H214319   1.960   7.433   5.199 -0.6769  0.5644 -0.6156
 4788TIP3   OH214320   4.179   2.344   3.846 -0.0437 -0.2729 -0.4369
 4788TIP3    H114321   4.085   2.329   3.849 -0.2056  0.6567 -0.4985
 4788TIP3    H214322   4.188   2.434   3.813  0.8581 -0.3271 -0.3652
 4789TIP3   OH214323   1.060   3.383   6.137 -0.5666 -0.2954  0.3591
 4789TIP3    H114324   1.107   3.388   6.054 -1.3744  1.1229 -0.0445
 4789TIP3    H214325   1.099   3.453   6.191 -1.8925  0.6400  0.1536
 4790TIP3   OH214326   6.806   5.318   1.672 -0.0977 -0.1118  0.4046
 4790TIP3    H114327   6.871   5.249   1.682  1.2172  0.4216 -3.1306
 4790TIP3    H214328   6.831   5.385   1.736  2.0563 -0.4983  0.0421
 4791TIP3   OH214329   7.666   2.105   6.728 -0.1226 -0.2418  0.4194
 4791TIP3    H114330   7.584   2.131   6.768 -0.5558 -1.1299  0.1411
 4791TIP3    H214331   7.731   2.167   6.762 -0.9631  0.6981  0.3466
 4792TIP3   OH214332   1.779   4.469   4.235 -0.4018  0.1099  0.0842
 4792TIP3    H114333   1.712   4.457   4.167 -0.4191 -0.0510  0.1296
 4792TIP3    H214334   1.731   4.510   4.307 -0.2432  0.8935 -0.2442
 4793TIP3   OH214335   0.953   2.963   6.284  0.3435 -0.1150 -0.8335
 4793TIP3    H114336   0.988   2.907   6.215 -1.4201 -3.0241  0.4247
 4793TIP3    H214337   0.988   2.925   6.365  0.0200  1.3703  0.0308
 4794TIP3   OH214338   1.916   5.128   3.810  0.0968 -0.1825 -0.3214
 4794TIP3    H114339   1.869   5.196   3.762 -0.1388  1.0863  1.5895
 4794TIP3    H214340   1.915   5.053   3.751 -0.3880  1.1853 -2.1662
 4795TIP3   OH214341   1.637   3.939   4.233 -0.0925 -0.1456  0.5367
 4795TIP3    H114342   1.653   3.886   4.311 -0.6300 -1.2342 -0.0697
 4795TIP3    H214343   1.691   4.017   4.245 -1.5823  0.6356  2.8852
 4796TIP3   OH214344   4.050   6.969   1.257  0.2873 -0.1388  0.3638
 4796TIP3    H114345   4.136   6.984   1.217 -1.3109 -1.6811 -4.4077
 4796TIP3    H214346   3.990   7.023   1.204 -1.9121 -0.3933  2.4345
 4797TIP3   OH214347   7.480   5.322   6.758 -0.8017  0.0646  0.3477
 4797TIP3    H114348   7.569   5.286   6.752 -1.6065 -2.2048  0.7326
 4797TIP3    H214349   7.488   5.398   6.815  1.0537  0.5764 -0.5242
 4798TIP3   OH214350   6.492   2.566   3.100  0.5995 -0.5019 -0.1339
 4798TIP3    H114351   6.541   2.574   3.182  0.6473 -0.1446 -0.1923
 4798TIP3    H214352   6.477   2.657   3.072  0.9243 -0.6228 -0.7235
 4799TIP3   OH214353   1.249   7.596   2.188  0.4190  0.0533 -0.3800
 4799TIP3    H114354   1.227   7.549   2.269 -0.9456 -0.2327 -0.8948
 4799TIP3    H214355   1.278   7.682   2.218 -2.6894  0.9783  0.3764
 4800TIP3   OH214356   2.047   1.663   5.382  0.5376  0.4127  0.4425
 4800TIP3    H114357   1.954   1.643   5.385  0.5719  0.1756  0.0199
 4800TIP3    H214358   2.074   1.667   5.474  0.0986  0.5547  0.5675
 4801TIP3   OH214359   4.449   7.616   0.355 -0.2322 -0.2897  0.2435
 4801TIP3    H114360   4.362   7.654   0.362  0.0036  0.5883 -1.2236
 4801TIP3    H214361   4.502   7.665   0.418 -0.6559 -0.4553  0.7433
 4802TIP3   OH214362   3.489   1.923   0.861 -0.1735 -0.7576 -0.0757
 4802TIP3    H114363   3.566   1.924   0.803  0.0967 -0.2916  0.2854
 4802TIP3    H214364   3.465   1.831   0.867 -1.6681 -0.6467 -2.8382
 4803TIP3   OH214365   6.260   1.600   6.605  0.1953  0.0291  0.7553
 4803TIP3    H114366   6.204   1.524   6.622 -0.0797 -0.1412 -0.7675
 4803TIP3    H214367   6.340   1.563   6.567 -0.0755  0.5052 -0.3066
 4804TIP3   OH214368   2.415   6.697   0.360  0.1308  0.1291 -0.4218
 4804TIP3    H114369   2.383   6.608   0.345 -0.1641  0.3079 -0.8818
 4804TIP3    H214370   2.507   6.694   0.334 -0.0331  0.1056 -1.0170
 4805TIP3   OH214371   7.039   0.289   2.580 -0.0453  0.0782 -0.3071
 4805TIP3    H114372   7.114   0.293   2.640  0.1075  0.5231 -0.5256
 4805TIP3    H214373   7.037   0.375   2.538 -0.4214 -0.0786 -0.6156
 4806TIP3   OH214374   6.490   7.601   3.525  0.1984 -0.5994 -0.1955
 4806TIP3    H114375   6.488   7.547   3.446 -0.0536 -0.7614 -0.0801
 4806TIP3    H214376   6.536   7.681   3.498  1.1790 -1.1429 -0.1954
 4807TIP3   OH214377   0.816   2.180   4.562 -0.8072  0.2461  0.0900
 4807TIP3    H114378   0.895   2.138   4.595 -0.9252 -0.0330  0.0277
 4807TIP3    H214379   0.746   2.144   4.616 -1.0487 -0.4812 -0.6719
 4808TIP3   OH214380   7.093   0.261   1.909  0.2520 -0.0757  0.0880
 4808TIP3    H114381   7.064   0.223   1.992 -1.0084 -0.2337 -0.4019
 4808TIP3    H214382   7.015   0.262   1.855  0.5676  1.9555 -0.3952
 4809TIP3   OH214383   4.134   4.297   5.497 -0.2903 -0.1995  0.0363
 4809TIP3    H114384   4.147   4.392   5.489 -3.5584  0.3110 -0.8884
 4809TIP3    H214385   4.213   4.258   5.460  1.0502  2.1340  0.2650
 4810TIP3   OH214386   5.376   2.884   3.520  0.4584  0.2768  0.4292
 4810TIP3    H114387   5.466   2.904   3.492  0.1761  3.0278  1.1562
 4810TIP3    H214388   5.323   2.951   3.478 -1.0184 -0.2367  1.4031
 4811TIP3   OH214389   1.647   5.174   6.569 -0.4726  0.1484 -0.0482
 4811TIP3    H114390   1.644   5.087   6.610  0.4179  1.1042  2.2018
 4811TIP3    H214391   1.725   5.172   6.514  0.0745 -0.1963  0.7216
 4812TIP3   OH214392   1.080   2.710   3.339 -0.1893 -0.1388 -0.1756
 4812TIP3    H114393   1.107   2.620   3.354 -1.2481 -0.3277  0.6262
 4812TIP3    H214394   1.129   2.761   3.404 -2.4842 -0.6116  2.0758
 4813TIP3   OH214395   6.890   4.143   1.476 -0.0346  0.5100 -0.7462
 4813TIP3    H114396   6.905   4.105   1.389  1.0640  0.9146 -0.7381
 4813TIP3    H214397   6.813   4.199   1.464 -0.7326 -0.4872 -1.1204
 4814TIP3   OH214398   1.778   0.516   5.949  0.3308 -0.0411 -0.5431
 4814TIP3    H114399   1.796   0.608   5.932 -2.3091  0.7452  0.4507
 4814TIP3    H214400   1.803   0.471   5.868  2.2218  1.4221 -0.8287
 4815TIP3   OH214401   4.178   5.773   4.993  0.3490  0.0534 -0.7220
 4815TIP3    H114402   4.121   5.706   4.956 -0.0592  0.7152 -1.3352
 4815TIP3    H214403   4.151   5.854   4.949  0.0208  0.8476  0.8580
 4816TIP3   OH214404   2.795   0.232   2.511  0.8759 -0.3717 -0.1300
 4816TIP3    H114405   2.704   0.245   2.539  0.2726  1.0576 -2.5444
 4816TIP3    H214406   2.832   0.320   2.507  1.7499 -0.7715 -1.1530
 4817TIP3   OH214407   5.605   1.214   1.273  0.3493  0.4677  0.5315
 4817TIP3    H114408   5.697   1.200   1.252  0.0432  1.3674 -1.6384
 4817TIP3    H214409   5.605   1.282   1.341  1.2588  0.6628  0.3431
 4818TIP3   OH214410   2.246   2.323   5.583  0.1159  0.1354 -0.3319
 4818TIP3    H114411   2.172   2.366   5.626  1.5806  1.5765  0.9210
 4818TIP3    H214412   2.213   2.237   5.557 -1.3257 -0.2155  2.3233
 4819TIP3   OH214413   2.703   0.475   1.470  0.5638  0.5237 -0.2354
 4819TIP3    H114414   2.774   0.429   1.514 -1.0219 -0.1829  1.7390
 4819TIP3    H214415   2.623   0.431   1.499 -0.7593  1.6836 -1.8646
 4820TIP3   OH214416   0.558   1.970   3.136  0.3039  0.1237  0.1542
 4820TIP3    H114417   0.599   1.996   3.053  1.0486 -0.9753  0.1467
 4820TIP3    H214418   0.516   2.049   3.168 -0.5420  0.4280 -1.5855
 4821TIP3   OH214419   2.920   7.165   1.162  0.3780 -0.6772 -0.3669
 4821TIP3    H114420   2.906   7.116   1.082 -0.1382 -0.0271 -0.6870
 4821TIP3    H214421   2.839   7.214   1.175  0.6710 -0.3322  0.2348
 4822TIP3   OH214422   5.408   1.444   3.824  0.5827  0.6220 -0.3358
 4822TIP3    H114423   5.324   1.450   3.780  0.6412  0.1995 -0.5122
 4822TIP3    H214424   5.427   1.533   3.854 -0.1687  0.6167  0.1684
 4823TIP3   OH214425   8.077   2.007   5.185  0.4935  0.1794  0.2643
 4823TIP3    H114426   8.063   2.045   5.098  0.3827  0.4813  0.4143
 4823TIP3    H214427   8.150   2.056   5.221  0.3496  0.2502  0.4593
 4824TIP3   OH214428   6.341   4.542   4.187  0.0296  0.3757 -0.1419
 4824TIP3    H114429   6.364   4.499   4.104 -1.5069  1.4298 -1.1808
 4824TIP3    H214430   6.425   4.567   4.225  1.0874 -3.5899  0.6745
 4825TIP3   OH214431   0.631   7.294   6.751 -0.0663  0.6441  0.7854
 4825TIP3    H114432   0.689   7.270   6.823  1.5331 -0.3556 -0.7646
 4825TIP3    H214433   0.652   7.232   6.681 -1.9936  1.1767 -0.3644
 4826TIP3   OH214434   4.138   0.382   6.476  0.2501  0.8712 -0.4680
 4826TIP3    H114435   4.061   0.384   6.532  0.4081 -0.5124 -0.1631
 4826TIP3    H214436   4.210   0.412   6.532  0.4629 -0.7901  0.2126
 4827TIP3   OH214437   2.505   6.234   4.759 -0.6544  0.5472 -0.6576
 4827TIP3    H114438   2.491   6.155   4.811  1.8718  0.6411  0.3292
 4827TIP3    H214439   2.420   6.277   4.758 -2.0997 -2.1016 -1.1656
 4828TIP3   OH214440   5.930   1.565   4.231  0.0698 -0.5868 -0.1519
 4828TIP3    H114441   5.985   1.629   4.185  0.5686 -1.8275 -1.3593
 4828TIP3    H214442   5.856   1.550   4.172  0.6201 -2.0570 -0.5071
 4829TIP3   OH214443   3.843   0.901   0.127  0.1492  0.4977  0.8841
 4829TIP3    H114444   3.850   0.839   0.200 -1.0531 -0.4109  0.2750
 4829TIP3    H214445   3.760   0.947   0.143 -0.7018 -0.4887 -0.4431
 4830TIP3   OH214446   7.672   2.909   5.157 -0.0091  0.7206  0.5189
 4830TIP3    H114447   7.756   2.936   5.192 -0.1725  0.0560  1.4650
 4830TIP3    H214448   7.623   2.877   5.233 -0.3869 -0.7571 -0.3012
 4831TIP3   OH214449   3.064   3.683   0.233  0.0178 -0.1655 -0.2311
 4831TIP3    H114450   3.017   3.600   0.241 -2.2274  0.7520 -2.4992
 4831TIP3    H214451   3.035   3.736   0.307  0.8072 -1.0577  0.7434
 4832TIP3   OH214452   6.736   2.514   2.685  0.1146  0.1820  0.1928
 4832TIP3    H114453   6.658   2.544   2.730 -0.2765  0.2411 -0.5130
 4832TIP3    H214454   6.758   2.431   2.727 -0.5633 -0.0385  0.1168
 4833TIP3   OH214455   3.314   3.729   5.316  0.3170 -0.1171  0.1648
 4833TIP3    H114456   3.339   3.661   5.378  1.3357 -1.2416 -1.3913
 4833TIP3    H214457   3.393   3.781   5.304 -0.2993  1.0367  0.9159
 4834TIP3   OH214458   0.187   1.080   2.714 -0.2824 -0.3750  0.4523
 4834TIP3    H114459   0.164   1.150   2.653  1.3928  1.4008  1.7410
 4834TIP3    H214460   0.147   1.107   2.797  1.1948 -0.4061  1.2013
 4835TIP3   OH214461   0.967   3.563   5.299 -0.0083  0.1263  0.1415
 4835TIP3    H114462   0.878   3.600   5.303  0.9471  2.8799 -1.1858
 4835TIP3    H214463   0.958   3.484   5.247 -1.9468 -0.7782  1.7171
 4836TIP3   OH214464   5.785   1.025   6.466 -0.0477  0.4501  0.2594
 4836TIP3    H114465   5.748   0.951   6.420 -0.4389  1.2009 -0.6738
 4836TIP3    H214466   5.871   0.995   6.495 -1.2749 -1.2791  2.3641
 4837TIP3   OH214467   0.340   0.947  -0.006  0.1240  0.0202 -0.0016
 4837TIP3    H114468   0.403   0.932   0.065 -1.9198 -3.2197  1.3657
 4837TIP3    H214469   0.258   0.968   0.038 -0.8681 -0.5878 -1.4747
 4838TIP3   OH214470   8.288   6.992   4.795  0.3535 -0.2312  0.2645
 4838TIP3    H114471   8.264   6.912   4.840  2.4877 -0.2244  1.5118
 4838TIP3    H214472   8.268   6.975   4.703  0.2428 -1.9671  0.5879
 4839TIP3   OH214473   5.676   5.584   0.492  0.1568 -0.0568 -0.3168
 4839TIP3    H114474   5.633   5.667   0.471  1.3745 -0.0194 -3.1108
 4839TIP3    H214475   5.611   5.536   0.543 -2.0734  1.1068 -1.8803
 4840TIP3   OH214476   4.226   6.574   5.320  0.4032 -0.5555 -0.5388
 4840TIP3    H114477   4.192   6.604   5.405 -2.0841 -0.2907 -1.5237
 4840TIP3    H214478   4.282   6.645   5.290  0.2420 -0.0500  0.3097
 4841TIP3   OH214479   5.491   0.416   2.795  0.1760  0.0109 -0.3411
 4841TIP3    H114480   5.570   0.436   2.844  1.2820 -1.8101 -1.2478
 4841TIP3    H214481   5.510   0.332   2.753 -2.8443 -1.3363  0.7085
 4842TIP3   OH214482   7.721   1.718   3.190 -0.2988  0.3170  0.3008
 4842TIP3    H114483   7.667   1.731   3.113  1.5127 -1.7176 -1.4428
 4842TIP3    H214484   7.664   1.673   3.253 -1.2122  0.0592 -0.6966
 4843TIP3   OH214485   1.802   7.095   3.892 -0.5070 -0.0692  0.2261
 4843TIP3    H114486   1.784   7.087   3.799  0.5688  0.9163 -0.1053
 4843TIP3    H214487   1.731   7.048   3.935 -2.0038  0.9415 -1.0313
 4844TIP3   OH214488   4.881   1.356   3.396 -0.1676 -0.2012  0.4933
 4844TIP3    H114489   4.868   1.330   3.304  0.0482 -1.0023  0.6824
 4844TIP3    H214490   4.916   1.445   3.391 -0.9547  0.0909 -0.1736
 4845TIP3   OH214491   6.973   4.667   0.422 -0.0805  0.5137 -0.1218
 4845TIP3    H114492   6.881   4.688   0.413 -0.1191  0.6164  0.4797
 4845TIP3    H214493   6.986   4.653   0.516 -0.0005 -1.8338 -0.4237
 4846TIP3   OH214494   6.065   1.078   4.702  0.1758  0.2455  0.2452
 4846TIP3    H114495   6.057   1.026   4.622 -0.3947  0.4918  0.1344
 4846TIP3    H214496   5.990   1.137   4.699  0.0975  0.1921  1.0077
 4847TIP3   OH214497   6.466   0.668   3.968 -0.0286 -0.0788  0.3860
 4847TIP3    H114498   6.477   0.574   3.979  0.5743 -0.2171 -1.1128
 4847TIP3    H214499   6.546   0.707   4.003  1.1783 -0.3985 -1.8081
 4848TIP3   OH214500   6.679   0.820   2.516  0.3812  0.6300  0.8761
 4848TIP3    H114501   6.612   0.881   2.485  0.0098  0.6155  1.6199
 4848TIP3    H214502   6.632   0.759   2.572  1.0737  0.8460  1.7199
 4849TIP3   OH214503   4.610   6.360   1.763  0.4084  0.0428 -0.1085
 4849TIP3    H114504   4.597   6.412   1.843  2.5155  0.7614 -0.1509
 4849TIP3    H214505   4.535   6.382   1.708 -1.7287 -1.3521  2.0572
 4850TIP3   OH214506   7.110   5.148   4.080  0.5275  0.8229 -0.1589
 4850TIP3    H114507   7.041   5.127   4.017  0.8091  0.1860 -0.2550
 4850TIP3    H214508   7.078   5.114   4.163  2.0620 -2.3465 -0.7416
 4851TIP3   OH214509   0.384   2.996   5.031  1.0637  0.2790 -0.1865
 4851TIP3    H114510   0.389   3.027   5.122 -0.2115  0.1292 -0.0526
 4851TIP3    H214511   0.463   2.942   5.020  0.4771 -0.9792  1.3452
 4852TIP3   OH214512   5.746   5.441   5.974  0.4756  0.7662  0.3656
 4852TIP3    H114513   5.747   5.465   6.067  1.0807  0.1206  0.5377
 4852TIP3    H214514   5.685   5.368   5.969  0.6206  0.6477  0.3031
 4853TIP3   OH214515   1.669   6.191   0.993 -0.5691 -0.6192 -0.5296
 4853TIP3    H114516   1.605   6.181   1.064  0.3186 -2.1692  0.1094
 4853TIP3    H214517   1.697   6.102   0.972  1.9092 -0.0013 -0.2691
 4854TIP3   OH214518   1.208   1.192   5.829  0.0529  0.3864 -0.0772
 4854TIP3    H114519   1.138   1.154   5.882  1.0210 -0.9127  0.3306
 4854TIP3    H214520   1.180   1.282   5.813 -1.1612  0.2371  1.0337
 4855TIP3   OH214521   0.568   3.503   6.765 -0.5837  0.1971 -0.2026
 4855TIP3    H114522   0.499   3.566   6.744 -0.2773  0.4452 -0.4610
 4855TIP3    H214523   0.545   3.424   6.716 -1.3278 -0.1274  0.6261
 4856TIP3   OH214524   3.118   2.509   6.634  0.0039  0.3628  0.1045
 4856TIP3    H114525   3.181   2.521   6.704  0.8374 -0.8731 -0.3935
 4856TIP3    H214526   3.168   2.520   6.554 -0.2253 -1.2801 -0.3045
 4857TIP3   OH214527   5.482   0.610   0.286 -0.0075 -0.3781 -0.0760
 4857TIP3    H114528   5.421   0.626   0.357  1.3358 -0.0132  1.0530
 4857TIP3    H214529   5.476   0.515   0.270  1.4204 -0.9697  2.2892
 4858TIP3   OH214530   3.774   6.365   0.819 -0.4654  0.1393 -0.0756
 4858TIP3    H114531   3.728   6.444   0.794 -0.5285  0.1326  0.0196
 4858TIP3    H214532   3.710   6.313   0.867  0.3363  1.2758  2.3750
 4859TIP3   OH214533   3.521   5.334   2.094  0.1599  0.2428 -0.1986
 4859TIP3    H114534   3.488   5.417   2.130  0.0325  1.6748 -3.2518
 4859TIP3    H214535   3.451   5.303   2.037  0.7938 -1.2455 -0.2177
 4860TIP3   OH214536   1.957   2.462   4.655  0.2982  0.2893  0.5248
 4860TIP3    H114537   1.917   2.543   4.688 -1.1216  0.3254 -1.1737
 4860TIP3    H214538   1.914   2.446   4.572  3.0631 -0.3281 -0.9163
 4861TIP3   OH214539   4.405   4.174   6.545  0.2412  0.3030 -0.2404
 4861TIP3    H114540   4.325   4.213   6.582  1.3522  2.9560 -0.3623
 4861TIP3    H214541   4.387   4.168   6.451 -0.5179 -1.0829 -0.0361
 4862TIP3   OH214542   1.372   7.487   1.969 -0.4014 -0.5151 -0.0970
 4862TIP3    H114543   1.457   7.526   1.990 -1.1612  1.5768 -0.6576
 4862TIP3    H214544   1.317   7.509   2.044 -1.0876  0.3638 -0.8298
 4863TIP3   OH214545   4.889   1.548   4.801  0.3328  0.2881  0.5141
 4863TIP3    H114546   4.841   1.594   4.732  0.2356  0.7029  0.8546
 4863TIP3    H214547   4.827   1.484   4.835  0.5502 -0.2616 -0.1306
 4864TIP3   OH214548   8.278   0.693   5.753  0.1529 -0.5133 -0.1366
 4864TIP3    H114549   8.270   0.616   5.697  0.9298 -0.1259 -0.8071
 4864TIP3    H214550   8.365   0.684   5.793  0.3765  0.1494 -0.4519
 4865TIP3   OH214551   7.300   5.876   0.825  0.7578  0.4898 -0.3810
 4865TIP3    H114552   7.313   5.797   0.877  1.5481 -0.6107 -2.1408
 4865TIP3    H214553   7.205   5.880   0.810  0.4814  1.0214  1.3734
 4866TIP3   OH214554   2.920   5.715   2.743  0.5684  0.3736  0.1596
 4866TIP3    H114555   3.012   5.738   2.750  0.9307 -0.8049 -0.3964
 4866TIP3    H214556   2.906   5.701   2.649  0.1416 -0.6112  0.3586
 4867TIP3   OH214557   0.873   1.978   1.247  0.0283 -0.3102 -0.2444
 4867TIP3    H114558   0.910   2.065   1.230 -1.3574  0.1812 -0.8405
 4867TIP3    H214559   0.786   1.981   1.208  0.1063 -2.1154 -0.6210
 4868TIP3   OH214560   7.255   7.530   4.484  0.0539  0.2811  0.2438
 4868TIP3    H114561   7.200   7.470   4.534  0.2906 -0.2888 -0.1623
 4868TIP3    H214562   7.198   7.560   4.413  0.6184 -1.3156 -0.9386
 4869TIP3   OH214563   5.171   7.767   3.531  0.2973 -0.4242 -0.5903
 4869TIP3    H114564   5.158   7.840   3.591  2.3223  0.6420 -1.3574
 4869TIP3    H214565   5.115   7.697   3.565 -0.1978  0.8325  1.2872
 4870TIP3   OH214566   0.414   2.351   5.029  0.4319  0.4625 -0.1225
 4870TIP3    H114567   0.389   2.284   5.092  0.6108  1.1209  0.6684
 4870TIP3    H214568   0.439   2.426   5.083  2.9875  0.2476 -0.8366
 4871TIP3   OH214569   5.832   0.070   2.595 -0.3653  0.2796  0.3105
 4871TIP3    H114570   5.904   0.119   2.635 -1.0754  1.2002  0.4891
 4871TIP3    H214571   5.854  -0.022   2.610  1.0142  0.5315 -0.0690
 4872TIP3   OH214572   3.220   7.012   4.556 -0.6251  0.1252  0.3680
 4872TIP3    H114573   3.263   7.095   4.534 -0.2306 -0.3240 -0.5704
 4872TIP3    H214574   3.141   7.011   4.503  0.1195 -0.7636 -0.7981
 4873TIP3   OH214575   2.225   3.856   1.447  0.4707 -0.2325 -0.1233
 4873TIP3    H114576   2.143   3.810   1.462  0.7953 -0.7427  0.0892
 4873TIP3    H214577   2.270   3.805   1.380  0.5465  0.1356 -0.3555
 4874TIP3   OH214578   1.095   5.936   6.820  0.9188 -0.0763  0.0339
 4874TIP3    H114579   1.184   5.919   6.790  0.3166 -3.9743  0.0474
 4874TIP3    H214580   1.043   5.946   6.741  0.7539 -1.7322 -0.0828
 4875TIP3   OH214581   4.406   0.458   3.598 -0.3254 -0.1530  0.2884
 4875TIP3    H114582   4.334   0.437   3.658  0.6787 -0.6764  1.3608
 4875TIP3    H214583   4.439   0.542   3.628 -0.1934 -0.1352  0.0964
 4876TIP3   OH214584   5.331   7.803   3.944 -0.2908 -0.6111  0.4710
 4876TIP3    H114585   5.382   7.772   3.869  0.5002  1.1321  0.2261
 4876TIP3    H214586   5.376   7.767   4.020 -1.3200 -2.7068  0.1363
 4877TIP3   OH214587   3.167   4.190   5.540 -0.3460  0.0116 -0.4476
 4877TIP3    H114588   3.248   4.240   5.553 -0.5093  0.0814  0.3014
 4877TIP3    H214589   3.196   4.107   5.502  0.1667 -0.2851  0.5545
 4878TIP3   OH214590   6.523   1.649   2.329 -0.3605 -0.2610 -0.1925
 4878TIP3    H114591   6.514   1.625   2.421  0.2721  1.9219  0.5044
 4878TIP3    H214592   6.488   1.738   2.324  0.8275  0.1653 -1.7826
 4879TIP3   OH214593   5.112   6.554   2.642 -0.2192  0.4436 -0.3584
 4879TIP3    H114594   5.047   6.514   2.700 -0.0696 -1.3919 -1.3815
 4879TIP3    H214595   5.069   6.632   2.609 -1.3241  0.0879  0.1769
 4880TIP3   OH214596   6.043   4.977   2.244 -0.0927  0.0977 -0.1502
 4880TIP3    H114597   5.987   5.006   2.316 -1.3892 -1.1082 -0.6269
 4880TIP3    H214598   6.113   4.927   2.286 -0.7757 -0.4973  0.2807
 4881TIP3   OH214599   5.243   2.294   3.230 -0.5646  0.3539 -0.0162
 4881TIP3    H114600   5.300   2.366   3.200  1.4106 -0.8784  0.5412
 4881TIP3    H214601   5.247   2.230   3.159 -2.3583  0.7601 -0.5342
 4882TIP3   OH214602   7.929   4.423   5.954  0.4487 -0.5012  0.2773
 4882TIP3    H114603   7.946   4.465   5.870  3.0470 -0.7030  0.6205
 4882TIP3    H214604   7.839   4.392   5.948 -0.0230  1.0770 -1.7158
 4883TIP3   OH214605   2.624   1.881   4.205 -0.1488 -0.1706  0.2628
 4883TIP3    H114606   2.569   1.827   4.262 -1.7874 -0.2474 -1.3043
 4883TIP3    H214607   2.608   1.971   4.233 -0.1380 -0.2768  0.6041
 4884TIP3   OH214608   5.340   3.979   1.353 -0.4015  0.0011 -0.5907
 4884TIP3    H114609   5.362   4.072   1.343 -0.4869 -0.1096 -2.0507
 4884TIP3    H214610   5.322   3.969   1.446 -0.4182  1.4612 -0.4046
 4885TIP3   OH214611   1.920   1.610   2.851 -0.0598 -0.1593 -0.1455
 4885TIP3    H114612   1.954   1.699   2.865 -1.2797  0.1876  0.8800
 4885TIP3    H214613   1.953   1.560   2.926 -1.0904 -0.0167  0.4245
 4886TIP3   OH214614   5.788   6.205   5.721 -0.3894 -1.1928  0.3039
 4886TIP3    H114615   5.820   6.143   5.786 -0.1373 -1.5122 -0.1237
 4886TIP3    H214616   5.795   6.159   5.637  0.1528 -0.4621 -0.0668
 4887TIP3   OH214617   3.669   3.961   1.674 -0.5282  0.2180  0.1999
 4887TIP3    H114618   3.606   3.930   1.610 -1.1334  0.5044  0.6380
 4887TIP3    H214619   3.686   3.885   1.730 -1.2896  0.3929  0.7021
 4888TIP3   OH214620   8.327   5.684   3.025  0.5143 -0.3756 -0.1843
 4888TIP3    H114621   8.362   5.595   3.016 -0.1785 -0.7414  0.5890
 4888TIP3    H214622   8.246   5.683   2.974  0.2545 -0.3351  0.2255
 4889TIP3   OH214623   0.372   6.199   3.526  0.2948  0.0987 -0.1588
 4889TIP3    H114624   0.371   6.207   3.431  1.6575  1.6811 -0.0798
 4889TIP3    H214625   0.448   6.251   3.554  0.7688 -1.4751  1.6962
 4890TIP3   OH214626   8.027   7.590   1.129 -0.1542  0.1024  0.2181
 4890TIP3    H114627   8.119   7.592   1.102 -0.3571 -0.2927 -0.5194
 4890TIP3    H214628   8.009   7.498   1.146 -0.2865  0.2362  0.8367
 4891TIP3   OH214629   7.744   1.630   4.208  0.2663 -0.0550 -0.4439
 4891TIP3    H114630   7.812   1.647   4.142  0.2968  1.2521 -0.1048
 4891TIP3    H214631   7.683   1.703   4.199  0.6176  0.5102  1.3914
 4892TIP3   OH214632   5.514   5.657   2.421 -0.4324 -0.1473 -0.4919
 4892TIP3    H114633   5.532   5.565   2.443  2.0889  0.8983  2.6002
 4892TIP3    H214634   5.420   5.668   2.438 -0.2127 -1.5209  2.3128
 4893TIP3   OH214635   1.668   3.426   3.230  0.1397  0.0284  0.0700
 4893TIP3    H114636   1.679   3.481   3.308 -0.7291  1.0688 -0.5058
 4893TIP3    H214637   1.586   3.379   3.246  0.7166 -0.8793  0.4168
 4894TIP3   OH214638   4.994   6.394   4.963  0.0760 -0.4223 -0.0487
 4894TIP3    H114639   5.054   6.345   4.907  0.8581 -1.3466  1.5320
 4894TIP3    H214640   4.907   6.362   4.938  0.2468  0.4382 -1.8874
 4895TIP3   OH214641   7.442   0.484   0.050  0.2562 -0.2331 -0.5952
 4895TIP3    H114642   7.524   0.484   0.001 -0.2007 -0.2792 -1.3676
 4895TIP3    H214643   7.465   0.444   0.134  1.1723  0.3580 -0.5424
 4896TIP3   OH214644   8.088   1.212   2.747  0.0837 -0.3593 -0.3880
 4896TIP3    H114645   8.150   1.232   2.817 -2.9807  0.9169  2.2457
 4896TIP3    H214646   8.083   1.293   2.697  1.5612 -0.9591 -1.5737
 4897TIP3   OH214647   3.770   0.847   6.350  0.0670 -0.5476 -0.4972
 4897TIP3    H114648   3.702   0.824   6.414 -0.0218 -1.4091 -0.8866
 4897TIP3    H214649   3.800   0.933   6.377 -0.7542 -0.4199  0.0485
 4898TIP3   OH214650   1.389   1.141   4.372 -0.0489 -0.0325 -0.1207
 4898TIP3    H114651   1.366   1.210   4.310  0.4554  0.4496  0.2165
 4898TIP3    H214652   1.482   1.125   4.356 -0.4044 -1.4052 -0.9354
 4899TIP3   OH214653   7.319   7.095   2.857 -0.0093  0.2612 -0.2823
 4899TIP3    H114654   7.344   7.082   2.766  0.4186  1.0384 -0.2794
 4899TIP3    H214655   7.308   7.189   2.866 -2.7321  0.0126 -0.2116
 4900TIP3   OH214656   2.497   5.101   5.291  0.6793 -0.1558 -0.4004
 4900TIP3    H114657   2.526   5.192   5.282  2.4539 -0.6583 -0.1065
 4900TIP3    H214658   2.409   5.101   5.255  0.8153  1.5894 -0.8414
 4901TIP3   OH214659   6.772   0.531   2.495  0.5730 -0.1176 -0.3184
 4901TIP3    H114660   6.784   0.625   2.482  0.3574 -0.1899 -1.1476
 4901TIP3    H214661   6.677   0.518   2.488  0.5300 -0.2977  0.5448
 4902TIP3   OH214662   6.087   4.224   4.094  0.1487 -0.2349  0.2433
 4902TIP3    H114663   6.120   4.231   4.184  0.2184 -0.3069  0.2231
 4902TIP3    H214664   6.084   4.130   4.077 -0.4538 -0.2459  0.3878
 4903TIP3   OH214665   7.652   6.782   3.673 -0.1050 -0.3061 -0.1661
 4903TIP3    H114666   7.563   6.819   3.679  0.2228  0.2275  2.0242
 4903TIP3    H214667   7.653   6.711   3.736  1.0796 -0.2202 -0.0672
 4904TIP3   OH214668   5.620   7.307   2.988  0.0827 -0.3009 -0.4449
 4904TIP3    H114669   5.637   7.308   2.893  0.5319 -0.0258 -0.3649
 4904TIP3    H214670   5.550   7.371   3.000  0.2400 -0.1079 -0.5528
 4905TIP3   OH214671   2.642   2.894   3.749 -0.2939  0.0031 -0.3425
 4905TIP3    H114672   2.645   2.913   3.656  1.1114  1.9780  0.0503
 4905TIP3    H214673   2.699   2.959   3.789  0.2305 -1.6317  1.7776
 4906TIP3   OH214674   2.249   0.658   5.757 -0.4087  0.3518  0.3736
 4906TIP3    H114675   2.325   0.715   5.765  1.6559 -1.8842 -1.6055
 4906TIP3    H214676   2.265   0.588   5.820 -0.8756 -0.0712  0.0275
 4907TIP3   OH214677   3.036   2.645   2.439 -0.1531  0.0074 -0.2783
 4907TIP3    H114678   3.019   2.695   2.359 -1.6724  0.0263  0.0063
 4907TIP3    H214679   3.006   2.557   2.420  1.1423 -0.4471 -0.2909
 4908TIP3   OH214680   4.606   3.732   5.669  0.0583  0.4339  0.7587
 4908TIP3    H114681   4.638   3.642   5.680  1.0049  0.4222 -1.4477
 4908TIP3    H214682   4.518   3.721   5.631  0.9349  0.3276 -1.4294
 4909TIP3   OH214683   7.871   3.874   0.496 -0.3364  0.6990  0.0370
 4909TIP3    H114684   7.804   3.807   0.487  0.2271  0.3393 -1.8875
 4909TIP3    H214685   7.953   3.825   0.506 -0.2236  1.1337  1.4929
 4910TIP3   OH214686   4.673   3.362   2.732  0.3446  0.7983 -0.0447
 4910TIP3    H114687   4.729   3.316   2.794 -1.8130  1.1923  2.3658
 4910TIP3    H214688   4.719   3.444   2.715  0.4376  1.2826  2.1643
 4911TIP3   OH214689   1.061   4.863   3.310  0.6342 -0.1548 -0.0698
 4911TIP3    H114690   1.092   4.890   3.397  0.1423  0.4793 -0.0849
 4911TIP3    H214691   1.070   4.768   3.310  1.9978 -0.0537  0.1447
 4912TIP3   OH214692   0.938   7.108   4.183  0.0139 -0.4335 -0.2014
 4912TIP3    H114693   0.971   7.186   4.228  0.0606  0.2503 -1.3621
 4912TIP3    H214694   0.899   7.055   4.252 -1.5383  1.3994  0.4115
 4913TIP3   OH214695   3.905   7.442   2.236  0.0207  0.3780  0.3571
 4913TIP3    H114696   3.865   7.520   2.276  0.1227 -0.4254  2.1064
 4913TIP3    H214697   3.927   7.470   2.147 -2.1745  1.6110  0.1134
 4914TIP3   OH214698   6.216   4.236   1.485  0.0749  0.0470 -1.0517
 4914TIP3    H114699   6.271   4.287   1.545 -1.8083 -1.3620  2.1482
 4914TIP3    H214700   6.274   4.213   1.412  2.8043  1.1967  0.6040
 4915TIP3   OH214701   0.160   0.468   0.632  0.4306 -0.4555  0.4879
 4915TIP3    H114702   0.114   0.401   0.581  1.1546  0.2560 -1.1676
 4915TIP3    H214703   0.107   0.547   0.621  0.3259 -0.4004  1.2962
 4916TIP3   OH214704   4.024   6.454   2.333  0.2546  0.2494  0.0111
 4916TIP3    H114705   3.984   6.374   2.300  1.0014  0.5744 -1.7954
 4916TIP3    H214706   4.106   6.425   2.372  0.0284  0.0250  0.3294
 4917TIP3   OH214707   1.634   4.947   2.473  0.0886 -0.0247 -0.0017
 4917TIP3    H114708   1.687   5.024   2.490  0.5477 -0.5105  0.8604
 4917TIP3    H214709   1.545   4.972   2.499 -0.5147  1.3219 -2.9180
 4918TIP3   OH214710   3.507   5.168   4.286  0.4250  0.6552  0.1754
 4918TIP3    H114711   3.590   5.128   4.261 -0.7712 -1.5477 -0.5047
 4918TIP3    H214712   3.515   5.183   4.380  0.7649 -1.7941  0.6018
 4919TIP3   OH214713   7.087   6.323   6.694 -0.1589 -0.2737  0.0020
 4919TIP3    H114714   7.100   6.357   6.605  0.3793 -0.7937 -0.1212
 4919TIP3    H214715   7.040   6.393   6.739 -0.4330  0.0036 -0.6901
 4920TIP3   OH214716   4.934   6.104   2.588 -0.3281 -0.7503 -0.7889
 4920TIP3    H114717   4.991   6.074   2.658  0.9497  0.9574 -1.0406
 4920TIP3    H214718   4.850   6.062   2.605 -0.2513  0.1107  2.1296
 4921TIP3   OH214719   1.236   2.112   0.906  0.1876  0.0328  0.3290
 4921TIP3    H114720   1.297   2.050   0.946  1.2672  0.7541 -0.1463
 4921TIP3    H214721   1.291   2.186   0.880 -0.7848  0.4193 -0.7236
 4922TIP3   OH214722   7.105   3.259   2.757 -0.2264  0.2558 -0.1484
 4922TIP3    H114723   7.090   3.351   2.734 -2.4940 -0.1805 -0.6969
 4922TIP3    H214724   7.031   3.236   2.812  1.0931 -0.8730  1.2278
 4923TIP3   OH214725   3.083   2.765   5.359 -0.5309  0.1075  0.1949
 4923TIP3    H114726   3.149   2.704   5.327  0.0357  0.8561 -0.0941
 4923TIP3    H214727   3.082   2.836   5.294  0.7301  1.7184  1.8095
 4924TIP3   OH214728   6.598   7.804   2.659  0.3166 -0.1546  0.0894
 4924TIP3    H114729   6.565   7.883   2.616  1.4006  0.7160  0.7818
 4924TIP3    H214730   6.555   7.803   2.744 -1.7279 -1.8073 -0.8618
 4925TIP3   OH214731   4.241   4.203   4.530 -0.3415  0.2845  0.3303
 4925TIP3    H114732   4.294   4.209   4.451  1.6297  0.5994  1.5954
 4925TIP3    H214733   4.298   4.235   4.600 -2.1122  0.3299  1.8486
 4926TIP3   OH214734   4.327   3.000   0.963 -0.1854  0.7306 -0.1134
 4926TIP3    H114735   4.367   2.983   1.048  1.0838 -0.2641 -0.8892
 4926TIP3    H214736   4.285   2.918   0.939  0.2486  0.7174 -0.8551
 4927TIP3   OH214737   2.876   2.826   3.276  0.7648 -0.2817 -0.2281
 4927TIP3    H114738   2.969   2.847   3.286  0.9603  0.7312 -3.1495
 4927TIP3    H214739   2.868   2.795   3.186 -1.9902  1.5143 -0.7109
 4928TIP3   OH214740   8.125   6.707   6.689  0.2313 -0.1929  0.3082
 4928TIP3    H114741   8.045   6.751   6.717  0.9397  1.3176  0.0901
 4928TIP3    H214742   8.191   6.777   6.685  1.7001 -1.4677  0.9757
 4929TIP3   OH214743   1.410   7.295   1.741  0.8092  0.0106 -0.0629
 4929TIP3    H114744   1.407   7.374   1.794  0.0808 -1.2841  1.9609
 4929TIP3    H214745   1.339   7.306   1.678  0.9885  1.1415 -0.0877
 4930TIP3   OH214746   6.580   4.101   3.562  0.2973  0.2824  0.2531
 4930TIP3    H114747   6.509   4.092   3.626 -1.1476 -0.8972 -1.4190
 4930TIP3    H214748   6.548   4.055   3.484  2.1282  1.3526 -1.2128
 4931TIP3   OH214749   3.792   1.507   0.227 -0.2014 -0.0145 -0.0924
 4931TIP3    H114750   3.723   1.530   0.165  1.6250  1.5188 -1.7117
 4931TIP3    H214751   3.842   1.588   0.239  0.0816 -0.5067  2.7216
 4932TIP3   OH214752   2.453   6.282   2.670 -0.2148  0.3575 -0.5117
 4932TIP3    H114753   2.469   6.249   2.582  0.1261 -0.2075 -0.2415
 4932TIP3    H214754   2.434   6.204   2.722 -2.3595  0.8262 -0.4748
 4933TIP3   OH214755   7.897   0.132   1.689  0.4505  0.1752  0.4918
 4933TIP3    H114756   7.846   0.112   1.767 -0.5878 -1.1884 -0.4709
 4933TIP3    H214757   7.945   0.051   1.672  0.8481  0.5412 -0.1381
 4934TIP3   OH214758   1.254   0.329   3.561 -0.0609  0.6381  0.2437
 4934TIP3    H114759   1.280   0.386   3.633  0.2727 -0.3602  0.9267
 4934TIP3    H214760   1.335   0.307   3.516 -0.0079 -0.3684  0.7986
 4935TIP3   OH214761   3.849   6.231   3.920 -0.1534 -0.2828 -0.3739
 4935TIP3    H114762   3.924   6.245   3.863 -0.0001  0.5945  0.0274
 4935TIP3    H214763   3.783   6.293   3.889 -0.6323 -0.8837 -0.5741
 4936TIP3   OH214764   5.925   4.947   1.390 -0.0979 -0.7652 -0.2404
 4936TIP3    H114765   5.937   4.989   1.475  0.8287 -0.8176 -0.3374
 4936TIP3    H214766   5.852   4.887   1.403  0.4570 -1.2549  0.7117
 4937TIP3   OH214767   7.812   0.113   6.394 -0.6078  0.8217 -0.0274
 4937TIP3    H114768   7.817   0.080   6.484  0.5073 -0.2228 -0.4421
 4937TIP3    H214769   7.844   0.040   6.341 -0.2663  1.7944 -1.1832
 4938TIP3   OH214770   4.466   1.195   1.670  0.2811  0.2490 -0.3693
 4938TIP3    H114771   4.402   1.124   1.678  0.4109  0.0521 -1.0190
 4938TIP3    H214772   4.535   1.172   1.732 -0.1451  0.3211  0.1360
 4939TIP3   OH214773   4.395   1.096   5.709  0.1910 -0.3386  0.3362
 4939TIP3    H114774   4.390   1.135   5.796  1.3013 -0.9084  0.6832
 4939TIP3    H214775   4.350   1.158   5.652  0.6647  0.7460  1.0982
 4940TIP3   OH214776   5.685   0.607   4.686 -0.0022  0.2561  0.9362
 4940TIP3    H114777   5.682   0.604   4.591  1.8194 -0.3019  0.8508
 4940TIP3    H214778   5.595   0.590   4.714 -0.2692 -1.2669 -0.6633
 4941TIP3   OH214779   7.433   7.824   5.882  0.2783  0.4803 -0.3842
 4941TIP3    H114780   7.483   7.869   5.949  1.1522 -0.6502 -0.2497
 4941TIP3    H214781   7.401   7.744   5.925 -2.8907  1.7810 -0.0144
 4942TIP3   OH214782   4.356   1.143   0.147 -0.1378  0.1608  0.2366
 4942TIP3    H114783   4.390   1.068   0.196 -1.9111  0.0371  1.3964
 4942TIP3    H214784   4.417   1.155   0.075  0.5947 -1.9416  0.4483
 4943TIP3   OH214785   3.651   2.469   1.180  0.1838 -0.4516  0.2563
 4943TIP3    H114786   3.669   2.394   1.123  1.0517  1.1710 -1.7156
 4943TIP3    H214787   3.664   2.546   1.124 -1.4698  1.1857  1.9709
 4944TIP3   OH214788   0.263   2.504   2.228  0.0335  0.3471 -0.1682
 4944TIP3    H114789   0.207   2.503   2.306 -1.1119 -1.9476 -0.9095
 4944TIP3    H214790   0.224   2.571   2.172 -0.2611  0.7366  0.4886
 4945TIP3   OH214791   0.494   6.415   6.691  0.5422  0.0552  0.0692
 4945TIP3    H114792   0.577   6.462   6.702  0.1965  0.3965  1.4681
 4945TIP3    H214793   0.428   6.476   6.723  0.1726 -1.6809  2.9450
 4946TIP3   OH214794   0.677   5.951   1.609  0.0557 -0.4855 -0.8085
 4946TIP3    H114795   0.707   5.991   1.528 -0.7655  0.6140 -0.5949
 4946TIP3    H214796   0.630   6.021   1.655  1.2102 -0.8330  1.0067
 4947TIP3   OH214797   5.294   0.889   5.518 -0.4051  0.0660  0.4102
 4947TIP3    H114798   5.294   0.947   5.594  1.0836  0.6904 -0.0336
 4947TIP3    H214799   5.351   0.817   5.544 -1.5023 -0.7603  0.6089
 4948TIP3   OH214800   5.774   7.513   2.121  0.3097 -0.2236  0.1054
 4948TIP3    H114801   5.753   7.434   2.071  0.3234 -0.1096 -0.0851
 4948TIP3    H214802   5.860   7.539   2.088  0.3851 -0.2315  0.2977
 4949TIP3   OH214803   4.139   6.443   2.801  0.4323  0.2650  0.7654
 4949TIP3    H114804   4.104   6.530   2.819 -2.1540 -0.3609 -0.7287
 4949TIP3    H214805   4.161   6.445   2.708  0.3551 -0.6752  0.7164
 4950TIP3   OH214806   5.877   2.660   0.054 -0.5316 -0.3868  0.7455
 4950TIP3    H114807   5.813   2.728   0.073 -1.0742 -0.8372  0.5467
 4950TIP3    H214808   5.840   2.580   0.093  0.4276 -0.4411  1.6006
 4951TIP3   OH214809   6.541   1.190   2.165 -0.2541 -0.1926 -0.5068
 4951TIP3    H114810   6.626   1.211   2.126 -0.3106  1.2313  0.0559
 4951TIP3    H214811   6.487   1.162   2.092  0.6867 -1.1006 -0.8760
 4952TIP3   OH214812   3.196   5.461   3.992 -0.1131 -0.3583 -0.2753
 4952TIP3    H114813   3.112   5.422   4.018 -0.7117  1.8013  1.2533
 4952TIP3    H214814   3.178   5.503   3.908 -0.3603 -0.4710 -0.2804
 4953TIP3   OH214815   4.675   5.750   1.844  0.4351  0.5809  0.0811
 4953TIP3    H114816   4.705   5.806   1.772 -2.6029  0.5024 -1.4267
 4953TIP3    H214817   4.707   5.663   1.822  2.7543  1.1346  0.9413
 4954TIP3   OH214818   1.994   2.161   2.109 -0.0943  0.7351  0.7480
 4954TIP3    H114819   2.044   2.147   2.028 -1.5042  0.9842 -0.2017
 4954TIP3    H214820   2.026   2.245   2.142 -1.3996  2.0549 -1.0893
 4955TIP3   OH214821   7.917   1.793   2.981  0.0901  0.1187  0.1999
 4955TIP3    H114822   7.867   1.748   3.049  1.1295  1.9444  2.3252
 4955TIP3    H214823   8.008   1.786   3.010  0.6100  0.6911 -1.1993
 4956TIP3   OH214824   7.088   5.190   6.574 -0.1836 -0.3323  0.3245
 4956TIP3    H114825   7.055   5.169   6.486  0.4802 -0.0670  0.0012
 4956TIP3    H214826   7.051   5.122   6.630 -1.0513 -0.2035 -0.0617
 4957TIP3   OH214827   1.459   5.489   6.108  0.4020  0.0180  0.0831
 4957TIP3    H114828   1.388   5.446   6.155  0.6623  0.6164  1.0409
 4957TIP3    H214829   1.536   5.476   6.163  0.4983  1.6379  0.3687
 4958TIP3   OH214830   0.136   5.308   5.266  0.2995  0.5368  0.2697
 4958TIP3    H114831   0.161   5.272   5.181 -1.8462  0.8027 -0.5337
 4958TIP3    H214832   0.181   5.252   5.330  1.5812  0.0438 -1.0051
 4959TIP3   OH214833   5.586   2.153   4.491 -0.0636  0.0800  0.0203
 4959TIP3    H114834   5.605   2.060   4.479 -2.1624 -0.4874  0.6899
 4959TIP3    H214835   5.643   2.180   4.563  0.9800 -0.5283 -0.5628
 4960TIP3   OH214836   7.803   1.439   1.992 -0.1610 -0.3503  0.4751
 4960TIP3    H114837   7.736   1.459   2.056  0.5139  3.8530  0.1533
 4960TIP3    H214838   7.883   1.426   2.044 -0.1901  0.1041  0.6384
 4961TIP3   OH214839   2.958   6.336   3.562  0.1609  0.1223 -0.0967
 4961TIP3    H114840   2.914   6.262   3.521  1.4589 -0.0657 -1.2303
 4961TIP3    H214841   3.024   6.363   3.498  0.3178  1.6845  0.6774
 4962TIP3   OH214842   7.919   1.320   3.290  0.3700 -0.3834  0.0739
 4962TIP3    H114843   7.990   1.259   3.268 -0.5029 -1.6622  0.6550
 4962TIP3    H214844   7.846   1.294   3.233  0.4147  1.0681 -0.6845
 4963TIP3   OH214845   0.205   3.042   3.556 -0.0104  0.0199  0.0670
 4963TIP3    H114846   0.205   2.982   3.630  1.2776  1.0267  0.9313
 4963TIP3    H214847   0.160   3.120   3.588 -0.1170  0.1754 -0.4565
 4964TIP3   OH214848   5.807   0.092   3.368  0.0131  0.3258  0.3544
 4964TIP3    H114849   5.745   0.133   3.428 -1.4501 -0.0835 -0.8155
 4964TIP3    H214850   5.860   0.164   3.334  0.2391  0.6758  1.3935
 4965TIP3   OH214851   2.876   2.018   3.447 -0.4647  0.0985 -0.0649
 4965TIP3    H114852   2.843   1.929   3.452 -0.4891 -0.0484 -2.0748
 4965TIP3    H214853   2.806   2.072   3.486 -0.8930 -0.6531  0.2247
 4966TIP3   OH214854   3.699   7.272   2.566 -0.1956  0.3279  0.2898
 4966TIP3    H114855   3.664   7.333   2.501  0.2458  0.8111  0.4928
 4966TIP3    H214856   3.763   7.219   2.517 -0.6466 -0.0388  0.0924
 4967TIP3   OH214857   3.716   2.680   3.163  0.0632  0.4792  0.2073
 4967TIP3    H114858   3.768   2.622   3.106  0.2540  0.0994  0.7568
 4967TIP3    H214859   3.691   2.624   3.236  0.6673  1.2221  0.9966
 4968TIP3   OH214860   1.078   3.781   1.098 -0.1554  0.3984 -0.1181
 4968TIP3    H114861   1.000   3.808   1.049  0.4776  0.0417 -1.3411
 4968TIP3    H214862   1.093   3.690   1.073  0.4298  0.3395  0.4164
 4969TIP3   OH214863   5.179   3.364   3.541 -0.1268  0.0026 -0.2434
 4969TIP3    H114864   5.274   3.374   3.534 -0.1310  0.2082  0.0285
 4969TIP3    H214865   5.144   3.434   3.487 -0.1166 -0.9837 -1.5970
 4970TIP3   OH214866   5.302   5.715   4.252 -0.3154  0.2667  0.9822
 4970TIP3    H114867   5.254   5.768   4.316  1.6627  1.5550  1.4940
 4970TIP3    H214868   5.372   5.674   4.303  0.2612 -0.0605 -0.0519
 4971TIP3   OH214869   7.743   1.785   1.315  0.9258 -0.4555  0.6867
 4971TIP3    H114870   7.654   1.814   1.334  0.1160 -1.4929 -1.2161
 4971TIP3    H214871   7.782   1.857   1.266  0.3549 -0.8781 -0.4073
 4972TIP3   OH214872   1.183   1.284   6.112 -0.4192 -0.0365  0.2670
 4972TIP3    H114873   1.090   1.258   6.116 -0.9815  1.8978  3.1019
 4972TIP3    H214874   1.181   1.376   6.087  0.6762  0.2120  1.0543
 4973TIP3   OH214875   2.375   1.258   1.941  0.3352  0.3596  0.5669
 4973TIP3    H114876   2.323   1.273   1.862  0.4077 -3.2000 -0.3213
 4973TIP3    H214877   2.311   1.233   2.007  0.4652  1.3989  1.1055
 4974TIP3   OH214878   5.701   6.300   0.690  0.2698 -0.3618 -0.8958
 4974TIP3    H114879   5.747   6.324   0.610  2.4208  1.6885  0.7946
 4974TIP3    H214880   5.758   6.235   0.731  0.3092  0.1731 -0.0718
 4975TIP3   OH214881   6.101   2.337   0.935  0.3875 -0.1803 -0.3584
 4975TIP3    H114882   6.037   2.391   0.888 -2.5398 -1.3115  1.9797
 4975TIP3    H214883   6.126   2.390   1.011  3.9823  1.0706 -2.2239
 4976TIP3   OH214884   7.278   6.238   4.920  0.0347 -0.3035  0.7024
 4976TIP3    H114885   7.353   6.183   4.896 -0.0225 -0.3549  0.6415
 4976TIP3    H214886   7.318   6.319   4.953  0.1299 -0.5503  1.2040
 4977TIP3   OH214887   4.348   5.971   6.766  0.3767  0.3562  0.1932
 4977TIP3    H114888   4.286   6.026   6.815  0.0301 -0.5178  0.7569
 4977TIP3    H214889   4.294   5.899   6.733  1.1718 -0.7090  1.1410
 4978TIP3   OH214890   0.576   2.134   6.303 -0.8105  0.0059  0.0090
 4978TIP3    H114891   0.619   2.123   6.388  4.1612  2.4121 -1.8023
 4978TIP3    H214892   0.531   2.218   6.309 -2.4579 -0.8718  0.8017
 4979TIP3   OH214893   3.984   3.364   1.384 -0.3215  0.1637  0.0061
 4979TIP3    H114894   3.980   3.441   1.441  4.0489  0.4828  0.2259
 4979TIP3    H214895   4.022   3.397   1.302 -0.3838 -1.3789 -0.6794
 4980TIP3   OH214896   7.727   7.531   6.467  0.1133 -0.3146  0.5508
 4980TIP3    H114897   7.770   7.446   6.463 -0.6649 -0.8843  2.7684
 4980TIP3    H214898   7.769   7.583   6.398  1.4684 -2.0873 -0.0256
 4981TIP3   OH214899   1.478   0.500   1.331  0.0249 -0.1059 -0.1938
 4981TIP3    H114900   1.433   0.539   1.406 -2.3003  0.4739 -1.7704
 4981TIP3    H214901   1.467   0.405   1.343 -0.6758 -0.0047  0.0288
 4982TIP3   OH214902   3.718   5.183   1.523 -0.3150  0.2840  0.0051
 4982TIP3    H114903   3.671   5.102   1.502  1.7246 -0.7059 -1.0074
 4982TIP3    H214904   3.742   5.220   1.438  1.1910  0.4554  0.4767
 4983TIP3   OH214905   4.992   3.574   3.438 -0.1078  0.1877 -0.3025
 4983TIP3    H114906   4.979   3.668   3.430 -1.3656  0.2255  1.5294
 4983TIP3    H214907   4.942   3.537   3.365  0.6580  0.9132 -1.2304
 4984TIP3   OH214908   1.162   4.557   0.219  0.5316 -0.2120  0.7918
 4984TIP3    H114909   1.141   4.469   0.188 -0.5098  0.2953 -0.0031
 4984TIP3    H214910   1.144   4.555   0.313 -0.6483 -0.5318  0.5756
 4985TIP3   OH214911   4.256   2.589   5.425 -0.1619 -0.0920 -0.1438
 4985TIP3    H114912   4.222   2.531   5.493  1.5290 -0.8214  0.1411
 4985TIP3    H214913   4.226   2.677   5.450  0.0760 -0.4037  1.3288
 4986TIP3   OH214914   3.209   3.046   2.657 -0.3037 -0.0560  0.4188
 4986TIP3    H114915   3.150   3.078   2.588  2.4138  1.5478 -1.3290
 4986TIP3    H214916   3.180   3.091   2.736 -1.8587  0.1149 -0.2159
 4987TIP3   OH214917   8.268   2.119   4.616  0.5125  0.0538  0.0103
 4987TIP3    H114918   8.247   2.168   4.695 -1.6127 -1.9062  0.7488
 4987TIP3    H214919   8.337   2.058   4.643 -0.2806 -0.6826  0.4200
 4988TIP3   OH214920   7.368   3.963   1.909 -0.5844  0.2384 -0.1720
 4988TIP3    H114921   7.328   3.933   1.827  0.0225 -1.7394  0.2118
 4988TIP3    H214922   7.299   3.952   1.975 -1.0198  1.6798 -0.3437
 4989TIP3   OH214923   6.999   3.063   5.748 -0.0385 -0.2274  0.3298
 4989TIP3    H114924   7.062   2.993   5.732 -0.1940 -0.5087  0.9383
 4989TIP3    H214925   6.968   3.048   5.837  0.1740  0.8109  0.5963
 4990TIP3   OH214926   6.048   4.830   5.775 -0.3745  0.5439  0.3333
 4990TIP3    H114927   6.041   4.905   5.834 -0.7094  0.1943  0.7398
 4990TIP3    H214928   6.030   4.754   5.830  1.1078  0.0521  0.1983
 4991TIP3   OH214929   2.034   7.037   2.315  0.1306  0.3783 -0.2842
 4991TIP3    H114930   1.990   6.968   2.265 -1.6956  1.2956 -0.0269
 4991TIP3    H214931   2.125   7.032   2.287  0.0379 -2.0457 -0.3630
 4992TIP3   OH214932   1.669   2.614   3.979  0.1167  1.0656 -0.3021
 4992TIP3    H114933   1.630   2.617   4.066 -2.1801 -0.9003 -1.1482
 4992TIP3    H214934   1.594   2.617   3.919  1.4265 -0.2540 -2.1184
 4993TIP3   OH214935   5.755   1.201   5.132  0.3883 -0.2130 -0.0222
 4993TIP3    H114936   5.676   1.255   5.125  0.3867 -0.2474 -0.2893
 4993TIP3    H214937   5.731   1.118   5.092  0.0643 -0.7891  1.3400
 4994TIP3   OH214938   2.343   3.195   1.223  0.1006 -0.1182 -0.4447
 4994TIP3    H114939   2.386   3.273   1.258  0.2565  0.4465 -1.8192
 4994TIP3    H214940   2.403   3.162   1.156 -0.0270 -1.3595  0.0120
 4995TIP3   OH214941   7.265   4.539   6.505 -0.3982  0.3712 -0.9157
 4995TIP3    H114942   7.172   4.561   6.495 -0.5771  0.3544  0.5360
 4995TIP3    H214943   7.266   4.446   6.525 -0.2553  0.7989  1.2558
 4996TIP3   OH214944   0.728   4.073   4.322  0.1412 -0.4240  0.3351
 4996TIP3    H114945   0.648   4.037   4.285  0.8352 -0.8318 -0.8091
 4996TIP3    H214946   0.751   4.012   4.392 -0.4258 -0.4080  0.5465
 4997TIP3   OH214947   1.705   0.445   1.061 -0.0764  0.2411 -0.6117
 4997TIP3    H114948   1.681   0.511   1.126  2.0728  0.4996  0.0098
 4997TIP3    H214949   1.722   0.366   1.113  2.2867  0.6152 -0.6819
 4998TIP3   OH214950   5.464   6.936   0.668 -0.3641  0.5925 -0.0184
 4998TIP3    H114951   5.461   6.952   0.574  0.8173 -0.0358 -0.1820
 4998TIP3    H214952   5.524   7.002   0.702 -1.8751  1.7431  0.5377
 4999TIP3   OH214953   5.443  -0.011   6.726 -0.3158  0.3774 -0.2798
 4999TIP3    H114954   5.395   0.012   6.806 -0.8950  1.0546 -0.7990
 4999TIP3    H214955   5.383   0.014   6.655 -0.1169 -0.8847 -0.9187
 5000TIP3   OH214956   0.507   1.124   4.691 -0.3799  0.4365  0.1401
 5000TIP3    H114957   0.428   1.112   4.639 -0.0649  2.6121 -0.9273
 5000TIP3    H214958   0.564   1.051   4.665 -1.1498  0.1548 -0.7935
 5001TIP3   OH214959   7.653   1.252   5.176 -0.0475  0.6987 -0.1077
 5001TIP3    H114960   7.646   1.340   5.141 -0.3599  0.8779  0.3897
 5001TIP3    H214961   7.668   1.265   5.270 -2.0582  0.2213  0.3248
 5002TIP3   OH214962   1.172   7.337   4.476  0.2987 -0.0864 -0.6580
 5002TIP3    H114963   1.203   7.358   4.388  2.9616 -1.5107 -0.1784
 5002TIP3    H214964   1.131   7.251   4.467  1.9165 -0.9315 -0.3218
 5003TIP3   OH214965   3.532   6.690   1.075 -0.0773  0.5561 -0.2030
 5003TIP3    H114966   3.450   6.681   1.027 -0.2581  1.3088 -0.0433
 5003TIP3    H214967   3.510   6.673   1.166  0.0224  0.3681 -0.2131
 5004TIP3   OH214968   5.410   0.222   3.051  0.1966  0.4977 -0.1716
 5004TIP3    H114969   5.394   0.290   3.118  3.1915  0.4230  0.7305
 5004TIP3    H214970   5.380   0.141   3.092 -0.1535  0.7702  0.1249
 5005TIP3   OH214971   2.938   6.509   4.532  0.4593 -0.7483 -0.2052
 5005TIP3    H114972   2.969   6.450   4.464 -1.5176  0.0898 -1.9293
 5005TIP3    H214973   2.985   6.591   4.517  1.5069 -1.1405  0.7595
 5006TIP3   OH214974   2.376   0.566   4.036  0.7008  0.4187 -0.0419
 5006TIP3    H114975   2.442   0.578   4.104 -1.2869  1.3818  1.8351
 5006TIP3    H214976   2.301   0.530   4.082 -1.5197  3.2270 -1.1837
 5007TIP3   OH214977   0.599   2.192   5.561 -0.3599 -0.4088  0.0958
 5007TIP3    H114978   0.667   2.170   5.624 -2.2903 -2.9949  1.4524
 5007TIP3    H214979   0.562   2.274   5.593 -1.7720 -2.0069  2.8855
 5008TIP3   OH214980   4.210   2.115   2.262  0.1504  0.4652 -0.3178
 5008TIP3    H114981   4.303   2.099   2.274 -0.2590 -0.7898  1.6887
 5008TIP3    H214982   4.167   2.055   2.323 -1.9257  1.8222 -0.3292
 5009TIP3   OH214983   7.842   4.094   5.985 -0.1017 -0.1910  0.7493
 5009TIP3    H114984   7.842   4.185   5.956 -2.5323 -0.3772 -0.0637
 5009TIP3    H214985   7.768   4.088   6.045  0.0346 -1.6218  0.8067
 5010TIP3   OH214986   7.105   6.265   4.690 -0.3591  0.0635 -0.2260
 5010TIP3    H114987   7.024   6.252   4.739 -0.4699  0.0959 -0.3979
 5010TIP3    H214988   7.174   6.256   4.755 -0.4520 -0.9261 -0.2503
 5011TIP3   OH214989   7.605   0.531   5.918  0.2825  0.2021 -0.6882
 5011TIP3    H114990   7.591   0.493   6.005  1.4815  1.7024  0.2054
 5011TIP3    H214991   7.563   0.617   5.922  1.5860  0.8806 -1.0843
 5012TIP3   OH214992   4.684   3.539   0.376 -0.2799  0.5791  0.2656
 5012TIP3    H114993   4.680   3.469   0.440  1.8329  1.3341  1.2907
 5012TIP3    H214994   4.707   3.496   0.294  2.4242  0.1359  1.1716
 5013TIP3   OH214995   7.900   5.432   4.798  0.2433 -0.3086 -0.0060
 5013TIP3    H114996   7.897   5.506   4.737  0.2352 -1.3868 -1.3691
 5013TIP3    H214997   7.915   5.472   4.884  1.6360  1.1924 -0.8922
 5014TIP3   OH214998   6.007   6.197   5.473  0.0382  0.0548 -0.3493
 5014TIP3    H114999   6.032   6.105   5.461 -0.6108  0.1562 -3.1957
 5014TIP3    H215000   6.081   6.235   5.521  0.2491 -1.9402  1.0453
 5015TIP3   OH215001   0.687   2.045   6.577 -0.2851  0.1563  0.3563
 5015TIP3    H115002   0.612   1.986   6.574  0.3765 -0.7091  0.5697
 5015TIP3    H215003   0.681   2.089   6.662 -0.3180 -0.2207  0.5487
 5016TIP3   OH215004   1.521   7.507   2.490  0.4025 -0.0411  0.7089
 5016TIP3    H115005   1.548   7.531   2.579 -0.0958  0.3468  0.7635
 5016TIP3    H215006   1.548   7.416   2.481  3.5337  0.8318  0.0201
 5017TIP3   OH215007   6.988   1.016   3.603  0.3746 -0.4799  0.4509
 5017TIP3    H115008   6.971   1.089   3.662 -1.2844  0.3614 -0.9903
 5017TIP3    H215009   7.029   1.056   3.527  0.5180 -1.2376  0.1174
 5018TIP3   OH215010   2.569   5.738   4.883 -0.8141  0.3143  0.6851
 5018TIP3    H115011   2.653   5.783   4.870 -1.4814  1.6632  0.8629
 5018TIP3    H215012   2.504   5.808   4.886 -1.5255 -0.2875  4.4934
 5019TIP3   OH215013   2.820   3.466   3.862  0.1440 -0.0286  0.3013
 5019TIP3    H115014   2.882   3.488   3.932  1.8486  2.5105 -1.8153
 5019TIP3    H215015   2.740   3.513   3.886  0.6564  0.6999  0.6354
 5020TIP3   OH215016   7.646   4.790   5.795  0.2986 -0.1217 -0.3270
 5020TIP3    H115017   7.641   4.696   5.776  2.0987 -0.4766  0.6911
 5020TIP3    H215018   7.717   4.797   5.859 -0.9442  1.7564  0.9379
 5021TIP3   OH215019   3.281   7.680   5.890 -0.0213  0.1620 -0.5539
 5021TIP3    H115020   3.312   7.605   5.839 -1.3263 -0.4518 -0.4839
 5021TIP3    H215021   3.240   7.641   5.968 -0.1232  0.9761 -0.1912
 5022TIP3   OH215022   1.195   5.681   3.142 -0.3208  0.3253  0.2036
 5022TIP3    H115023   1.243   5.678   3.225 -0.9273 -1.0462  0.5329
 5022TIP3    H215024   1.261   5.660   3.076 -0.2978 -0.9562  0.5956
 5023TIP3   OH215025   7.453   6.661   5.812  0.0855 -0.2345 -0.0357
 5023TIP3    H115026   7.466   6.594   5.745  0.7822 -0.3818  0.2348
 5023TIP3    H215027   7.535   6.709   5.813 -0.6211  1.0301 -0.6511
 5024TIP3   OH215028   5.471   1.455   2.820 -0.8601  0.3325  0.3275
 5024TIP3    H115029   5.556   1.434   2.782 -1.2317 -0.1290 -0.2776
 5024TIP3    H215030   5.484   1.447   2.915  0.0696  1.4629  0.3090
 5025TIP3   OH215031   0.329   4.191   3.954  0.1504  0.0804 -0.6733
 5025TIP3    H115032   0.234   4.179   3.952  0.4017 -3.4850  0.6447
 5025TIP3    H215033   0.347   4.232   4.038 -0.2018 -0.0018 -0.5581
 5026TIP3   OH215034   8.217   7.316   6.105  0.0709  0.7849 -0.1041
 5026TIP3    H115035   8.179   7.282   6.024 -0.3084  0.3595  0.2492
 5026TIP3    H215036   8.306   7.341   6.080  0.2552 -0.1703 -0.4532
 5027TIP3   OH215037   3.201   0.948   0.718 -0.2578  0.1048 -0.1802
 5027TIP3    H115038   3.236   0.981   0.636 -0.2218 -0.2429 -0.3095
 5027TIP3    H215039   3.261   0.878   0.743 -1.1398 -0.8744 -0.6936
 5028TIP3   OH215040   1.423   3.903   0.161  0.0515 -0.6470  0.8103
 5028TIP3    H115041   1.417   3.957   0.240  0.0741 -1.3322  1.2940
 5028TIP3    H215042   1.453   3.818   0.193  3.5395 -0.0233 -0.2934
 5029TIP3   OH215043   1.666   6.651   3.552  0.5745  0.9687  0.4264
 5029TIP3    H115044   1.680   6.621   3.462  0.5424  0.3824  0.6112
 5029TIP3    H215045   1.737   6.611   3.602  1.0245  1.8920  0.5409
 5030TIP3   OH215046   4.214   0.586   0.917 -0.2550  0.1769  0.4144
 5030TIP3    H115047   4.188   0.676   0.898 -1.1511 -0.1216  0.2177
 5030TIP3    H215048   4.185   0.571   1.007 -0.6332 -0.1136  0.2418
 5031TIP3   OH215049   8.098   6.352   0.003  0.4221 -0.0934  0.8397
 5031TIP3    H115050   8.110   6.271   0.054  1.9063  0.3133  1.1958
 5031TIP3    H215051   8.102   6.422   0.069  2.4427  0.4471  0.2271
 5032TIP3   OH215052   7.004   4.182   4.979 -0.0109  0.4198  0.0049
 5032TIP3    H115053   6.965   4.239   5.045  1.5257  0.2443  1.0968
 5032TIP3    H215054   7.052   4.242   4.922 -0.4367  0.4535 -0.3268
 5033TIP3   OH215055   0.182   3.532   6.298 -0.7027 -0.1711 -0.0255
 5033TIP3    H115056   0.106   3.480   6.272 -0.8811 -0.2005  0.5292
 5033TIP3    H215057   0.256   3.472   6.287 -1.1067 -1.2875  2.5083
 5034TIP3   OH215058   1.164   4.152   2.300  0.2167 -0.0161 -0.3540
 5034TIP3    H115059   1.187   4.122   2.212 -1.5208 -1.1586 -0.4680
 5034TIP3    H215060   1.079   4.112   2.318  0.5164  0.1888  1.8518
 5035TIP3   OH215061   0.281   2.189   5.901  0.3101  0.0228  0.2199
 5035TIP3    H115062   0.337   2.113   5.885  0.9301  0.6108 -0.4625
 5035TIP3    H215063   0.208   2.154   5.952 -0.4292 -1.4287 -1.7226
 5036TIP3   OH215064   2.997   0.013   3.778  0.2945 -0.3529 -0.2896
 5036TIP3    H115065   2.911   0.055   3.778 -0.2262 -1.3709  0.2981
 5036TIP3    H215066   3.026   0.016   3.869 -0.4585 -2.5688  0.0875
 5037TIP3   OH215067   7.236   4.908   1.289 -0.1650 -0.4249  0.0592
 5037TIP3    H115068   7.330   4.923   1.279 -0.2001  0.0835  0.4165
 5037TIP3    H215069   7.211   4.858   1.212  0.3402 -0.2771 -0.2055
 5038TIP3   OH215070   2.429   4.707   2.425  0.1621  0.0884  0.3182
 5038TIP3    H115071   2.403   4.762   2.351 -0.4572  2.3267  2.0751
 5038TIP3    H215072   2.497   4.757   2.469  0.5643 -1.2205  1.2580
 5039TIP3   OH215073   4.321   1.593   2.375 -0.1226  0.2121 -0.0837
 5039TIP3    H115074   4.227   1.587   2.391 -0.6634  2.3576 -1.9542
 5039TIP3    H215075   4.336   1.541   2.296 -0.0214  1.0116 -0.6046
 5040TIP3   OH215076   2.263   3.405   1.640 -0.9805  0.5710  0.2255
 5040TIP3    H115077   2.278   3.498   1.656 -1.2165  1.0835 -2.1203
 5040TIP3    H215078   2.278   3.394   1.546 -1.4582 -1.6621  0.3518
 5041TIP3   OH215079   0.661   5.507   0.669 -0.0876  0.2287  0.5285
 5041TIP3    H115080   0.580   5.458   0.688 -1.0348  0.9614 -1.3056
 5041TIP3    H215081   0.631   5.586   0.624  1.4871  2.0032  2.3817
 5042TIP3   OH215082   2.242   0.687   2.304 -0.4319 -0.0813 -0.1865
 5042TIP3    H115083   2.164   0.632   2.317  0.4089 -1.1930  0.3985
 5042TIP3    H215084   2.251   0.735   2.386  1.4054 -2.5537  1.2250
 5043TIP3   OH215085   6.830   0.247   4.961  0.0613 -0.4996 -0.3497
 5043TIP3    H115086   6.792   0.331   4.936 -1.4640 -1.3569 -1.0489
 5043TIP3    H215087   6.798   0.232   5.050 -0.1815 -0.6265 -0.4580
 5044TIP3   OH215088   0.210   1.149   1.850  0.3340 -0.2618  0.6641
 5044TIP3    H115089   0.294   1.115   1.881 -0.1713  1.2163  4.0641
 5044TIP3    H215090   0.157   1.070   1.834  2.0507 -1.1948 -0.9312
 5045TIP3   OH215091   8.138   2.342   6.397  0.0002 -0.3922 -0.3538
 5045TIP3    H115092   8.113   2.376   6.311  1.1885 -1.4277 -1.1484
 5045TIP3    H215093   8.119   2.249   6.392 -1.8428 -0.1501  1.2659
 5046TIP3   OH215094   3.124   2.881   0.906 -0.0699 -0.2600 -0.4383
 5046TIP3    H115095   3.138   2.912   0.996  0.7977  0.7631 -0.9108
 5046TIP3    H215096   3.193   2.815   0.893 -0.7923 -1.1128 -0.0453
 5047TIP3   OH215097   5.112   2.934   0.016  0.6599  0.8047  0.4118
 5047TIP3    H115098   5.142   3.018   0.051  0.3966  1.9242 -1.8712
 5047TIP3    H215099   5.017   2.937   0.026  0.6005  1.0460 -0.1847
 5048TIP3   OH215100   1.914   7.035   6.191  0.5089 -0.1084  1.1101
 5048TIP3    H115101   1.962   7.006   6.268  2.3873 -1.4819 -0.4571
 5048TIP3    H215102   1.892   6.954   6.145 -0.8113  0.6597  0.3217
 5049TIP3   OH215103   3.461   4.618   4.436 -0.0039  0.3709 -0.6866
 5049TIP3    H115104   3.379   4.573   4.416 -0.8659  1.3278  0.5265
 5049TIP3    H215105   3.490   4.580   4.519 -0.5250  1.6759  0.1413
 5050TIP3   OH215106   1.889   3.477   1.436 -0.1363  0.0259  0.5582
 5050TIP3    H115107   1.968   3.436   1.472  0.0814  1.8164  2.3743
 5050TIP3    H215108   1.906   3.571   1.444 -2.5230  0.4709  1.2214
 5051TIP3   OH215109   2.794   4.616   5.413  0.2746 -0.2926  0.1299
 5051TIP3    H115110   2.848   4.558   5.467  0.8273 -0.1879 -0.2975
 5051TIP3    H215111   2.827   4.704   5.432  1.5330 -0.3490 -1.4746
 5052TIP3   OH215112   0.606   1.487   5.703 -0.2622 -0.0210  0.1620
 5052TIP3    H115113   0.669   1.559   5.700  0.6478 -0.8273 -1.5409
 5052TIP3    H215114   0.536   1.513   5.643  0.1004 -0.5613 -0.5061
 5053TIP3   OH215115   7.154   3.267   3.359  0.1039  0.1652 -0.0442
 5053TIP3    H115116   7.172   3.174   3.342 -1.0846 -0.6396  2.5255
 5053TIP3    H215117   7.074   3.285   3.309 -0.3160 -0.5645  0.3350
 5054TIP3   OH215118   5.515   0.398   2.183 -0.0140 -0.2562 -0.1382
 5054TIP3    H115119   5.543   0.437   2.100 -0.4315  0.4178  0.0284
 5054TIP3    H215120   5.483   0.472   2.234 -1.5389 -0.9275 -0.0858
 5055TIP3   OH215121   6.517   1.431   3.926 -0.4635 -0.5208 -0.4459
 5055TIP3    H115122   6.515   1.382   4.009  0.5148 -0.9995 -0.6846
 5055TIP3    H215123   6.592   1.490   3.935  1.4885 -2.5775 -2.0423
 5056TIP3   OH215124   5.774   7.458   5.019  0.3081  0.1253  0.7833
 5056TIP3    H115125   5.688   7.435   5.054  0.7638 -2.2125  0.5574
 5056TIP3    H215126   5.779   7.413   4.935  0.7360  2.4899 -0.5428
 5057TIP3   OH215127   0.576   2.794   4.579  0.0927 -0.0702 -0.4984
 5057TIP3    H115128   0.512   2.864   4.569 -1.8918 -1.4236  1.5786
 5057TIP3    H215129   0.537   2.735   4.644  2.3945 -2.2533 -0.9252
 5058TIP3   OH215130   7.970   5.659   4.645 -0.2417 -0.3019 -0.7709
 5058TIP3    H115131   8.058   5.637   4.612  0.2429  0.0168  0.2849
 5058TIP3    H215132   7.927   5.700   4.570  0.7529  0.1875 -1.0986
 5059TIP3   OH215133   2.716   2.778   2.073  0.0086 -0.3839 -0.0503
 5059TIP3    H115134   2.629   2.750   2.102  0.7068 -0.8207  1.7149
 5059TIP3    H215135   2.717   2.756   1.979 -1.3996 -1.3558  0.1167
 5060TIP3   OH215136   7.323   3.233   2.151  0.7479  0.4125  0.2435
 5060TIP3    H115137   7.393   3.214   2.212 -0.1490 -1.7761  0.6626
 5060TIP3    H215138   7.364   3.225   2.064  1.5302  1.4813  0.4959
 5061TIP3   OH215139   4.320   4.324   2.186  0.5316 -0.0073 -0.0343
 5061TIP3    H115140   4.319   4.336   2.281  1.7159 -1.8767  0.2960
 5061TIP3    H215141   4.380   4.391   2.153  1.4321 -0.3803  0.7865
 5062TIP3   OH215142   7.859   0.060   3.845  0.1743  0.0222  0.3331
 5062TIP3    H115143   7.820   0.115   3.912 -0.8094 -1.4330  1.0055
 5062TIP3    H215144   7.946   0.038   3.879  0.0916  0.1585  0.6328
 5063TIP3   OH215145   1.081   1.280   5.390 -0.0128 -0.2828 -0.2206
 5063TIP3    H115146   1.059   1.300   5.299  2.1595  2.3658 -0.2836
 5063TIP3    H215147   1.026   1.339   5.442 -1.8781 -2.3689  0.3642
 5064TIP3   OH215148   0.480   7.365   3.679 -1.0206 -0.9003  0.2999
 5064TIP3    H115149   0.473   7.377   3.774  0.0965 -0.5667  0.3543
 5064TIP3    H215150   0.464   7.452   3.642  0.7364 -0.5282  0.3295
 5065TIP3   OH215151   6.582   4.204   3.131 -0.6112 -0.2025  0.1486
 5065TIP3    H115152   6.503   4.169   3.091 -0.5476 -0.4685  0.2565
 5065TIP3    H215153   6.638   4.229   3.057 -0.4796 -0.7248  0.0689
 5066TIP3   OH215154   7.317   0.052   5.171  0.6635 -0.1544 -0.3511
 5066TIP3    H115155   7.367   0.060   5.252  0.2652  1.0926 -0.2032
 5066TIP3    H215156   7.383   0.031   5.104  0.6943 -3.8463  0.6318
 5067TIP3   OH215157   7.433   6.601   6.702  0.2622  0.0093 -0.2672
 5067TIP3    H115158   7.443   6.507   6.686  0.3341 -0.1966  0.8777
 5067TIP3    H215159   7.496   6.642   6.643  0.2665 -0.6643 -0.7419
 5068TIP3   OH215160   2.824   4.879   1.631  0.1327  0.6065 -0.1335
 5068TIP3    H115161   2.897   4.842   1.582  0.4515  0.1638  0.6661
 5068TIP3    H215162   2.805   4.962   1.586 -0.3832 -0.3369 -1.7482
 5069TIP3   OH215163   1.441   4.244   6.753  0.4215  0.3012 -0.3920
 5069TIP3    H115164   1.456   4.300   6.676  2.5220  0.1512 -0.1596
 5069TIP3    H215165   1.529   4.215   6.778 -0.4695 -1.8512  0.4422
 5070TIP3   OH215166   4.091   4.814   6.250  0.7922 -0.1994 -0.3970
 5070TIP3    H115167   4.132   4.835   6.334  0.5739  2.1705 -0.8135
 5070TIP3    H215168   4.040   4.734   6.267  0.9696  0.0811  1.6409
 5071TIP3   OH215169   2.863   4.249   0.628  0.3026 -0.1538  0.2993
 5071TIP3    H115170   2.925   4.320   0.638  0.6919 -0.6213  1.3310
 5071TIP3    H215171   2.910   4.183   0.577  0.1693  0.0450 -0.0884
 5072TIP3   OH215172   0.602   5.297   4.592 -0.2887 -0.1572  0.5205
 5072TIP3    H115173   0.644   5.335   4.669 -0.3647  0.7026  0.1527
 5072TIP3    H215174   0.600   5.369   4.528 -2.0465 -0.2575  0.4183
 5073TIP3   OH215175   7.163   7.717   5.849  0.2412  0.3457  0.1688
 5073TIP3    H115176   7.189   7.790   5.906 -0.3346  1.7736 -1.3256
 5073TIP3    H215177   7.215   7.643   5.880  2.4946  1.9122  0.3294
 5074TIP3   OH215178   1.719   1.561   5.075  0.3494 -0.4318  0.0510
 5074TIP3    H115179   1.786   1.603   5.129  0.5043 -1.9534  1.1140
 5074TIP3    H215180   1.714   1.471   5.108 -3.0375 -0.1004  0.8533
 5075TIP3   OH215181   2.647   4.343   2.197  0.7647  0.0286 -0.4564
 5075TIP3    H115182   2.645   4.248   2.186 -1.4333 -0.0560  0.0511
 5075TIP3    H215183   2.678   4.377   2.113  0.2295 -1.1143 -1.1426
 5076TIP3   OH215184   4.769   2.596   3.035 -0.2503  0.3557 -0.1586
 5076TIP3    H115185   4.839   2.603   3.100 -0.0281  0.5291 -0.4172
 5076TIP3    H215186   4.749   2.686   3.011 -0.6827  0.3153  0.0421
 5077TIP3   OH215187   7.653   0.209   5.782 -0.7801 -0.3203  0.0856
 5077TIP3    H115188   7.744   0.239   5.781 -1.7659  3.1457  0.0566
 5077TIP3    H215189   7.648   0.149   5.857  1.1146  0.9507  1.3051
 5078TIP3   OH215190   6.942   3.056   1.918  0.3048 -0.6612 -0.1471
 5078TIP3    H115191   6.884   2.980   1.912 -0.3635 -0.3219  1.5427
 5078TIP3    H215192   7.030   3.019   1.908 -0.1168 -1.2856 -1.9270
 5079TIP3   OH215193   5.320   3.823   2.778  0.3864  0.1465  0.4950
 5079TIP3    H115194   5.389   3.788   2.721 -0.9348 -0.2190 -0.9488
 5079TIP3    H215195   5.247   3.763   2.766 -0.5428  1.1057  1.1977
 5080TIP3   OH215196   5.896   5.227   2.714 -0.2902  0.3912  0.3245
 5080TIP3    H115197   5.891   5.303   2.656  1.6255  0.4906  0.2320
 5080TIP3    H215198   5.947   5.257   2.789 -0.9042 -0.3617  1.0639
 5081TIP3   OH215199   6.330   1.765   1.236 -0.4929 -0.2500  0.2715
 5081TIP3    H115200   6.400   1.706   1.210  0.2284 -0.2941  2.1677
 5081TIP3    H215201   6.356   1.798   1.322 -1.4922  1.8405 -0.1536
 5082TIP3   OH215202   6.321   4.093   3.048  0.1497  0.1408  0.0071
 5082TIP3    H115203   6.245   4.140   3.013 -0.0972 -0.3481 -0.1241
 5082TIP3    H215204   6.287   4.046   3.125  0.0344 -1.0057 -0.7122
 5083TIP3   OH215205   1.843   2.261   4.843  0.2655  0.2356  0.1847
 5083TIP3    H115206   1.818   2.353   4.843  2.1613  0.8267  1.8660
 5083TIP3    H215207   1.800   2.225   4.921  1.5460  0.3528  0.9672
 5084TIP3   OH215208   6.165   6.684   0.033 -0.4389 -0.1011 -0.1311
 5084TIP3    H115209   6.185   6.601  -0.009  1.0453  0.1203  0.0614
 5084TIP3    H215210   6.246   6.707   0.080 -1.1581  0.9513  0.6480
 5085TIP3   OH215211   4.012   3.867   0.235  0.3576 -0.2059  0.4550
 5085TIP3    H115212   4.029   3.956   0.205  1.2773 -0.0308  1.4422
 5085TIP3    H215213   3.948   3.832   0.172 -1.1428  1.6290  0.8702
 5086TIP3   OH215214   1.909   1.000   1.924  0.1099 -0.4332 -0.7425
 5086TIP3    H115215   1.968   0.983   1.997 -0.0780 -0.2635 -0.5513
 5086TIP3    H215216   1.821   0.996   1.962  0.0504  0.9328 -0.6914
 5087TIP3   OH215217   3.124   6.416   4.968  0.5624 -0.4992 -0.2584
 5087TIP3    H115218   3.177   6.467   4.906  1.1321  0.3692  0.8929
 5087TIP3    H215219   3.046   6.392   4.919 -0.2106  2.3673 -0.5986
 5088TIP3   OH215220   7.090   3.843   4.640 -0.0603  0.1042  0.0771
 5088TIP3    H115221   7.005   3.859   4.681 -0.4199  0.5374 -0.8069
 5088TIP3    H215222   7.073   3.850   4.546  0.4666 -2.1788 -0.2392
 5089TIP3   OH215223   3.666   3.515   5.634 -0.2787 -0.0663  0.0613
 5089TIP3    H115224   3.635   3.428   5.607 -1.7471  0.6650 -0.7364
 5089TIP3    H215225   3.659   3.515   5.729 -0.3677 -0.7822  0.0573
 5090TIP3   OH215226   3.063   5.413   6.526  0.0551 -0.5985  0.1020
 5090TIP3    H115227   3.102   5.449   6.446  0.2443 -0.4990  0.2381
 5090TIP3    H215228   2.992   5.357   6.495  1.9980 -2.9869 -0.3124
 5091TIP3   OH215229   3.737   6.726   6.608 -0.3234  0.0023 -0.2380
 5091TIP3    H115230   3.647   6.747   6.582 -0.3808  0.1693  0.1010
 5091TIP3    H215231   3.735   6.632   6.628  0.3661 -0.9163 -3.7002
 5092TIP3   OH215232   1.539   1.946   5.083 -0.2191  0.1715  0.9722
 5092TIP3    H115233   1.488   2.024   5.105 -1.5214 -0.2773 -0.2482
 5092TIP3    H215234   1.473   1.879   5.066  0.7762 -0.5369 -0.3233
 5093TIP3   OH215235   7.792   4.055   2.087  0.3643  0.1681 -0.3660
 5093TIP3    H115236   7.757   4.140   2.115  0.5896  0.2905 -0.4608
 5093TIP3    H215237   7.886   4.059   2.106  0.1727 -0.5693  0.9261
 5094TIP3   OH215238   3.202   4.492   4.525  0.2016  0.0584  0.3912
 5094TIP3    H115239   3.218   4.401   4.552  2.3100  0.8016  1.9301
 5094TIP3    H215240   3.174   4.536   4.605  1.4521  1.2225  0.2167
 5095TIP3   OH215241   4.671   1.277   4.574 -0.2153 -0.1041  0.1384
 5095TIP3    H115242   4.629   1.346   4.625  0.6034 -0.4329  1.3017
 5095TIP3    H215243   4.665   1.199   4.630  1.1291 -0.3616 -0.0508
 5096TIP3   OH215244   6.647   1.848   6.478  0.4371  0.2338  0.3787
 5096TIP3    H115245   6.630   1.763   6.519  0.8137  1.1169  2.5292
 5096TIP3    H215246   6.607   1.842   6.392 -2.7874 -0.8900  1.8055
 5097TIP3   OH215247   7.943   2.012   3.829 -0.8466  0.0006  0.6486
 5097TIP3    H115248   7.879   1.946   3.855  0.0612 -0.9347  0.5653
 5097TIP3    H215249   7.985   2.039   3.910 -0.7962  0.0361  0.6113
 5098TIP3   OH215250   7.891   1.049   0.573  0.2560  0.2864 -0.1689
 5098TIP3    H115251   7.929   1.060   0.660 -0.0856 -0.7417  0.1291
 5098TIP3    H215252   7.932   1.116   0.519  1.3269  0.1911  0.5151
 5099TIP3   OH215253   4.912   7.650   1.263 -0.5031 -0.5819  0.6219
 5099TIP3    H115254   4.993   7.701   1.256  0.3768 -1.9735  0.3319
 5099TIP3    H215255   4.886   7.634   1.172 -1.6358  0.6159  0.6988
 5100TIP3   OH215256   0.311   5.859   1.350 -0.2513 -0.1738  0.2030
 5100TIP3    H115257   0.360   5.807   1.413  0.3169 -0.7176 -0.6731
 5100TIP3    H215258   0.283   5.796   1.283 -1.2046  0.3180  0.1122
 5101TIP3   OH215259   3.330   2.572   6.452  0.2026 -0.2932 -0.5585
 5101TIP3    H115260   3.425   2.572   6.459  0.1883 -0.2386 -0.3446
 5101TIP3    H215261   3.312   2.576   6.358  0.4112 -0.4474 -0.6054
 5102TIP3   OH215262   4.856   6.191   0.172  0.0365 -0.4892 -0.4679
 5102TIP3    H115263   4.821   6.278   0.195  0.9905  0.0830 -1.0960
 5102TIP3    H215264   4.871   6.149   0.256 -0.4994 -0.0789 -0.1536
 5103TIP3   OH215265   4.314   1.793   5.364 -0.4839 -0.3052  0.2432
 5103TIP3    H115266   4.377   1.743   5.416  0.0379  1.5253  1.4602
 5103TIP3    H215267   4.262   1.726   5.319  1.2016 -1.8957  0.5257
 5104TIP3   OH215268   1.333   5.284   2.309  0.0847 -0.1264 -0.2046
 5104TIP3    H115269   1.404   5.342   2.335  0.1409 -0.0105 -0.6048
 5104TIP3    H215270   1.284   5.333   2.243  0.6600 -0.8550 -1.2136
 5105TIP3   OH215271   7.254   0.554   0.589  0.5483 -0.1921  0.5122
 5105TIP3    H115272   7.247   0.484   0.654  1.6679 -1.4759 -0.6589
 5105TIP3    H215273   7.248   0.635   0.639 -1.9956 -1.0653  1.8050
 5106TIP3   OH215274   0.219   1.572   6.666  0.2760 -0.6333  0.4198
 5106TIP3    H115275   0.213   1.625   6.746  2.2840  0.1661  0.0815
 5106TIP3    H215276   0.176   1.490   6.690 -1.6166  0.5585  1.4259
 5107TIP3   OH215277   4.747   7.752   4.115  0.2120  0.1654  0.0055
 5107TIP3    H115278   4.793   7.823   4.160  0.9008  0.6177 -1.3512
 5107TIP3    H215279   4.804   7.676   4.129 -0.0244  0.0966  0.6260
 5108TIP3   OH215280   5.732   0.778   0.197 -0.1806  0.3533  0.1187
 5108TIP3    H115281   5.718   0.823   0.280  1.7931 -0.0120  0.6984
 5108TIP3    H215282   5.676   0.701   0.202  0.2666  0.0835  1.3477
 5109TIP3   OH215283   4.615   7.038   3.075  0.1867  0.1643 -0.3073
 5109TIP3    H115284   4.525   7.008   3.076  0.5261 -0.9388  1.6632
 5109TIP3    H215285   4.663   6.974   3.127  2.5289 -0.3852 -2.8813
 5110TIP3   OH215286   0.503   1.146   1.462  0.4864 -0.8705  0.0636
 5110TIP3    H115287   0.542   1.059   1.471  0.7825 -0.8325 -0.7448
 5110TIP3    H215288   0.413   1.130   1.434  1.2192 -0.9283 -2.5529
 5111TIP3   OH215289   4.470   5.539   6.592 -0.5626  0.3877  0.1446
 5111TIP3    H115290   4.554   5.520   6.634 -0.3430 -0.7494 -0.7481
 5111TIP3    H215291   4.419   5.458   6.602 -1.5277  1.0388  0.6035
 5112TIP3   OH215292   6.041   6.122   4.851  0.3550  0.1974 -0.4866
 5112TIP3    H115293   6.034   6.080   4.936 -0.5216  0.4114 -0.4473
 5112TIP3    H215294   6.040   6.050   4.788  2.0927 -0.0465 -0.3016
 5113TIP3   OH215295   0.151   4.317   1.156 -0.4893 -0.3352 -0.1064
 5113TIP3    H115296   0.120   4.259   1.086 -1.6091  0.1538 -0.0356
 5113TIP3    H215297   0.073   4.364   1.185  0.1838  0.3573  0.6474
 5114TIP3   OH215298   4.093   1.920   3.261 -0.0309  0.3948 -0.0279
 5114TIP3    H115299   4.149   1.971   3.320  1.3807 -1.6842  0.5422
 5114TIP3    H215300   4.097   1.968   3.178  2.4180  0.5070  0.0702
 5115TIP3   OH215301   4.730   7.214   0.089  0.1631 -0.4786  0.0480
 5115TIP3    H115302   4.811   7.248   0.051 -0.6921  0.3732 -1.1072
 5115TIP3    H215303   4.672   7.290   0.093 -0.6653 -1.1209  0.6018
 5116TIP3   OH215304   6.932   3.445   3.028  0.1778 -0.1414  0.0555
 5116TIP3    H115305   6.890   3.466   2.944  0.2551  0.0020  0.0529
 5116TIP3    H215306   6.953   3.530   3.066 -1.9803 -0.1192  1.3102
 5117TIP3   OH215307   7.600   0.648   2.356 -0.3321  0.3058  0.2255
 5117TIP3    H115308   7.694   0.631   2.348 -0.1007  1.3187  0.6280
 5117TIP3    H215309   7.566   0.631   2.268 -0.1749 -2.2232  0.5749
 5118TIP3   OH215310   7.026   0.335   4.223 -0.4187 -0.6655 -0.0462
 5118TIP3    H115311   7.040   0.416   4.271 -0.5934 -0.9569  0.4975
 5118TIP3    H215312   6.996   0.272   4.288  0.5003 -1.4021 -0.3112
 5119TIP3   OH215313   7.718   4.255   4.799  0.4786  0.7066 -0.0637
 5119TIP3    H115314   7.747   4.164   4.791 -0.6481  0.2351  0.8748
 5119TIP3    H215315   7.798   4.306   4.805  1.1376 -0.1519 -1.3141
 5120TIP3   OH215316   6.178   0.941   1.678 -0.4549 -0.0971  0.6041
 5120TIP3    H115317   6.225   0.857   1.677 -0.2267  0.0289 -0.1145
 5120TIP3    H215318   6.142   0.949   1.590 -1.1956  0.1639  0.9288
 5121TIP3   OH215319   5.288   2.773   2.643  0.1536  0.1974 -0.3935
 5121TIP3    H115320   5.354   2.815   2.699  0.7385 -1.0418 -0.1153
 5121TIP3    H215321   5.226   2.734   2.704  0.5377 -0.7606 -0.5897
 5122TIP3   OH215322   0.451   2.930   2.430  0.0713  0.1887  0.3139
 5122TIP3    H115323   0.386   2.882   2.379  1.4358 -1.4340  0.0107
 5122TIP3    H215324   0.420   3.021   2.429 -1.8857 -0.4278 -0.2457
 5123TIP3   OH215325   2.359   4.250   0.189  0.2230  0.2754 -0.2197
 5123TIP3    H115326   2.408   4.291   0.261 -0.0050 -0.3203  0.2817
 5123TIP3    H215327   2.290   4.313   0.168 -0.8130 -0.2918  1.2919
 5124TIP3   OH215328   4.103   7.473   5.184  0.5115 -0.0659 -0.1308
 5124TIP3    H115329   4.077   7.402   5.125 -1.1740 -1.5722  2.2123
 5124TIP3    H215330   4.184   7.442   5.224 -0.5454 -1.0779  1.3503
 5125TIP3   OH215331   4.516   1.760   4.830 -0.1124 -0.2820 -0.1896
 5125TIP3    H115332   4.503   1.853   4.812  0.0830 -0.3743 -0.8388
 5125TIP3    H215333   4.430   1.729   4.859 -0.6384 -0.2567 -1.6334
 5126TIP3   OH215334   5.085   1.255   1.472 -0.2579 -0.8336  0.0255
 5126TIP3    H115335   5.171   1.295   1.483  0.0210 -0.5792 -2.4690
 5126TIP3    H215336   5.025   1.329   1.458 -0.8262 -1.0338  1.2651
 5127TIP3   OH215337   6.465   0.102   2.117 -0.5235  0.0705  0.1049
 5127TIP3    H115338   6.408   0.177   2.138 -0.9313 -0.5359  1.2223
 5127TIP3    H215339   6.534   0.104   2.183 -0.7915 -0.7961  0.4253
 5128TIP3   OH215340   8.333   1.974   0.849 -0.4380  0.0110 -0.2760
 5128TIP3    H115341   8.306   1.908   0.914 -0.9841 -1.3042 -1.7753
 5128TIP3    H215342   8.289   1.948   0.768  0.9894  1.0282 -1.4433
 5129TIP3   OH215343   2.849   3.251   5.558 -0.2974  0.4655  0.3127
 5129TIP3    H115344   2.909   3.295   5.617 -2.4406  2.8742  0.8657
 5129TIP3    H215345   2.905   3.204   5.496  2.1053  2.4352  0.8761
 5130TIP3   OH215346   1.966   4.679   1.846  0.5891  0.2317 -0.0320
 5130TIP3    H115347   2.000   4.674   1.757  0.1205 -1.1096 -0.1556
 5130TIP3    H215348   2.008   4.607   1.893 -0.9630 -0.5758  0.1849
 5131TIP3   OH215349   1.018   3.010   6.726  0.1447  0.4425  0.0843
 5131TIP3    H115350   0.967   2.939   6.688 -0.0373  0.0145  1.0889
 5131TIP3    H215351   1.108   2.992   6.699  0.1213 -0.2578  0.4405
 5132TIP3   OH215352   7.505   6.724   1.331  0.2744 -0.2303  0.4309
 5132TIP3    H115353   7.563   6.795   1.302  0.3245 -0.8736 -1.1453
 5132TIP3    H215354   7.435   6.722   1.266 -0.2845 -0.9559  1.0390
 5133TIP3   OH215355   3.641   5.891   3.655  0.2660 -0.1264 -0.3494
 5133TIP3    H115356   3.667   5.863   3.743 -1.1003  1.9595  0.7994
 5133TIP3    H215357   3.546   5.879   3.653  0.2349  0.1889 -1.4064
 5134TIP3   OH215358   6.494   1.914   2.456  0.2511 -0.2101  0.6540
 5134TIP3    H115359   6.545   1.993   2.474 -1.7176  0.9334  1.5309
 5134TIP3    H215360   6.442   1.900   2.535 -0.7952 -1.3313 -0.1858
 5135TIP3   OH215361   1.805   2.880   0.751 -0.0433 -0.2504  0.0090
 5135TIP3    H115362   1.874   2.922   0.698 -0.6664 -0.1272 -0.7261
 5135TIP3    H215363   1.850   2.850   0.830  0.8482 -0.1340 -0.4413
 5136TIP3   OH215364   2.714   4.920   5.232 -0.6358  0.5514 -0.6526
 5136TIP3    H115365   2.738   4.883   5.318 -2.2922 -1.2431 -0.8809
 5136TIP3    H215366   2.632   4.966   5.248 -0.6494  0.7035 -1.1549
 5137TIP3   OH215367   3.439   5.290   3.058 -0.3856  0.2499 -0.0234
 5137TIP3    H115368   3.516   5.344   3.038 -0.4770  0.0483 -0.9563
 5137TIP3    H215369   3.469   5.200   3.045 -1.3206  0.2205 -2.5337
 5138TIP3   OH215370   2.994   1.433   0.967 -0.0504  0.3553 -0.1420
 5138TIP3    H115371   2.972   1.418   1.058 -1.1462  0.8970 -0.3009
 5138TIP3    H215372   3.089   1.444   0.966  0.5068 -3.2986  0.4040
 5139TIP3   OH215373   8.046   5.987   2.135 -0.3165  0.2242 -0.6695
 5139TIP3    H115374   8.019   5.905   2.177 -0.3950  0.1968 -0.7719
 5139TIP3    H215375   8.132   5.967   2.097  1.2771  1.1419  2.1590
 5140TIP3   OH215376   4.806   1.042   0.117  0.2136 -0.1643 -0.4177
 5140TIP3    H115377   4.822   1.004   0.031  0.5644  0.4125 -0.6085
 5140TIP3    H215378   4.736   1.106   0.102  0.7886  0.4714 -0.4219
 5141TIP3   OH215379   1.480   2.332   5.872 -0.6241  0.0153 -0.0458
 5141TIP3    H115380   1.566   2.297   5.847 -1.6531 -1.6431 -1.5128
 5141TIP3    H215381   1.489   2.355   5.964  0.6908 -2.5609  0.5689
 5142TIP3   OH215382   6.431   7.819   2.266 -0.0940 -0.2315  0.2070
 5142TIP3    H115383   6.485   7.750   2.227  1.5142 -0.4730  2.6315
 5142TIP3    H215384   6.489   7.895   2.269 -0.8649  0.3648  0.2857
 5143TIP3   OH215385   7.577   4.561   3.475  0.0310  0.2533  0.1301
 5143TIP3    H115386   7.662   4.548   3.519  0.4146 -1.0296 -0.9168
 5143TIP3    H215387   7.521   4.493   3.514  0.4522 -1.0821 -1.4723
 5144TIP3   OH215388   3.162   4.036   2.753 -0.8503 -0.1301 -0.0295
 5144TIP3    H115389   3.159   4.021   2.847 -0.9789  1.2821  0.2129
 5144TIP3    H215390   3.184   4.128   2.744 -2.2346  0.1116 -1.3726
 5145TIP3   OH215391   2.791   6.375   1.949 -0.0190  0.1117  0.2349
 5145TIP3    H115392   2.725   6.389   1.881 -0.9960  1.0564  1.3202
 5145TIP3    H215393   2.835   6.294   1.924 -1.5467 -0.5125 -0.5680
 5146TIP3   OH215394   7.633   5.635   1.975 -0.7375 -0.3394  0.5608
 5146TIP3    H115395   7.712   5.679   1.944 -0.3444 -0.7577  0.9435
 5146TIP3    H215396   7.574   5.633   1.899 -0.4911  0.2234  0.3548
 5147TIP3   OH215397   5.419   7.497   6.292 -0.0235  0.0928 -0.3289
 5147TIP3    H115398   5.388   7.512   6.202  0.9140 -0.8620 -0.8386
 5147TIP3    H215399   5.447   7.405   6.292  0.7532  0.3135  0.7166
 5148TIP3   OH215400   4.246   5.485   0.369 -0.1284 -0.0896  0.1174
 5148TIP3    H115401   4.171   5.512   0.315 -0.3865  1.2677  1.0945
 5148TIP3    H215402   4.270   5.399   0.335 -0.7505  0.3896 -1.6549
 5149TIP3   OH215403   6.080   2.033   2.693  0.3884 -0.0575 -0.4106
 5149TIP3    H115404   6.096   1.957   2.637 -1.6553 -0.0184 -1.1145
 5149TIP3    H215405   5.992   2.062   2.671  0.0714  0.8837  1.8088
 5150TIP3   OH215406   7.550   0.318   0.246  0.1428  0.2425  0.5751
 5150TIP3    H115407   7.533   0.225   0.231  1.9615  0.1128 -1.1162
 5150TIP3    H215408   7.580   0.322   0.337 -1.0079 -0.6224  1.0252
 5151TIP3   OH215409   6.545   2.876   4.530 -0.2823  0.2948  0.1865
 5151TIP3    H115410   6.532   2.786   4.560 -2.9855  0.8157  0.8673
 5151TIP3    H215411   6.555   2.869   4.435  0.3621 -0.7447  0.3127
 5152TIP3   OH215412   6.893   7.472   5.277 -0.0644  0.2658  0.8581
 5152TIP3    H115413   6.862   7.541   5.218  0.3003 -0.1334  0.1876
 5152TIP3    H215414   6.900   7.394   5.221 -0.2187 -0.2535  1.5450
 5153TIP3   OH215415   2.078   3.362   1.204 -0.2500  0.0098  0.0357
 5153TIP3    H115416   1.986   3.360   1.230 -0.2348  0.8702  0.1636
 5153TIP3    H215417   2.111   3.274   1.226 -0.4675  0.3894  2.0549
 5154TIP3   OH215418   4.346   0.695   5.955  0.4490  0.2675 -0.4736
 5154TIP3    H115419   4.402   0.709   6.031  0.0895  1.4401 -0.3992
 5154TIP3    H215420   4.309   0.608   5.967 -0.7858  1.0133  1.4967
 5155TIP3   OH215421   7.638   0.781   4.169 -0.5649  0.1821 -0.7669
 5155TIP3    H115422   7.559   0.768   4.117 -0.4225 -0.6717 -0.7815
 5155TIP3    H215423   7.710   0.754   4.112 -0.3435 -0.0303 -0.3949
 5156TIP3   OH215424   2.449   3.165   3.279  0.4180 -0.1720  0.1295
 5156TIP3    H115425   2.411   3.171   3.192 -1.0816 -0.7586  0.7245
 5156TIP3    H215426   2.499   3.083   3.278  0.3158 -0.2316 -0.1384
 5157TIP3   OH215427   5.444   2.280   5.798  0.5063 -0.5798 -0.1120
 5157TIP3    H115428   5.526   2.230   5.802  0.4771 -0.7378 -1.1384
 5157TIP3    H215429   5.467   2.359   5.750  0.7333  0.8282  2.1710
 5158TIP3   OH215430   6.552   5.553   4.189 -0.4789  0.0446 -0.3912
 5158TIP3    H115431   6.635   5.518   4.221 -0.6043 -0.0900 -0.2090
 5158TIP3    H215432   6.485   5.508   4.241 -0.8228 -1.8538 -2.3229
 5159TIP3   OH215433   0.474   1.515   5.176  0.1956  0.0197  0.2605
 5159TIP3    H115434   0.406   1.577   5.151  1.0033  0.9481  0.3224
 5159TIP3    H215435   0.533   1.565   5.232  0.4080 -1.0421  1.0164
 5160TIP3   OH215436   5.408   4.350   6.361 -0.0944 -0.4539 -0.7037
 5160TIP3    H115437   5.459   4.277   6.397 -0.1328 -1.3947 -2.4832
 5160TIP3    H215438   5.426   4.348   6.267 -1.6760  0.5873 -1.0578
 5161TIP3   OH215439   6.782   4.483   2.886 -0.0085  0.4527  0.4273
 5161TIP3    H115440   6.785   4.387   2.885 -1.2576  0.3848  1.0442
 5161TIP3    H215441   6.812   4.507   2.974  1.4912  0.6988 -0.1398
 5162TIP3   OH215442   7.449   1.896   3.140 -0.0272 -0.2530  0.2985
 5162TIP3    H115443   7.489   1.881   3.054 -0.2094 -1.4949  0.4212
 5162TIP3    H215444   7.428   1.990   3.140 -1.2117 -0.4772 -1.5140
 5163TIP3   OH215445   7.163   1.270   1.906 -0.0684 -0.1505  0.3613
 5163TIP3    H115446   7.197   1.217   1.834 -2.5781 -1.2949 -0.0511
 5163TIP3    H215447   7.173   1.215   1.984  0.6223  0.2305  0.5555
 5164TIP3   OH215448   6.820   1.073   0.192  0.8720 -0.2613  0.1372
 5164TIP3    H115449   6.824   1.169   0.196 -0.1195 -0.2184  0.2010
 5164TIP3    H215450   6.859   1.052   0.107 -2.0211  0.4413 -1.4852
 5165TIP3   OH215451   1.901   0.483   4.943  0.4698 -0.4360  0.0335
 5165TIP3    H115452   1.895   0.395   4.906  2.4473 -1.3740  1.7086
 5165TIP3    H215453   1.982   0.518   4.908 -0.0589  0.5611 -0.2311
 5166TIP3   OH215454   2.701   1.851   0.291  0.0782 -0.3447  0.0853
 5166TIP3    H115455   2.783   1.830   0.335  0.3630 -0.5601 -0.5402
 5166TIP3    H215456   2.640   1.872   0.362  0.4563 -0.9342  0.5885
 5167TIP3   OH215457   1.509   3.437   2.504  0.1364  0.6510  0.0359
 5167TIP3    H115458   1.444   3.479   2.448  0.4674  1.1857  0.0487
 5167TIP3    H215459   1.554   3.510   2.548 -0.7153  0.2273  1.6839
 5168TIP3   OH215460   2.141   3.730   6.135  0.2707 -0.1335  0.6314
 5168TIP3    H115461   2.225   3.684   6.133 -0.1666 -1.0723  2.3084
 5168TIP3    H215462   2.116   3.739   6.043  2.1855  0.1654  0.1024
 5169TIP3   OH215463   5.010   1.184   1.029 -0.0710 -0.0203 -0.1176
 5169TIP3    H115464   5.030   1.245   0.958  0.1604 -0.1701 -0.1822
 5169TIP3    H215465   4.914   1.180   1.031 -0.0833 -0.9669 -1.2411
 5170TIP3   OH215466   5.767   6.223   5.048  0.3409  0.1217  0.1071
 5170TIP3    H115467   5.861   6.206   5.046  0.0370 -1.8235  0.8619
 5170TIP3    H215468   5.750   6.257   5.136  0.2991  0.2663  0.0438
 5171TIP3   OH215469   2.577   4.993   4.103 -0.2826 -0.0797 -0.1788
 5171TIP3    H115470   2.540   4.916   4.145 -0.5887 -0.2116 -0.6900
 5171TIP3    H215471   2.669   4.970   4.089 -0.1587 -0.0137  0.4530
 5172TIP3   OH215472   3.834   2.517   2.038 -0.4778  0.0253 -0.1576
 5172TIP3    H115473   3.761   2.504   2.098 -1.4902  2.2743 -0.8128
 5172TIP3    H215474   3.795   2.513   1.951  0.2033  1.0425 -0.5295
 5173TIP3   OH215475   1.018   1.199   1.320  0.4789 -0.5412  0.3242
 5173TIP3    H115476   0.954   1.209   1.390 -1.8128  0.2636 -1.7187
 5173TIP3    H215477   0.984   1.254   1.249  2.8660 -1.0027 -1.2982
 5174TIP3   OH215478   6.207   3.326   3.230  0.2561 -0.3739  0.7321
 5174TIP3    H115479   6.260   3.349   3.154  1.2344 -1.9059  0.8973
 5174TIP3    H215480   6.239   3.384   3.299  0.3303  0.0810  0.3192
 5175TIP3   OH215481   5.401   6.143   1.526 -0.1764  0.4935  0.3811
 5175TIP3    H115482   5.472   6.190   1.482 -0.2130  1.2067  1.0671
 5175TIP3    H215483   5.322   6.172   1.481  0.0213 -1.3091 -1.2869
 5176TIP3   OH215484   4.050   6.619   3.184 -0.0938  0.3417 -0.0170
 5176TIP3    H115485   4.072   6.659   3.268 -0.2671  0.9425 -0.2510
 5176TIP3    H215486   3.955   6.605   3.189 -0.6826  3.1541 -1.2264
 5177TIP3   OH215487   1.690   5.351   4.146 -0.2529 -0.3470  0.0822
 5177TIP3    H115488   1.755   5.287   4.115  0.7255  1.0426 -0.8817
 5177TIP3    H215489   1.682   5.333   4.240  0.3175 -1.6014 -0.0873
 5178TIP3   OH215490   1.740   4.553   1.721 -0.0671  0.1704 -0.4935
 5178TIP3    H115491   1.798   4.603   1.778 -0.6643 -0.2314  0.5031
 5178TIP3    H215492   1.796   4.488   1.679  0.2295 -0.1701  0.4103
 5179TIP3   OH215493   4.995   2.716   1.990 -0.1854 -0.1902  0.0893
 5179TIP3    H115494   4.963   2.733   1.901  3.4025 -0.3063 -1.4165
 5179TIP3    H215495   4.945   2.640   2.019 -1.2004 -0.4034 -2.0116
 5180TIP3   OH215496   1.538   5.618   3.718 -0.2854  0.1320  0.1065
 5180TIP3    H115497   1.501   5.537   3.751 -2.7672  1.4711  0.8899
 5180TIP3    H215498   1.570   5.664   3.796  2.4913 -0.6391 -0.4737
 5181TIP3   OH215499   4.331   3.230   5.748 -0.0706  0.2438  0.0063
 5181TIP3    H115500   4.267   3.270   5.689 -0.6307 -0.3986  0.1580
 5181TIP3    H215501   4.352   3.299   5.811 -0.3069  0.5889 -0.2912
 5182TIP3   OH215502   4.180   5.121   0.549  0.2106 -0.2334  0.0242
 5182TIP3    H115503   4.101   5.071   0.526 -0.6282  2.3673 -3.5799
 5182TIP3    H215504   4.218   5.072   0.623 -3.3335 -3.0415  0.2917
 5183TIP3   OH215505  -0.006   2.035   1.553  0.9136 -0.4146  0.1741
 5183TIP3    H115506   0.085   2.054   1.529  0.9644 -2.4682 -1.5022
 5183TIP3    H215507  -0.001   1.996   1.640  1.5419  0.1122  0.3816
 5184TIP3   OH215508   6.449   6.389   1.863 -0.0602  0.5837  0.2883
 5184TIP3    H115509   6.463   6.365   1.772  2.7135  0.6622  0.6316
 5184TIP3    H215510   6.421   6.308   1.905  0.1704  0.1787 -0.3323
 5185TIP3   OH215511   5.678   7.391   6.404 -0.1092  0.5361 -0.2978
 5185TIP3    H115512   5.637   7.307   6.382  1.1223 -0.1990  0.0718
 5185TIP3    H215513   5.710   7.378   6.493  1.9133  0.6359 -0.9559
 5186TIP3   OH215514   3.859   1.741   5.414  0.0509  0.5094  0.0797
 5186TIP3    H115515   3.783   1.690   5.387 -0.3976  1.1378  0.1386
 5186TIP3    H215516   3.924   1.675   5.438 -0.2079 -0.0430 -0.6792
 5187TIP3   OH215517   4.968   2.547   0.058  0.2361  0.2167  0.5564
 5187TIP3    H115518   4.946   2.594  -0.023  0.0938  0.6979  0.8700
 5187TIP3    H215519   5.044   2.492   0.034  1.2903  1.6311  0.5318
 5188TIP3   OH215520   1.403   1.530   0.161  0.2684 -0.2111  0.5253
 5188TIP3    H115521   1.417   1.446   0.205  0.5667  0.3381  1.5170
 5188TIP3    H215522   1.491   1.561   0.138  0.1013 -0.6135 -0.7320
 5189TIP3   OH215523   2.507   2.510   1.065  0.1299  0.0367 -0.3658
 5189TIP3    H115524   2.516   2.603   1.043  0.5546  0.2389  0.6374
 5189TIP3    H215525   2.418   2.502   1.100 -0.0654 -0.0267 -0.8689
 5190TIP3   OH215526   5.546   7.015   2.439 -0.1409 -0.5496 -0.0115
 5190TIP3    H115527   5.595   6.953   2.385 -0.5069 -3.7600  2.9192
 5190TIP3    H215528   5.457   7.010   2.406  0.0673 -0.6961 -0.5578
 5191TIP3   OH215529   7.747   5.747   0.059  0.0019 -0.1072  0.3064
 5191TIP3    H115530   7.717   5.666   0.100  1.6071 -0.5342  0.7167
 5191TIP3    H215531   7.798   5.718  -0.017 -0.8499  0.5923 -0.5530
 5192TIP3   OH215532   6.181   2.549   6.653 -0.5811  1.0627 -0.6432
 5192TIP3    H115533   6.124   2.585   6.585 -0.4825 -0.0394 -1.3361
 5192TIP3    H215534   6.123   2.493   6.705 -0.0479 -0.6170 -1.7690
 5193TIP3   OH215535   1.235   1.862   4.519 -0.3357 -0.4375  0.4812
 5193TIP3    H115536   1.243   1.811   4.439  1.7302 -0.3996  0.6291
 5193TIP3    H215537   1.219   1.797   4.587 -1.4635 -0.5223  0.1637
 5194TIP3   OH215538   2.938   3.889   0.417  0.2569 -0.4194 -0.1959
 5194TIP3    H115539   2.975   3.977   0.423 -0.9480  0.2126 -1.6028
 5194TIP3    H215540   2.852   3.896   0.459 -0.0948 -0.7816 -0.8490
 5195TIP3   OH215541   8.231   0.537   5.529  0.3129 -0.3807 -0.5003
 5195TIP3    H115542   8.237   0.577   5.442  1.4301 -2.3061 -1.3698
 5195TIP3    H215543   8.137   0.537   5.548  0.0622  0.1971 -1.6344
 5196TIP3   OH215544   5.491   4.113   0.400 -0.5351 -0.4655  0.6043
 5196TIP3    H115545   5.518   4.047   0.336  0.6232  0.0421  0.5461
 5196TIP3    H215546   5.397   4.125   0.385 -0.6092 -1.5662  0.1359
 5197TIP3   OH215547   3.127   4.788   4.677 -0.3810 -0.2793 -0.5047
 5197TIP3    H115548   3.054   4.756   4.625  0.3550 -0.4482 -1.4664
 5197TIP3    H215549   3.143   4.877   4.644  0.4987 -0.6204 -1.0401
 5198TIP3   OH215550   5.469   6.732   6.683 -0.1960  0.2981 -0.0084
 5198TIP3    H115551   5.551   6.697   6.647  0.6290  2.7361 -0.7570
 5198TIP3    H215552   5.485   6.741   6.776 -0.9828 -2.5549  0.4900
 5199TIP3   OH215553   6.753   4.517   3.198  0.8176 -0.6573  0.2508
 5199TIP3    H115554   6.703   4.471   3.265 -2.0572  1.7575 -0.0393
 5199TIP3    H215555   6.811   4.576   3.247 -0.9806  0.8046  0.7214
 5200TIP3   OH215556   6.429   2.868   6.234 -0.1379 -0.1359  0.0870
 5200TIP3    H115557   6.457   2.886   6.324 -0.4081 -0.3953  0.2248
 5200TIP3    H215558   6.351   2.812   6.244 -0.9774  0.9333 -0.2728
 5201TIP3   OH215559   7.137   6.462   4.114  0.2955  0.0601  0.2020
 5201TIP3    H115560   7.086   6.457   4.033 -1.6921  0.3381  1.3573
 5201TIP3    H215561   7.224   6.489   4.086 -0.2640 -0.0767 -1.8583
 5202TIP3   OH215562   4.648   0.322   0.754  0.2903  0.6351 -0.4431
 5202TIP3    H115563   4.666   0.294   0.844  0.2593 -1.1810 -0.9516
 5202TIP3    H215564   4.599   0.404   0.763  1.1786  1.0248  1.1552
 5203TIP3   OH215565   4.973   6.908   5.983  0.1497  0.6887 -0.3397
 5203TIP3    H115566   4.937   6.995   6.004 -0.6234  0.7947 -1.9943
 5203TIP3    H215567   4.896   6.852   5.973  0.5036  0.4378 -1.8802
 5204TIP3   OH215568   0.235   5.223   3.820  0.0269  0.0000 -0.2665
 5204TIP3    H115569   0.304   5.172   3.863  0.3043 -0.5033 -1.2755
 5204TIP3    H215570   0.269   5.312   3.818 -0.9712  0.5305  2.5982
 5205TIP3   OH215571   5.105   4.272   5.112 -0.8499  0.3565  0.3062
 5205TIP3    H115572   5.113   4.194   5.057 -2.8671 -0.5924  1.2523
 5205TIP3    H215573   5.085   4.343   5.051 -1.2056 -0.3098 -0.3672
 5206TIP3   OH215574   0.565   6.777   6.429 -0.1986 -0.2732  0.4767
 5206TIP3    H115575   0.486   6.725   6.412 -0.8015  1.2184 -1.8538
 5206TIP3    H215576   0.542   6.831   6.504 -0.5022 -1.4874  1.2913
 5207TIP3   OH215577   6.167   7.120   2.676 -0.0587 -0.3624 -0.0966
 5207TIP3    H115578   6.229   7.126   2.749  1.5811 -1.1705 -1.3594
 5207TIP3    H215579   6.118   7.040   2.694  1.3776 -1.4013 -0.6015
 5208TIP3   OH215580   5.249   4.340   5.441  0.6337 -0.2904 -0.0245
 5208TIP3    H115581   5.202   4.264   5.409  0.7139 -0.5343  0.4325
 5208TIP3    H215582   5.275   4.317   5.530  0.8231  0.1951  0.0500
 5209TIP3   OH215583   4.860   4.705   1.491  0.1850 -0.4098 -0.2427
 5209TIP3    H115584   4.815   4.786   1.512  0.0345 -0.3708 -0.7235
 5209TIP3    H215585   4.936   4.732   1.440  0.5949 -0.5013  0.3080
 5210TIP3   OH215586   7.988   4.817   5.741 -0.5170 -0.0660 -0.0876
 5210TIP3    H115587   8.020   4.839   5.654 -0.8268  0.4685 -0.0701
 5210TIP3    H215588   8.062   4.834   5.799 -0.6244  0.5507 -0.1248
 5211TIP3   OH215589   4.561   4.756   5.708 -1.1078 -0.4251 -0.8477
 5211TIP3    H115590   4.507   4.797   5.776  1.3136  0.6436  0.5488
 5211TIP3    H215591   4.614   4.691   5.755 -0.4330 -0.7318 -1.9837
 5212TIP3   OH215592   7.017   2.990   0.550 -0.0725 -0.1410  0.2244
 5212TIP3    H115593   6.982   3.062   0.601 -0.2267 -0.2892  0.3288
 5212TIP3    H215594   6.963   2.987   0.471  0.6025  0.5276 -0.2773
 5213TIP3   OH215595   7.205   5.870   1.680 -0.0137 -0.2247  0.4731
 5213TIP3    H115596   7.257   5.946   1.653 -0.1225 -0.3263 -0.0234
 5213TIP3    H215597   7.155   5.901   1.756  0.5105 -0.0234  0.7432
 5214TIP3   OH215598   7.417   7.179   5.129  0.3279 -0.7627  0.4738
 5214TIP3    H115599   7.400   7.177   5.223  0.5466 -1.5947  0.4973
 5214TIP3    H215600   7.359   7.113   5.092  0.3304 -0.5220  0.0336
 5215TIP3   OH215601   7.810   3.672   0.852  0.5820 -0.9339  0.1289
 5215TIP3    H115602   7.753   3.700   0.781  0.9617  0.4977  0.3453
 5215TIP3    H215603   7.882   3.735   0.851  0.5304 -0.7981  1.8587
 5216TIP3   OH215604   3.380   5.430   4.214 -0.3689 -0.3855  0.0935
 5216TIP3    H115605   3.303   5.440   4.158 -1.1641 -1.0496  1.0191
 5216TIP3    H215606   3.382   5.336   4.235  1.5565 -0.6551 -1.0804
 5217TIP3   OH215607   2.948   2.769   2.180  0.1171  0.0483 -0.1333
 5217TIP3    H115608   2.970   2.856   2.145 -1.3699  0.8657  0.8317
 5217TIP3    H215609   2.858   2.754   2.152 -0.9654  0.5148  2.7566
 5218TIP3   OH215610   4.201   6.532   6.313 -0.2010 -0.2216  0.5319
 5218TIP3    H115611   4.183   6.438   6.302 -0.6629 -0.0315 -0.3818
 5218TIP3    H215612   4.115   6.573   6.318 -0.0016  0.1135  1.4133
 5219TIP3   OH215613   5.547   1.893   2.601  0.6387  0.1898  0.2554
 5219TIP3    H115614   5.522   1.836   2.674  0.7207 -1.7260 -1.1317
 5219TIP3    H215615   5.510   1.851   2.524  1.8668  1.2971 -0.9956
 5220TIP3   OH215616   1.311   0.020   2.366 -0.1472  0.4616  0.5513
 5220TIP3    H115617   1.237   0.071   2.334  0.6453  1.8552  0.8746
 5220TIP3    H215618   1.376   0.085   2.392  0.9090 -0.7169  0.9661
 5221TIP3   OH215619   1.861   3.432   5.992  0.1104  0.0367  0.2572
 5221TIP3    H115620   1.816   3.349   6.007 -2.5602  1.3135 -0.2531
 5221TIP3    H215621   1.947   3.406   5.959 -0.0518 -2.5262  1.5619
 5222TIP3   OH215622   6.746   3.364   3.949 -0.5652  0.1981  0.2153
 5222TIP3    H115623   6.833   3.326   3.964 -0.9557 -0.8927 -0.1995
 5222TIP3    H215624   6.690   3.321   4.014 -0.7858  0.9895  0.5630
 5223TIP3   OH215625   2.148   6.679   4.825 -0.1197  0.0248 -0.1644
 5223TIP3    H115626   2.105   6.672   4.911 -0.5503 -0.7317 -0.4351
 5223TIP3    H215627   2.171   6.772   4.817  1.2821 -0.1256  1.4281
 5224TIP3   OH215628   2.137   3.311   3.865  0.5872 -0.0048  0.6128
 5224TIP3    H115629   2.063   3.329   3.923  1.0102 -0.0380  1.1648
 5224TIP3    H215630   2.185   3.394   3.861  0.3028  0.1352 -0.0708
 5225TIP3   OH215631   4.312   4.180   0.139 -0.4889 -0.2642 -0.0271
 5225TIP3    H115632   4.328   4.093   0.175 -0.7260  0.0158  0.7743
 5225TIP3    H215633   4.393   4.228   0.154 -0.0654 -0.5773 -1.2067
 5226TIP3   OH215634   6.981   2.695   2.394  0.2122 -0.2291 -0.3760
 5226TIP3    H115635   7.060   2.670   2.442 -1.3225 -0.0363  2.4755
 5226TIP3    H215636   6.931   2.614   2.387  0.6262 -0.3693 -2.2650
 5227TIP3   OH215637   4.712   1.162   4.296 -0.5707  0.2809  0.0183
 5227TIP3    H115638   4.660   1.081   4.294 -1.4734  0.8536 -1.2120
 5227TIP3    H215639   4.710   1.190   4.387  0.4372 -1.4890  0.6346
 5228TIP3   OH215640   5.926   6.926   3.719  0.0344 -0.7009 -0.6964
 5228TIP3    H115641   5.872   6.924   3.641 -1.4875  0.1828  0.2835
 5228TIP3    H215642   5.868   6.896   3.789  1.6236 -2.3606 -0.0262
 5229TIP3   OH215643   4.021   3.256   3.727 -0.0780 -0.4485 -0.2868
 5229TIP3    H115644   3.988   3.176   3.769 -2.3481  0.7645  0.3803
 5229TIP3    H215645   4.089   3.288   3.787  0.5190 -1.5963 -0.3223
 5230TIP3   OH215646   6.476   3.363   2.804 -0.1052  0.1309  0.4930
 5230TIP3    H115647   6.434   3.293   2.754  2.4613  0.2474 -2.0917
 5230TIP3    H215648   6.539   3.319   2.860 -0.0466  0.2349  0.5101
 5231TIP3   OH215649   4.632   5.107   2.508 -0.7321  0.2330  0.4260
 5231TIP3    H115650   4.709   5.067   2.468 -1.8296  0.6100 -2.2698
 5231TIP3    H215651   4.621   5.060   2.590  2.3753  0.2348  0.9469
 5232TIP3   OH215652   0.558   2.745   1.023 -0.4259  0.4725 -0.5340
 5232TIP3    H115653   0.548   2.731   1.117  0.3069 -3.2898 -0.8546
 5232TIP3    H215654   0.479   2.707   0.984 -0.7883  2.1138 -1.4980
 5233TIP3   OH215655   2.735   3.355   4.148  0.2484  0.4774 -0.1809
 5233TIP3    H115656   2.652   3.374   4.105 -0.2430  1.0168  0.9638
 5233TIP3    H215657   2.790   3.431   4.130 -0.4346  1.3559  1.2586
 5234TIP3   OH215658   7.003   4.588   5.525  0.3610 -0.2877  0.6299
 5234TIP3    H115659   6.929   4.544   5.568  0.2107 -1.6820 -0.9490
 5234TIP3    H215660   7.009   4.546   5.439  0.9321  2.0558 -0.5619
 5235TIP3   OH215661   5.286   1.507   3.125 -0.1305  0.7718 -0.2258
 5235TIP3    H115662   5.375   1.470   3.129 -0.6939 -0.6817 -0.4105
 5235TIP3    H215663   5.255   1.504   3.215 -0.8996 -1.1532 -0.5101
 5236TIP3   OH215664   0.233   2.075   2.642 -0.1359 -0.4743  0.1124
 5236TIP3    H115665   0.163   2.025   2.685 -0.3296 -1.0308 -0.8340
 5236TIP3    H215666   0.273   2.014   2.581  0.3048  0.2363 -0.3295
 5237TIP3   OH215667   5.876   3.402   0.755  0.0058  0.4319 -0.4049
 5237TIP3    H115668   5.967   3.403   0.726 -0.0450 -1.8985 -0.8496
 5237TIP3    H215669   5.875   3.456   0.835  1.6050  1.0495 -0.7728
 5238TIP3   OH215670   7.264   1.675   3.204 -0.4954 -0.1190  0.1220
 5238TIP3    H115671   7.302   1.622   3.135 -2.4435 -0.6668 -0.5999
 5238TIP3    H215672   7.339   1.717   3.246  0.9140 -1.5632 -0.8238
 5239TIP3   OH215673   6.506   6.252   6.440  0.1745 -0.1274 -0.2159
 5239TIP3    H115674   6.464   6.204   6.511 -0.5314  0.1322 -0.4532
 5239TIP3    H215675   6.435   6.272   6.379  0.5488  0.7915 -0.3573
 5240TIP3   OH215676   1.433   5.581   3.303 -0.2542 -0.8265 -0.0257
 5240TIP3    H115677   1.371   5.509   3.313 -0.2918 -0.9531 -1.0317
 5240TIP3    H215678   1.519   5.541   3.316 -0.3247 -0.8634  0.3281
 5241TIP3   OH215679   7.637   5.692   6.604  0.0351 -0.4557  0.1689
 5241TIP3    H115680   7.591   5.774   6.588 -0.3176 -0.7897 -0.6097
 5241TIP3    H215681   7.646   5.687   6.699 -1.2438 -0.2234  0.3138
 5242TIP3   OH215682   5.377   5.313   1.535  0.0653 -0.4808 -0.4221
 5242TIP3    H115683   5.387   5.272   1.621 -0.6795 -0.2862 -0.2361
 5242TIP3    H215684   5.311   5.381   1.548  0.1489 -0.2621 -1.0874
 5243TIP3   OH215685   6.013   0.648   2.615  0.6024  0.0667  0.5999
 5243TIP3    H115686   5.933   0.699   2.613  0.6633  0.2304 -2.3463
 5243TIP3    H215687   5.987   0.564   2.654 -0.7086  0.5251  0.7643
 5244TIP3   OH215688   2.993   5.072   3.254 -0.0165 -0.4529 -0.2945
 5244TIP3    H115689   3.052   5.044   3.184 -0.8606  0.8357 -1.5837
 5244TIP3    H215690   3.001   5.167   3.254  1.0684 -0.4694  2.3998
 5245TIP3   OH215691   5.553   3.812   3.665  0.2414 -0.5446 -0.3980
 5245TIP3    H115692   5.586   3.876   3.729 -0.2208 -0.6209 -0.0825
 5245TIP3    H215693   5.619   3.742   3.665  0.4774 -0.3254 -0.3495
 5246TIP3   OH215694   2.556   5.340   5.205 -0.0757  0.3689 -0.2906
 5246TIP3    H115695   2.588   5.335   5.115  1.6225  0.9262  0.2367
 5246TIP3    H215696   2.481   5.400   5.201  0.3949  0.9145 -1.2363
 5247TIP3   OH215697   0.584   2.220   2.407 -0.2287  1.0686 -0.0019
 5247TIP3    H115698   0.659   2.241   2.463 -0.2844 -1.0163  0.9411
 5247TIP3    H215699   0.508   2.247   2.459 -0.1952  2.4242 -0.6159
 5248TIP3   OH215700   7.495   2.424   3.951 -0.0862 -0.6437 -0.2681
 5248TIP3    H115701   7.423   2.487   3.939  0.0870 -0.4870 -0.4733
 5248TIP3    H215702   7.465   2.345   3.906 -0.2482 -0.6672 -0.1212
 5249TIP3   OH215703   1.926   6.364   3.287 -0.0347 -0.0149  0.1560
 5249TIP3    H115704   1.903   6.300   3.220  1.4156 -0.5249  0.0944
 5249TIP3    H215705   2.018   6.346   3.306  1.4143  3.8635 -1.9759
 5250TIP3   OH215706   5.638   5.964   4.942  0.3793 -0.0011 -0.0974
 5250TIP3    H115707   5.657   5.931   5.030 -0.8976 -0.1785  0.1264
 5250TIP3    H215708   5.617   6.057   4.954 -1.0993 -0.3312 -0.0214
 5251TIP3   OH215709   3.924   6.004   2.281  0.3124 -0.0148  0.1211
 5251TIP3    H115710   3.886   6.081   2.240  0.7193 -0.0097 -0.2528
 5251TIP3    H215711   3.953   6.034   2.367 -1.0133 -0.1512  0.6414
 5252TIP3   OH215712   3.206   0.975   3.105 -0.1822  0.4803  0.0130
 5252TIP3    H115713   3.138   1.003   3.167 -1.6111  0.7428 -1.5766
 5252TIP3    H215714   3.283   1.027   3.128 -1.3105  2.1234  0.2493
 5253TIP3   OH215715   1.682   0.078   4.727 -0.4386  0.7987 -0.3213
 5253TIP3    H115716   1.690   0.136   4.651 -1.6914  1.7453  0.2322
 5253TIP3    H215717   1.619   0.122   4.784  1.3425  0.7140  1.8459
 5254TIP3   OH215718   1.191   3.060   0.140 -0.1363  0.1606 -0.0830
 5254TIP3    H115719   1.097   3.052   0.153  0.0441  0.7179  1.9480
 5254TIP3    H215720   1.226   2.974   0.167 -0.0066  0.1396 -0.3103
 5255TIP3   OH215721   2.276   2.881   5.175 -0.4874  0.3306 -0.1765
 5255TIP3    H115722   2.233   2.812   5.224  1.5097  0.2545  1.6304
 5255TIP3    H215723   2.369   2.856   5.174 -0.1285  1.4553 -2.1619
 5256TIP3   OH215724   7.613   4.082   5.227  0.3739  0.6816 -0.1266
 5256TIP3    H115725   7.551   4.093   5.300  1.3047 -0.1125  0.8144
 5256TIP3    H215726   7.583   4.003   5.182  1.7222 -0.8225  1.4585
 5257TIP3   OH215727   6.188   6.559   2.403 -0.1937 -0.0481 -0.4167
 5257TIP3    H115728   6.240   6.589   2.478 -1.1185 -0.6515  0.4768
 5257TIP3    H215729   6.230   6.601   2.327 -0.1441  1.7741  0.5683
 5258TIP3   OH215730   6.138   4.705   3.883 -0.4276  0.0462 -0.4884
 5258TIP3    H115731   6.224   4.741   3.905 -1.4145  3.1171 -1.2148
 5258TIP3    H215732   6.081   4.732   3.955 -1.0909 -0.7053 -0.7101
 5259TIP3   OH215733   4.239   5.945   0.907  0.0428 -0.2347  0.5001
 5259TIP3    H115734   4.294   5.933   0.829 -0.8635  0.4945 -0.2718
 5259TIP3    H215735   4.252   5.865   0.957  1.4443 -0.2779  0.1121
 5260TIP3   OH215736   3.355   3.120   1.252 -0.4522 -0.3596 -0.2054
 5260TIP3    H115737   3.345   3.126   1.347  1.2873 -1.4472  0.0977
 5260TIP3    H215738   3.341   3.209   1.220  1.1732  0.5019  1.3454
 5261TIP3   OH215739   5.765   5.854   4.164 -0.6056 -0.6454 -0.1929
 5261TIP3    H115740   5.729   5.931   4.120  1.9498  0.2646 -0.8162
 5261TIP3    H215741   5.735   5.780   4.112 -0.9143  0.1278 -1.1364
 5262TIP3   OH215742   1.805   1.404   6.243  0.0057 -0.2473 -0.3885
 5262TIP3    H115743   1.737   1.472   6.245 -1.3286 -1.5102 -0.5828
 5262TIP3    H215744   1.885   1.449   6.270 -0.9730  1.2308  0.2000
 5263TIP3   OH215745   4.052   0.501   4.477  0.1086 -0.2020 -0.1030
 5263TIP3    H115746   3.960   0.521   4.460 -0.3197 -1.8094  0.1128
 5263TIP3    H215747   4.050   0.414   4.519  1.7625 -0.5837 -0.7419
 5264TIP3   OH215748   4.766   1.646   6.423 -0.2154  0.1075  0.1092
 5264TIP3    H115749   4.793   1.736   6.404 -0.2792  0.2703  0.7612
 5264TIP3    H215750   4.680   1.637   6.381 -0.1982  0.3415  0.0233
 5265TIP3   OH215751   6.391   4.312   1.002  0.3558  0.0916 -0.5867
 5265TIP3    H115752   6.339   4.329   0.923  0.1588  1.5933 -0.1731
 5265TIP3    H215753   6.362   4.379   1.064  0.4918 -1.0721  0.7787
 5266TIP3   OH215754   1.578   3.513   5.581  0.0268 -0.0587  0.5518
 5266TIP3    H115755   1.604   3.556   5.663  1.5208  0.8183 -0.3319
 5266TIP3    H215756   1.483   3.505   5.587  0.0549  0.4316  2.1557
 5267TIP3   OH215757   2.860   6.579   0.193 -0.2297  0.3266 -0.4063
 5267TIP3    H115758   2.896   6.662   0.160 -0.0295  0.3462 -0.1446
 5267TIP3    H215759   2.798   6.606   0.261  0.3362  0.2461  0.1602
 5268TIP3   OH215760   7.146   6.652   1.717 -0.0977  0.3473  0.5666
 5268TIP3    H115761   7.138   6.693   1.631  1.8378 -2.5976 -1.1737
 5268TIP3    H215762   7.222   6.694   1.757  1.6061 -1.1231 -1.0096
 5269TIP3   OH215763   7.780   7.831   6.637 -0.2675 -0.0546 -0.3375
 5269TIP3    H115764   7.838   7.755   6.641 -1.3772 -0.8906  0.6012
 5269TIP3    H215765   7.818   7.887   6.570  2.2140 -0.0669  0.9661
 5270TIP3   OH215766   3.426   4.388   6.079  0.0124  0.2709  0.0535
 5270TIP3    H115767   3.421   4.427   5.992 -1.4237 -1.1572 -0.5544
 5270TIP3    H215768   3.335   4.378   6.107  0.3842 -0.8300  0.9913
 5271TIP3   OH215769   0.799   4.009   2.615  0.0342  0.0441  0.3507
 5271TIP3    H115770   0.823   4.031   2.524  0.7697  0.4885  0.6402
 5271TIP3    H215771   0.882   4.008   2.662 -0.4100  0.6044  1.1826
 5272TIP3   OH215772   0.587   5.731   0.542 -0.2450  0.3831  0.7155
 5272TIP3    H115773   0.641   5.800   0.503 -1.6418 -0.0676 -2.2527
 5272TIP3    H215774   0.531   5.777   0.604  0.9889  1.3814  1.1492
 5273TIP3   OH215775   4.804   1.100   4.828  0.3500 -0.4316  0.0423
 5273TIP3    H115776   4.721   1.061   4.800  0.5162 -0.2752 -0.6879
 5273TIP3    H215777   4.780   1.186   4.862  0.5846  1.3971 -3.9384
 5274TIP3   OH215778   1.466   7.454   3.177 -0.6148  0.0689 -0.3537
 5274TIP3    H115779   1.518   7.411   3.245 -0.6303  1.4050  0.5368
 5274TIP3    H215780   1.408   7.385   3.144  0.5262 -1.0119 -0.1756
 5275TIP3   OH215781   5.228   1.635   1.530  0.6087 -0.0679 -0.3384
 5275TIP3    H115782   5.148   1.590   1.504 -0.8534  0.2816  3.0227
 5275TIP3    H215783   5.209   1.727   1.516  0.3356  0.0209  0.5325
 5276TIP3   OH215784   8.205   2.816   3.990 -0.6753 -0.8153 -0.0135
 5276TIP3    H115785   8.216   2.910   4.004  1.5276 -1.0928  0.6662
 5276TIP3    H215786   8.192   2.780   4.078  2.6531 -1.4831  0.3728
 5277TIP3   OH215787   0.360   5.616   4.902 -0.2322  0.0583  0.8314
 5277TIP3    H115788   0.296   5.576   4.961  0.7674 -2.3800  0.3844
 5277TIP3    H215789   0.373   5.704   4.938 -3.3367  0.4566  1.2649
 5278TIP3   OH215790   5.226   5.763   3.715  0.1385 -0.2057 -0.0047
 5278TIP3    H115791   5.224   5.783   3.808 -0.3852  0.4070 -0.1420
 5278TIP3    H215792   5.201   5.671   3.709 -0.4479 -0.0733  0.4114
 5279TIP3   OH215793   1.302   4.833   4.286  0.0058 -0.5198 -0.2816
 5279TIP3    H115794   1.234   4.765   4.281  0.1755 -0.6434 -0.9756
 5279TIP3    H215795   1.363   4.811   4.217 -1.0328  1.5129 -1.9675
 5280TIP3   OH215796   5.392   4.501   2.203  0.1904  0.1759  0.8734
 5280TIP3    H115797   5.383   4.441   2.130  0.5433  0.1050  0.8853
 5280TIP3    H215798   5.309   4.549   2.206  0.1242  0.0812  0.5156
 5281TIP3   OH215799   7.565   3.177   2.306  0.0467 -0.2901  0.7832
 5281TIP3    H115800   7.607   3.160   2.391  0.3989 -1.2413  0.4248
 5281TIP3    H215801   7.606   3.116   2.246  0.4299  0.9668 -0.2816
 5282TIP3   OH215802   5.750   1.481   6.663  0.0161 -0.6379  0.1506
 5282TIP3    H115803   5.792   1.492   6.577 -0.3348 -1.0203 -0.0673
 5282TIP3    H215804   5.822   1.492   6.726  0.0800  0.8137 -0.1300
 5283TIP3   OH215805   3.834   6.534   6.339  0.8917  0.4306 -0.1646
 5283TIP3    H115806   3.859   6.493   6.422  0.5630  1.4175  0.4315
 5283TIP3    H215807   3.853   6.467   6.273 -0.8686 -1.2051  0.8902
 5284TIP3   OH215808   7.692   2.227   5.443 -0.5512  0.4401 -0.1138
 5284TIP3    H115809   7.775   2.192   5.477  0.4963  2.4875 -0.3961
 5284TIP3    H215810   7.713   2.256   5.354 -1.3135  1.8325  0.1391
 5285TIP3   OH215811   3.940   3.851   5.773  0.1681 -0.2665 -0.2953
 5285TIP3    H115812   3.929   3.891   5.687 -0.3269 -0.0891 -0.1531
 5285TIP3    H215813   3.933   3.757   5.756 -2.5599 -0.1808 -0.1243
 5286TIP3   OH215814   0.839   7.819   0.973  0.1254  0.2414  0.0647
 5286TIP3    H115815   0.897   7.855   0.906  1.3322 -1.1420  0.2994
 5286TIP3    H215816   0.763   7.787   0.925  1.1014 -0.9986 -0.7248
 5287TIP3   OH215817   6.852   3.260   3.235 -0.4043 -0.3654  0.3611
 5287TIP3    H115818   6.892   3.321   3.174 -0.2948 -0.4637  0.3331
 5287TIP3    H215819   6.768   3.300   3.259 -1.9570 -1.7572 -2.2539
 5288TIP3   OH215820   5.252   1.194   2.536  0.0354 -0.1523  0.1249
 5288TIP3    H115821   5.314   1.157   2.474  0.7115  0.6465  0.2989
 5288TIP3    H215822   5.183   1.232   2.481 -0.5001 -1.3401 -0.0581
 5289TIP3   OH215823   1.765   4.999   6.764 -0.3057 -0.0984 -0.4956
 5289TIP3    H115824   1.846   5.045   6.743  0.3134 -0.9256 -0.0128
 5289TIP3    H215825   1.794   4.911   6.790 -1.5009 -0.9847 -2.0353
 5290TIP3   OH215826   0.594   4.587   6.624  0.0423  0.1428  0.5474
 5290TIP3    H115827   0.656   4.569   6.695  0.0836  1.1281  0.7760
 5290TIP3    H215828   0.508   4.585   6.666  0.0572  0.5978  0.6005
 5291TIP3   OH215829   4.822   5.352   3.210  0.0370  0.0479 -0.6838
 5291TIP3    H115830   4.787   5.350   3.121 -0.4982 -2.0326 -0.4906
 5291TIP3    H215831   4.770   5.419   3.254  0.6371  1.4616 -2.0179
 5292TIP3   OH215832   7.745   5.938   5.718  0.0300  0.4841 -0.2339
 5292TIP3    H115833   7.778   5.873   5.657 -0.5057 -0.1777  0.1675
 5292TIP3    H215834   7.675   5.893   5.766  0.4275  0.9821  0.8539
 5293TIP3   OH215835   0.772   0.564   5.003  0.2608 -0.2113  0.2114
 5293TIP3    H115836   0.725   0.592   5.081  0.5231  1.2588 -0.1151
 5293TIP3    H215837   0.831   0.495   5.033  0.7030  0.6642  1.4232
 5294TIP3   OH215838   7.008   5.876   3.396 -0.3434 -0.0857  0.0834
 5294TIP3    H115839   6.940   5.907   3.456  0.1946  0.0501  0.6384
 5294TIP3    H215840   6.968   5.879   3.310 -0.9746  0.1856  0.3823
 5295TIP3   OH215841   2.327   4.026   0.362 -0.2412 -0.4977  0.1545
 5295TIP3    H115842   2.292   4.079   0.433  0.5056 -0.6600  0.6532
 5295TIP3    H215843   2.326   4.085   0.286 -0.4663 -0.1294  0.4407
 5296TIP3   OH215844   7.262   0.764   5.138 -0.2220  0.3232 -1.0417
 5296TIP3    H115845   7.258   0.713   5.057  2.1496 -0.2118 -0.9033
 5296TIP3    H215846   7.318   0.839   5.117 -1.3878  1.4027 -0.4670
 5297TIP3   OH215847   0.688   5.597   3.818  0.0801 -0.1091  0.5132
 5297TIP3    H115848   0.699   5.691   3.835  1.1526 -0.3576  1.2403
 5297TIP3    H215849   0.690   5.590   3.722 -1.0525  0.7148  0.4072
 5298TIP3   OH215850   7.354   7.265   2.027 -0.0794 -0.1463 -0.9382
 5298TIP3    H115851   7.407   7.192   2.060 -1.2417 -0.1731  1.0346
 5298TIP3    H215852   7.265   7.229   2.024 -0.6307  1.1028 -0.1761
 5299TIP3   OH215853   1.860   3.952   0.141 -0.0444  0.5428 -0.0025
 5299TIP3    H115854   1.796   3.893   0.102  1.4629 -0.1319 -1.5581
 5299TIP3    H215855   1.938   3.898   0.156  0.1845  1.3078  1.9692
 5300TIP3   OH215856   0.176   3.221   1.343  0.2471 -0.2383 -0.8188
 5300TIP3    H115857   0.238   3.219   1.416 -0.5224 -1.6940 -0.1633
 5300TIP3    H215858   0.158   3.314   1.331 -1.0183  0.0257  2.1383
 5301TIP3   OH215859   2.622   6.151   2.191 -0.3688  0.0949  0.2039
 5301TIP3    H115860   2.706   6.106   2.185 -0.4488 -0.3126  1.6791
 5301TIP3    H215861   2.574   6.124   2.113  0.2177 -1.0635  0.2237
 5302TIP3   OH215862   3.424   7.678   2.642  0.2835 -0.2244 -0.0121
 5302TIP3    H115863   3.329   7.677   2.652  0.3606 -0.3155  0.7996
 5302TIP3    H215864   3.456   7.624   2.714  0.8237 -2.8699 -2.0628
 5303TIP3   OH215865   7.705   1.218   3.140 -0.5139  0.7432  0.4661
 5303TIP3    H115866   7.784   1.222   3.086 -1.2798  1.4074 -0.6329
 5303TIP3    H215867   7.647   1.285   3.104 -0.8628  1.5919  2.4664
 5304TIP3   OH215868   2.180   0.907   2.943 -0.3521 -0.2782 -0.6387
 5304TIP3    H115869   2.182   0.816   2.975  0.9943 -0.7589 -1.9958
 5304TIP3    H215870   2.245   0.952   2.996 -0.2489 -0.3553 -0.7005
 5305TIP3   OH215871   5.672   0.625   0.908  0.1286  0.0950 -0.1586
 5305TIP3    H115872   5.665   0.674   0.825  1.6478  0.3379 -0.1689
 5305TIP3    H215873   5.693   0.536   0.882 -0.2542 -0.0310 -0.0494
 5306TIP3   OH215874   1.521   4.188   4.859 -0.1613  0.2166 -0.0749
 5306TIP3    H115875   1.599   4.136   4.841 -0.1694  0.4240 -0.7210
 5306TIP3    H215876   1.485   4.208   4.773 -0.1232  1.3559  0.1552
 5307TIP3   OH215877   5.198   0.097   4.828  0.4234  0.1756 -0.1838
 5307TIP3    H115878   5.284   0.139   4.829  0.8015 -0.5532 -0.8616
 5307TIP3    H215879   5.138   0.164   4.861  1.0865  1.0697 -0.7538
 5308TIP3   OH215880   7.083   0.622   4.319  0.1637  0.0413 -0.2035
 5308TIP3    H115881   7.155   0.679   4.347  0.8910 -0.3935 -1.1707
 5308TIP3    H215882   7.046   0.666   4.243  0.8989 -0.8971 -1.1174
 5309TIP3   OH215883   6.520   4.542   3.787 -0.0825  0.0497 -0.1913
 5309TIP3    H115884   6.610   4.522   3.761  0.3564 -1.5133  2.2702
 5309TIP3    H215885   6.466   4.491   3.727  0.5779  1.4400 -2.0659
 5310TIP3   OH215886   6.513   4.641   3.077  0.0024 -0.0314  0.0600
 5310TIP3    H115887   6.597   4.606   3.106  0.3647  0.7335 -0.0424
 5310TIP3    H215888   6.531   4.733   3.057 -0.4952 -0.2455 -1.4830
 5311TIP3   OH215889   1.336   6.360   1.729 -0.5399 -0.1733  0.1398
 5311TIP3    H115890   1.277   6.314   1.789 -1.3649 -0.3785 -0.7833
 5311TIP3    H215891   1.326   6.314   1.646  0.3072  0.3131 -0.2502
 5312TIP3   OH215892   5.758   4.328   6.766 -0.0536  0.6155 -0.1348
 5312TIP3    H115893   5.756   4.421   6.743 -1.6481  0.5068 -0.5572
 5312TIP3    H215894   5.666   4.301   6.765  0.3820 -0.9727 -0.0297
 5313TIP3   OH215895   1.674   2.218   4.618  0.4895  0.4263  0.0011
 5313TIP3    H115896   1.758   2.229   4.662 -0.1307 -0.1582  1.4186
 5313TIP3    H215897   1.637   2.139   4.657 -0.1765 -0.0476 -1.5089
 5314TIP3   OH215898   6.427   2.177   5.357 -0.0395  0.0935 -0.5192
 5314TIP3    H115899   6.503   2.123   5.379 -1.5609 -2.1309 -0.4536
 5314TIP3    H215900   6.423   2.175   5.262 -0.1288  0.0711 -0.5144
 5315TIP3   OH215901   8.331   2.255   0.180  0.1361 -0.0382  0.2130
 5315TIP3    H115902   8.298   2.310   0.251  2.9331  0.6105  1.1169
 5315TIP3    H215903   8.287   2.288   0.102 -2.7689 -0.5503  1.4886
 5316TIP3   OH215904   7.466   0.126   1.740  0.1498  0.1676 -0.3733
 5316TIP3    H115905   7.408   0.102   1.813 -0.6633  0.2984 -0.9556
 5316TIP3    H215906   7.472   0.047   1.687  0.2945  0.2290 -0.4487
 5317TIP3   OH215907   0.627   2.966   1.582  0.2075  0.4567 -0.1859
 5317TIP3    H115908   0.665   3.040   1.629  0.9953 -0.2880  0.3871
 5317TIP3    H215909   0.568   2.926   1.645 -0.3984  0.7223 -0.5748
 5318TIP3   OH215910   5.651   6.628   2.691  0.3772  0.1825 -0.1364
 5318TIP3    H115911   5.734   6.654   2.732 -0.6673 -0.2993  2.4929
 5318TIP3    H215912   5.602   6.710   2.682 -0.7479 -0.0029  3.0343
 5319TIP3   OH215913   3.722   4.437   3.463  0.4469 -0.5149  0.1431
 5319TIP3    H115914   3.662   4.474   3.398  0.0998  0.5288  1.0233
 5319TIP3    H215915   3.800   4.493   3.459 -0.5420  1.1721  2.3101
 5320TIP3   OH215916   0.864   5.499   6.332 -0.8639  0.1813 -0.0127
 5320TIP3    H115917   0.768   5.500   6.328 -0.8273  0.2997 -2.8975
 5320TIP3    H215918   0.888   5.409   6.311 -0.3463  0.5156 -0.9253
 5321TIP3   OH215919   2.323   5.817   2.322  0.2084 -0.0119  0.6552
 5321TIP3    H115920   2.257   5.810   2.392 -0.4428 -0.9513 -0.0302
 5321TIP3    H215921   2.407   5.810   2.368 -0.1470  1.2793  1.5502
 5322TIP3   OH215922   2.073   0.430   6.149 -0.1833 -0.1617 -0.2094
 5322TIP3    H115923   2.087   0.524   6.165  0.0297 -0.1201 -0.6172
 5322TIP3    H215924   2.155   0.389   6.174 -0.7188 -0.4099  1.2400
 5323TIP3   OH215925   0.716   1.920   1.520  0.5076 -0.2727  0.4657
 5323TIP3    H115926   0.741   1.841   1.473  1.3420  0.1527  0.1645
 5323TIP3    H215927   0.784   1.984   1.497 -1.0074  1.0300 -0.5710
 5324TIP3   OH215928   2.787   5.915   2.871 -0.0981  0.4472 -0.2122
 5324TIP3    H115929   2.824   5.828   2.885  1.6613  1.4930  2.3246
 5324TIP3    H215930   2.863   5.973   2.866 -1.2485  1.9423 -1.3085
 5325TIP3   OH215931   3.689   7.040   6.148 -0.0857 -0.3770  0.3502
 5325TIP3    H115932   3.631   7.115   6.140  1.4369  0.6896 -1.7207
 5325TIP3    H215933   3.651   6.973   6.091 -0.3845 -0.4599  0.6445
 5326TIP3   OH215934   1.346   6.048   0.989 -0.4254 -0.7430  0.1598
 5326TIP3    H115935   1.306   6.128   0.955  0.8405 -0.3453 -0.4380
 5326TIP3    H215936   1.412   6.078   1.051 -0.2246 -1.3494  0.2500
 5327TIP3   OH215937   0.925   6.282   6.483 -0.0444  0.0434  0.0596
 5327TIP3    H115938   0.996   6.337   6.449 -0.2368  0.3446  0.1432
 5327TIP3    H215939   0.895   6.232   6.406 -0.7812  1.0547 -0.3244
 5328TIP3   OH215940   0.624   3.833   6.060  0.1121  0.7234 -0.2415
 5328TIP3    H115941   0.707   3.800   6.094 -0.4597  0.7746  1.2582
 5328TIP3    H215942   0.585   3.758   6.016  0.5881  0.4886 -0.2703
 5329TIP3   OH215943   7.398   6.319   5.849  0.3234 -0.7656 -0.2599
 5329TIP3    H115944   7.336   6.267   5.798 -0.7047 -0.8609  1.0253
 5329TIP3    H215945   7.344   6.388   5.889  1.0919 -0.6933  0.6801
 5330TIP3   OH215946   5.909   1.083   3.104  0.4786  0.1577 -0.2096
 5330TIP3    H115947   5.917   1.058   3.196 -0.4578 -1.5364 -0.5447
 5330TIP3    H215948   5.896   1.178   3.106  1.9449  0.3661  1.2905
 5331TIP3   OH215949   0.329   4.501   3.934 -0.5368  0.1249  0.4649
 5331TIP3    H115950   0.370   4.416   3.948  0.0116  0.4008  0.5483
 5331TIP3    H215951   0.237   4.487   3.957  0.1165  0.3286  3.7098
 5332TIP3   OH215952   4.543   6.979   6.041  0.3642 -0.2259  0.0794
 5332TIP3    H115953   4.527   7.003   6.132  3.2300  1.1619  0.3186
 5332TIP3    H215954   4.470   7.018   5.992 -0.2489  0.5421  1.5668
 5333TIP3   OH215955   7.370   1.829   4.342 -0.0882  0.2755  0.0993
 5333TIP3    H115956   7.401   1.877   4.419  1.1718 -0.8411  0.3251
 5333TIP3    H215957   7.306   1.766   4.377 -0.1582  0.3480  0.1031
 5334TIP3   OH215958   6.587   2.359   4.823  0.0447  0.0756  0.4795
 5334TIP3    H115959   6.636   2.441   4.830 -2.5835  1.7828  0.6308
 5334TIP3    H215960   6.513   2.381   4.766 -0.3793 -2.4061 -0.0108
 5335TIP3   OH215961   4.260   6.893   6.221  0.7713 -0.4938 -0.2926
 5335TIP3    H115962   4.311   6.832   6.169  1.1467  1.0755 -1.8655
 5335TIP3    H215963   4.320   6.965   6.240 -0.0338  0.0367  0.3267
 5336TIP3   OH215964   1.709   3.377   0.670  0.3496 -0.4038  0.2581
 5336TIP3    H115965   1.642   3.348   0.731 -0.1602  0.5506  0.1779
 5336TIP3    H215966   1.715   3.307   0.605 -0.6586 -0.4557  0.2088
 5337TIP3   OH215967   4.771   7.340   5.221  0.0109  0.0024  0.3800
 5337TIP3    H115968   4.753   7.434   5.210  2.3609  0.4010 -0.7183
 5337TIP3    H215969   4.779   7.328   5.315 -0.0181  0.9828  0.5256
 5338TIP3   OH215970   5.419   3.511   2.789  0.2839  0.1705 -0.2408
 5338TIP3    H115971   5.427   3.562   2.708  0.1814 -2.6190 -2.1474
 5338TIP3    H215972   5.325   3.510   2.808  0.2986  0.7715 -0.1316
 5339TIP3   OH215973   6.090   3.635   1.389  0.2837  0.0786 -0.2518
 5339TIP3    H115974   6.105   3.583   1.311  0.6640  0.2817 -0.3136
 5339TIP3    H215975   6.172   3.631   1.438  0.9213  1.9899 -1.0666
 5340TIP3   OH215976   1.409   1.593   4.886 -0.0749  0.1764 -0.5168
 5340TIP3    H115977   1.407   1.503   4.855 -3.7878 -0.9739  2.2899
 5340TIP3    H215978   1.350   1.640   4.827 -2.0036 -0.5022  0.7632
 5341TIP3   OH215979   6.523   4.389   4.522  0.2495  0.3642 -0.1905
 5341TIP3    H115980   6.602   4.440   4.536 -0.4976  1.9254 -1.4306
 5341TIP3    H215981   6.525   4.365   4.430 -0.7782  0.5527 -0.2786
 5342TIP3   OH215982   0.662   7.817   3.394 -0.8626  0.1160  0.1430
 5342TIP3    H115983   0.725   7.888   3.376 -1.5366  1.0115  1.2230
 5342TIP3    H215984   0.616   7.804   3.311 -1.5089  1.7470  0.2124
 5343TIP3   OH215985   3.487   3.383   2.433 -0.1404 -0.2766  0.0846
 5343TIP3    H115986   3.481   3.398   2.528  0.3293  2.7514 -0.2577
 5343TIP3    H215987   3.442   3.300   2.419 -1.4011 -0.1672  2.7968
 5344TIP3   OH215988   5.059   6.982   0.312 -0.1244 -0.4366  0.2272
 5344TIP3    H115989   5.124   6.959   0.379 -0.7803  0.0591  1.0637
 5344TIP3    H215990   4.990   7.027   0.361 -0.1821  0.7848 -0.9302
 5345TIP3   OH215991   1.339   2.851   5.102  0.2618  0.5732  0.5419
 5345TIP3    H115992   1.259   2.899   5.081 -0.1615 -0.7349 -1.1175
 5345TIP3    H215993   1.404   2.887   5.042 -0.0840 -0.8998 -0.7871
 5346TIP3   OH215994   3.344   0.124   5.942 -0.1967  0.0573 -0.1851
 5346TIP3    H115995   3.437   0.143   5.925  0.0000 -0.3944  0.3425
 5346TIP3    H215996   3.298   0.162   5.867  0.4720 -0.2375 -0.7685
 5347TIP3   OH215997   7.944   4.859   6.719  0.0017  0.6765 -0.4241
 5347TIP3    H115998   7.938   4.823   6.808 -0.5589 -1.1889 -1.1766
 5347TIP3    H215999   7.996   4.795   6.671  0.5346  1.8079 -1.4015
 5348TIP3   OH216000   6.335   6.726   2.907 -0.1417 -0.0786  0.3472
 5348TIP3    H116001   6.246   6.710   2.877 -0.2352  1.3176 -0.1691
 5348TIP3    H216002   6.326   6.775   2.988  0.1651 -0.8814  0.8867
 5349TIP3   OH216003   2.750   7.662   3.712 -0.2414 -0.2496  0.6723
 5349TIP3    H116004   2.720   7.600   3.778  0.0809 -1.6255 -0.4099
 5349TIP3    H216005   2.806   7.723   3.759  0.4205 -1.5206  1.5824
 5350TIP3   OH216006   4.320   6.912   1.573 -0.3634  0.1589 -0.3054
 5350TIP3    H116007   4.257   6.975   1.538 -0.8177  0.3152  0.7713
 5350TIP3    H216008   4.358   6.871   1.495 -2.3459 -0.5051 -0.9788
 5351TIP3   OH216009   1.336   3.031   0.475 -0.0898  0.2267 -0.2010
 5351TIP3    H116010   1.374   2.956   0.428 -1.4522 -0.4195 -0.3269
 5351TIP3    H216011   1.340   3.005   0.568  1.6839  1.0772 -0.0006
 5352TIP3   OH216012   5.092   1.354   4.739  0.0164  0.2164 -0.0809
 5352TIP3    H116013   5.033   1.407   4.793  0.6640  1.4834 -0.5779
 5352TIP3    H216014   5.044   1.340   4.657  0.5932  1.7113 -0.6957
 5353TIP3   OH216015   1.407   6.327   6.234  0.3201 -0.3576 -0.1040
 5353TIP3    H116016   1.325   6.281   6.251  0.4955 -1.1930 -1.4459
 5353TIP3    H216017   1.459   6.312   6.313 -0.7588  0.0920  0.7180
 5354TIP3   OH216018   2.639   2.018   6.666 -0.2225  0.0145 -0.2834
 5354TIP3    H116019   2.596   2.095   6.703  2.4727  1.6680 -0.3342
 5354TIP3    H216020   2.698   1.988   6.735 -0.0036 -0.9844 -0.8810
 5355TIP3   OH216021   3.947   0.293   2.447  0.3214  0.0931 -0.2109
 5355TIP3    H116022   3.887   0.219   2.439  1.1412 -0.4241 -2.5503
 5355TIP3    H216023   4.023   0.256   2.493 -0.1294  0.0820  0.5405
 5356TIP3   OH216024   4.010   6.735   1.488  0.6944 -0.0299 -0.1698
 5356TIP3    H116025   3.922   6.702   1.473  0.7234  0.0641 -0.5571
 5356TIP3    H216026   4.028   6.792   1.413  2.0615 -2.0409 -1.4605
 5357TIP3   OH216027   6.259   6.944   1.798 -0.7129  0.1388 -0.4808
 5357TIP3    H116028   6.264   6.984   1.885 -2.5322  0.0921 -0.3180
 5357TIP3    H216029   6.344   6.903   1.786 -0.3184  0.3894  1.1621
 5358TIP3   OH216030   4.905   0.427   4.342  0.2000 -0.3225 -0.8080
 5358TIP3    H116031   4.886   0.516   4.373 -0.0085  0.0016 -1.8239
 5358TIP3    H216032   4.929   0.379   4.421 -0.0148  0.5497 -0.1924
 5359TIP3   OH216033   4.437   3.704   2.449  0.0089  0.3108 -0.1945
 5359TIP3    H116034   4.431   3.620   2.495  0.3625 -0.6143 -1.7571
 5359TIP3    H216035   4.527   3.707   2.417 -0.0765  1.1855 -0.3826
 5360TIP3   OH216036   4.722   1.702   2.481  0.8273  0.0310 -0.5338
 5360TIP3    H116037   4.692   1.641   2.414 -0.6006  1.1154 -0.9348
 5360TIP3    H216038   4.643   1.727   2.529  1.6012  0.4318  0.5794
 5361TIP3   OH216039   2.935   6.052   1.549  0.9214  0.0401 -0.0168
 5361TIP3    H116040   3.011   6.034   1.492  0.7058  0.7835 -0.5455
 5361TIP3    H216041   2.955   6.136   1.589  1.2297 -0.6319  1.3030
 5362TIP3   OH216042   4.410   0.175   4.649  0.0749 -0.0638 -0.3213
 5362TIP3    H116043   4.466   0.248   4.622 -0.0415  0.1559  0.0270
 5362TIP3    H216044   4.464   0.123   4.708  0.4896 -0.8069 -1.3314
 5363TIP3   OH216045   7.245   3.471   5.367  0.1342 -0.4177  0.3560
 5363TIP3    H116046   7.212   3.509   5.285  1.3289 -0.0445  0.0378
 5363TIP3    H216047   7.242   3.543   5.429  0.0697 -0.4698  0.4140
 5364TIP3   OH216048   1.984   3.832   2.569  0.0942  1.0707 -0.0235
 5364TIP3    H116049   2.009   3.814   2.659 -1.0199  1.6052  0.4159
 5364TIP3    H216050   1.991   3.928   2.561 -1.5951  1.2332  0.0877
 5365TIP3   OH216051   6.022   5.599   5.342  0.5302 -0.5280  0.2297
 5365TIP3    H116052   6.071   5.520   5.366  1.5634 -0.1618 -0.6037
 5365TIP3    H216053   5.983   5.629   5.424  1.4157 -1.0389  0.8506
 5366TIP3   OH216054   3.283   6.418   4.636 -0.0064 -0.1889 -0.5230
 5366TIP3    H116055   3.312   6.478   4.704 -0.5737 -1.5913  1.0009
 5366TIP3    H216056   3.302   6.331   4.670  1.3111 -0.9438 -2.8961
 5367TIP3   OH216057   3.863   3.492   0.634  0.3197 -0.2733  0.4699
 5367TIP3    H116058   3.777   3.495   0.676  0.9153  1.0533  1.6749
 5367TIP3    H216059   3.849   3.533   0.548  0.0598  1.6092  1.3468
 5368TIP3   OH216060   8.070   4.023   3.489 -0.2752 -0.1289  0.0167
 5368TIP3    H116061   8.007   4.065   3.431  0.8467  0.1815 -1.0211
 5368TIP3    H216062   8.042   4.049   3.577  0.2619  2.7606 -0.5416
 5369TIP3   OH216063   7.570   3.484   6.070 -0.0233  0.3029 -0.1489
 5369TIP3    H116064   7.641   3.546   6.059  0.5348 -0.3982 -0.5184
 5369TIP3    H216065   7.546   3.492   6.163  1.3792 -0.3519  0.2906
 5370TIP3   OH216066   3.844   3.767   4.248 -0.2692  0.1822  0.8440
 5370TIP3    H116067   3.893   3.834   4.201 -0.6548  0.8444  1.3583
 5370TIP3    H216068   3.911   3.704   4.276  0.0571  0.1808  0.0889
 5371TIP3   OH216069   1.854   1.913   2.148 -0.3873 -0.7309  0.1121
 5371TIP3    H116070   1.899   1.988   2.110 -1.0440 -0.9123 -1.0765
 5371TIP3    H216071   1.913   1.881   2.216 -0.1006  0.8545  0.6498
 5372TIP3   OH216072   7.724   6.970   5.996  0.0406  0.1164 -0.0123
 5372TIP3    H116073   7.745   6.909   6.067  0.0365 -0.3757 -0.4343
 5372TIP3    H216074   7.703   6.914   5.921 -2.6485  0.5589  0.3209
 5373TIP3   OH216075   6.768   7.014   0.071  0.8267  0.4718  0.3275
 5373TIP3    H116076   6.714   6.952   0.121  0.7404  0.7566  0.5866
 5373TIP3    H216077   6.852   6.969   0.061  0.5148 -0.0272 -0.1792
 5374TIP3   OH216078   8.186   2.576   5.442  0.0404 -0.4538  0.1215
 5374TIP3    H116079   8.274   2.542   5.458  0.8415  1.3359 -0.2609
 5374TIP3    H216080   8.197   2.671   5.439 -1.8547 -0.2063 -0.2985
 5375TIP3   OH216081   0.071   6.643   0.121 -0.3559  0.1865  0.0136
 5375TIP3    H116082   0.137   6.573   0.120 -0.9167 -0.3587  0.6385
 5375TIP3    H216083   0.118   6.719   0.086  0.3812 -0.3881 -0.2959
 5376TIP3   OH216084   3.470   0.185   5.648 -0.2738  0.0306  0.4171
 5376TIP3    H116085   3.508   0.179   5.736 -0.8120  1.6424  0.7990
 5376TIP3    H216086   3.413   0.108   5.642 -0.0525 -0.2282  1.3943
 5377TIP3   OH216087   6.522   4.031   1.493 -0.6917 -0.0200  0.3054
 5377TIP3    H116088   6.576   4.104   1.465 -1.1035  0.4309  0.6792
 5377TIP3    H216089   6.432   4.061   1.480 -0.8645 -0.8661 -0.5840
 5378TIP3   OH216090   5.777   2.101   0.292  0.0890  0.1101  0.0750
 5378TIP3    H116091   5.685   2.076   0.298  0.4510 -1.7756 -1.2876
 5378TIP3    H216092   5.790   2.164   0.363 -2.1335  0.1084  0.5454
 5379TIP3   OH216093   2.828   6.966   5.516  0.4513 -0.4120  0.5154
 5379TIP3    H116094   2.787   6.933   5.596  0.1123  2.0157  1.4237
 5379TIP3    H216095   2.921   6.972   5.537  0.8922 -2.6813 -0.4038
 5380TIP3   OH216096   6.875   4.149   3.667 -0.1046  0.4311  0.3320
 5380TIP3    H116097   6.806   4.108   3.615 -0.6635  1.0936  0.5458
 5380TIP3    H216098   6.844   4.238   3.683  0.6530  0.6367  0.7029
 5381TIP3   OH216099   4.104   1.937   2.434 -0.4863  0.0106  0.2559
 5381TIP3    H116100   4.137   1.847   2.438  0.7764  0.4144 -0.2850
 5381TIP3    H216101   4.009   1.928   2.426 -0.3359 -1.2960 -0.3991
 5382TIP3   OH216102   5.435   0.849   6.104 -0.0189  0.0095  0.2534
 5382TIP3    H116103   5.499   0.798   6.155  0.7370  1.8163  1.1853
 5382TIP3    H216104   5.488   0.914   6.057 -1.0505  0.5945 -0.1318
 5383TIP3   OH216105   7.874   3.735   2.909 -0.9570  0.0149  0.2390
 5383TIP3    H116106   7.911   3.793   2.842  0.3278  0.6839  1.4580
 5383TIP3    H216107   7.890   3.646   2.876 -2.1125  0.3151 -1.2160
 5384TIP3   OH216108   2.769   2.768   1.165  0.0944  0.2397  0.0983
 5384TIP3    H116109   2.767   2.786   1.071 -0.2726  0.9841  0.2391
 5384TIP3    H216110   2.854   2.727   1.181  0.2747  0.3820 -0.5087
 5385TIP3   OH216111   1.796   1.145   2.931  0.0833  0.1798 -0.2606
 5385TIP3    H116112   1.746   1.072   2.895  1.8029 -1.5352  0.6607
 5385TIP3    H216113   1.751   1.223   2.898 -2.4613 -1.2327 -0.4455
 5386TIP3   OH216114   1.641   2.610   3.081 -0.2516 -0.3108 -0.2410
 5386TIP3    H116115   1.604   2.522   3.075  0.8638 -0.7949 -0.3463
 5386TIP3    H216116   1.734   2.595   3.097 -0.2026  0.8617  0.6607
 5387TIP3   OH216117   5.320   5.133   5.510 -0.3548 -0.0533 -0.3652
 5387TIP3    H116118   5.270   5.097   5.436 -1.1942  1.9486 -0.8302
 5387TIP3    H216119   5.408   5.097   5.499 -0.9077 -1.2001 -1.3042
 5388TIP3   OH216120   7.973   1.759   5.860  0.1474 -0.2532  0.0803
 5388TIP3    H116121   7.896   1.749   5.805  0.4938  0.8368 -0.6227
 5388TIP3    H216122   8.045   1.720   5.809  0.3641  0.2314  0.0158
 5389TIP3   OH216123   2.697   5.761   5.764 -0.2976  0.2164  0.1082
 5389TIP3    H116124   2.648   5.825   5.711 -0.3368  0.4573  0.4306
 5389TIP3    H216125   2.723   5.694   5.702  1.2344  1.4049 -0.5984
 5390TIP3   OH216126   6.832   5.924   5.962 -0.1720 -1.0042  0.2399
 5390TIP3    H116127   6.777   5.988   5.918  0.7027  0.7044  1.4926
 5390TIP3    H216128   6.792   5.914   6.049  1.5332  0.4538  1.2571
 5391TIP3   OH216129   8.257   5.740   2.729 -0.3753 -1.0704 -0.2648
 5391TIP3    H116130   8.212   5.747   2.644 -0.5325 -3.1972 -0.4033
 5391TIP3    H216131   8.186   5.738   2.793 -0.2290  2.1035  0.1359
 5392TIP3   OH216132   0.684   5.377   2.373 -0.3556 -0.2712  0.2900
 5392TIP3    H116133   0.689   5.363   2.467 -1.8052  0.3826  0.4886
 5392TIP3    H216134   0.700   5.291   2.334  1.5535 -0.3042  1.0610
 5393TIP3   OH216135   3.919   2.345   3.738 -0.7405  0.0011  0.3486
 5393TIP3    H116136   3.831   2.366   3.770 -1.6036  0.7854 -2.2893
 5393TIP3    H216137   3.914   2.253   3.712 -0.9187  0.1400 -0.1272
 5394TIP3   OH216138   1.024   4.224   6.196 -0.0594  0.3457 -0.0623
 5394TIP3    H116139   0.966   4.208   6.121 -2.1911  0.2453  1.5024
 5394TIP3    H216140   0.987   4.301   6.238  0.4150 -0.2316  1.4829
 5395TIP3   OH216141   4.896   7.725   0.386  0.0669 -0.5576  0.3194
 5395TIP3    H116142   4.988   7.704   0.370  0.4882 -1.1415  2.9834
 5395TIP3    H216143   4.866   7.656   0.445 -2.8198 -1.7200 -2.2120
 5396TIP3   OH216144   0.251   1.697   5.122 -0.0946  0.0967 -0.3807
 5396TIP3    H116145   0.157   1.708   5.109 -0.1645 -0.8972 -0.8145
 5396TIP3    H216146   0.277   1.772   5.175 -1.2776 -0.0554  0.4479
 5397TIP3   OH216147   6.666   3.672   0.178 -0.8034 -0.3967  0.1046
 5397TIP3    H116148   6.653   3.601   0.241 -1.1962  1.1425  1.8298
 5397TIP3    H216149   6.656   3.752   0.229  0.3366  0.9269 -1.6400
 5398TIP3   OH216150   3.771   3.744   0.130 -0.0347  0.2716 -0.0693
 5398TIP3    H116151   3.722   3.663   0.147 -1.8500  1.1659 -0.7563
 5398TIP3    H216152   3.755   3.762   0.037 -1.7611  2.6628  0.5821
 5399TIP3   OH216153   0.232   2.208   2.893 -0.3263 -0.4585 -0.2631
 5399TIP3    H116154   0.243   2.162   2.809 -3.1959 -0.9789 -0.4441
 5399TIP3    H216155   0.233   2.301   2.870 -0.4424 -0.5829 -0.7812
 5400TIP3   OH216156   3.155   2.504   4.004 -0.3093 -0.6297 -0.4538
 5400TIP3    H116157   3.122   2.590   4.030 -0.5586 -0.8923  0.1087
 5400TIP3    H216158   3.097   2.442   4.048  0.2503 -1.0934 -0.3597
 5401TIP3   OH216159   7.154   0.142   4.972  0.6213 -0.0862  0.1736
 5401TIP3    H116160   7.093   0.074   4.943  0.7305  0.1391 -0.6185
 5401TIP3    H216161   7.196   0.105   5.049  0.3134 -0.7106  0.0490
 5402TIP3   OH216162   7.540   6.282   3.782  0.1865 -0.3021 -0.6302
 5402TIP3    H116163   7.517   6.307   3.693 -1.9747 -1.0988 -0.3616
 5402TIP3    H216164   7.632   6.256   3.776 -0.2850 -1.7752 -2.9784
 5403TIP3   OH216165   0.496   3.974   6.252 -0.1954  0.3991  0.2176
 5403TIP3    H116166   0.546   3.964   6.171  0.7351  0.4663  0.7754
 5403TIP3    H216167   0.485   3.885   6.285 -0.4584  0.3845  0.0986
 5404TIP3   OH216168   3.235   0.742   6.185  0.1639  0.6028  0.2430
 5404TIP3    H116169   3.207   0.740   6.276 -0.5110  1.0210  0.0470
 5404TIP3    H216170   3.272   0.829   6.172 -2.0140  1.4947 -0.5266
 5405TIP3   OH216171   3.823   6.671   3.796  0.1248 -0.5236 -0.1020
 5405TIP3    H116172   3.771   6.740   3.755 -1.0745 -1.1119  0.3915
 5405TIP3    H216173   3.767   6.594   3.794  1.6892 -1.6964 -1.2634
 5406TIP3   OH216174   0.482   3.509   1.165 -0.1072  0.0489 -0.0763
 5406TIP3    H116175   0.547   3.487   1.098 -0.1367  0.4674 -0.2474
 5406TIP3    H216176   0.506   3.598   1.193 -0.9210  0.4167 -0.5283
 5407TIP3   OH216177   0.284   7.656   2.114  0.2299  0.2413 -0.5179
 5407TIP3    H116178   0.322   7.586   2.166 -0.2812  0.0395 -0.4145
 5407TIP3    H216179   0.322   7.644   2.026 -0.4763 -0.6614 -0.7115
 5408TIP3   OH216180   0.047   5.040   6.212 -0.1449 -0.2424  0.2141
 5408TIP3    H116181   0.009   4.967   6.262 -0.3645 -0.1070  0.2483
 5408TIP3    H216182   0.141   5.029   6.222 -0.1367 -1.1881 -0.7347
 5409TIP3   OH216183   7.027   2.597   5.575  0.1875  0.4189 -0.6611
 5409TIP3    H116184   7.116   2.565   5.563 -0.2492 -1.2439  0.1055
 5409TIP3    H216185   6.973   2.518   5.569 -1.4190  1.5669 -2.6947
 5410TIP3   OH216186   6.322   6.124   5.106  0.2866  0.1315 -0.1137
 5410TIP3    H116187   6.287   6.046   5.150  2.7850 -1.3453 -0.5779
 5410TIP3    H216188   6.403   6.144   5.152  0.1735  1.8978 -0.6170
 5411TIP3   OH216189   6.306   3.117   0.910 -0.2366  0.3566  0.2372
 5411TIP3    H116190   6.307   3.148   1.001 -1.0722 -0.4562  0.5371
 5411TIP3    H216191   6.216   3.134   0.880 -0.1345  0.0753 -0.2359
 5412TIP3   OH216192   5.345   4.588   3.339  0.3159  0.4425  0.8179
 5412TIP3    H116193   5.309   4.588   3.428 -1.5725  1.3008  0.1107
 5412TIP3    H216194   5.268   4.585   3.282  1.5091 -0.6840 -0.8057
 5413TIP3   OH216195   3.563   5.657   4.615  0.1744 -0.1635 -0.5464
 5413TIP3    H116196   3.532   5.641   4.526 -0.7980 -0.5697 -0.1538
 5413TIP3    H216197   3.507   5.727   4.648  0.7732  0.2401 -0.3801
 5414TIP3   OH216198   1.336   1.166   0.929  0.0182  0.0824 -0.2082
 5414TIP3    H116199   1.295   1.143   1.013  0.0062 -1.9123 -0.7251
 5414TIP3    H216200   1.299   1.252   0.908 -0.7394  0.1740  1.3347
 5415TIP3   OH216201   2.099   3.977   6.322 -0.0052 -0.1477 -0.1590
 5415TIP3    H116202   2.185   3.968   6.363 -1.2305 -2.0721  2.2762
 5415TIP3    H216203   2.069   3.887   6.310 -2.1487  0.4591  0.1955
 5416TIP3   OH216204   2.267   4.320   2.803 -0.1894 -0.7187 -0.3928
 5416TIP3    H116205   2.292   4.357   2.888 -0.7036 -1.0108 -0.0998
 5416TIP3    H216206   2.171   4.323   2.804 -0.1879  1.1379 -1.8214
 5417TIP3   OH216207   1.980   2.325   1.512  0.3714 -0.3728 -0.6514
 5417TIP3    H116208   2.004   2.350   1.423  1.5214 -0.2369 -0.3262
 5417TIP3    H216209   2.034   2.248   1.530  2.0018  1.0150  0.7563
 5418TIP3   OH216210   7.183   7.614   3.420 -0.2062  0.0954  0.0560
 5418TIP3    H116211   7.149   7.684   3.477  0.2062 -1.0839  1.8569
 5418TIP3    H216212   7.106   7.562   3.398 -0.3325  0.4177 -0.2721
 5419TIP3   OH216213   3.412   0.982   4.381  0.7091  0.2255 -0.2455
 5419TIP3    H116214   3.420   0.903   4.329 -1.0332 -0.7750  0.9116
 5419TIP3    H216215   3.437   1.053   4.321  0.5182 -1.0153 -1.8517
 5420TIP3   OH216216   2.662   3.606   2.572 -0.4214 -0.0963 -0.0348
 5420TIP3    H116217   2.663   3.613   2.476  2.0270 -0.4302 -0.1135
 5420TIP3    H216218   2.665   3.697   2.602  0.4921 -0.0039 -0.3545
 5421TIP3   OH216219   4.167   1.659   4.633  0.1796  0.4167  0.1464
 5421TIP3    H116220   4.139   1.744   4.665 -0.0923  0.3674  0.0375
 5421TIP3    H216221   4.238   1.678   4.572  1.1949  0.4790  1.2930
 5422TIP3   OH216222   3.399   3.729   4.007 -0.4148  0.9368  0.3426
 5422TIP3    H116223   3.485   3.719   3.965 -0.3294 -0.3738  0.7655
 5422TIP3    H216224   3.419   3.767   4.093 -0.3486  1.4016  0.1242
 5423TIP3   OH216225   4.980   2.993   5.750 -0.6526  0.2556 -0.0710
 5423TIP3    H116226   4.951   2.967   5.838 -0.3418  1.2587  0.3409
 5423TIP3    H216227   4.959   3.086   5.744 -1.4169  0.0248 -1.3869
 5424TIP3   OH216228   0.600   6.413   0.584 -0.0281  0.0074  0.2770
 5424TIP3    H116229   0.517   6.366   0.595 -0.6485  0.6173 -1.4076
 5424TIP3    H216230   0.654   6.353   0.532  0.7946 -0.5691  1.7275
 5425TIP3   OH216231   7.782   5.357   0.283  0.2220  0.1749  0.6032
 5425TIP3    H116232   7.725   5.416   0.234  0.2233  0.9945  1.5564
 5425TIP3    H216233   7.836   5.315   0.216 -0.7870  0.1489 -0.2194
 5426TIP3   OH216234   3.365   1.041   5.376  0.3664 -0.3147 -0.0645
 5426TIP3    H116235   3.294   1.057   5.314 -0.2070 -1.4219  0.2808
 5426TIP3    H216236   3.365   0.946   5.389  1.9564 -0.3518 -0.0971
 5427TIP3   OH216237   0.728   7.444   2.340 -0.1052 -0.0103 -0.0855
 5427TIP3    H116238   0.706   7.533   2.365  2.6396  1.0231 -0.9215
 5427TIP3    H216239   0.738   7.397   2.423  0.2482  0.9848  0.4452
 5428TIP3   OH216240   3.796   5.009   5.935  0.3112  0.3373  0.1644
 5428TIP3    H116241   3.784   5.091   5.983 -1.0505  0.4323 -0.2925
 5428TIP3    H216242   3.883   4.978   5.961  0.2200  1.1461  1.5231
 5429TIP3   OH216243   3.241   6.180   0.822  0.5472 -0.2091 -0.8209
 5429TIP3    H116244   3.270   6.267   0.849  0.1293 -0.3442  0.0879
 5429TIP3    H216245   3.283   6.166   0.737 -0.3247  1.3542 -1.5382
 5430TIP3   OH216246   0.109   7.767   3.385  0.4703  0.0846 -0.0841
 5430TIP3    H116247   0.164   7.840   3.356  0.5616  0.0667  0.0422
 5430TIP3    H216248   0.046   7.807   3.446  0.0093  0.1955 -0.6230
 5431TIP3   OH216249   1.159   6.432   6.428 -0.2539 -0.8136  0.0039
 5431TIP3    H116250   1.170   6.389   6.343  2.4762  0.2410 -0.3058
 5431TIP3    H216251   1.224   6.389   6.485  0.1505  0.5518  0.6335
 5432TIP3   OH216252   0.928   0.701   5.865  0.0199  0.4728  0.6446
 5432TIP3    H116253   0.920   0.688   5.771  0.3783 -2.2079  0.9084
 5432TIP3    H216254   0.846   0.742   5.891 -0.8778 -0.4849 -0.5794
 5433TIP3   OH216255   7.372   0.611   6.191 -0.2230 -0.0140 -0.1245
 5433TIP3    H116256   7.428   0.535   6.177  1.1759  0.9852 -0.1564
 5433TIP3    H216257   7.432   0.684   6.199 -1.5024  1.0212  0.4991
 5434TIP3   OH216258   4.718   2.876   3.105 -0.1729 -0.3788 -0.3787
 5434TIP3    H116259   4.693   2.954   3.155  0.3382 -1.1583  1.1428
 5434TIP3    H216260   4.752   2.910   3.023 -1.0385  0.9425 -0.2171
 5435TIP3   OH216261   6.495   1.365   5.809  0.3422  0.1142 -0.2220
 5435TIP3    H116262   6.532   1.439   5.762  1.9417 -0.0761  0.6643
 5435TIP3    H216263   6.571   1.322   5.850 -0.4341 -2.3395 -1.1478
 5436TIP3   OH216264   4.036   7.734   0.843  0.1076 -0.0194  0.4040
 5436TIP3    H116265   4.028   7.640   0.857  1.8878 -0.0993  1.1373
 5436TIP3    H216266   4.058   7.742   0.750  0.0313 -0.3327  0.3584
 5437TIP3   OH216267   4.816   1.801   3.374  0.5075 -0.3690  0.0755
 5437TIP3    H116268   4.906   1.780   3.400  0.3775 -1.5447 -0.3336
 5437TIP3    H216269   4.782   1.719   3.337 -0.7416  0.0470  0.2407
 5438TIP3   OH216270   3.290   0.170   0.547  0.0899 -0.1378 -0.3243
 5438TIP3    H116271   3.230   0.095   0.557 -0.9776  0.9065  1.7106
 5438TIP3    H216272   3.372   0.131   0.518 -0.9584 -1.8861 -1.0913
 5439TIP3   OH216273   8.199   0.784   3.640 -0.3197 -1.0090  0.7054
 5439TIP3    H116274   8.219   0.705   3.590  0.8167 -0.4854  0.3014
 5439TIP3    H216275   8.283   0.812   3.676 -0.7993 -0.2708  1.2713
 5440TIP3   OH216276   2.812   4.545   2.995 -0.3596  0.8519 -0.0327
 5440TIP3    H116277   2.735   4.594   2.965  0.2800  2.0802  0.2472
 5440TIP3    H216278   2.824   4.572   3.086  0.3669  0.6442 -0.0599
 5441TIP3   OH216279   0.632   0.483   6.343  0.3409  0.0292 -0.3963
 5441TIP3    H116280   0.684   0.462   6.266  0.1723 -0.4997 -0.3712
 5441TIP3    H216281   0.656   0.416   6.407  0.8498  0.7486  0.1913
 5442TIP3   OH216282   4.300   0.874   5.513  0.5005 -0.0303 -0.0224
 5442TIP3    H116283   4.300   0.781   5.534  1.7181 -0.3591 -1.2992
 5442TIP3    H216284   4.318   0.918   5.596  0.8771 -0.9818  0.4129
 5443TIP3   OH216285   1.187   5.454   2.156  0.7082  0.0186 -0.1000
 5443TIP3    H116286   1.121   5.448   2.087  0.5357 -1.5166  0.1704
 5443TIP3    H216287   1.182   5.545   2.185  0.2732  0.5058 -1.5894
 5444TIP3   OH216288   6.161   4.118   6.414  0.0156  0.4218  0.1135
 5444TIP3    H116289   6.208   4.193   6.450  0.5609  0.0179  0.2549
 5444TIP3    H216290   6.111   4.084   6.489  0.6355 -0.0214  0.3308
 5445TIP3   OH216291   5.291   3.046   1.638 -0.1417 -0.4416  0.5229
 5445TIP3    H116292   5.233   3.108   1.682 -0.2950  0.5968 -1.0692
 5445TIP3    H216293   5.369   3.042   1.694 -0.1145  1.2221  0.6616
 5446TIP3   OH216294   1.901   3.295   6.544 -0.3040 -0.7383  0.0023
 5446TIP3    H116295   1.980   3.304   6.598  0.5337 -0.5985 -1.2111
 5446TIP3    H216296   1.847   3.369   6.569  1.5883  1.3879 -1.7499
 5447TIP3   OH216297   4.013   5.611   4.414  0.4513  0.0092 -0.8689
 5447TIP3    H116298   3.932   5.626   4.462  0.3050 -0.3053 -1.0112
 5447TIP3    H216299   4.029   5.517   4.423  0.8591  0.0908 -0.7494
 5448TIP3   OH216300   5.533   4.118   6.232  0.0006  0.0603 -0.0415
 5448TIP3    H116301   5.568   4.087   6.315  1.5306  0.1109 -0.6357
 5448TIP3    H216302   5.596   4.088   6.166 -1.8506 -1.1310 -1.3578
 5449TIP3   OH216303   0.476   2.585   2.567 -0.0560 -0.7785 -0.1128
 5449TIP3    H116304   0.414   2.532   2.517 -0.8802 -0.5633  0.6367
 5449TIP3    H216305   0.530   2.628   2.501 -1.7334  0.2583 -0.8972
 5450TIP3   OH216306   1.192   4.073   3.420  0.4986 -0.1276 -0.7860
 5450TIP3    H116307   1.174   4.154   3.468 -0.7099  0.5986 -2.3676
 5450TIP3    H216308   1.252   4.100   3.350 -1.2444 -0.1825 -2.3737
 5451TIP3   OH216309   2.438   1.582   1.510 -0.3674 -0.6204  0.6531
 5451TIP3    H116310   2.464   1.626   1.429  0.3548  0.9301  1.6672
 5451TIP3    H216311   2.518   1.579   1.562 -0.7301 -1.9377  1.1782
 5452TIP3   OH216312   3.351   2.606   1.498 -0.1674  0.1213 -0.8441
 5452TIP3    H116313   3.378   2.538   1.436 -1.5766  0.4356 -1.8699
 5452TIP3    H216314   3.279   2.651   1.453  1.8497  3.4946 -1.0135
 5453TIP3   OH216315   8.327   3.088   5.674 -0.1508 -0.0157 -0.1501
 5453TIP3    H116316   8.341   3.084   5.768 -1.5010 -0.4565  0.0515
 5453TIP3    H216317   8.259   3.023   5.657 -0.8279  0.9353 -1.2433
 5454TIP3   OH216318   6.589   1.631   4.149 -0.0821 -0.1835 -0.4190
 5454TIP3    H116319   6.522   1.698   4.138 -1.0194 -1.1704 -0.8928
 5454TIP3    H216320   6.568   1.589   4.232  0.3280 -0.0855 -0.2628
 5455TIP3   OH216321   2.097   1.775   0.310 -0.6017  0.2801  0.5299
 5455TIP3    H116322   2.049   1.696   0.335 -1.8435  0.0998 -2.0477
 5455TIP3    H216323   2.107   1.767   0.215  0.1425  2.7585  0.3436
 5456TIP3   OH216324   6.558   2.143   5.686 -0.3757  0.0814  0.2830
 5456TIP3    H116325   6.476   2.182   5.658  0.9925  2.5956 -0.5671
 5456TIP3    H216326   6.574   2.178   5.773 -0.9487 -1.7043  1.1469
 5457TIP3   OH216327   4.631   7.487   3.679  0.1525 -0.4247  0.7532
 5457TIP3    H116328   4.589   7.441   3.752 -0.4188 -1.4043 -0.1585
 5457TIP3    H216329   4.574   7.562   3.662 -0.3761 -0.8585  0.5584
 5458TIP3   OH216330   2.102   7.672   2.540  0.5304 -0.4356  0.5602
 5458TIP3    H116331   2.010   7.650   2.528  0.6769 -0.4357 -0.6713
 5458TIP3    H216332   2.140   7.668   2.452  1.7937 -0.8177  1.0980
 5459TIP3   OH216333   2.496   4.271   2.625  0.2831  0.0060  0.3055
 5459TIP3    H116334   2.435   4.277   2.698 -1.2324 -0.7485 -0.8518
 5459TIP3    H216335   2.574   4.318   2.655 -0.7098  0.6720  1.9666
 5460TIP3   OH216336   0.551   2.749   6.052 -0.6763  0.6817  0.1818
 5460TIP3    H116337   0.464   2.718   6.077 -0.6101  0.8515  0.6309
 5460TIP3    H216338   0.545   2.845   6.059 -0.4856  0.6991  0.1102
 5461TIP3   OH216339   5.227   4.558   5.888 -0.0528  0.2747  0.5685
 5461TIP3    H116340   5.184   4.641   5.908 -0.9118 -0.4749  1.9908
 5461TIP3    H216341   5.162   4.491   5.908  0.9958 -0.8008  0.5397
 5462TIP3   OH216342   0.469   5.585   5.199 -0.0550 -0.0082 -0.6934
 5462TIP3    H116343   0.375   5.591   5.218  0.3614 -0.0798  1.7048
 5462TIP3    H216344   0.479   5.497   5.161 -0.8034 -0.5251  0.2432
 5463TIP3   OH216345   7.825   1.078   2.593 -0.3166 -0.3441  0.2439
 5463TIP3    H116346   7.843   1.001   2.648  0.6675 -0.0232  0.4008
 5463TIP3    H216347   7.891   1.073   2.524 -1.1933 -0.4406 -0.6078
 5464TIP3   OH216348   3.894   6.792   0.351 -0.6087  0.3954 -0.3747
 5464TIP3    H116349   3.959   6.822   0.415 -0.0077  2.1815 -1.7144
 5464TIP3    H216350   3.942   6.792   0.268 -1.2652 -2.1802 -0.8395
 5465TIP3   OH216351   6.040   5.525   6.090  0.3306  0.2313 -0.8809
 5465TIP3    H116352   6.106   5.480   6.143 -0.0719  0.2034 -0.4027
 5465TIP3    H216353   6.036   5.474   6.009  0.9967  0.3141 -0.9717
 5466TIP3   OH216354   3.266   0.397   6.104  0.3340  0.4958 -0.4071
 5466TIP3    H116355   3.186   0.352   6.078 -2.0323  0.9122  4.9040
 5466TIP3    H216356   3.308   0.422   6.021 -3.9656 -1.4313 -3.5168
 5467TIP3   OH216357   6.744   5.347   2.837 -0.0435  0.1675 -0.4304
 5467TIP3    H116358   6.663   5.296   2.841  0.1880 -0.1923 -0.2795
 5467TIP3    H216359   6.716   5.436   2.814 -0.4444 -0.0375 -0.7361
 5468TIP3   OH216360   5.462   1.278   0.104  0.3150  0.2370  0.4037
 5468TIP3    H116361   5.457   1.339   0.030 -1.3066  0.5693  0.7454
 5468TIP3    H216362   5.437   1.194   0.067 -1.2808  0.5541  0.7011
 5469TIP3   OH216363   1.524   5.781   1.632 -0.2358 -0.2147  0.1487
 5469TIP3    H116364   1.466   5.718   1.590  0.6078  0.8675 -2.9609
 5469TIP3    H216365   1.596   5.728   1.668 -0.8594 -1.1986 -0.0191
 5470TIP3   OH216366   5.910   7.652   0.928  0.0088 -0.5037  0.0581
 5470TIP3    H116367   5.869   7.691   1.006  0.5340  2.0700 -0.8684
 5470TIP3    H216368   5.942   7.567   0.958 -2.8832 -1.1408  1.7268
 5471TIP3   OH216369   3.889   3.310   6.736  0.0130  0.5412 -0.2568
 5471TIP3    H116370   3.935   3.237   6.776 -0.3164 -0.3916 -1.5185
 5471TIP3    H216371   3.911   3.305   6.643  0.0374  2.0899 -0.3690
 5472TIP3   OH216372   4.940   6.204   3.003  0.0938 -0.3181 -0.2732
 5472TIP3    H116373   4.915   6.287   3.044  0.1112 -0.3970 -0.1039
 5472TIP3    H216374   4.885   6.139   3.045 -0.8673 -0.2201 -1.3430
 5473TIP3   OH216375   2.137   0.401   4.154  0.1806 -0.0466  0.2370
 5473TIP3    H116376   2.138   0.312   4.118  1.1639  1.2533 -3.2964
 5473TIP3    H216377   2.049   0.410   4.192 -0.9198 -1.6665 -1.7066
 5474TIP3   OH216378   0.799   2.200   3.651  0.4074 -0.2148 -0.7645
 5474TIP3    H116379   0.884   2.168   3.681  0.4685 -0.1509 -0.8724
 5474TIP3    H216380   0.806   2.295   3.655  0.1395 -0.2147 -0.2002
 5475TIP3   OH216381   6.133   5.911   4.672 -0.0030  0.4425  0.0635
 5475TIP3    H116382   6.096   5.839   4.723  0.2492  1.0576  1.1458
 5475TIP3    H216383   6.222   5.882   4.652 -0.0190  0.3006  0.1899
 5476TIP3   OH216384   0.792   7.739   4.095 -0.6714 -0.2426 -0.0475
 5476TIP3    H116385   0.782   7.834   4.099  1.3743  0.0351 -0.0757
 5476TIP3    H216386   0.817   7.714   4.184 -1.8712 -0.8830  0.1356
 5477TIP3   OH216387   5.121   3.859   5.911  0.9281 -0.5137 -0.1668
 5477TIP3    H116388   5.056   3.929   5.905  0.1819 -1.1246  0.5899
 5477TIP3    H216389   5.172   3.868   5.831  2.9610  2.8989  1.2991
 5478TIP3   OH216390   6.196   0.289   5.951 -0.6970 -0.3411 -0.6535
 5478TIP3    H116391   6.248   0.231   6.007  1.1556 -0.5917 -2.4939
 5478TIP3    H216392   6.133   0.232   5.909 -2.1451 -0.1433  1.0981
 5479TIP3   OH216393   2.512   0.858   0.341  0.3649  0.0358  0.2115
 5479TIP3    H116394   2.501   0.764   0.352  0.3052  0.0759  0.4884
 5479TIP3    H216395   2.466   0.897   0.415  1.0276  0.2572  0.5207
 5480TIP3   OH216396   0.711   7.359   3.271 -0.1409 -0.1060  0.3794
 5480TIP3    H116397   0.622   7.324   3.274 -0.0478 -0.3557  0.1749
 5480TIP3    H216398   0.715   7.420   3.345 -0.4863 -0.0836  0.3802
 5481TIP3   OH216399   4.853   2.424   0.438 -0.1178 -0.2614 -0.2726
 5481TIP3    H116400   4.820   2.358   0.499  0.3667  0.5310  0.8799
 5481TIP3    H216401   4.806   2.504   0.461  0.4224  0.1672 -0.6253
 5482TIP3   OH216402   8.087   4.064   0.156 -1.0713  0.1128 -0.1726
 5482TIP3    H116403   8.015   4.001   0.165 -1.0031  0.1100  0.4015
 5482TIP3    H216404   8.114   4.082   0.246 -1.4582  1.3874 -0.2985
 5483TIP3   OH216405   6.313   3.510   3.418 -0.4183  0.1024 -0.1867
 5483TIP3    H116406   6.234   3.528   3.468 -0.1897  0.2743  0.1207
 5483TIP3    H216407   6.383   3.510   3.483 -0.3179 -1.2959 -0.2532
 5484TIP3   OH216408   0.571   3.209   5.173  0.3222 -0.0117 -0.1714
 5484TIP3    H116409   0.635   3.247   5.232  0.2928 -0.9895  0.5118
 5484TIP3    H216410   0.487   3.246   5.201  0.5097  0.9085 -0.7714
 5485TIP3   OH216411   0.341   7.449   0.654 -0.2375 -0.3124  0.1319
 5485TIP3    H116412   0.250   7.476   0.657 -0.0896  0.1210  0.8591
 5485TIP3    H216413   0.377   7.494   0.577 -0.7000 -0.7097 -0.3208
 5486TIP3   OH216414   8.001   2.652   2.992 -0.0234 -0.5099 -0.1496
 5486TIP3    H116415   7.911   2.679   2.976 -0.3801 -0.1591  2.1088
 5486TIP3    H216416   8.013   2.574   2.939 -1.0759  0.3817 -1.7851
 5487TIP3   OH216417   7.573   2.578   1.911 -0.4004 -0.0809 -0.1406
 5487TIP3    H116418   7.594   2.601   1.820  1.2230 -1.8051 -0.2767
 5487TIP3    H216419   7.501   2.516   1.904 -2.2850  1.9643  0.0035
 5488TIP3   OH216420   2.428   5.947   0.279  0.8069 -0.3650 -0.0270
 5488TIP3    H116421   2.386   5.950   0.365  0.4779 -0.6997 -0.1755
 5488TIP3    H216422   2.358   5.921   0.219  1.1226 -0.4924 -0.3421
 5489TIP3   OH216423   5.214   3.633   1.107  0.2573 -0.2876 -0.6350
 5489TIP3    H116424   5.140   3.661   1.161 -0.4731  0.3891 -1.9269
 5489TIP3    H216425   5.203   3.538   1.098 -0.3361 -0.2225 -0.6209
 5490TIP3   OH216426   7.562   4.501   6.767  1.0382 -0.4821 -0.2037
 5490TIP3    H116427   7.630   4.498   6.834  1.6667  2.2620 -0.5927
 5490TIP3    H216428   7.609   4.529   6.688 -0.3240  0.1718 -0.8061
 5491TIP3   OH216429   0.284   4.083   0.317  0.0337  0.4262 -0.4215
 5491TIP3    H116430   0.303   4.041   0.401 -2.3086 -0.9314 -0.5053
 5491TIP3    H216431   0.368   4.081   0.270  0.4250 -2.9033  0.1658
 5492TIP3   OH216432   5.633   6.151   3.789 -0.6470 -0.3604  0.1573
 5492TIP3    H116433   5.664   6.188   3.707 -0.9099  0.5367  0.4552
 5492TIP3    H216434   5.586   6.072   3.764  0.2918 -0.7441 -0.4503
 5493TIP3   OH216435   7.951   3.539   1.242  0.2639 -0.7490 -0.0780
 5493TIP3    H116436   8.045   3.532   1.228  0.7911  2.2810  1.3333
 5493TIP3    H216437   7.931   3.469   1.306  1.8145 -0.5681  0.6435
 5494TIP3   OH216438   3.573   2.113   4.514 -0.4088 -0.3228 -0.4633
 5494TIP3    H116439   3.558   2.018   4.514 -0.9083 -0.2683  0.8538
 5494TIP3    H216440   3.551   2.140   4.425 -0.0607 -1.4651 -0.9239
 5495TIP3   OH216441   4.657   6.135   0.384 -0.0946  0.2736 -0.5490
 5495TIP3    H116442   4.712   6.138   0.462  0.3304 -0.5795 -0.8072
 5495TIP3    H216443   4.677   6.051   0.343  0.7312  1.2476 -2.2979
 5496TIP3   OH216444   3.955   4.081   6.673  0.2667  0.0385 -0.1820
 5496TIP3    H116445   3.972   4.103   6.581  1.3404 -1.5451 -0.4134
 5496TIP3    H216446   4.041   4.083   6.714 -0.1689  0.4363  0.7448
 5497TIP3   OH216447   2.701   0.280   1.015  0.3333  0.0064 -0.4939
 5497TIP3    H116448   2.635   0.255   1.080  4.4668 -0.5884  4.1603
 5497TIP3    H216449   2.718   0.199   0.966 -0.3709 -0.6685  0.3402
 5498TIP3   OH216450   3.124   1.099   2.846  0.3650 -0.7825 -0.0049
 5498TIP3    H116451   3.169   1.068   2.925  0.5050 -1.0551 -0.1896
 5498TIP3    H216452   3.061   1.030   2.826  0.7605 -1.0135 -0.4855
 5499TIP3   OH216453   7.096   2.471   4.322 -0.0971 -0.2598 -0.3556
 5499TIP3    H116454   7.071   2.514   4.240  0.3757  0.9709  0.1229
 5499TIP3    H216455   7.107   2.542   4.384 -0.1477 -1.1537  0.7123
 5500TIP3   OH216456   6.451   4.743   1.797 -0.3906  0.1308 -0.1536
 5500TIP3    H116457   6.469   4.835   1.815 -0.3624  0.2910 -0.9783
 5500TIP3    H216458   6.357   4.734   1.810 -1.0657  1.1174 -3.4381
 5501TIP3   OH216459   0.995   1.900   2.984  0.5137  0.0075 -0.0823
 5501TIP3    H116460   1.047   1.835   3.031  0.6363  0.1036 -0.0839
 5501TIP3    H216461   0.960   1.853   2.908  1.3903  0.1843 -0.6148
 5502TIP3   OH216462   3.098   7.064   5.248  0.0643  0.1587 -0.1360
 5502TIP3    H116463   3.041   6.996   5.210  0.1079  0.0797 -0.0599
 5502TIP3    H216464   3.039   7.138   5.261  0.0720  0.2234 -0.4582
 5503TIP3   OH216465   2.236   2.504   1.149 -0.1640 -0.2140 -0.3650
 5503TIP3    H116466   2.205   2.521   1.060  0.9643 -0.7900 -0.8931
 5503TIP3    H216467   2.175   2.439   1.184  0.6469 -1.6682 -1.5410
 5504TIP3   OH216468   3.396   1.576   3.851 -0.3448 -0.3203 -0.1338
 5504TIP3    H116469   3.444   1.537   3.779 -0.4350  0.6526 -0.7449
 5504TIP3    H216470   3.307   1.587   3.818 -0.6560 -0.8222  0.4986
 5505TIP3   OH216471   0.002   4.465   2.807  0.1517  0.0705  0.0009
 5505TIP3    H116472   0.064   4.436   2.874 -0.0097  0.7968  0.4785
 5505TIP3    H216473  -0.043   4.540   2.847 -0.5696 -0.0354 -0.5872
 5506TIP3   OH216474   6.542   2.609   4.542 -0.1054  0.9176 -0.4717
 5506TIP3    H116475   6.527   2.553   4.465 -2.6679 -1.3685  1.4668
 5506TIP3    H216476   6.625   2.578   4.577 -2.0915 -3.2307  1.4107
 5507TIP3   OH216477   3.686   4.964   0.128  0.1749  0.0660  0.4680
 5507TIP3    H116478   3.600   4.952   0.169 -0.1542  0.5881 -0.0552
 5507TIP3    H216479   3.674   4.934   0.038  0.5302  0.1767  0.3828
 5508TIP3   OH216480   6.312   4.014   0.175  0.0679 -0.1628  0.2418
 5508TIP3    H116481   6.381   3.954   0.205  0.7726  1.3402  1.8016
 5508TIP3    H216482   6.350   4.059   0.099 -0.1921 -1.1204 -0.4792
 5509TIP3   OH216483   3.532   0.237   1.656 -0.2302 -0.6106  0.1011
 5509TIP3    H116484   3.605   0.232   1.718 -1.9367 -2.8438  2.1272
 5509TIP3    H216485   3.472   0.301   1.693  0.0807  0.2942 -0.9021
 5510TIP3   OH216486   6.450   5.999   6.618 -0.5697 -0.5330  0.3400
 5510TIP3    H116487   6.437   5.915   6.575  2.0259 -0.0054 -1.7193
 5510TIP3    H216488   6.493   5.977   6.701  1.7224 -1.2596 -0.9421
 5511TIP3   OH216489   4.835   3.942   6.303 -0.9626 -0.2973 -0.0782
 5511TIP3    H116490   4.843   4.032   6.270 -3.3172 -0.0653 -0.2083
 5511TIP3    H216491   4.858   3.887   6.229  0.0146  0.1820 -0.1492
 5512TIP3   OH216492   6.673   4.127   4.941 -0.4947 -0.3787  0.3005
 5512TIP3    H116493   6.731   4.053   4.922  1.6733  1.2796  0.0014
 5512TIP3    H216494   6.693   4.151   5.031  1.5945  2.0207 -0.6814
 5513TIP3   OH216495   4.502   2.282   6.182 -0.0484 -0.0246 -0.1974
 5513TIP3    H116496   4.557   2.340   6.130  0.8738  0.2430  1.0372
 5513TIP3    H216497   4.414   2.293   6.146  0.9460 -2.3434 -3.9564
 5514TIP3   OH216498   1.015   6.811   6.317 -0.1394 -0.1812 -0.1252
 5514TIP3    H116499   0.984   6.751   6.386  1.9362 -0.5351  0.5855
 5514TIP3    H216500   0.964   6.788   6.240 -0.7952 -1.4989  0.6700
 5515TIP3   OH216501   5.106   2.156   2.799  0.6065  0.7314  0.6260
 5515TIP3    H116502   5.098   2.064   2.824 -2.6464  1.1522  1.6058
 5515TIP3    H216503   5.095   2.156   2.704 -0.0713  0.1660  0.6976
 5516TIP3   OH216504   7.517   6.402   1.739 -0.1272  0.2766  0.0458
 5516TIP3    H116505   7.451   6.416   1.807  0.0333  1.4548 -0.0216
 5516TIP3    H216506   7.591   6.458   1.765  0.6547 -0.6396 -0.1505
 5517TIP3   OH216507   7.841   0.524   0.337  0.2659 -0.0385  0.3186
 5517TIP3    H116508   7.805   0.593   0.281  0.9313 -0.8670 -1.1682
 5517TIP3    H216509   7.765   0.475   0.367 -0.1638  0.9233  0.8674
 5518TIP3   OH216510   2.544   7.587   4.871  0.1954 -0.1158  0.3533
 5518TIP3    H116511   2.453   7.617   4.870  0.4164  0.7421  2.3572
 5518TIP3    H216512   2.587   7.640   4.938  2.5922  0.6421 -1.6018
 5519TIP3   OH216513   6.922   5.113   4.529 -0.3235  0.2038  0.2403
 5519TIP3    H116514   6.992   5.155   4.580  1.0383  0.4023 -1.6895
 5519TIP3    H216515   6.841   5.143   4.571  0.6509 -1.2042  3.4785
 5520TIP3   OH216516   1.232   6.194   5.262  0.2690  0.5031 -0.1557
 5520TIP3    H116517   1.217   6.118   5.319 -0.7218  0.4070 -0.5306
 5520TIP3    H216518   1.156   6.196   5.205  1.2486  0.6018 -1.5001
 5521TIP3   OH216519   0.887   4.612   2.652 -0.0015 -0.0249  0.2701
 5521TIP3    H116520   0.953   4.604   2.722  1.2558  1.9611 -0.6005
 5521TIP3    H216521   0.891   4.528   2.606  2.1431  0.1137  0.0947
 5522TIP3   OH216522   1.178   7.392   3.147  0.1663 -0.3300 -0.3512
 5522TIP3    H116523   1.195   7.477   3.189 -1.4276 -0.8462  1.4046
 5522TIP3    H216524   1.087   7.372   3.167  0.0968 -1.8393 -1.9265
 5523TIP3   OH216525   0.383   7.543   2.958 -0.0384  0.5227 -0.2048
 5523TIP3    H116526   0.339   7.458   2.968 -2.3728  1.5435 -1.0194
 5523TIP3    H216527   0.365   7.588   3.040  0.9857  0.3250  0.1294
 5524TIP3   OH216528   7.613   0.189   2.183 -0.0438  0.8061 -0.2926
 5524TIP3    H116529   7.631   0.257   2.247 -0.8863  0.3273  0.4751
 5524TIP3    H216530   7.525   0.158   2.205 -0.4372  0.7569 -1.7945
 5525TIP3   OH216531   2.584   5.860   4.446  0.0213  0.3031 -0.5075
 5525TIP3    H116532   2.493   5.873   4.471  0.4797  2.1922  0.3861
 5525TIP3    H216533   2.603   5.932   4.386  1.3960  1.0770  0.7804
 5526TIP3   OH216534   3.184   5.535   1.678 -0.4575 -0.3560  0.1465
 5526TIP3    H116535   3.133   5.525   1.597 -1.0696  1.2095  0.3030
 5526TIP3    H216536   3.275   5.523   1.650 -0.3217  3.1832 -1.4929
 5527TIP3   OH216537   6.389   5.272   2.177  0.2984  0.0624  0.7920
 5527TIP3    H116538   6.396   5.235   2.265  5.4052 -1.9981 -0.1747
 5527TIP3    H216539   6.316   5.224   2.137 -0.6242 -0.6135  3.1203
 5528TIP3   OH216540   3.074   3.761   3.542  0.9728 -0.0997 -0.2485
 5528TIP3    H116541   3.004   3.813   3.583  1.0583  0.9039 -1.3124
 5528TIP3    H216542   3.054   3.671   3.567  1.1668  0.4488  2.1919
 5529TIP3   OH216543   4.738   0.674   3.607 -0.3868  0.1722 -0.1765
 5529TIP3    H116544   4.707   0.762   3.624 -0.4651  0.1429 -0.1662
 5529TIP3    H216545   4.673   0.637   3.547 -0.6742 -0.0810  0.2841
 5530TIP3   OH216546   2.478   0.159   6.078  0.2655 -0.3635 -0.6531
 5530TIP3    H116547   2.498   0.069   6.103  2.3710  0.4898  1.0872
 5530TIP3    H216548   2.554   0.189   6.029 -0.5329  0.4067 -1.4680
 5531TIP3   OH216549   1.976   7.539   0.954  0.4475 -0.3483 -0.2948
 5531TIP3    H116550   1.881   7.532   0.963  0.4959  0.9580  1.7347
 5531TIP3    H216551   1.990   7.624   0.912  0.7490  0.4574  1.3660
 5532TIP3   OH216552   6.315   5.901   3.997  0.2805 -0.1522  0.0116
 5532TIP3    H116553   6.310   5.996   3.986 -1.2711 -0.2176 -0.1824
 5532TIP3    H216554   6.225   5.871   3.980  1.1115 -1.8483 -1.8202
 5533TIP3   OH216555   0.866   2.199   0.800  0.5434  0.0290  0.4773
 5533TIP3    H116556   0.896   2.116   0.762  1.5717 -0.5132  2.3808
 5533TIP3    H216557   0.942   2.256   0.795  0.1772  0.5028  0.2167
 5534TIP3   OH216558   5.822   6.671   4.602 -0.4224 -0.3785 -0.6780
 5534TIP3    H116559   5.740   6.623   4.591 -0.0034 -1.6182  1.1083
 5534TIP3    H216560   5.890   6.604   4.599  0.2941  0.2456  0.6359
 5535TIP3   OH216561   5.954   4.780   4.760  0.0378 -0.8915  0.3007
 5535TIP3    H116562   6.038   4.737   4.779 -0.1475 -1.2704  0.2825
 5535TIP3    H216563   5.906   4.716   4.707 -1.0586 -1.5309  1.9592
 5536TIP3   OH216564   1.639   2.440   5.261 -0.1570 -0.0917 -0.0444
 5536TIP3    H116565   1.571   2.410   5.321 -0.6780 -1.4690 -1.2628
 5536TIP3    H216566   1.606   2.523   5.227 -1.6054 -1.0441 -1.1003
 5537TIP3   OH216567   1.746   1.095   0.116 -0.1229  0.5131 -0.2684
 5537TIP3    H116568   1.774   1.021   0.169 -0.1011  1.2345  0.7400
 5537TIP3    H216569   1.708   1.054   0.038 -3.4505 -0.7536  1.7926
 5538TIP3   OH216570   1.855   0.895   5.177 -0.0031 -0.3549  0.0470
 5538TIP3    H116571   1.879   0.988   5.180 -0.3207 -0.2846  0.7177
 5538TIP3    H216572   1.865   0.870   5.085  3.1606 -0.5031  0.3304
 5539TIP3   OH216573   1.262   2.505   6.030 -0.3189  0.0206 -0.3298
 5539TIP3    H116574   1.323   2.504   6.103 -0.5614 -0.8722 -0.1215
 5539TIP3    H216575   1.303   2.561   5.964  0.5445 -0.2571 -0.0404
 5540TIP3   OH216576   6.179   7.060   0.647 -0.4081  0.8744  0.2028
 5540TIP3    H116577   6.188   6.995   0.577  1.7148 -0.7612  1.8920
 5540TIP3    H216578   6.087   7.086   0.642 -1.1599 -1.6766 -1.0503
 5541TIP3   OH216579   3.555   2.812   1.461 -0.0200 -0.4984 -0.8659
 5541TIP3    H116580   3.489   2.745   1.476  0.0491 -0.0466  2.0067
 5541TIP3    H216581   3.547   2.871   1.536  3.1876 -0.0570 -0.7133
 5542TIP3   OH216582   7.161   5.007   4.938 -0.1715 -0.8597  0.0424
 5542TIP3    H116583   7.242   4.957   4.942 -0.3213 -1.3184 -2.0130
 5542TIP3    H216584   7.092   4.943   4.950 -0.2931 -0.7237  0.0771
 5543TIP3   OH216585   5.436   0.187   6.323 -0.3656 -0.0377  0.0863
 5543TIP3    H116586   5.504   0.122   6.339 -0.8527 -1.0592 -1.7519
 5543TIP3    H216587   5.363   0.161   6.380 -0.6290 -1.2522 -0.7753
 5544TIP3   OH216588   6.198   0.733   2.392  0.0844  0.0487  0.6763
 5544TIP3    H116589   6.220   0.816   2.435  1.0782 -1.7627  3.9750
 5544TIP3    H216590   6.161   0.679   2.462  0.7978 -2.7926 -0.9939
 5545TIP3   OH216591   5.383   4.603   2.922 -0.3096 -0.2383  0.0482
 5545TIP3    H116592   5.411   4.675   2.866 -0.7476  0.3004  0.5204
 5545TIP3    H216593   5.443   4.606   2.996  0.3051 -0.9860 -0.4013
 5546TIP3   OH216594   7.484   0.940   4.992 -0.0461  0.1829  0.0861
 5546TIP3    H116595   7.530   0.859   5.012 -0.5419 -0.2935 -0.6137
 5546TIP3    H216596   7.439   0.921   4.909  0.4438  1.4254 -0.4883
 5547TIP3   OH216597   3.759   6.977   3.392  0.5149 -0.2915 -0.2260
 5547TIP3    H116598   3.807   7.012   3.467  0.5213  0.3879 -0.5453
 5547TIP3    H216599   3.819   6.915   3.351  0.0326 -1.7163  1.1152
 5548TIP3   OH216600   6.367   1.812   0.318 -0.1360 -0.3126 -0.0471
 5548TIP3    H116601   6.442   1.781   0.369 -0.5028 -0.9511  0.1167
 5548TIP3    H216602   6.397   1.809   0.227 -0.5370 -2.3398 -0.1633
 5549TIP3   OH216603   3.387   0.750   0.553 -0.3331  0.5018  0.5794
 5549TIP3    H116604   3.447   0.786   0.487 -1.9444 -0.1425 -1.3186
 5549TIP3    H216605   3.426   0.776   0.636  1.3631  2.0696 -0.6081
 5550TIP3   OH216606   6.687   4.463   4.908 -0.1812  0.4916 -0.0778
 5550TIP3    H116607   6.738   4.542   4.889 -1.1615  0.7163 -1.9815
 5550TIP3    H216608   6.707   4.404   4.835 -2.5520  0.5814 -0.8709
 5551TIP3   OH216609   1.544   7.232   3.968  0.2851 -0.3159 -0.0802
 5551TIP3    H116610   1.600   7.244   3.892  0.2912 -0.0910 -0.0404
 5551TIP3    H216611   1.544   7.137   3.984 -0.9530 -0.5581 -1.3078
 5552TIP3   OH216612   7.084   5.571   4.526  0.1652  0.6367 -0.3678
 5552TIP3    H116613   7.146   5.594   4.596 -0.8380 -1.3520  1.2478
 5552TIP3    H216614   7.138   5.526   4.461  0.5547 -0.6663  0.8058
 5553TIP3   OH216615   4.229   1.326   5.005 -0.3706 -0.0524 -0.2420
 5553TIP3    H116616   4.208   1.368   4.921  2.6123 -0.8694 -1.5264
 5553TIP3    H216617   4.295   1.383   5.044 -0.3052 -0.7114  0.6309
 5554TIP3   OH216618   5.754   3.334   4.991 -0.3372  0.7289  0.1837
 5554TIP3    H116619   5.724   3.270   4.926  0.9767 -0.3451  0.5836
 5554TIP3    H216620   5.831   3.374   4.950 -0.0652  0.7273  0.6877
 5555TIP3   OH216621   3.165   7.812   1.099  0.0134 -0.1178  0.3735
 5555TIP3    H116622   3.080   7.817   1.142 -0.2170 -2.3609  0.2755
 5555TIP3    H216623   3.150   7.761   1.020  1.3829 -0.2052  0.1305
 5556TIP3   OH216624   4.592   5.190   1.817  0.0914 -0.4680 -0.0606
 5556TIP3    H116625   4.508   5.175   1.859  1.0656 -2.1647  1.4627
 5556TIP3    H216626   4.584   5.276   1.776 -2.3288 -0.5606  0.0896
 5557TIP3   OH216627   7.488   1.108   2.600 -0.1131 -0.1912 -0.1713
 5557TIP3    H116628   7.507   1.111   2.694  3.9948  2.1368 -0.8503
 5557TIP3    H216629   7.505   1.017   2.575  1.0983 -0.3108  0.9820
 5558TIP3   OH216630   2.090   0.992   6.823  0.2190 -0.1944 -0.2820
 5558TIP3    H116631   2.066   0.913   6.775 -0.8374 -0.1912  0.2040
 5558TIP3    H216632   2.141   1.044   6.761 -0.6248 -0.4517 -1.2102
 5559TIP3   OH216633   5.734   5.262   0.508  0.1279  0.3599 -0.0534
 5559TIP3    H116634   5.788   5.341   0.508  1.1646 -0.2551 -1.8918
 5559TIP3    H216635   5.780   5.203   0.448 -0.4049 -1.7971  1.5389
 5560TIP3   OH216636   6.841   0.672   0.994 -0.3973 -0.3287 -0.3845
 5560TIP3    H116637   6.772   0.609   1.019  0.0163 -1.0262 -0.9785
 5560TIP3    H216638   6.899   0.674   1.070  0.0440 -1.3211 -0.6722
 5561TIP3   OH216639   6.238   6.414   5.136  0.3604  0.2022  0.1983
 5561TIP3    H116640   6.210   6.396   5.226  1.6824 -0.3145  0.5346
 5561TIP3    H216641   6.279   6.333   5.107  1.9439  1.0542 -0.0531
 5562TIP3   OH216642   2.703   3.097   2.087  0.0570 -0.0338  0.2429
 5562TIP3    H116643   2.643   3.120   2.158  0.7814  1.5182  0.3742
 5562TIP3    H216644   2.700   3.001   2.084 -1.8104 -0.0365  0.7656
 5563TIP3   OH216645   6.422   5.513   4.622 -0.1742  0.1047 -0.0483
 5563TIP3    H116646   6.401   5.588   4.566 -0.1466 -0.7277 -1.2102
 5563TIP3    H216647   6.513   5.528   4.648  0.1193  0.0526 -0.9958
 5564TIP3   OH216648   8.313   3.530   3.195  0.1206  0.0577  0.1085
 5564TIP3    H116649   8.299   3.450   3.144  1.1219 -0.0956  0.0513
 5564TIP3    H216650   8.234   3.582   3.179 -0.6096 -0.9595  0.2451
 5565TIP3   OH216651   2.723   7.661   5.677  0.1478 -0.1433  0.3530
 5565TIP3    H116652   2.805   7.711   5.682 -0.4602  1.0125 -0.6771
 5565TIP3    H216653   2.742   7.580   5.725  1.4159  0.7292  1.4295
 5566TIP3   OH216654   3.871   7.355   5.273  0.0302 -0.0752  0.3921
 5566TIP3    H116655   3.826   7.369   5.189  1.3209  0.0229 -0.3055
 5566TIP3    H216656   3.961   7.384   5.257  0.0710  0.8795  2.1115
 5567TIP3   OH216657   8.052   6.556   0.710 -0.2178 -0.1009  0.6001
 5567TIP3    H116658   8.055   6.511   0.625 -0.7550 -0.5171  0.7991
 5567TIP3    H216659   8.011   6.640   0.691  0.3587  0.1212  0.3119
 5568TIP3   OH216660   7.041   0.976   0.731 -0.0102 -0.0642  0.2222
 5568TIP3    H116661   7.081   1.033   0.797  1.2810  1.3093 -1.6522
 5568TIP3    H216662   6.993   1.036   0.674 -0.6959 -1.1587 -0.3839
 5569TIP3   OH216663   4.935   6.420   4.513 -0.0609  0.4794  0.3110
 5569TIP3    H116664   4.933   6.495   4.454  1.8161 -0.0034 -0.4369
 5569TIP3    H216665   4.862   6.435   4.573 -0.4488  2.2903 -0.5361
 5570TIP3   OH216666   3.218   0.030   1.842 -0.1021  0.2882 -0.0589
 5570TIP3    H116667   3.244  -0.061   1.859  0.4431  0.4525 -0.0117
 5570TIP3    H216668   3.224   0.073   1.927  1.5665  0.8454 -0.4254
 5571TIP3   OH216669   7.690   3.291   5.905  0.0772  0.5690 -0.0435
 5571TIP3    H116670   7.641   3.346   5.967  2.7939  0.9630  1.9418
 5571TIP3    H216671   7.695   3.344   5.825  0.9922  2.4569  1.1982
 5572TIP3   OH216672   7.069   5.741   5.917 -0.2274 -0.4945  0.4157
 5572TIP3    H116673   7.024   5.701   5.843  0.6314  0.0466 -0.4232
 5572TIP3    H216674   7.022   5.823   5.933  0.1110 -0.2040 -0.0846
 5573TIP3   OH216675   4.102   6.603   3.818  0.0622  0.0336 -0.0887
 5573TIP3    H116676   4.098   6.549   3.896  0.1988  1.0304  0.6247
 5573TIP3    H216677   4.011   6.631   3.804  0.1534  0.4564  0.1514
 5574TIP3   OH216678   1.886   4.527   5.557 -0.3664  0.0590  0.0605
 5574TIP3    H116679   1.974   4.518   5.594  0.1114  0.3902 -0.9467
 5574TIP3    H216680   1.839   4.450   5.588  1.0419 -1.4827 -1.3926
 5575TIP3   OH216681   0.964   6.885   1.403  0.4554  0.2913 -0.2005
 5575TIP3    H116682   1.040   6.927   1.362  1.2800 -0.3888  0.5833
 5575TIP3    H216683   0.902   6.873   1.331  0.0412  3.0767 -0.4201
 5576TIP3   OH216684   0.305   3.470   6.026  0.4050  0.6101  0.2678
 5576TIP3    H116685   0.265   3.515   6.101 -0.7108  0.8547 -0.4506
 5576TIP3    H216686   0.262   3.508   5.949 -0.2793 -1.3872 -0.3975
 5577TIP3   OH216687   7.451   6.603   3.307 -0.0664 -0.0874 -0.1506
 5577TIP3    H116688   7.444   6.595   3.212  2.1854  1.9526 -0.5920
 5577TIP3    H216689   7.468   6.514   3.337 -0.7860 -0.7619 -1.6458
 5578TIP3   OH216690   3.396   1.930   3.443 -0.1445 -0.5882 -0.0098
 5578TIP3    H116691   3.354   1.907   3.526 -0.4371 -0.7518 -0.2027
 5578TIP3    H216692   3.344   2.003   3.410  0.1305 -0.3515  0.0768
 5579TIP3   OH216693   7.915   2.707   1.047 -0.3109  0.0431 -0.0529
 5579TIP3    H116694   7.944   2.673   1.132 -1.6999  1.2954  0.9609
 5579TIP3    H216695   7.985   2.766   1.020  0.0130 -0.1410  0.3675
 5580TIP3   OH216696   8.312   1.920   1.794 -0.0302  0.0980 -0.3244
 5580TIP3    H116697   8.244   1.858   1.768 -0.3780  0.3209  0.0371
 5580TIP3    H216698   8.286   1.949   1.881  0.1304  0.7379 -0.4822
 5581TIP3   OH216699   2.098   6.543   0.996  0.0445 -0.0473 -0.2694
 5581TIP3    H116700   2.040   6.596   0.942  0.3151  0.6288  0.1010
 5581TIP3    H216701   2.066   6.453   0.983 -0.0023  0.1173 -1.4044
 5582TIP3   OH216702   7.235   4.468   6.175  0.7522 -0.0273 -0.0681
 5582TIP3    H116703   7.195   4.470   6.087 -0.8433  1.0968  0.6344
 5582TIP3    H216704   7.176   4.412   6.226  1.4450 -0.3341  0.4103
 5583TIP3   OH216705   6.337   4.118   4.253 -0.7015  0.7413  0.1037
 5583TIP3    H116706   6.354   4.126   4.347 -3.0766 -0.2731  0.7001
 5583TIP3    H216707   6.394   4.047   4.224 -1.1084 -0.0392  1.1516
 5584TIP3   OH216708   3.693   2.117   1.356 -0.3746 -0.2238  0.5898
 5584TIP3    H116709   3.690   2.191   1.416 -0.0521 -0.8451  1.3961
 5584TIP3    H216710   3.715   2.155   1.271 -0.6264  0.6450  0.9021
 5585TIP3   OH216711   4.526   5.690   5.326 -0.2708  0.0352  0.3581
 5585TIP3    H116712   4.476   5.763   5.289  0.3076  0.1772 -0.1512
 5585TIP3    H216713   4.499   5.614   5.274  1.9405  0.5463 -1.7133
 5586TIP3   OH216714   2.453   0.331   3.072 -0.0491 -0.1437  0.3743
 5586TIP3    H116715   2.418   0.344   2.984  0.2381 -1.1763  0.0839
 5586TIP3    H216716   2.484   0.417   3.099 -0.4291  0.2486 -0.4091
 5587TIP3   OH216717   7.555   1.126   6.016  0.1419 -0.0001  0.6314
 5587TIP3    H116718   7.542   1.036   5.986  0.4200  1.0478 -3.1712
 5587TIP3    H216719   7.646   1.127   6.048  0.4260 -0.8893 -0.1036
 5588TIP3   OH216720   6.913   1.580   1.636  0.0926 -0.4006  0.2661
 5588TIP3    H116721   6.860   1.532   1.700  0.1190 -0.3676  0.3128
 5588TIP3    H216722   6.979   1.517   1.607  0.5891 -0.1808  0.8725
 5589TIP3   OH216723   8.229   5.001   0.391 -0.2234 -0.3718  0.3557
 5589TIP3    H116724   8.302   5.012   0.452 -1.0408  1.2462  1.1154
 5589TIP3    H216725   8.152   4.990   0.447 -1.0986  1.8407 -0.2923
 5590TIP3   OH216726   6.181   4.302   6.653 -0.0269 -0.7520  0.4096
 5590TIP3    H116727   6.110   4.287   6.716 -0.0083 -3.2853 -0.0605
 5590TIP3    H216728   6.259   4.270   6.698  0.3561 -0.5540 -0.1087
 5591TIP3   OH216729   3.259   1.354   0.934 -0.1148  0.0945 -0.2076
 5591TIP3    H116730   3.220   1.267   0.940  0.6972 -0.2033  0.9720
 5591TIP3    H216731   3.334   1.342   0.876  0.4908 -0.1827  0.6251
 5592TIP3   OH216732   7.545   3.996   0.113  0.0610 -0.3513 -0.3150
 5592TIP3    H116733   7.504   3.945   0.182  1.1522 -1.7395 -0.6498
 5592TIP3    H216734   7.485   4.069   0.097 -0.6879 -0.5694  1.3810
 5593TIP3   OH216735   0.872   5.222   5.829  0.2228 -0.0008  0.3731
 5593TIP3    H116736   0.906   5.206   5.741  1.3786  1.5794  0.5058
 5593TIP3    H216737   0.797   5.280   5.816 -0.3635 -0.7309  0.3682
 5594TIP3   OH216738   4.491   2.095   2.230 -0.6596  0.2207  0.5395
 5594TIP3    H116739   4.563   2.108   2.292 -1.0244  0.6067  0.8904
 5594TIP3    H216740   4.482   1.999   2.225 -0.0452  0.1678  0.3964
 5595TIP3   OH216741   1.243   0.818   3.528 -0.4096 -0.3717  0.5957
 5595TIP3    H116742   1.223   0.769   3.607 -0.0059 -1.6862 -0.0911
 5595TIP3    H216743   1.302   0.762   3.479 -2.0181 -0.3982 -1.4662
 5596TIP3   OH216744   1.934   5.395   1.882  0.0963 -0.1999 -0.1420
 5596TIP3    H116745   1.885   5.425   1.958 -0.5390  0.0419 -0.6382
 5596TIP3    H216746   1.870   5.347   1.829  0.4849 -0.2116 -0.6102
 5597TIP3   OH216747   7.098   4.216   4.358 -0.5437 -0.5258 -0.0409
 5597TIP3    H116748   7.164   4.230   4.426 -0.3758  0.8358 -0.4417
 5597TIP3    H216749   7.060   4.131   4.378 -0.7082 -0.0459  1.9273
 5598TIP3   OH216750   1.403   7.265   3.687 -0.3561  0.5691  0.3974
 5598TIP3    H116751   1.489   7.273   3.646  0.3636 -0.0653  1.7118
 5598TIP3    H216752   1.391   7.170   3.698 -0.6256  0.7101  1.3975
 5599TIP3   OH216753   6.897   3.035   5.131 -0.3056  0.0042  0.1749
 5599TIP3    H116754   6.841   2.968   5.094 -0.6512  0.0100  0.6682
 5599TIP3    H216755   6.899   3.016   5.225 -1.5781  1.4911  0.5563
 5600TIP3   OH216756   6.231   2.924   6.018  0.1177  0.0667  0.9240
 5600TIP3    H116757   6.311   2.922   6.072  1.5819  1.3663 -1.0429
 5600TIP3    H216758   6.191   3.008   6.037  0.5530  0.4603  0.1553
 5601TIP3   OH216759   5.884   3.789   5.646  0.3886 -0.0383 -0.0837
 5601TIP3    H116760   5.898   3.880   5.620 -0.3780 -0.0677 -0.6558
 5601TIP3    H216761   5.962   3.742   5.616  1.3956  0.6390  1.3885
 5602TIP3   OH216762   2.084   4.253   1.779  0.1459 -0.0334 -0.3469
 5602TIP3    H116763   2.030   4.320   1.821 -1.4463 -1.2832 -0.3053
 5602TIP3    H216764   2.120   4.202   1.851 -0.6761 -0.7257 -0.4037
 5603TIP3   OH216765   1.854   7.627   2.831 -0.4597  0.3308  0.0725
 5603TIP3    H116766   1.901   7.582   2.761  1.5102 -1.4321  2.3531
 5603TIP3    H216767   1.892   7.714   2.835  1.3305 -0.4234  0.5846
 5604TIP3   OH216768   7.166   4.757   3.581 -0.2683 -0.2166 -0.1991
 5604TIP3    H116769   7.242   4.701   3.596 -0.1109  0.3150  1.0768
 5604TIP3    H216770   7.168   4.821   3.652 -0.6424  1.2052 -1.4128
 5605TIP3   OH216771   3.658   3.236   5.307  0.2267  0.1137  0.1703
 5605TIP3    H116772   3.569   3.236   5.273  0.4015  0.0771 -0.2909
 5605TIP3    H216773   3.682   3.144   5.310  0.8775  0.1938 -1.3950
 5606TIP3   OH216774   4.690   3.179   3.509 -0.0706 -0.0646  0.9077
 5606TIP3    H116775   4.669   3.225   3.591  1.7907 -0.1032  1.4374
 5606TIP3    H216776   4.653   3.092   3.521  1.7352 -0.6798  2.5302
 5607TIP3   OH216777   2.457   6.362   0.678 -0.3308  0.1844 -0.0433
 5607TIP3    H116778   2.396   6.305   0.725 -1.5145  0.5570 -1.0515
 5607TIP3    H216779   2.540   6.352   0.724 -0.4344 -2.4752 -0.2843
 5608TIP3   OH216780   1.932   5.737   6.150  0.8017 -0.0702  0.2928
 5608TIP3    H116781   1.994   5.776   6.088  0.7732 -0.3283  0.0992
 5608TIP3    H216782   1.871   5.808   6.171  0.1115 -0.2785 -0.8803
 5609TIP3   OH216783   6.732   4.696   2.728  0.0187 -0.0782  0.4767
 5609TIP3    H116784   6.734   4.616   2.780  0.2774 -0.8049 -0.6398
 5609TIP3    H216785   6.640   4.707   2.703  0.4120 -1.8512 -2.0951
 5610TIP3   OH216786   7.491   4.991   1.040  0.8031 -0.7083 -0.1757
 5610TIP3    H116787   7.579   5.008   1.005  0.6202 -1.1724 -0.9052
 5610TIP3    H216788   7.437   4.976   0.962  0.4580 -2.1950  0.3037
 5611TIP3   OH216789   8.154   1.115   0.366 -0.1878 -0.4286 -0.2511
 5611TIP3    H116790   8.061   1.132   0.379 -0.3295 -1.8896  0.8613
 5611TIP3    H216791   8.156   1.035   0.313  0.4503  0.3288 -1.4158
 5612TIP3   OH216792   0.950   7.807   3.501  0.1948 -0.3508 -0.2680
 5612TIP3    H116793   0.933   7.839   3.590  0.1544 -0.3847 -0.2636
 5612TIP3    H216794   1.013   7.869   3.465 -2.0671  1.4914 -1.3104
 5613TIP3   OH216795   8.275   1.609   0.304 -0.1635 -0.2061  0.0026
 5613TIP3    H116796   8.241   1.525   0.271  1.3218 -0.4117 -1.1029
 5613TIP3    H216797   8.356   1.585   0.349  0.0603  0.5932  0.0260
 5614TIP3   OH216798   3.428   5.952   5.402  0.6201  0.1345 -0.2775
 5614TIP3    H116799   3.434   5.857   5.417 -0.5310 -0.0161 -0.6606
 5614TIP3    H216800   3.477   5.966   5.322  0.3281 -0.2325 -0.5261
 5615TIP3   OH216801   4.336   1.599   6.545  0.6480  0.4384  0.2455
 5615TIP3    H116802   4.262   1.629   6.598  0.4371  0.2549  0.0584
 5615TIP3    H216803   4.397   1.560   6.608  0.5938  0.6019  0.4013
 5616TIP3   OH216804   4.449   1.219   5.978 -0.6534 -0.2350  0.3410
 5616TIP3    H116805   4.399   1.269   6.043 -0.9355 -0.8486  0.6091
 5616TIP3    H216806   4.489   1.285   5.922 -2.4166  0.3011 -0.3763
 5617TIP3   OH216807   3.629   1.569   6.334  0.0521 -0.2409 -0.3309
 5617TIP3    H116808   3.639   1.617   6.416 -0.2907 -1.8558  0.6950
 5617TIP3    H216809   3.541   1.589   6.304 -0.2673 -0.6001  0.3501
 5618TIP3   OH216810   1.222   7.387   5.387  1.0126 -0.4656 -0.1235
 5618TIP3    H116811   1.178   7.353   5.309  2.2188 -0.5951 -0.7750
 5618TIP3    H216812   1.242   7.478   5.365  0.1875 -0.1003  0.5678
 5619TIP3   OH216813   2.314   0.958   4.049  0.5639  0.0247 -0.3947
 5619TIP3    H116814   2.282   0.875   4.014  0.8113 -0.2480  0.0263
 5619TIP3    H216815   2.380   0.986   3.985 -0.4099  0.5339 -1.2031
 5620TIP3   OH216816   6.963   7.304   2.913 -0.5407  0.3811  0.0084
 5620TIP3    H116817   7.025   7.331   2.845  0.1240  0.2350  0.5437
 5620TIP3    H216818   6.877   7.332   2.880 -0.1269  1.1174 -0.4769
 5621TIP3   OH216819   0.362   4.957   3.782  0.4494  0.6297 -0.2041
 5621TIP3    H116820   0.375   4.996   3.696 -0.9596  0.2531 -0.6166
 5621TIP3    H216821   0.428   4.888   3.787 -0.7822 -0.7742 -1.9101
 5622TIP3   OH216822   6.566   6.744   4.234 -0.0078 -0.0557 -0.9385
 5622TIP3    H116823   6.520   6.802   4.173  1.5968  0.1643 -1.9967
 5622TIP3    H216824   6.629   6.801   4.278 -2.4547  0.2916  2.5706
 5623TIP3   OH216825   6.645   7.573   3.127 -0.1553  0.1117  0.7857
 5623TIP3    H116826   6.654   7.667   3.142  0.9226  0.1859 -0.2372
 5623TIP3    H216827   6.612   7.538   3.210 -1.7432  1.5358  0.8076
 5624TIP3   OH216828   0.996   1.907   1.693  0.2742 -0.0066  0.4144
 5624TIP3    H116829   1.016   2.000   1.683  0.0443  0.1627  1.4282
 5624TIP3    H216830   0.988   1.875   1.603  0.2856  0.9657  0.0495
 5625TIP3   OH216831   7.607   5.557   4.948 -0.1533  0.4025 -0.2276
 5625TIP3    H116832   7.608   5.604   4.865 -2.6572  1.7483  0.3809
 5625TIP3    H216833   7.646   5.617   5.011 -0.5083  0.3991 -0.0012
 5626TIP3   OH216834   3.883   5.404   1.576 -0.7613 -0.4530 -0.0073
 5626TIP3    H116835   3.864   5.404   1.482 -2.2951 -0.8269  0.2630
 5626TIP3    H216836   3.874   5.312   1.602 -3.2699 -0.0203  0.9772
 5627TIP3   OH216837   3.546   5.539   1.202 -0.6715 -0.0322 -0.0173
 5627TIP3    H116838   3.577   5.577   1.284 -1.1880 -0.9682  0.6305
 5627TIP3    H216839   3.625   5.530   1.148  0.2435 -2.2530  1.5430
 5628TIP3   OH216840   5.270   3.480   0.648  0.3334  0.5138  0.1752
 5628TIP3    H116841   5.237   3.438   0.728  0.7087 -0.4195 -0.1452
 5628TIP3    H216842   5.242   3.423   0.577 -1.1282  2.0066 -0.5249
 5629TIP3   OH216843   4.078   0.069   5.847  0.0698 -0.3137 -0.1580
 5629TIP3    H116844   4.156   0.057   5.901 -0.8115 -1.5288  0.9025
 5629TIP3    H216845   4.103   0.036   5.761  0.7537 -0.6298  0.1575
 5630TIP3   OH216846   1.467   4.795   3.079 -0.2253  0.4919 -0.1010
 5630TIP3    H116847   1.418   4.866   3.119 -1.7053 -1.6044  2.1301
 5630TIP3    H216848   1.476   4.730   3.149 -0.2124 -2.1201 -2.3564
 5631TIP3   OH216849   0.187   7.358   1.372  0.0558  0.7997 -0.2773
 5631TIP3    H116850   0.116   7.402   1.418  0.2964  2.0761 -1.0726
 5631TIP3    H216851   0.264   7.373   1.427 -0.1491 -0.0336  0.2589
 5632TIP3   OH216852   6.173   0.207   5.326 -0.1027  0.0274  0.4276
 5632TIP3    H116853   6.111   0.211   5.254 -3.1150 -0.1157  2.7957
 5632TIP3    H216854   6.170   0.294   5.366  2.8008  0.6536 -0.4602
 5633TIP3   OH216855   8.218   6.049   2.805 -0.1687 -0.4370  0.1277
 5633TIP3    H116856   8.199   6.043   2.899 -0.7273 -3.1804 -0.0631
 5633TIP3    H216857   8.187   6.136   2.780 -0.1209  0.3277  2.4390
 5634TIP3   OH216858   4.679   1.817   6.046  0.9841 -0.2376 -0.1711
 5634TIP3    H116859   4.643   1.864   6.122 -1.3615  0.4880 -1.6010
 5634TIP3    H216860   4.730   1.883   5.999  0.4552 -0.0049 -0.4335
 5635TIP3   OH216861   1.130   0.999   0.779 -0.6534  0.0430  0.2103
 5635TIP3    H116862   1.071   0.924   0.790 -0.4200 -0.2942 -0.6881
 5635TIP3    H216863   1.197   0.986   0.845 -0.6485 -0.5178  0.1035
 5636TIP3   OH216864   5.971   1.229   5.280 -0.5157  0.0942 -0.3087
 5636TIP3    H116865   6.023   1.151   5.257 -0.0916  0.3258 -0.1437
 5636TIP3    H216866   5.903   1.233   5.213 -0.7393 -0.6072 -0.1330
 5637TIP3   OH216867   6.377   1.497   3.559 -0.4351  0.3297  0.0104
 5637TIP3    H116868   6.358   1.406   3.581 -1.3289  0.5142  0.0389
 5637TIP3    H216869   6.468   1.510   3.586  0.0233 -0.8402 -0.9307
 5638TIP3   OH216870   0.907   5.769   1.253  0.3849 -0.1012  0.5394
 5638TIP3    H116871   0.965   5.815   1.315  2.8483 -3.8435  1.3133
 5638TIP3    H216872   0.844   5.723   1.309 -1.6575  1.6142 -0.1947
 5639TIP3   OH216873   7.635   4.450   1.183  0.2172  0.3489  0.0691
 5639TIP3    H116874   7.707   4.488   1.134  0.7204  0.0179  0.5376
 5639TIP3    H216875   7.562   4.449   1.122  0.7307  0.2761 -0.5488
 5640TIP3   OH216876   3.989   6.574   1.218  0.2062  0.2742  0.2601
 5640TIP3    H116877   4.010   6.483   1.197 -0.3358 -0.1203  1.3330
 5640TIP3    H216878   4.066   6.624   1.190  0.2678 -0.4369 -0.8717
 5641TIP3   OH216879   0.215   3.940   6.509  0.2924 -0.6291 -0.5233
 5641TIP3    H116880   0.261   3.939   6.592  0.4430 -0.1399 -0.5935
 5641TIP3    H216881   0.149   3.871   6.516  0.2396 -0.5274  0.0367
 5642TIP3   OH216882   2.173   0.624   1.006 -0.0797 -0.3896 -0.4572
 5642TIP3    H116883   2.109   0.691   0.981 -0.2830 -0.2945  0.3080
 5642TIP3    H216884   2.210   0.655   1.088 -0.0474 -1.1245 -0.1851
 5643TIP3   OH216885   5.364   5.887   4.913  0.4814 -0.0894  0.0005
 5643TIP3    H116886   5.456   5.910   4.908  0.4606  0.1587  0.6617
 5643TIP3    H216887   5.324   5.929   4.836  0.8537  0.1139 -0.0810
 5644TIP3   OH216888   7.806   5.206   3.607  0.4097 -0.1125  0.4440
 5644TIP3    H116889   7.738   5.161   3.558 -2.1961  2.3325  1.5599
 5644TIP3    H216890   7.828   5.147   3.679  0.4752 -1.4922 -0.6778
 5645TIP3   OH216891   7.574   4.444   0.653 -0.5789  0.0598  0.3367
 5645TIP3    H116892   7.515   4.493   0.596 -1.5750 -0.8027  0.5769
 5645TIP3    H216893   7.622   4.511   0.701 -2.3884  0.8505  1.1619
 5646TIP3   OH216894   2.427   7.847   6.081 -0.2874  0.2551 -0.7032
 5646TIP3    H116895   2.365   7.869   6.150  0.1738 -2.0196  0.5457
 5646TIP3    H216896   2.392   7.768   6.041  1.0476 -0.2466 -0.9514
 5647TIP3   OH216897   2.666   6.351   3.811  0.0565  0.0943  0.3211
 5647TIP3    H116898   2.591   6.328   3.756  0.5445 -1.1638  0.1558
 5647TIP3    H216899   2.710   6.421   3.762  0.4282 -0.9360 -0.8855
 5648TIP3   OH216900   5.457   6.190   6.577 -0.7844  0.0581  0.4158
 5648TIP3    H116901   5.507   6.266   6.607 -1.5838  1.1425 -0.8887
 5648TIP3    H216902   5.524   6.125   6.555  0.0824  1.3254 -0.9084
 5649TIP3   OH216903   6.219   5.687   0.756  0.0452  0.0053  0.0521
 5649TIP3    H116904   6.276   5.737   0.814  0.6211 -1.3461  0.7015
 5649TIP3    H216905   6.176   5.623   0.813 -0.9851  0.0157 -0.6763
 5650TIP3   OH216906   3.455   0.980   6.528  0.2693  0.5273 -0.3123
 5650TIP3    H116907   3.458   1.049   6.594 -0.0419  1.2832 -1.0667
 5650TIP3    H216908   3.398   0.913   6.566 -0.3292  1.1831 -0.0283
 5651TIP3   OH216909   6.313   2.833   2.530 -0.1798 -0.1181 -0.1196
 5651TIP3    H116910   6.384   2.791   2.481 -0.7955 -1.7895  0.3613
 5651TIP3    H216911   6.276   2.897   2.468  1.2672  0.2773 -0.6081
 5652TIP3   OH216912   2.794   1.989   3.070  0.6754 -0.5204  0.4299
 5652TIP3    H116913   2.755   2.059   3.122 -0.2182 -0.5185 -0.2373
 5652TIP3    H216914   2.842   2.035   3.001  1.2066 -0.5486  0.7661
 5653TIP3   OH216915   5.244   1.976   6.681  0.0884 -1.1055 -0.1236
 5653TIP3    H116916   5.216   1.884   6.684  0.8485 -1.3397  0.0187
 5653TIP3    H216917   5.308   1.983   6.751 -1.5141  0.0810  1.2942
 5654TIP3   OH216918   0.689   4.388   4.161 -0.3194  0.1835 -0.1675
 5654TIP3    H116919   0.701   4.388   4.256 -2.8321 -2.6330  0.3270
 5654TIP3    H216920   0.600   4.355   4.148 -0.6067  1.8089 -3.5185
 5655TIP3   OH216921   1.923   2.331   1.793  0.3928 -0.4487 -0.6727
 5655TIP3    H116922   1.941   2.424   1.801 -1.3210  0.0194 -1.6481
 5655TIP3    H216923   1.908   2.318   1.699 -3.4401 -0.8073 -0.1514
 5656TIP3   OH216924   4.948   2.056   0.501 -0.0411  0.3212 -0.0347
 5656TIP3    H116925   5.035   2.091   0.516  0.3524 -0.5188 -0.3065
 5656TIP3    H216926   4.890   2.131   0.513  0.5911  0.6234  1.4183
 5657TIP3   OH216927   3.619   2.195   5.232 -0.2751 -0.2268 -0.0727
 5657TIP3    H116928   3.549   2.175   5.294 -0.1494  1.3218  0.6055
 5657TIP3    H216929   3.622   2.119   5.174 -2.6440 -0.2592 -0.2457
 5658TIP3   OH216930   0.228   6.975   1.996  0.9249 -0.1734 -0.6416
 5658TIP3    H116931   0.254   6.895   2.040 -0.1993  0.0689  0.5200
 5658TIP3    H216932   0.298   7.037   2.015 -0.6810  0.7581  3.2259
 5659TIP3   OH216933   6.430   3.203   2.320  0.3110  0.2603  0.2764
 5659TIP3    H116934   6.520   3.234   2.329  0.4967  0.2308 -1.2008
 5659TIP3    H216935   6.420   3.187   2.226 -0.1750 -2.9227  0.7509
 5660TIP3   OH216936   1.230   6.476   4.769  0.0509 -0.2159  0.7011
 5660TIP3    H116937   1.304   6.517   4.814 -1.3236  0.8391  2.1236
 5660TIP3    H216938   1.269   6.406   4.716  2.0124  0.1529  1.5819
 5661TIP3   OH216939   1.936   3.599   4.330  0.4679  0.0086 -0.3628
 5661TIP3    H116940   1.908   3.689   4.344 -0.1120 -0.1657 -0.3616
 5661TIP3    H216941   1.984   3.576   4.409 -0.6981 -0.1808  0.3170
 5662TIP3   OH216942   5.587   1.492   4.567  0.3264 -0.0457 -0.1812
 5662TIP3    H116943   5.554   1.579   4.591  0.3800  0.3515 -1.4547
 5662TIP3    H216944   5.509   1.437   4.564  0.0997  0.2996 -0.7493
 5663TIP3   OH216945   1.568   4.486   1.906 -0.1277  0.5595 -0.2533
 5663TIP3    H116946   1.625   4.512   1.833  1.2507  0.2012  0.6533
 5663TIP3    H216947   1.550   4.394   1.890  0.2870  0.4457 -0.0724
 5664TIP3   OH216948   6.321   0.410   2.703 -0.2740  0.3289  0.2825
 5664TIP3    H116949   6.250   0.412   2.639  0.8766  1.8077 -1.0255
 5664TIP3    H216950   6.376   0.336   2.677 -0.0114  0.6974 -0.2140
 5665TIP3   OH216951   8.111   2.404   2.257 -0.6907 -0.3352  0.3363
 5665TIP3    H116952   8.066   2.320   2.246 -1.6726  0.0671  1.2002
 5665TIP3    H216953   8.122   2.413   2.351  1.5567 -0.5834  0.1508
 5666TIP3   OH216954   2.760   4.827   5.922 -0.6026 -0.1483  0.2638
 5666TIP3    H116955   2.792   4.739   5.900  2.4442  0.5525  1.4766
 5666TIP3    H216956   2.733   4.821   6.013  0.6837  0.4080  0.6974
 5667TIP3   OH216957   0.062   4.625   4.108 -0.1283  0.0314 -0.1948
 5667TIP3    H116958   0.002   4.592   4.175 -0.9427  0.6769 -0.5858
 5667TIP3    H216959   0.010   4.686   4.057 -0.0989 -1.7553 -2.5652
 5668TIP3   OH216960   5.481   3.924   4.119  1.0333  0.2444  0.3415
 5668TIP3    H116961   5.567   3.966   4.114  0.7028  0.8811  0.0501
 5668TIP3    H216962   5.418   3.992   4.098  0.5093 -0.4576 -0.4273
 5669TIP3   OH216963   2.790   2.626   1.828 -0.0894 -0.1903  0.3618
 5669TIP3    H116964   2.756   2.563   1.765  1.0045  0.7201 -1.2011
 5669TIP3    H216965   2.856   2.676   1.780  1.3576  0.0411  2.4460
 5670TIP3   OH216966   4.792   6.846   0.891 -0.0393  0.2191  0.1958
 5670TIP3    H116967   4.783   6.849   0.795 -0.2388  1.4367  0.2469
 5670TIP3    H216968   4.824   6.757   0.908 -2.5247 -0.9969 -0.7913
 5671TIP3   OH216969   7.810   2.327   2.252  0.0004  0.5386  0.2705
 5671TIP3    H116970   7.805   2.248   2.305  0.9257  0.1247 -0.2296
 5671TIP3    H216971   7.765   2.305   2.170  0.3359  0.4944  0.0955
 5672TIP3   OH216972   0.674   6.229   2.782 -0.3772 -0.1062  0.4845
 5672TIP3    H116973   0.661   6.300   2.719 -0.9882 -2.3177 -2.0402
 5672TIP3    H216974   0.597   6.174   2.772 -0.2684 -0.8017  2.9128
 5673TIP3   OH216975   0.193   7.557   5.108 -0.2576  0.6099  0.1323
 5673TIP3    H116976   0.223   7.501   5.037  0.8150  0.1394  0.9140
 5673TIP3    H216977   0.114   7.513   5.141  0.3613 -0.2709  0.4963
 5674TIP3   OH216978   0.048   4.249   0.572 -0.1026  0.6922  0.5315
 5674TIP3    H116979   0.131   4.242   0.619  0.1268  3.0470  0.5797
 5674TIP3    H216980  -0.008   4.303   0.628 -1.5716 -0.5332  0.3250
 5675TIP3   OH216981   2.971   7.035   0.308  0.4613 -0.2041 -0.5634
 5675TIP3    H116982   2.989   6.988   0.389  0.9636  0.8921 -0.0202
 5675TIP3    H216983   2.905   6.981   0.263  0.6077 -1.1190  0.2916
 5676TIP3   OH216984   0.185   3.227   3.285  0.1462  0.7973  0.2673
 5676TIP3    H116985   0.093   3.234   3.257 -0.0931 -0.1399  0.7735
 5676TIP3    H216986   0.227   3.305   3.249 -0.5895  0.6386 -0.9802
 5677TIP3   OH216987   0.581   3.555   0.723 -0.2175 -0.0545  0.5488
 5677TIP3    H116988   0.542   3.477   0.684  0.2062  0.1191 -0.2670
 5677TIP3    H216989   0.632   3.594   0.651 -1.0047  1.3660  0.7153
 5678TIP3   OH216990   6.802   7.249   0.877 -0.3548 -0.2586 -0.5181
 5678TIP3    H116991   6.802   7.270   0.784 -1.6986 -2.8675 -1.1943
 5678TIP3    H216992   6.731   7.186   0.888 -0.2188 -0.0676  2.2859
 5679TIP3   OH216993   0.068   7.221   4.456 -0.3887 -0.0393 -0.4972
 5679TIP3    H116994   0.047   7.138   4.414  0.0331 -0.3291 -0.1443
 5679TIP3    H216995   0.163   7.230   4.444 -0.6606  1.2061 -2.0022
 5680TIP3   OH216996   0.735   7.648   3.760 -0.6102 -0.5017 -0.0819
 5680TIP3    H116997   0.808   7.704   3.785 -1.1402  0.4906 -0.7054
 5680TIP3    H216998   0.672   7.707   3.719 -1.7711 -1.3307  0.4461
 5681TIP3   OH216999   4.099   5.202   1.051  0.0568  0.1703 -0.0416
 5681TIP3    H117000   4.035   5.132   1.037  0.1553  0.0593  0.0622
 5681TIP3    H217001   4.178   5.171   1.007  0.1452  0.1511  0.1320
 5682TIP3   OH217002   4.564   3.110   2.383 -0.3533  0.2559  0.2498
 5682TIP3    H117003   4.654   3.126   2.413  0.7590 -2.1805 -1.4584
 5682TIP3    H217004   4.544   3.186   2.328  1.2830  0.1384 -0.5898
 5683TIP3   OH217005   1.860   4.016   4.955  0.4685 -0.4342 -0.3079
 5683TIP3    H117006   1.928   4.084   4.962  2.5817 -2.4995  1.0062
 5683TIP3    H217007   1.831   4.003   5.045 -0.7123 -0.5325 -0.6964
 5684TIP3   OH217008   7.899   1.391   4.822 -0.1464 -0.5536  0.2608
 5684TIP3    H117009   7.939   1.468   4.781  1.1514 -0.8856  0.8648
 5684TIP3    H217010   7.969   1.352   4.875 -0.5345 -2.6146 -0.6495
 5685TIP3   OH217011   0.294   4.605   4.805  0.4619 -0.2515 -0.0161
 5685TIP3    H117012   0.234   4.572   4.738  0.4621 -0.2672 -0.0085
 5685TIP3    H217013   0.346   4.529   4.831  0.5657 -0.2125 -0.1073
 5686TIP3   OH217014   4.792   6.944   1.502 -0.8332  0.0361  0.2047
 5686TIP3    H117015   4.798   7.012   1.435 -0.6627  0.2252  0.4112
 5686TIP3    H217016   4.871   6.955   1.556 -1.4344  0.5046  1.0128
 5687TIP3   OH217017   3.552   3.963   4.197 -0.2584 -0.3406  0.0718
 5687TIP3    H117018   3.572   3.910   4.274 -0.2401 -0.2255  0.1476
 5687TIP3    H217019   3.599   4.045   4.212 -0.9463  0.0164  0.3542
 5688TIP3   OH217020   6.597   7.477   3.732  0.4689  0.0533 -0.0220
 5688TIP3    H117021   6.545   7.490   3.652 -1.3753  0.5333  1.1681
 5688TIP3    H217022   6.540   7.511   3.802  1.9367 -0.5411  1.5130
 5689TIP3   OH217023   6.149   1.834   4.413  0.0742  0.7617  0.1587
 5689TIP3    H117024   6.109   1.815   4.498  0.2606  2.5965  0.6851
 5689TIP3    H217025   6.084   1.887   4.367 -0.9766 -1.9772 -1.7920
 5690TIP3   OH217026   3.584   4.711   0.478  0.0610 -0.0025 -0.0607
 5690TIP3    H117027   3.553   4.802   0.469 -1.7698 -0.5719 -0.0014
 5690TIP3    H217028   3.520   4.671   0.537  1.3686 -1.1140  0.6320
 5691TIP3   OH217029   6.592   0.463   4.719 -0.4473  0.5358 -0.3566
 5691TIP3    H117030   6.611   0.370   4.712 -3.2026 -0.2089  0.6459
 5691TIP3    H217031   6.664   0.499   4.771 -0.4765 -1.5115  1.2277
 5692TIP3   OH217032   7.991   5.335   0.058 -0.1573 -0.1069 -0.2506
 5692TIP3    H117033   8.050   5.269   0.095  0.8111  0.2998 -1.0105
 5692TIP3    H217034   7.942   5.288  -0.010  2.0121  0.3304 -2.2710
 5693TIP3   OH217035   1.131   0.051   3.848  0.0374 -0.1830  0.0110
 5693TIP3    H117036   1.176  -0.017   3.898  1.4744  0.2980 -0.5413
 5693TIP3    H217037   1.120   0.123   3.910  1.3322  0.2114 -0.1716
 5694TIP3   OH217038   6.946   7.666   5.652  0.1974 -0.0529  0.2735
 5694TIP3    H117039   7.019   7.673   5.713  0.3897  1.3710 -0.0812
 5694TIP3    H217040   6.874   7.713   5.694 -0.3956 -1.0526  0.4189
 5695TIP3   OH217041   6.931   2.848   2.165  0.2306 -0.1252  0.8313
 5695TIP3    H117042   6.996   2.822   2.100 -1.8833 -2.5715 -0.4885
 5695TIP3    H217043   6.969   2.823   2.249  1.1410 -1.1795  0.1241
 5696TIP3   OH217044   2.454   6.260   4.342  0.8483 -0.1403  0.8538
 5696TIP3    H117045   2.437   6.315   4.418  0.8840  0.0310  0.7405
 5696TIP3    H217046   2.430   6.315   4.267  3.9038  0.9617  0.5431
 5697TIP3   OH217047   7.165   2.887   4.478  0.3454 -0.1664  0.0071
 5697TIP3    H117048   7.219   2.821   4.434 -0.5134 -1.4401  0.7734
 5697TIP3    H217049   7.225   2.930   4.539  0.9418 -0.1812 -0.5610
 5698TIP3   OH217050   5.273   1.746   3.475 -0.7044 -0.5451 -0.0038
 5698TIP3    H117051   5.354   1.794   3.462  0.0141 -1.6595  0.2519
 5698TIP3    H217052   5.204   1.813   3.471  0.3408  0.6892  1.5171
 5699TIP3   OH217053   6.446   1.379   1.323 -0.0515  0.2797 -0.4809
 5699TIP3    H117054   6.447   1.328   1.242  0.6076 -0.8039  0.1937
 5699TIP3    H217055   6.530   1.424   1.324 -0.2490  0.6595 -0.6121
 5700TIP3   OH217056   1.056   3.487   0.151  0.1390 -0.0085  0.8328
 5700TIP3    H117057   1.071   3.393   0.149 -1.1575 -0.2176  0.0422
 5700TIP3    H217058   1.073   3.516   0.061  0.1526  0.4626  0.9818
 5701TIP3   OH217059   7.853   4.666   2.650 -0.0139 -0.2715 -0.8905
 5701TIP3    H117060   7.766   4.626   2.650  0.3136 -1.0234 -1.6281
 5701TIP3    H217061   7.913   4.592   2.657  0.6219  0.0200 -2.6623
 5702TIP3   OH217062   2.346   7.540   4.119  0.3789  0.6347 -0.1178
 5702TIP3    H117063   2.409   7.580   4.179  2.7340  0.7497 -2.5042
 5702TIP3    H217064   2.261   7.550   4.164  1.9501  0.5207  3.2248
 5703TIP3   OH217065   1.385   6.982   3.687  0.0755 -0.1804 -0.3391
 5703TIP3    H117066   1.434   6.900   3.694  1.3068  0.6771  2.7565
 5703TIP3    H217067   1.356   6.985   3.596  2.5453 -2.5977 -1.3394
 5704TIP3   OH217068   2.516   0.664   1.184  0.0436  0.2226 -0.4900
 5704TIP3    H117069   2.520   0.653   1.089  0.6168 -0.5464 -0.3909
 5704TIP3    H217070   2.425   0.688   1.202 -0.8073 -2.3351 -0.9946
 5705TIP3   OH217071   2.335   1.962   1.268 -0.1781  0.3932  0.4692
 5705TIP3    H117072   2.289   1.968   1.352  1.4105 -0.4600  1.4341
 5705TIP3    H217073   2.321   1.871   1.240 -0.8218  0.7119 -0.2873
 5706TIP3   OH217074   7.332   0.445   6.425  0.0462 -0.0196 -0.4622
 5706TIP3    H117075   7.339   0.452   6.329  0.1761 -0.1354 -0.4608
 5706TIP3    H217076   7.238   0.433   6.440  0.1423 -1.0445 -0.6475
 5707TIP3   OH217077   0.312   4.778   6.489  0.4229  0.1666  0.0543
 5707TIP3    H117078   0.320   4.808   6.580 -0.1158  1.8753 -0.4361
 5707TIP3    H217079   0.400   4.751   6.465  0.1952 -2.5431  1.7684
 5708TIP3   OH217080   6.594   4.273   2.381  0.0649 -0.4004 -0.4181
 5708TIP3    H117081   6.645   4.258   2.460  2.2401 -0.6346 -1.7898
 5708TIP3    H217082   6.503   4.264   2.409  0.6262  1.3588  2.4480
 5709TIP3   OH217083   7.698   5.226   0.522  0.1821 -0.2724 -0.3041
 5709TIP3    H117084   7.703   5.284   0.446  1.3406  1.1463  0.8087
 5709TIP3    H217085   7.605   5.224   0.544  0.0503  0.7075 -0.7114
 5710TIP3   OH217086   2.122   5.230   1.066 -0.1355 -0.5477  0.1937
 5710TIP3    H117087   2.108   5.198   0.977 -1.3438  0.2819  0.0692
 5710TIP3    H217088   2.068   5.173   1.121  0.9370 -1.3322  0.4741
 5711TIP3   OH217089   1.539   2.628   6.114 -0.0858  0.1530 -0.3996
 5711TIP3    H117090   1.633   2.639   6.101  0.3339  0.2450  2.1352
 5711TIP3    H217091   1.499   2.661   6.034  1.9742  1.8121 -0.8225
 5712TIP3   OH217092   1.399   4.154   0.333  0.0388  0.0952 -0.5987
 5712TIP3    H117093   1.425   4.197   0.252  0.6987 -3.3700 -2.4435
 5712TIP3    H217094   1.469   4.177   0.395  0.8498  0.8503 -1.7449
 5713TIP3   OH217095   3.199   3.064   0.553  0.5512  0.0171  0.3324
 5713TIP3    H117096   3.219   2.973   0.576 -1.8402 -0.4916  0.6926
 5713TIP3    H217097   3.134   3.091   0.619 -3.3461 -0.0501 -3.0744
 5714TIP3   OH217098   2.944   4.269   0.030 -0.1091  0.3140  0.1084
 5714TIP3    H117099   2.977   4.245  -0.056 -0.4177  2.2207 -0.6003
 5714TIP3    H217100   2.929   4.186   0.075  0.3103 -0.7067 -1.5741
 5715TIP3   OH217101   6.273   3.577   1.157 -0.0761  0.4063  0.2042
 5715TIP3    H117102   6.368   3.572   1.168 -0.1509 -0.3439  0.5146
 5715TIP3    H217103   6.258   3.668   1.130  0.6487  0.7673  0.9490
 5716TIP3   OH217104   4.225   6.382   0.073 -0.1218  0.1663 -0.1726
 5716TIP3    H117105   4.191   6.366  -0.015  0.2416 -0.6484 -0.1701
 5716TIP3    H217106   4.319   6.366   0.067  0.2015  1.8471 -0.0395
 5717TIP3   OH217107   2.189   1.378   5.579 -0.1940 -0.3519 -0.7069
 5717TIP3    H117108   2.096   1.356   5.590 -0.1529 -0.2409 -0.0641
 5717TIP3    H217109   2.190   1.473   5.570 -0.1717 -0.3866 -1.0676
 5718TIP3   OH217110   1.361   7.098   2.549  0.8873 -0.3986 -0.4352
 5718TIP3    H117111   1.405   7.129   2.470 -1.6639  1.6169 -1.2155
 5718TIP3    H217112   1.364   7.002   2.541  0.8307 -0.2715 -2.9566
 5719TIP3   OH217113   4.575   1.421   6.704 -0.1503 -0.6842  0.2503
 5719TIP3    H117114   4.557   1.466   6.786 -1.1621 -0.6912  0.0438
 5719TIP3    H217115   4.668   1.437   6.688 -0.1032 -0.1109  1.0443
 5720TIP3   OH217116   4.713   6.547   5.008  0.1593  0.2844 -0.6770
 5720TIP3    H117117   4.617   6.544   5.009  0.1476  0.4094 -1.0251
 5720TIP3    H217118   4.740   6.457   4.990  0.1817 -0.2452  1.7454
 5721TIP3   OH217119   4.368   6.509   3.758 -0.0016 -0.0147 -0.5783
 5721TIP3    H117120   4.280   6.541   3.742  0.0248 -0.2750 -1.3196
 5721TIP3    H217121   4.404   6.567   3.825 -0.7501  0.0617 -0.2403
 5722TIP3   OH217122   5.321   0.956   0.530 -0.3202  0.0141 -0.2942
 5722TIP3    H117123   5.351   1.004   0.453  0.1613  1.0805  0.5257
 5722TIP3    H217124   5.252   1.011   0.568  0.3135  0.1353  0.7201
 5723TIP3   OH217125   7.670   4.415   0.167  0.2197  0.1684 -0.3117
 5723TIP3    H117126   7.753   4.402   0.213 -0.0663  0.3158  0.2596
 5723TIP3    H217127   7.605   4.371   0.222 -0.5045  2.3389  0.7096
 5724TIP3   OH217128   7.145   3.885   5.985  0.8299  0.4745 -0.3110
 5724TIP3    H117129   7.208   3.869   5.915 -0.4489  3.0270 -2.1932
 5724TIP3    H217130   7.078   3.818   5.973  1.0780  0.3372 -0.9539
 5725TIP3   OH217131   1.967   1.708   6.706 -0.1469  0.1870 -0.3923
 5725TIP3    H117132   1.903   1.690   6.638 -2.2729 -1.4885  1.8668
 5725TIP3    H217133   1.915   1.735   6.782  1.8136 -0.7008  1.3916
 5726TIP3   OH217134   5.125   4.991   2.744 -0.1434  0.4913 -0.5579
 5726TIP3    H117135   5.098   4.922   2.804 -1.0460 -0.9443 -2.5134
 5726TIP3    H217136   5.193   5.039   2.792  0.4782 -1.7025  0.9122
 5727TIP3   OH217137   1.210   5.511   4.910 -0.8988 -0.2221  0.1357
 5727TIP3    H117138   1.201   5.518   5.005 -2.7877 -1.0296  0.0696
 5727TIP3    H217139   1.210   5.601   4.879  0.4911  0.0794  0.9250
 5728TIP3   OH217140   0.834   6.660   2.932  0.3646  0.1204 -0.3370
 5728TIP3    H117141   0.866   6.749   2.920 -1.7398  1.0000  0.0397
 5728TIP3    H217142   0.909   6.612   2.967  1.2345  2.0294  0.5650
 5729TIP3   OH217143   8.273   2.985   6.370 -0.7145 -0.6286  0.0458
 5729TIP3    H117144   8.369   2.985   6.365 -0.6267 -1.4667  1.3597
 5729TIP3    H217145   8.245   2.942   6.290 -0.0247  0.1886 -0.6581
 5730TIP3   OH217146   2.327   1.366   1.343 -0.1852 -0.4108 -0.2668
 5730TIP3    H117147   2.258   1.414   1.297  2.0373  0.1392 -3.3468
 5730TIP3    H217148   2.373   1.434   1.394 -1.5816 -0.7235  1.5201
 5731TIP3   OH217149   4.290   7.783   0.565  0.3781  0.4436 -0.5820
 5731TIP3    H117150   4.211   7.733   0.543  1.0769 -0.8955 -0.1569
 5731TIP3    H217151   4.257   7.860   0.610 -0.7240  0.1726 -0.8889
 5732TIP3   OH217152   7.536   3.467   5.223 -0.0687 -0.0614  0.0784
 5732TIP3    H117153   7.568   3.393   5.274  0.7085  0.1308 -0.1183
 5732TIP3    H217154   7.477   3.429   5.159 -1.6009 -0.2372  1.5401
 5733TIP3   OH217155   6.744   1.611   6.018  0.1492 -0.3392  0.0339
 5733TIP3    H117156   6.691   1.690   6.005  1.9027  0.9657  0.5546
 5733TIP3    H217157   6.756   1.576   5.930  0.7715  0.9370 -0.4072
 5734TIP3   OH217158   0.322   3.346   0.974  0.1685 -0.0682 -0.3328
 5734TIP3    H117159   0.412   3.376   0.982  0.8773 -2.0164 -0.5530
 5734TIP3    H217160   0.289   3.342   1.064  0.8900 -0.9871 -0.0968
 5735TIP3   OH217161   3.988   1.817   1.917 -0.4462  0.1087  0.0884
 5735TIP3    H117162   3.957   1.805   2.007 -0.5831  0.9097  0.1604
 5735TIP3    H217163   3.945   1.897   1.888  0.9756  0.8506 -0.0624
 5736TIP3   OH217164   3.133   4.695   2.305  0.6705 -0.6997 -0.2740
 5736TIP3    H117165   3.185   4.773   2.327 -0.2538  0.1737 -1.0949
 5736TIP3    H217166   3.047   4.712   2.342  0.6535 -1.6657  0.1579
 5737TIP3   OH217167   0.943   4.867   4.847  0.0825  0.1151 -0.0910
 5737TIP3    H117168   1.036   4.879   4.868  0.1146 -0.0925 -0.1076
 5737TIP3    H217169   0.937   4.776   4.817  0.0681  0.4601 -1.1771
 5738TIP3   OH217170   0.926   7.780   3.049  0.0597 -0.3015  0.0841
 5738TIP3    H117171   1.001   7.738   3.091 -0.5295 -2.5580 -0.9576
 5738TIP3    H217172   0.866   7.708   3.028 -2.3423  1.3795  0.6756
 5739TIP3   OH217173   4.177   4.535   3.967 -0.2186 -0.0624  0.3507
 5739TIP3    H117174   4.230   4.555   3.890 -2.3770  1.4763 -0.8231
 5739TIP3    H217175   4.087   4.533   3.935 -0.9910 -2.1397  2.3470
 5740TIP3   OH217176   0.455   1.536   5.466  0.1168  0.1716 -0.0615
 5740TIP3    H117177   0.510   1.465   5.433  0.6313  0.0503  1.0036
 5740TIP3    H217178   0.500   1.616   5.439 -0.3436  0.1111 -1.0645
 5741TIP3   OH217179   3.515   1.095   0.959  0.5488 -0.2976  0.2935
 5741TIP3    H117180   3.513   1.185   0.928  0.4949 -0.8598 -1.4416
 5741TIP3    H217181   3.540   1.102   1.052 -1.1203  1.5715  0.6587
 5742TIP3   OH217182   2.806   3.823   3.948 -0.4442  0.2872  0.0717
 5742TIP3    H117183   2.780   3.860   4.032 -1.1049  1.2977 -0.5537
 5742TIP3    H217184   2.767   3.735   3.947  1.9578 -0.9038  1.9808
 5743TIP3   OH217185   3.182   4.504   1.977  0.5770  0.3138 -0.0422
 5743TIP3    H117186   3.105   4.547   2.015  0.3667 -1.1704  1.3578
 5743TIP3    H217187   3.245   4.575   1.965 -0.0138  1.1489  1.4526
 5744TIP3   OH217188   1.463   2.143   1.661  0.1782  0.2229 -0.2710
 5744TIP3    H117189   1.463   2.051   1.635 -1.4954 -0.2768  1.3147
 5744TIP3    H217190   1.388   2.152   1.719  1.2259  2.2286  0.9050
 5745TIP3   OH217191   2.562   2.004   6.173  0.8526 -0.0277  0.0020
 5745TIP3    H117192   2.552   2.090   6.214  0.6956  1.8042 -3.5282
 5745TIP3    H217193   2.657   1.992   6.165  0.8663 -0.0948  0.2353
 5746TIP3   OH217194   5.728   5.622   1.069 -0.3877  0.1718  0.2482
 5746TIP3    H117195   5.676   5.699   1.046  0.8189  0.7248 -0.7622
 5746TIP3    H217196   5.768   5.594   0.987  1.6942  0.3754  1.1187
 5747TIP3   OH217197   6.063   3.664   5.165 -0.1286 -0.5718 -0.1936
 5747TIP3    H117198   6.141   3.615   5.190  0.6851  1.3437  1.3043
 5747TIP3    H217199   6.049   3.725   5.237 -1.8367  0.4990 -1.3586
 5748TIP3   OH217200   6.612   5.163   4.729 -0.3734  0.1907  0.0731
 5748TIP3    H117201   6.600   5.122   4.814  1.4466  0.1022  0.3185
 5748TIP3    H217202   6.525   5.162   4.689 -1.0626 -0.6039  1.5412
 5749TIP3   OH217203   3.703   1.561   2.000 -0.2713 -0.1339 -0.3287
 5749TIP3    H117204   3.730   1.555   2.092 -2.3077  0.9459  0.4033
 5749TIP3    H217205   3.644   1.636   1.997  0.2266  0.2360 -2.6787
 5750TIP3   OH217206   6.399   6.740   0.177 -0.1137 -0.5234  0.1402
 5750TIP3    H117207   6.431   6.690   0.252  1.3427  0.3545  0.1589
 5750TIP3    H217208   6.424   6.831   0.197 -1.9782  0.1192 -0.2458
 5751TIP3   OH217209   3.213   0.531   3.365  0.2997  0.1981  0.5063
 5751TIP3    H117210   3.207   0.447   3.410 -0.3020 -0.1664 -0.2316
 5751TIP3    H217211   3.300   0.564   3.388  0.4445 -0.5064  1.0052
 5752TIP3   OH217212   5.715   1.216   2.084  0.5907  0.0780  0.4440
 5752TIP3    H117213   5.692   1.259   2.002  1.6411  0.2117  0.1974
 5752TIP3    H217214   5.693   1.124   2.071  0.0103  0.2350  0.3092
 5753TIP3   OH217215   1.391   1.740   5.436  0.5391 -0.1107  0.2578
 5753TIP3    H117216   1.462   1.754   5.372 -0.0065  0.8288 -0.1695
 5753TIP3    H217217   1.408   1.653   5.472  0.0464 -1.3441 -2.2293
 5754TIP3   OH217218   4.943   2.194   1.862  0.5522  0.4185 -0.0158
 5754TIP3    H117219   4.942   2.278   1.816  0.3279  1.1650  1.3022
 5754TIP3    H217220   5.016   2.202   1.924 -1.2706  0.8094  2.1740
 5755TIP3   OH217221   7.105   4.725   6.239  0.3872  0.4767  0.0227
 5755TIP3    H117222   7.156   4.652   6.272 -0.6387 -0.4673 -0.4298
 5755TIP3    H217223   7.067   4.765   6.316 -0.4884 -0.5750  0.1573
 5756TIP3   OH217224   6.186   7.676   4.271  0.1523  0.0072  0.8427
 5756TIP3    H117225   6.109   7.731   4.253  0.6052  0.4114  0.0713
 5756TIP3    H217226   6.260   7.727   4.236  0.6191 -0.9423  0.4181
 5757TIP3   OH217227   1.225   4.524   1.445 -0.1719 -0.3335  0.5693
 5757TIP3    H117228   1.163   4.482   1.504 -0.2764  0.6232  1.1663
 5757TIP3    H217229   1.302   4.466   1.446 -0.6156 -0.9263  0.7206
 5758TIP3   OH217230   1.910   6.025   2.664  0.0208  0.6010  0.9007
 5758TIP3    H117231   1.994   6.042   2.622 -0.1662 -1.6094 -0.5050
 5758TIP3    H217232   1.849   6.010   2.592 -1.0211 -0.2468  1.9193
 5759TIP3   OH217233   6.335   0.492   3.119 -0.4742  0.0562  0.0869
 5759TIP3    H117234   6.312   0.506   3.211  1.5603 -1.8936  0.9969
 5759TIP3    H217235   6.416   0.441   3.122 -0.0067  0.4358 -2.8135
 5760TIP3   OH217236   3.571   6.933   2.450  0.3557 -0.0851 -0.1425
 5760TIP3    H117237   3.640   6.882   2.491  0.1428  0.2179  0.6130
 5760TIP3    H217238   3.507   6.868   2.422 -1.0644 -0.1863  2.9322
 5761TIP3   OH217239   6.654  -0.010   5.474  0.0622 -0.2005  0.0097
 5761TIP3    H117240   6.657   0.077   5.515  0.9106 -0.0462 -0.3732
 5761TIP3    H217241   6.657   0.007   5.380 -0.5898 -0.6148 -0.0944
 5762TIP3   OH217242   6.427   5.148   5.245  0.1481 -0.2010 -0.0710
 5762TIP3    H117243   6.470   5.233   5.255 -0.9921  0.3675  0.1931
 5762TIP3    H217244   6.485   5.086   5.290  2.1169  0.0315 -2.0931
 5763TIP3   OH217245   8.090   2.018   0.052 -0.2864  0.1017  0.0820
 5763TIP3    H117246   8.135   1.934   0.059  1.1648  0.9294  1.0427
 5763TIP3    H217247   8.082   2.033  -0.043 -0.0655 -0.8455 -0.0968
 5764TIP3   OH217248   8.206   4.578   4.896  0.5187 -0.2873 -0.7444
 5764TIP3    H117249   8.204   4.528   4.978  1.6476  1.7366  0.5933
 5764TIP3    H217250   8.278   4.539   4.846  0.1055 -1.2563 -0.6145
 5765TIP3   OH217251   0.479   7.356   6.342 -0.7326  0.3145 -0.5181
 5765TIP3    H117252   0.511   7.365   6.252 -0.0238 -1.0920 -0.4389
 5765TIP3    H217253   0.514   7.272   6.372 -1.9125  0.2083  0.6843
 5766TIP3   OH217254   3.421   7.686   3.775  0.5864 -0.3062 -0.1431
 5766TIP3    H117255   3.394   7.776   3.796  4.4922  0.6339  1.7323
 5766TIP3    H217256   3.397   7.636   3.853 -0.4326 -0.6652 -0.6686
 5767TIP3   OH217257   4.638   5.845   4.974  0.0858  0.1393 -0.6595
 5767TIP3    H117258   4.662   5.894   4.896 -0.9590  1.6129 -0.0930
 5767TIP3    H217259   4.585   5.772   4.942  0.0448  0.4738 -1.3536
 5768TIP3   OH217260   5.565   2.633   2.168 -0.4203 -0.0870  0.0934
 5768TIP3    H117261   5.596   2.632   2.259 -0.1670 -0.6985  0.0016
 5768TIP3    H217262   5.601   2.554   2.129 -1.0017 -0.1214 -0.3858
 5769TIP3   OH217263   7.925   1.009   5.836 -0.3185 -0.1351 -0.3689
 5769TIP3    H117264   7.937   0.914   5.841  0.6078  0.0568  2.3615
 5769TIP3    H217265   7.870   1.030   5.911  0.1462  1.5915 -0.4760
 5770TIP3   OH217266   5.705   1.767   6.254 -0.6278  0.3042  0.6188
 5770TIP3    H117267   5.754   1.821   6.192 -1.6662 -0.4175 -0.8828
 5770TIP3    H217268   5.615   1.801   6.250 -0.9365 -0.4572  0.8850
 5771TIP3   OH217269   1.725   3.195   6.033  0.0597  0.2023 -0.3346
 5771TIP3    H117270   1.667   3.244   6.091 -1.2276  1.9868 -2.9015
 5771TIP3    H217271   1.669   3.127   5.996  0.9793 -1.1894  0.7529
 5772TIP3   OH217272   5.927   7.288   5.839  0.4822  0.3308  0.2691
 5772TIP3    H117273   5.930   7.380   5.812  0.3395  0.0407 -0.8176
 5772TIP3    H217274   5.958   7.288   5.929  1.9658  1.2643 -0.2004
 5773TIP3   OH217275   4.856   7.638   3.868 -0.2483 -0.0553 -0.2252
 5773TIP3    H117276   4.840   7.707   3.932 -0.1439 -2.2167  2.2485
 5773TIP3    H217277   4.770   7.618   3.831 -0.1314  2.1180 -1.9062
 5774TIP3   OH217278   1.835   0.043   2.987  0.5348  0.3987  0.4030
 5774TIP3    H117279   1.906   0.011   2.932  0.6947 -0.3460  1.0245
 5774TIP3    H217280   1.863   0.129   3.016  0.6754  0.5799 -0.2663
 5775TIP3   OH217281   7.377   2.111   4.995  0.1882  0.3706 -0.2601
 5775TIP3    H117282   7.406   2.107   5.086  1.8166  3.0123 -0.5559
 5775TIP3    H217283   7.292   2.155   4.999 -1.4945 -2.6644  0.1696
 5776TIP3   OH217284   6.006   5.280   5.357  0.0971 -0.2746  0.1356
 5776TIP3    H117285   5.988   5.187   5.339  0.9162 -0.0159 -2.3163
 5776TIP3    H217286   6.095   5.294   5.325 -0.7031  1.7858 -1.3983
 5777TIP3   OH217287   0.456   2.653   4.782  0.4023 -0.6489  0.3922
 5777TIP3    H117288   0.364   2.663   4.806  0.4593  0.1252  0.2952
 5777TIP3    H217289   0.501   2.635   4.865 -0.1098 -3.2594  0.2012
 5778TIP3   OH217290   0.182   0.327   2.386 -0.3047  0.0993 -0.6391
 5778TIP3    H117291   0.270   0.310   2.420 -0.1600  0.5462 -0.7876
 5778TIP3    H217292   0.137   0.242   2.394  0.4398 -0.3977 -1.4815
 5779TIP3   OH217293   3.215   5.073   3.941 -0.6852 -0.3182  0.0523
 5779TIP3    H117294   3.207   4.992   3.890 -0.9771 -0.7825  0.8202
 5779TIP3    H217295   3.231   5.141   3.875 -0.0884 -1.0450 -0.5724
 5780TIP3   OH217296   3.416   0.125   6.220 -0.3942 -0.1102  0.5701
 5780TIP3    H117297   3.389   0.113   6.129 -0.3980 -0.9592  0.6689
 5780TIP3    H217298   3.485   0.060   6.233 -0.2198  0.1705  1.1039
 5781TIP3   OH217299   2.293   6.405   2.187 -0.3715  0.2190 -0.0953
 5781TIP3    H117300   2.320   6.493   2.212  1.2649 -0.2231 -0.1851
 5781TIP3    H217301   2.330   6.392   2.099  0.6577 -1.0368  0.4766
 5782TIP3   OH217302   5.374   3.789   6.073  0.2561  0.1499  0.3184
 5782TIP3    H117303   5.299   3.778   6.014  0.7405 -4.2843  0.1656
 5782TIP3    H217304   5.339   3.765   6.159  1.4192 -2.1344  0.2155
 5783TIP3   OH217305   2.801   7.409   0.971  0.2938 -0.0965 -0.5724
 5783TIP3    H117306   2.730   7.347   0.984 -0.4660  1.1092  1.5638
 5783TIP3    H217307   2.835   7.426   1.059  2.3562  0.3897 -1.3875
 5784TIP3   OH217308   7.550   7.063   2.131 -0.3519 -0.0867 -0.3677
 5784TIP3    H117309   7.643   7.048   2.149 -0.2554  0.5542 -0.3214
 5784TIP3    H217310   7.505   7.027   2.207 -0.0851  0.4049  0.0329
 5785TIP3   OH217311   8.187   5.194   4.465 -0.1476 -0.0626 -0.3794
 5785TIP3    H117312   8.277   5.170   4.483 -0.3276 -1.2589 -0.9377
 5785TIP3    H217313   8.147   5.206   4.551  0.1664 -1.0503 -0.0874
 5786TIP3   OH217314   5.861   2.196   1.295 -0.1297  0.2678 -0.5504
 5786TIP3    H117315   5.841   2.210   1.203 -0.0401  0.4673 -0.5408
 5786TIP3    H217316   5.954   2.220   1.303  0.0758 -0.4817 -0.5637
 5787TIP3   OH217317   5.607   5.511   2.024  0.2777  0.3378 -0.0381
 5787TIP3    H117318   5.526   5.511   1.973 -0.3398  0.6742  0.9053
 5787TIP3    H217319   5.602   5.431   2.076  1.8969 -1.0884 -1.9936
 5788TIP3   OH217320   1.696   4.955   1.343  0.3108  0.2161 -0.4869
 5788TIP3    H117321   1.744   4.943   1.425  0.5912  3.1091 -0.1168
 5788TIP3    H217322   1.608   4.920   1.361  0.6691 -0.1332  0.6754
 5789TIP3   OH217323   2.447   6.833   5.685 -0.3379 -0.0637 -0.1750
 5789TIP3    H117324   2.537   6.801   5.692 -0.6461 -1.4858 -1.9434
 5789TIP3    H217325   2.435   6.849   5.591 -1.5854  1.1975  0.1732
 5790TIP3   OH217326   3.706   3.555   5.892  0.5063  0.0376 -0.5574
 5790TIP3    H117327   3.663   3.624   5.942 -0.5060 -0.4884 -0.6823
 5790TIP3    H217328   3.793   3.547   5.933  0.3422  0.8174 -0.0330
 5791TIP3   OH217329   7.668   1.981   4.594  0.3692  0.0909  0.4232
 5791TIP3    H117330   7.659   1.965   4.688 -0.6419 -1.9994  0.0046
 5791TIP3    H217331   7.587   2.024   4.569 -0.6370 -1.9497  0.0263
 5792TIP3   OH217332   5.181   6.484   3.474 -0.3818  0.3025  0.2117
 5792TIP3    H117333   5.147   6.427   3.406 -0.7239  0.8893 -0.1168
 5792TIP3    H217334   5.201   6.426   3.547 -1.0922 -0.1840  0.0226
 5793TIP3   OH217335   4.332   7.277   5.581  0.3139 -0.1394 -0.2686
 5793TIP3    H117336   4.407   7.223   5.559  0.8756  0.0699  0.9977
 5793TIP3    H217337   4.330   7.277   5.677 -2.2901 -1.4726 -0.2287
 5794TIP3   OH217338   0.426   2.467   0.819 -0.1628  0.4948  0.4090
 5794TIP3    H117339   0.513   2.444   0.787  1.0837  1.3334  2.9603
 5794TIP3    H217340   0.382   2.383   0.832  1.4429 -0.1505  2.0385
 5795TIP3   OH217341   8.122   1.341   4.350 -0.0437  0.5218  0.6122
 5795TIP3    H117342   8.083   1.269   4.399  0.4377  0.8251  1.4728
 5795TIP3    H217343   8.076   1.342   4.266 -0.6976 -0.1848  0.9580
 5796TIP3   OH217344   7.898   2.758   6.084 -0.2728 -0.1350 -0.0300
 5796TIP3    H117345   7.909   2.757   5.989 -0.3589  1.8499 -0.1065
 5796TIP3    H217346   7.803   2.765   6.098 -0.2142  0.2904  0.1766
 5797TIP3   OH217347   0.401   1.906   2.496  0.2743  0.5363 -0.5706
 5797TIP3    H117348   0.476   1.956   2.463  0.9640  0.0330  0.1950
 5797TIP3    H217349   0.425   1.881   2.585 -0.9171  0.5701 -0.2215
 5798TIP3   OH217350   5.008   0.808   4.645  0.1157  0.3526 -0.3938
 5798TIP3    H117351   5.042   0.898   4.640 -2.5484  1.4511 -0.1700
 5798TIP3    H217352   5.021   0.783   4.736 -3.1842  2.3709  0.8174
 5799TIP3   OH217353   0.473   5.983   5.792 -0.1787 -0.3397 -0.7789
 5799TIP3    H117354   0.524   5.902   5.799  0.6772  0.3323  1.8995
 5799TIP3    H217355   0.499   6.020   5.707  0.4884 -2.1250 -1.4059
 5800TIP3   OH217356   1.530   1.486   5.941  0.5569  0.0339 -0.1341
 5800TIP3    H117357   1.527   1.516   6.032 -0.4036  1.5852 -0.6405
 5800TIP3    H217358   1.497   1.396   5.945 -0.8552  0.5507  0.9080
 5801TIP3   OH217359   7.753   7.459   1.719 -0.0704 -0.0532  0.4028
 5801TIP3    H117360   7.763   7.439   1.626 -1.5866 -0.1433  0.2346
 5801TIP3    H217361   7.803   7.540   1.732 -0.7282  0.5548 -0.7423
 5802TIP3   OH217362   3.813   1.452   0.815  0.0797  0.2273 -0.9618
 5802TIP3    H117363   3.883   1.387   0.819  0.3542  0.5397 -0.4425
 5802TIP3    H217364   3.832   1.502   0.736  1.0276  0.9344 -0.3158
 5803TIP3   OH217365   7.077   6.076   4.470  0.6528 -0.0284 -0.1272
 5803TIP3    H117366   7.085   6.152   4.529 -1.2475  0.8941 -0.9866
 5803TIP3    H217367   7.129   6.101   4.393  1.0728 -0.1660  0.1051
 5804TIP3   OH217368   1.703   7.382   1.046  0.0766  0.0921 -0.1160
 5804TIP3    H117369   1.707   7.299   0.998 -0.5331 -0.3621  0.5917
 5804TIP3    H217370   1.617   7.380   1.089 -0.3896  1.5610 -0.9052
 5805TIP3   OH217371   2.091   0.852   2.570  0.8107  0.6465  0.6854
 5805TIP3    H117372   2.055   0.764   2.563  1.4984  0.1148  2.8760
 5805TIP3    H217373   2.052   0.901   2.498  0.4722 -1.4554 -0.6197
 5806TIP3   OH217374   4.926   4.871   0.309  0.1574 -0.4857 -0.1161
 5806TIP3    H117375   5.004   4.925   0.319 -0.6027  0.6304  0.0087
 5806TIP3    H217376   4.898   4.887   0.218 -1.0995  0.8180  0.4534
 5807TIP3   OH217377   6.332   2.543   5.039  0.8108  0.0098  0.9293
 5807TIP3    H117378   6.416   2.510   5.069  0.8617 -0.6248  0.1039
 5807TIP3    H217379   6.287   2.570   5.120  1.9592  0.7709  1.3483
 5808TIP3   OH217380   5.088   5.406   3.202 -0.0555 -0.0354 -0.7462
 5808TIP3    H117381   5.107   5.380   3.292 -1.0162 -1.2515 -0.8717
 5808TIP3    H217382   4.993   5.397   3.194 -0.1269  1.1354 -1.5719
 5809TIP3   OH217383   1.465   0.280   1.643 -0.1402 -0.0576 -0.0083
 5809TIP3    H117384   1.478   0.249   1.553 -0.4492 -0.6774  0.1567
 5809TIP3    H217385   1.548   0.322   1.665  0.8115 -1.9324  0.2090
 5810TIP3   OH217386   4.074   1.439   2.243  0.4759  0.6546 -0.1838
 5810TIP3    H117387   4.030   1.376   2.300  2.2225 -0.4570  0.0098
 5810TIP3    H217388   4.011   1.511   2.234 -1.6553 -1.1115 -0.4912
 5811TIP3   OH217389   0.171   3.106   6.042  0.1761  0.6232 -0.3806
 5811TIP3    H117390   0.184   3.039   6.109  1.4895 -0.1156 -1.3299
 5811TIP3    H217391   0.080   3.094   6.014 -0.5045  1.1690  1.4660
 5812TIP3   OH217392   3.923   1.415   1.935 -0.2827 -0.4562  0.0029
 5812TIP3    H117393   3.963   1.460   1.860  1.9188 -0.0536  1.3285
 5812TIP3    H217394   3.872   1.484   1.979  0.2579 -0.1212  0.1145
 5813TIP3   OH217395   3.606   6.531   4.827 -0.1328 -0.1299  0.3239
 5813TIP3    H117396   3.581   6.616   4.863  0.3979  0.1664 -0.0019
 5813TIP3    H217397   3.534   6.472   4.853 -1.1987  0.7072 -0.6016
 5814TIP3   OH217398   7.814   7.603   4.455  0.3887 -0.4193  0.2339
 5814TIP3    H117399   7.888   7.659   4.431  0.3055  0.0895  1.1440
 5814TIP3    H217400   7.738   7.645   4.414  0.2562  0.4116  1.3173
 5815TIP3   OH217401   3.277   2.466   5.520 -0.3107 -0.6153 -0.2890
 5815TIP3    H117402   3.272   2.412   5.441 -0.3894 -2.1538  0.7262
 5815TIP3    H217403   3.216   2.538   5.503  2.2642  1.1225 -3.0527
 5816TIP3   OH217404   1.852   1.717   6.036 -0.0177  0.8755  0.1284
 5816TIP3    H117405   1.782   1.710   6.101 -0.5578  2.1255 -0.2817
 5816TIP3    H217406   1.927   1.673   6.075 -0.5205  1.0572  1.3272
 5817TIP3   OH217407   6.293   1.998   3.816  0.2895  0.4186  0.0208
 5817TIP3    H117408   6.208   1.962   3.842  1.1388 -0.1500  2.1960
 5817TIP3    H217409   6.271   2.080   3.772 -1.4356 -0.3133 -0.5752
 5818TIP3   OH217410   7.848   3.899   3.266 -0.3655 -0.1600  0.3243
 5818TIP3    H117411   7.856   3.934   3.355 -0.6080  1.9891 -0.4411
 5818TIP3    H217412   7.937   3.903   3.230 -0.7950  2.4422 -0.6773
 5819TIP3   OH217413   0.227   0.957   2.410  0.6185  0.2014  0.1196
 5819TIP3    H117414   0.258   0.906   2.334 -0.6144 -2.1528  1.0861
 5819TIP3    H217415   0.302   0.960   2.469  0.4522 -1.3564  0.4412
 5820TIP3   OH217416   3.607   5.056   2.994  0.0473  0.0637  0.8210
 5820TIP3    H117417   3.695   5.026   3.019 -0.2279 -1.7074 -0.1304
 5820TIP3    H217418   3.621   5.113   2.919  0.3542 -1.2875 -0.1975
 5821TIP3   OH217419   2.102   7.209   5.711 -0.2296  0.1997  0.3921
 5821TIP3    H117420   2.060   7.156   5.778 -1.3039  0.2911 -0.1938
 5821TIP3    H217421   2.193   7.179   5.710 -0.4131 -0.4128  1.2672
 5822TIP3   OH217422   5.906   0.749   5.988 -0.0660 -0.0634 -0.6566
 5822TIP3    H117423   5.814   0.727   5.980 -0.0040 -0.4157 -0.4259
 5822TIP3    H217424   5.952   0.667   5.968  0.2300  0.3443 -1.7305
 5823TIP3   OH217425   5.743   0.670   6.625  0.5217  0.0793  0.5748
 5823TIP3    H117426   5.837   0.658   6.643  0.9338  1.1378 -0.6965
 5823TIP3    H217427   5.699   0.611   6.687  2.0200 -0.4628  1.1769
 5824TIP3   OH217428   7.908   6.249   5.989 -0.6149 -0.7615 -0.0030
 5824TIP3    H117429   7.902   6.269   5.896  1.2775  0.6644  0.1186
 5824TIP3    H217430   7.834   6.297   6.028  0.4104  1.3079 -0.4577
 5825TIP3   OH217431   6.328   0.129   2.412 -0.0526 -0.1882  0.8557
 5825TIP3    H117432   6.264   0.077   2.364  0.9635 -1.0428  0.3943
 5825TIP3    H217433   6.280   0.209   2.436 -1.0721 -0.4804 -0.1002
 5826TIP3   OH217434   7.721   3.353   1.806  0.2463 -0.5811  0.7019
 5826TIP3    H117435   7.690   3.438   1.840  0.8551  0.5860 -1.4657
 5826TIP3    H217436   7.666   3.337   1.730  2.1615 -0.5508 -0.7430
 5827TIP3   OH217437   2.483   0.499   6.360 -0.0724 -0.1674 -0.0190
 5827TIP3    H117438   2.538   0.493   6.281 -0.5178  1.5968 -0.5141
 5827TIP3    H217439   2.533   0.553   6.420 -1.4196  1.9864 -0.7044
 5828TIP3   OH217440   1.543   0.503   6.752  0.6027  0.2389  0.3079
 5828TIP3    H117441   1.475   0.499   6.685 -1.3824  1.4161  2.1272
 5828TIP3    H217442   1.528   0.425   6.806  0.7542  0.4539  0.6668
 5829TIP3   OH217443   7.905   5.144   3.171  0.1982 -0.5556 -0.2702
 5829TIP3    H117444   7.874   5.138   3.081 -2.1471 -0.6679  0.4773
 5829TIP3    H217445   7.833   5.186   3.218  1.4707 -0.2606  1.5167
 5830TIP3   OH217446   4.744   1.376   2.597  0.8604  0.1657  0.5297
 5830TIP3    H117447   4.712   1.386   2.507  1.6758  1.0333  0.3206
 5830TIP3    H217448   4.723   1.285   2.620  0.9423 -0.1750 -0.6617
 5831TIP3   OH217449   1.537   3.606   4.814 -0.8110 -0.1291 -0.8828
 5831TIP3    H117450   1.573   3.530   4.768  0.1029 -0.4596  0.3270
 5831TIP3    H217451   1.474   3.569   4.875  0.5557 -0.0722  0.6091
 5832TIP3   OH217452   4.599   6.411   5.992 -0.2711 -0.7663 -0.2082
 5832TIP3    H117453   4.690   6.441   5.991 -0.0931 -1.2183 -2.3185
 5832TIP3    H217454   4.592   6.357   6.071  1.4769 -1.2134 -0.3173
 5833TIP3   OH217455   5.275   6.911   3.082 -0.5671 -0.3280  0.0517
 5833TIP3    H117456   5.316   6.993   3.053  0.3185 -0.4144  1.0076
 5833TIP3    H217457   5.334   6.843   3.050  0.7034 -0.4068  2.3881
 5834TIP3   OH217458   7.233   6.433   0.354 -0.2215 -0.1761  0.5013
 5834TIP3    H117459   7.255   6.342   0.337 -2.4673 -0.2720 -2.7244
 5834TIP3    H217460   7.277   6.482   0.285 -0.4884  1.0046  1.1354
 5835TIP3   OH217461   0.559   3.350   1.939 -0.2446  0.2370 -0.2556
 5835TIP3    H117462   0.599   3.310   2.015 -1.4847 -1.3481 -0.3743
 5835TIP3    H217463   0.501   3.417   1.975  1.8082  1.9992 -0.0508
 5836TIP3   OH217464   3.224   0.742   4.027  0.2916 -0.5568 -0.7259
 5836TIP3    H117465   3.215   0.648   4.009 -0.9486 -0.3981 -1.0803
 5836TIP3    H217466   3.304   0.750   4.079  0.8958 -1.7054 -1.4434
 5837TIP3   OH217467   4.379   4.174   4.075 -0.7093  0.2561  0.3374
 5837TIP3    H117468   4.302   4.140   4.120  0.2341 -1.9050  0.4095
 5837TIP3    H217469   4.428   4.219   4.144  0.0482 -1.8580  1.2620
 5838TIP3   OH217470   5.098   3.313   4.965 -0.3679 -0.1868 -0.2393
 5838TIP3    H117471   5.037   3.341   4.897 -0.1725 -0.5524 -0.5671
 5838TIP3    H217472   5.046   3.259   5.024 -0.3748 -0.4477 -0.4850
 5839TIP3   OH217473   2.016   0.474   2.247 -0.3863  0.1936  0.2752
 5839TIP3    H117474   1.946   0.508   2.303 -0.9634 -2.1142  1.0879
 5839TIP3    H217475   1.973   0.457   2.163 -0.1073  1.3411 -0.1180
 5840TIP3   OH217476   2.192   2.133   1.516 -0.5030 -1.0156  0.4657
 5840TIP3    H117477   2.245   2.124   1.596 -1.5135 -3.0101  0.9898
 5840TIP3    H217478   2.211   2.221   1.484 -0.8837  0.3241  3.5282
 5841TIP3   OH217479   6.696   6.123   6.253 -0.5389 -0.0851  0.4272
 5841TIP3    H117480   6.698   6.027   6.248 -1.1772 -0.0869  0.1632
 5841TIP3    H217481   6.653   6.142   6.337  0.0433 -0.0202  0.7234
 5842TIP3   OH217482   4.862   7.779   3.172 -0.3292 -0.4863 -0.0338
 5842TIP3    H117483   4.791   7.714   3.167  0.3902 -1.4982  1.8425
 5842TIP3    H217484   4.845   7.838   3.099 -2.1509 -1.6515 -0.6384
 5843TIP3   OH217485   2.729   0.690   4.364 -0.1489  0.0414 -0.0135
 5843TIP3    H117486   2.765   0.766   4.318  1.1845  0.1868  1.1911
 5843TIP3    H217487   2.780   0.685   4.446 -1.3195 -1.1747  0.6811
 5844TIP3   OH217488   2.852   4.513   2.327 -0.2967 -0.6075  0.5524
 5844TIP3    H117489   2.858   4.586   2.266 -0.5206 -0.6564  0.4723
 5844TIP3    H217490   2.769   4.471   2.306 -0.4449 -0.5374  0.9853
 5845TIP3   OH217491   7.735   6.533   1.794  0.4398  0.2150  0.4816
 5845TIP3    H117492   7.784   6.520   1.713 -0.8352  0.0583 -0.2908
 5845TIP3    H217493   7.787   6.490   1.862  1.7873  0.8050 -0.1438
 5846TIP3   OH217494   0.177   0.337   3.712 -0.4053  0.0393  0.5271
 5846TIP3    H117495   0.115   0.302   3.775  1.3075 -1.4248  1.4836
 5846TIP3    H217496   0.190   0.267   3.648  0.3759  0.2588  0.4293
 5847TIP3   OH217497   7.065   7.064   1.709 -0.5251  0.1726 -0.0551
 5847TIP3    H117498   7.021   7.148   1.721 -0.1683  0.5100 -0.9989
 5847TIP3    H217499   7.157   7.087   1.699 -0.4593 -0.2939 -0.5895
 5848TIP3   OH217500   3.419   5.676   1.551 -0.4913  0.3471 -0.4488
 5848TIP3    H117501   3.474   5.598   1.549 -1.7330 -0.5493 -0.5498
 5848TIP3    H217502   3.476   5.745   1.586 -0.3106 -1.3730  3.0571
 5849TIP3   OH217503   5.217   4.521   2.522  0.3880  0.4545  0.4605
 5849TIP3    H117504   5.237   4.521   2.615 -0.9303 -0.2461  0.7659
 5849TIP3    H217505   5.279   4.458   2.484  1.2512  1.1028  0.7769
 5850TIP3   OH217506   7.564   5.706   4.704  0.1099  0.1237 -0.0409
 5850TIP3    H117507   7.530   5.688   4.617 -0.8005 -0.3222  0.3901
 5850TIP3    H217508   7.497   5.761   4.745 -0.7106 -1.7462  1.2352
 5851TIP3   OH217509   2.756   2.180   3.907 -0.1499 -0.3286  0.2629
 5851TIP3    H117510   2.673   2.211   3.942 -1.3674 -0.5002 -2.2342
 5851TIP3    H217511   2.745   2.085   3.899  1.2362 -0.6975  2.1311
 5852TIP3   OH217512   4.811   0.293   5.541  0.2075  0.3287 -0.4497
 5852TIP3    H117513   4.724   0.306   5.579 -0.1867  1.7825 -1.7759
 5852TIP3    H217514   4.794   0.268   5.450  1.1398 -2.9786  0.1354
 5853TIP3   OH217515   1.069   3.068   0.498  0.4583  0.2269 -0.6850
 5853TIP3    H117516   1.022   3.031   0.424 -0.8182 -1.1591  0.7287
 5853TIP3    H217517   1.162   3.058   0.476  0.1590 -2.5894 -1.0080
 5854TIP3   OH217518   6.202   2.809   2.073 -0.3615 -0.2903 -0.4683
 5854TIP3    H117519   6.192   2.717   2.094  0.5611 -0.8027 -2.1132
 5854TIP3    H217520   6.297   2.824   2.071 -0.4982  0.7722  0.0902
 5855TIP3   OH217521   2.077   1.037   3.695  0.2454  0.1699  0.0275
 5855TIP3    H117522   2.079   1.026   3.600  0.1186 -0.8508  0.1361
 5855TIP3    H217523   2.153   0.989   3.726  1.8075  2.6208  0.2705
 5856TIP3   OH217524   7.213   4.617   1.681  0.0141  0.2601  0.1142
 5856TIP3    H117525   7.285   4.671   1.715 -0.1666  0.3840  0.3046
 5856TIP3    H217526   7.135   4.672   1.693 -0.2540 -0.2719  0.8487
 5857TIP3   OH217527   2.397   7.536   2.407 -0.2532 -1.1515 -0.4247
 5857TIP3    H117528   2.360   7.454   2.374 -1.4269 -0.7811 -0.0619
 5857TIP3    H217529   2.350   7.604   2.359  0.5357 -0.6642 -0.5351
 5858TIP3   OH217530   4.318   2.227   5.259 -0.3090  0.1292  0.0948
 5858TIP3    H117531   4.260   2.229   5.335  1.4071 -1.2806  1.5256
 5858TIP3    H217532   4.315   2.136   5.228 -0.3190  0.4853 -1.0020
 5859TIP3   OH217533   6.715   3.998   6.227  0.0700 -0.2207  0.5492
 5859TIP3    H117534   6.735   4.041   6.311 -1.4910  3.5601 -0.7994
 5859TIP3    H217535   6.629   3.957   6.241 -0.5999  1.1536  0.6195
 5860TIP3   OH217536   2.088   2.361   3.775  0.3984 -0.0822  0.4997
 5860TIP3    H117537   2.014   2.324   3.726  1.5444  0.0995 -1.4593
 5860TIP3    H217538   2.076   2.456   3.769 -0.3101 -0.0371  2.0131
 5861TIP3   OH217539   1.195   6.740   0.164 -0.1220 -0.2343 -0.1693
 5861TIP3    H117540   1.212   6.808   0.229 -1.1003  0.6680 -0.8228
 5861TIP3    H217541   1.188   6.659   0.215  2.2453 -0.0837  0.5131
 5862TIP3   OH217542   6.054   1.033   2.142  0.3506  0.1016 -0.1848
 5862TIP3    H117543   6.017   1.105   2.090  0.0433  0.3429  0.3517
 5862TIP3    H217544   6.001   0.957   2.119  0.3904  0.1465 -0.4268
 5863TIP3   OH217545   0.721   0.603   6.615 -0.3745 -0.0130 -0.4143
 5863TIP3    H117546   0.776   0.606   6.693 -0.0249 -1.2795 -0.5906
 5863TIP3    H217547   0.768   0.545   6.555 -1.2032  0.0362 -1.1286
 5864TIP3   OH217548   4.977   7.123   1.385 -0.5435 -0.2101  0.1453
 5864TIP3    H117549   5.046   7.079   1.436 -0.6540 -0.6492 -0.0756
 5864TIP3    H217550   5.021   7.199   1.346 -0.6864  0.6656  1.6307
 5865TIP3   OH217551   1.239   1.209   3.742 -0.0658  0.0230  0.6574
 5865TIP3    H117552   1.229   1.303   3.730  1.8650  0.2820  0.7833
 5865TIP3    H217553   1.150   1.178   3.762 -0.9954  1.5668 -0.7988
 5866TIP3   OH217554   1.285   5.051   3.804 -0.2702 -0.0076 -0.0738
 5866TIP3    H117555   1.212   5.000   3.840 -0.8665  1.0113  0.2278
 5866TIP3    H217556   1.360   4.993   3.810 -1.0416 -1.0631 -0.3097
 5867TIP3   OH217557   3.580   4.230   6.741  0.7956 -0.7803  0.6629
 5867TIP3    H117558   3.569   4.315   6.698  1.2722 -0.5251  1.0366
 5867TIP3    H217559   3.556   4.166   6.674  1.6464 -0.4002 -0.0295
 5868TIP3   OH217560   0.951   2.918   0.710 -0.1061  0.2012 -0.6347
 5868TIP3    H117561   0.894   2.977   0.758 -0.7433  0.5083 -1.7269
 5868TIP3    H217562   0.971   2.964   0.628 -1.1357 -1.3167 -1.7988
 5869TIP3   OH217563   1.677   2.323   3.958 -0.1853  0.4341  0.2062
 5869TIP3    H117564   1.654   2.412   3.932 -0.1568 -0.1565 -2.0310
 5869TIP3    H217565   1.771   2.326   3.972  0.1779  0.3416 -1.9276
 5870TIP3   OH217566   2.282   2.756   6.716 -0.1635  0.0951 -0.4182
 5870TIP3    H117567   2.377   2.747   6.708 -0.2257  0.5196 -1.8383
 5870TIP3    H217568   2.248   2.667   6.709  0.0828  0.0174 -0.6112
 5871TIP3   OH217569   7.141   2.012   3.832 -0.2594 -0.0566  0.2631
 5871TIP3    H117570   7.182   1.926   3.821 -0.8932 -0.5588  1.5938
 5871TIP3    H217571   7.050   1.998   3.805 -0.5343  0.0123  1.1384
 5872TIP3   OH217572   4.046   6.183   5.006 -0.0654 -0.2475  0.1191
 5872TIP3    H117573   3.974   6.139   5.051 -0.2849  0.3745  0.4027
 5872TIP3    H217574   4.077   6.248   5.070 -0.1643  0.4197 -0.4978
 5873TIP3   OH217575   7.423   6.920   3.702  0.0819 -0.0139 -0.5616
 5873TIP3    H117576   7.391   6.992   3.649 -1.2944 -0.7789 -0.8067
 5873TIP3    H217577   7.363   6.848   3.685  0.7403 -0.8769  0.5601
 5874TIP3   OH217578   1.138   1.156   0.154 -0.1310  0.2265 -0.1489
 5874TIP3    H117579   1.070   1.131   0.216  2.2963 -0.9705  2.2304
 5874TIP3    H217580   1.215   1.174   0.208  1.5835  1.1525 -2.6926
 5875TIP3   OH217581   3.484   2.424   5.145 -0.7010 -0.1848  0.3055
 5875TIP3    H117582   3.452   2.399   5.058 -0.1595  1.2858 -0.3489
 5875TIP3    H217583   3.532   2.347   5.176  1.4274  0.1179 -1.8771
 5876TIP3   OH217584   4.310   4.530   6.487  0.6979  0.0265 -0.1242
 5876TIP3    H117585   4.390   4.529   6.540  1.0426  1.1909 -0.6061
 5876TIP3    H217586   4.273   4.617   6.502 -0.3395 -0.4057 -0.1277
 5877TIP3   OH217587   6.733   6.630   1.652 -0.0612 -0.2175 -0.2622
 5877TIP3    H117588   6.798   6.585   1.706 -0.9094 -0.5601  0.4926
 5877TIP3    H217589   6.768   6.719   1.642  0.1455 -0.1762  0.7708
 5878TIP3   OH217590   0.375   7.261   3.298 -0.5143 -0.5190  0.5289
 5878TIP3    H117591   0.368   7.344   3.345 -0.6797 -0.6658  0.7651
 5878TIP3    H217592   0.373   7.285   3.206  0.3173 -0.1885  0.5941
 5879TIP3   OH217593   5.563   7.587   3.521  0.3322  0.1271  0.1481
 5879TIP3    H117594   5.524   7.591   3.609  0.0948 -0.7350  0.0841
 5879TIP3    H217595   5.600   7.499   3.515 -3.2256 -1.4033 -2.1255
 5880TIP3   OH217596   1.692   4.517   3.827 -0.1511  0.3050  0.5180
 5880TIP3    H117597   1.781   4.548   3.813  0.7194 -2.6296 -1.3700
 5880TIP3    H217598   1.694   4.475   3.912  0.4040 -0.1409  0.2859
 5881TIP3   OH217599   4.424   7.233   5.287  0.4022  0.0695  0.6269
 5881TIP3    H117600   4.417   7.232   5.192  0.4471 -1.3785  0.6151
 5881TIP3    H217601   4.517   7.245   5.304  0.3489  0.7216  0.5158
 5882TIP3   OH217602   7.693   3.867   2.441  0.2354 -0.5509 -0.3416
 5882TIP3    H117603   7.656   3.891   2.356 -1.3710  0.3837  0.5897
 5882TIP3    H217604   7.769   3.924   2.451 -1.4257  1.7236  0.2142
 5883TIP3   OH217605   7.157   7.126   2.587  0.1059 -0.3605 -0.1832
 5883TIP3    H117606   7.089   7.105   2.651 -0.7341  1.7809 -0.2650
 5883TIP3    H217607   7.117   7.107   2.502 -0.0122 -0.1073 -0.1865
 5884TIP3   OH217608   5.695   2.254   6.425  0.0468  0.2192 -0.1076
 5884TIP3    H117609   5.762   2.197   6.388 -0.2742 -1.1435  1.2728
 5884TIP3    H217610   5.734   2.342   6.424  2.9506 -0.8266  2.8487
 5885TIP3   OH217611   1.343   7.764   1.903  0.1604 -0.3237 -0.0479
 5885TIP3    H117612   1.418   7.706   1.896 -0.3845 -1.0822  0.2304
 5885TIP3    H217613   1.267   7.708   1.888 -0.3581  0.4401 -0.4012
 5886TIP3   OH217614   4.369   1.354   6.186  0.6876  0.3318  0.2887
 5886TIP3    H117615   4.286   1.376   6.226  0.4399  2.3860 -1.1975
 5886TIP3    H217616   4.424   1.432   6.197  1.7105 -0.2411 -0.4824
 5887TIP3   OH217617   4.984   0.251   0.973 -0.8102  0.5671 -0.2795
 5887TIP3    H117618   4.988   0.181   0.907 -2.5706 -0.2548  0.4206
 5887TIP3    H217619   4.891   0.264   0.987 -0.4736  1.1605  1.6015
 5888TIP3   OH217620   7.452   0.694   2.793 -0.7033 -0.3738  0.5647
 5888TIP3    H117621   7.370   0.733   2.824 -1.2157 -0.1564 -0.9688
 5888TIP3    H217622   7.477   0.747   2.718  0.1921 -1.1841  0.2668
 5889TIP3   OH217623   2.436   7.827   4.578  0.5874  0.2486 -0.0109
 5889TIP3    H117624   2.405   7.865   4.660  1.0019 -0.5263  0.5136
 5889TIP3    H217625   2.383   7.748   4.566 -0.0133  0.7634 -0.9063
 5890TIP3   OH217626   0.282   6.821   4.492  0.5038 -0.1742  0.1185
 5890TIP3    H117627   0.239   6.863   4.566  0.8566 -0.2596  0.3735
 5890TIP3    H217628   0.294   6.730   4.519  0.4572 -0.2518 -0.1195
 5891TIP3   OH217629   4.100   5.557   5.848 -0.1781 -0.0494  0.2070
 5891TIP3    H117630   4.178   5.521   5.805 -0.5692 -2.3190  1.2975
 5891TIP3    H217631   4.035   5.564   5.777  0.0079 -1.2268 -0.0983
 5892TIP3   OH217632   2.093   7.553   4.337 -0.5343 -0.0466  0.3273
 5892TIP3    H117633   2.053   7.548   4.250  0.5028  2.1592 -0.3422
 5892TIP3    H217634   2.031   7.605   4.389 -1.0794 -1.2321  0.9144
 5893TIP3   OH217635   6.293   1.152   0.670 -0.3414  0.2183 -0.1364
 5893TIP3    H117636   6.257   1.160   0.581 -2.3334  0.6182  0.6639
 5893TIP3    H217637   6.304   1.058   0.683 -0.8862  0.1044 -0.4811
 5894TIP3   OH217638   3.652   6.860   2.099  0.3600 -0.1105  0.0260
 5894TIP3    H117639   3.676   6.892   2.012 -1.8444 -1.8408 -1.3188
 5894TIP3    H217640   3.559   6.880   2.108  0.1853 -1.3104  1.3451
 5895TIP3   OH217641   2.863   7.436   5.813  0.2451 -0.7176 -0.7251
 5895TIP3    H117642   2.900   7.406   5.896 -2.6596 -2.5910  0.0563
 5895TIP3    H217643   2.912   7.389   5.746 -0.2370 -2.6604  0.2096
 5896TIP3   OH217644   0.105   0.179   2.709  1.0746  0.0168  0.0422
 5896TIP3    H117645   0.046   0.138   2.645  3.8008 -1.8009 -1.5329
 5896TIP3    H217646   0.087   0.272   2.702 -0.9860 -0.3990 -0.9718
 5897TIP3   OH217647   8.337   2.185   4.102  0.2753  0.3173  0.7471
 5897TIP3    H117648   8.316   2.274   4.129 -0.6724 -0.3079  2.1934
 5897TIP3    H217649   8.253   2.149   4.072  0.6199 -0.1403  0.3186
 5898TIP3   OH217650   4.339   2.116   3.011 -0.0594  0.5398 -0.3982
 5898TIP3    H117651   4.300   2.192   3.054 -0.0805  0.4131 -0.1897
 5898TIP3    H217652   4.430   2.142   2.995  0.7977 -0.3722  2.2701
 5899TIP3   OH217653   1.388   6.600   1.235  0.1037  0.4262 -0.4145
 5899TIP3    H117654   1.466   6.554   1.204 -1.5793 -1.2235 -2.5174
 5899TIP3    H217655   1.360   6.653   1.161  0.0450  2.2074  0.8312
 5900TIP3   OH217656   0.358   6.580   3.402 -0.6025 -0.0834  0.1883
 5900TIP3    H117657   0.291   6.646   3.381 -0.1610 -0.1623 -1.6702
 5900TIP3    H217658   0.429   6.630   3.442 -0.2450  0.6451 -1.2657
 5901TIP3   OH217659   2.195   1.758   2.872 -0.2988  0.3012  0.1638
 5901TIP3    H117660   2.192   1.685   2.934  0.6055  0.6581  0.6503
 5901TIP3    H217661   2.175   1.835   2.925  0.8940  0.6595  0.1226
 5902TIP3   OH217662   7.615   1.986  -0.024 -0.0931  0.5124 -0.2143
 5902TIP3    H117663   7.530   1.949   0.001 -1.2256  1.1927 -2.6989
 5902TIP3    H217664   7.629   2.058   0.038 -1.2280  0.2529  0.3673
 5903TIP3   OH217665   2.471   0.673   4.588  0.0245  0.2137  0.6146
 5903TIP3    H117666   2.418   0.636   4.658  0.0429  0.8627  0.9742
 5903TIP3    H217667   2.551   0.620   4.589  1.1556  1.8014  2.8190
 5904TIP3   OH217668   7.567   1.306   5.437 -0.0661  0.1580  0.0055
 5904TIP3    H117669   7.581   1.213   5.456  0.1623  0.3925  1.0438
 5904TIP3    H217670   7.497   1.306   5.371  1.6840 -0.8395 -1.9784
 5905TIP3   OH217671   5.454   0.596   3.944 -0.0396 -0.7968 -0.4537
 5905TIP3    H117672   5.511   0.639   4.008  0.1184 -1.0091 -0.4487
 5905TIP3    H217673   5.374   0.575   3.992 -0.2059 -0.3160 -0.5124
 5906TIP3   OH217674   3.657   4.483   5.504 -0.7895  0.9277  1.2160
 5906TIP3    H117675   3.588   4.480   5.438 -0.9821  2.2906  1.3278
 5906TIP3    H217676   3.727   4.429   5.468 -1.5674  0.2281  0.7076
 5907TIP3   OH217677   5.236   0.088   5.543  0.0997  0.1503 -0.1450
 5907TIP3    H117678   5.185   0.169   5.546  1.2041  0.8989 -0.9416
 5907TIP3    H217679   5.247   0.063   5.634 -1.5089  0.0688  0.0588
 5908TIP3   OH217680   1.941   7.305   1.846 -0.0635 -0.2537 -0.4639
 5908TIP3    H117681   2.024   7.260   1.829 -0.2270 -0.2081 -1.4390
 5908TIP3    H217682   1.887   7.239   1.889 -0.7530 -1.5095 -3.0079
 5909TIP3   OH217683   6.696   4.099   4.385 -0.2426  0.5820 -0.1128
 5909TIP3    H117684   6.705   4.037   4.313 -0.6099  0.4035 -0.0112
 5909TIP3    H217685   6.662   4.179   4.344  2.4223  1.5331 -0.6255
 5910TIP3   OH217686   7.075   1.889   4.477 -0.2243 -0.3373  0.4387
 5910TIP3    H117687   7.100   1.802   4.447  0.2006 -0.4909  1.2270
 5910TIP3    H217688   7.097   1.947   4.404 -2.3816 -1.1165 -0.9290
 5911TIP3   OH217689   8.207   7.477   5.010 -0.0234 -0.3654 -0.3138
 5911TIP3    H117690   8.112   7.474   5.011 -0.2609  1.8589  3.3860
 5911TIP3    H217691   8.235   7.393   5.047 -0.5880 -0.6288 -0.4832
 5912TIP3   OH217692   0.057   5.933   2.380 -0.0265 -0.5186  0.0368
 5912TIP3    H117693   0.146   5.966   2.368 -0.0332 -0.5663 -0.1457
 5912TIP3    H217694   0.008   6.007   2.417 -0.0212 -0.3484 -0.2898
 5913TIP3   OH217695   3.840   0.288   0.311  0.0690  0.2231  0.4378
 5913TIP3    H117696   3.799   0.316   0.393 -0.6170 -0.1196  0.2207
 5913TIP3    H217697   3.790   0.211   0.284  2.2226 -1.5894  1.2917
 5914TIP3   OH217698   3.504   3.818   2.788  0.5244  1.1564 -0.0956
 5914TIP3    H117699   3.444   3.776   2.850 -0.6680  2.4552 -0.3002
 5914TIP3    H217700   3.557   3.876   2.841 -0.1469  1.8838 -0.1938
 5915TIP3   OH217701   3.135   4.127   6.313 -0.2372  0.4361  0.2519
 5915TIP3    H117702   3.130   4.168   6.399 -0.3028  0.4203  0.2556
 5915TIP3    H217703   3.092   4.042   6.324  0.7858 -0.0693  0.4968
 5916TIP3   OH217704   6.497   4.210   0.520  0.2333  0.2639 -0.1198
 5916TIP3    H117705   6.542   4.265   0.455 -1.8621  0.5489 -1.4067
 5916TIP3    H217706   6.494   4.265   0.599 -0.7452  1.5706 -1.0181
 5917TIP3   OH217707   6.418   5.034   0.313  0.3479  0.1391 -0.0123
 5917TIP3    H117708   6.423   5.070   0.224 -0.1938  0.5553  0.1297
 5917TIP3    H217709   6.335   4.987   0.315 -0.2548  1.2099  0.6812
 5918TIP3   OH217710   2.312   0.720   4.353 -0.0686  0.1539  0.3355
 5918TIP3    H117711   2.323   0.809   4.320  0.7190  0.1609  0.5864
 5918TIP3    H217712   2.382   0.711   4.419  1.1056 -1.2970 -1.0447
 5919TIP3   OH217713   7.838   6.450   1.458 -0.1208 -0.0732 -0.5834
 5919TIP3    H117714   7.877   6.500   1.530 -0.1431  1.4569 -1.5739
 5919TIP3    H217715   7.899   6.378   1.443  2.3147  2.0821 -1.8936
 5920TIP3   OH217716   4.170   7.020   3.546  0.1454 -0.1531 -0.1892
 5920TIP3    H117717   4.171   6.940   3.598 -1.1294  0.3058  0.5635
 5920TIP3    H217718   4.201   7.088   3.605 -1.2493  0.3606 -0.0212
 5921TIP3   OH217719   0.985   2.768   6.508 -0.1773 -0.2254  0.2775
 5921TIP3    H117720   0.974   2.702   6.439 -3.0643 -0.4087  0.7889
 5921TIP3    H217721   1.049   2.729   6.568  1.1209 -0.7900 -1.3883
 5922TIP3   OH217722   5.832   6.460   1.729 -0.4119 -0.9358 -0.1293
 5922TIP3    H117723   5.911   6.475   1.780 -1.1559 -0.2035  0.8497
 5922TIP3    H217724   5.787   6.388   1.774 -1.0560 -0.3079  0.2585
 5923TIP3   OH217725   7.274   2.363   1.427  0.0473  0.4700 -0.2012
 5923TIP3    H117726   7.312   2.424   1.491  0.4514 -0.3902  0.3999
 5923TIP3    H217727   7.255   2.417   1.351 -2.3305  1.9647  1.3193
 5924TIP3   OH217728   0.588   7.067   5.866  0.7166  0.2615  0.2464
 5924TIP3    H117729   0.583   7.152   5.821 -2.0340  0.3383  0.5584
 5924TIP3    H217730   0.578   7.089   5.959  0.9058 -0.3453  0.4117
 5925TIP3   OH217731   1.219   2.627   4.067  0.2921  0.2376 -0.0702
 5925TIP3    H117732   1.264   2.564   4.123  1.5270  1.4107  0.3187
 5925TIP3    H217733   1.142   2.653   4.118  0.2772 -0.2612  0.1686
 5926TIP3   OH217734   2.045   4.544   0.535 -0.0936  0.1209 -0.5409
 5926TIP3    H117735   2.091   4.467   0.566  0.1244  0.9110  1.1932
 5926TIP3    H217736   2.113   4.602   0.502 -0.1255  0.1071 -0.6310
 5927TIP3   OH217737   4.952   0.487   2.527 -0.1325  0.1780  0.4139
 5927TIP3    H117738   4.934   0.574   2.493 -1.2139  0.4829  1.7207
 5927TIP3    H217739   4.939   0.429   2.452  0.0532  1.0701 -0.3266
 5928TIP3   OH217740   0.630   4.471   1.692 -0.2202 -0.7446 -0.4375
 5928TIP3    H117741   0.631   4.554   1.644 -2.0220 -1.0152 -1.0039
 5928TIP3    H217742   0.554   4.424   1.658 -0.2285 -1.9152  1.0832
 5929TIP3   OH217743   7.070   4.011   3.840 -0.4120  0.2060  0.4223
 5929TIP3    H117744   7.068   3.923   3.801 -2.9445 -0.4468  1.7449
 5929TIP3    H217745   7.010   4.062   3.786 -0.5521  0.5202  0.8706
 5930TIP3   OH217746   0.947   3.996   3.332  0.6917 -0.1992 -0.4769
 5930TIP3    H117747   0.903   4.068   3.377 -0.5477 -0.5368 -1.1036
 5930TIP3    H217748   1.041   4.016   3.341  0.4112  0.8323  0.4085
 5931TIP3   OH217749   7.997   6.659   5.154 -0.4942 -0.1637 -0.3337
 5931TIP3    H117750   8.042   6.741   5.177 -1.7599  0.3396  0.4662
 5931TIP3    H217751   8.067   6.595   5.146  0.3902  0.6178  0.7574
 5932TIP3   OH217752   1.492   7.016   4.332  0.5714  0.3833 -0.0058
 5932TIP3    H117753   1.470   7.068   4.409 -0.6323 -0.2619  0.1093
 5932TIP3    H217754   1.455   6.929   4.351  0.3162  0.1997 -1.2696
 5933TIP3   OH217755   5.841   4.610   2.062 -0.1522 -0.3233  0.4726
 5933TIP3    H117756   5.931   4.605   2.094  0.2153  0.0436 -0.4998
 5933TIP3    H217757   5.846   4.584   1.970 -0.8549  0.8210  0.0902
 5934TIP3   OH217758   5.824   0.997   4.459 -0.1979 -0.5198 -0.1909
 5934TIP3    H117759   5.850   0.915   4.502 -0.4863 -0.1657  0.6992
 5934TIP3    H217760   5.738   1.016   4.496  0.1748  0.5503  0.1505
 5935TIP3   OH217761   0.282   2.216   5.498  0.4664  0.1357  0.1396
 5935TIP3    H117762   0.339   2.235   5.572 -0.4731  0.7502  0.7274
 5935TIP3    H217763   0.239   2.133   5.521  1.1518 -0.3566 -0.3291
 5936TIP3   OH217764   2.853   1.718   1.533  0.1808  0.2961  0.0248
 5936TIP3    H117765   2.788   1.777   1.494 -0.6104 -1.5487 -1.6503
 5936TIP3    H217766   2.937   1.748   1.498 -0.1649  0.6965 -0.4723
 5937TIP3   OH217767   1.994   5.469   1.186  0.1297 -0.0318  0.3890
 5937TIP3    H117768   1.904   5.461   1.154  0.1894 -0.4849  0.3276
 5937TIP3    H217769   2.047   5.426   1.119  0.1942 -1.5832  1.3923
 5938TIP3   OH217770   0.966   2.646   6.030  0.2130  0.8150 -0.4072
 5938TIP3    H117771   0.900   2.713   6.012 -0.5297  0.1308 -0.2818
 5938TIP3    H217772   0.987   2.610   5.944  0.5108  1.1195 -0.4606
 5939TIP3   OH217773   6.136   2.768   3.198  0.0631  0.2267 -0.2018
 5939TIP3    H117774   6.062   2.751   3.140  0.4944  0.5041 -0.8505
 5939TIP3    H217775   6.135   2.863   3.212  0.4440  0.2700 -0.4345
 5940TIP3   OH217776   4.169   4.209   1.358 -0.2959 -0.4251 -0.2260
 5940TIP3    H117777   4.253   4.194   1.401 -0.4889  1.0856  0.7720
 5940TIP3    H217778   4.105   4.161   1.411 -0.0254 -2.0261 -1.3007
 5941TIP3   OH217779   0.599   6.789   0.965 -0.2678 -0.2163  0.3682
 5941TIP3    H117780   0.655   6.823   0.896 -0.1662  1.9419  1.4472
 5941TIP3    H217781   0.652   6.722   1.008  1.5015  1.6237  1.2302
 5942TIP3   OH217782   3.580   7.324   1.869  0.4503  0.2048  0.1312
 5942TIP3    H117783   3.647   7.303   1.803  1.8515  0.3764  1.4507
 5942TIP3    H217784   3.578   7.419   1.872 -0.9885  0.2501 -0.9661
 5943TIP3   OH217785   6.654   2.831   5.901  0.3282  0.1590  0.1877
 5943TIP3    H117786   6.585   2.783   5.854  0.7259 -1.2577  0.9867
 5943TIP3    H217787   6.726   2.836   5.838 -0.2228  0.9854 -0.3937
 5944TIP3   OH217788   1.299   0.548   5.965 -0.2639 -0.1807  0.1887
 5944TIP3    H117789   1.220   0.505   5.930 -0.5037  1.5336 -1.5733
 5944TIP3    H217790   1.270   0.589   6.046 -0.9582 -0.3420  0.0345
 5945TIP3   OH217791   7.049   4.128   5.884 -0.4088 -0.2733 -0.8045
 5945TIP3    H117792   7.010   4.104   5.799 -1.8181 -0.5375 -0.1228
 5945TIP3    H217793   7.052   4.046   5.933  0.8709 -0.2157 -0.7515
 5946TIP3   OH217794   3.945   7.338   3.155  1.0030 -0.2284 -0.3129
 5946TIP3    H117795   3.972   7.251   3.185  0.9798 -0.0075  0.3657
 5946TIP3    H217796   3.944   7.392   3.235 -0.8221 -0.0683 -0.3874
 5947TIP3   OH217797   1.852   4.738   6.246 -0.1532  0.1401  0.0034
 5947TIP3    H117798   1.804   4.821   6.247 -0.6186 -0.1327  0.1674
 5947TIP3    H217799   1.926   4.753   6.305  0.3863  0.8003 -0.8085
 5948TIP3   OH217800   8.195   5.422   4.040 -0.4413  0.2886  0.0104
 5948TIP3    H117801   8.123   5.369   4.006 -1.1656  1.5098 -0.4373
 5948TIP3    H217802   8.201   5.398   4.133 -0.9925 -0.3094 -0.1021
 5949TIP3   OH217803   3.155   5.998   5.394 -0.2210 -0.6351  0.1591
 5949TIP3    H117804   3.247   5.979   5.375 -0.0309  1.9398 -1.9944
 5949TIP3    H217805   3.156   6.043   5.478  0.2479 -2.0389  0.9414
 5950TIP3   OH217806   4.226   6.007   5.631 -0.0466 -0.6450 -0.0582
 5950TIP3    H117807   4.320   5.998   5.646 -0.0100  0.4368  0.5064
 5950TIP3    H217808   4.217   6.091   5.586 -0.9106  0.4691  2.0358
 5951TIP3   OH217809   7.355   1.853   5.926 -1.0327  0.0380  0.0622
 5951TIP3    H117810   7.426   1.825   5.984  0.3685 -0.3260 -1.7224
 5951TIP3    H217811   7.318   1.930   5.969 -0.2654 -0.4026  1.5766
 5952TIP3   OH217812   0.733   1.052   2.752  0.0939  0.0497  0.1685
 5952TIP3    H117813   0.700   1.056   2.842  0.1835  0.5202  0.1834
 5952TIP3    H217814   0.747   1.144   2.728 -0.2847 -0.0482 -0.4541
 5953TIP3   OH217815   5.537   3.628   0.656  0.3282 -0.5019 -0.9228
 5953TIP3    H117816   5.465   3.648   0.715  1.0664  0.3760 -0.2887
 5953TIP3    H217817   5.551   3.534   0.665  0.2026 -0.4370  0.0477
 5954TIP3   OH217818   5.881   6.925   5.880  0.6151 -0.6872 -0.2647
 5954TIP3    H117819   5.830   6.926   5.961  0.1646 -1.8489 -0.5241
 5954TIP3    H217820   5.835   6.985   5.822  0.8962  0.0945  0.2931
 5955TIP3   OH217821   3.543   6.284   2.970  0.2829  0.4549  0.3799
 5955TIP3    H117822   3.520   6.366   2.926 -0.2273 -0.3251 -0.8312
 5955TIP3    H217823   3.609   6.310   3.034  1.6415  1.5121 -1.3557
 5956TIP3   OH217824   5.870   6.823   2.509  0.2226  0.1517 -0.2189
 5956TIP3    H117825   5.933   6.837   2.580  0.9426 -4.0169  0.2185
 5956TIP3    H217826   5.919   6.840   2.429  1.0262 -0.1911  0.1943
 5957TIP3   OH217827   1.150   6.231   6.240 -0.4749 -0.3326 -0.3875
 5957TIP3    H117828   1.089   6.285   6.190 -1.4146 -0.5974  0.4347
 5957TIP3    H217829   1.141   6.143   6.203 -0.9746 -0.4722  0.0366
 5958TIP3   OH217830   0.130   7.469   6.795 -0.2727  0.5454  0.1680
 5958TIP3    H117831   0.215   7.468   6.752 -0.0247  0.9264  0.6560
 5958TIP3    H217832   0.093   7.555   6.774 -0.2911  0.6055  0.4537
 5959TIP3   OH217833   0.358   6.235   0.230 -0.4884  1.3647 -0.4614
 5959TIP3    H117834   0.409   6.245   0.311  0.0698  0.8651 -0.7394
 5959TIP3    H217835   0.330   6.144   0.231 -0.1529  1.2509 -1.0123
 5960TIP3   OH217836   5.723   4.912   3.052 -0.3587 -0.0910  0.2068
 5960TIP3    H117837   5.734   4.975   3.123 -1.0102  0.2053  0.0451
 5960TIP3    H217838   5.651   4.856   3.080  0.9367 -1.5063  0.8759
 5961TIP3   OH217839   3.055   6.671   5.413 -0.2398 -0.1403  0.7300
 5961TIP3    H117840   3.106   6.748   5.436 -1.3677  1.3576 -1.3801
 5961TIP3    H217841   3.089   6.644   5.328 -1.2931 -0.6124  0.4390
 5962TIP3   OH217842   3.447   0.286   0.225  0.1564  0.1096 -0.2223
 5962TIP3    H117843   3.468   0.247   0.140  1.4394 -0.6844  0.4274
 5962TIP3    H217844   3.504   0.364   0.230 -0.6675  0.7413 -0.5135
 5963TIP3   OH217845   8.226   3.028   5.968 -0.8679  0.2130  0.0317
 5963TIP3    H117846   8.211   2.934   5.978  0.1564 -0.3407 -2.5719
 5963TIP3    H217847   8.139   3.068   5.972 -1.2145 -0.6644  2.2584
 5964TIP3   OH217848   0.116   3.094   5.101  0.0793  0.1156 -0.0419
 5964TIP3    H117849   0.190   3.037   5.081  0.1985  0.4702 -0.6206
 5964TIP3    H217850   0.054   3.079   5.030  0.3496  1.1101 -0.5149
 5965TIP3   OH217851   5.923   5.518   0.528 -0.6489  0.0501  0.2085
 5965TIP3    H117852   5.967   5.602   0.542 -1.5054  0.3952  0.9682
 5965TIP3    H217853   5.830   5.539   0.538 -0.8063 -1.2734  2.0114
 5966TIP3   OH217854   7.659   1.003   0.086 -0.1683 -0.0762  0.1662
 5966TIP3    H117855   7.617   0.940   0.145 -0.0052 -0.9264 -0.6207
 5966TIP3    H217856   7.598   1.077   0.084 -1.7346 -1.3280 -1.0358
 5967TIP3   OH217857   1.356   3.674   1.914 -0.4851  0.5086 -0.2228
 5967TIP3    H117858   1.336   3.724   1.993 -2.9465 -1.2867  0.4357
 5967TIP3    H217859   1.272   3.634   1.889  0.8521 -1.4463 -1.9583
 5968TIP3   OH217860   5.068   4.835   2.518  0.1387 -0.6617 -0.1461
 5968TIP3    H117861   5.157   4.800   2.515  0.9741  1.3996 -1.3339
 5968TIP3    H217862   5.075   4.913   2.573 -1.0596 -0.7906  0.2040
 5969TIP3   OH217863   0.455   1.478   3.469 -0.0288  0.0985 -0.1017
 5969TIP3    H117864   0.514   1.429   3.527  1.9851  2.1668 -0.2691
 5969TIP3    H217865   0.484   1.455   3.381 -0.1642  0.3560 -0.2141
 5970TIP3   OH217866   1.881   1.278   0.743  0.0133  0.8946 -0.5813
 5970TIP3    H117867   1.924   1.260   0.660 -0.2376 -1.1704 -0.3210
 5970TIP3    H217868   1.953   1.298   0.803  0.4088  0.0671 -0.7647
 5971TIP3   OH217869   5.828   6.341   5.310 -0.1375  0.1370 -0.5956
 5971TIP3    H117870   5.917   6.374   5.300 -0.8622  2.4668  0.0678
 5971TIP3    H217871   5.834   6.276   5.380  0.6656  2.0297  1.1631
 5972TIP3   OH217872   5.505   7.685   1.689 -0.2006 -0.1618  0.0675
 5972TIP3    H117873   5.546   7.724   1.766  1.4646  0.1801 -0.9428
 5972TIP3    H217874   5.535   7.594   1.688  0.2278 -0.0231 -0.4476
 5973TIP3   OH217875   1.080  -0.015   3.455 -0.1717  0.1837 -0.0142
 5973TIP3    H117876   1.092   0.063   3.508 -0.6785  0.3085 -0.0776
 5973TIP3    H217877   1.068   0.018   3.366  0.8877 -0.0322 -0.2572
 5974TIP3   OH217878   6.283   5.636   5.879  0.1127 -0.0754 -0.2578
 5974TIP3    H117879   6.197   5.595   5.885 -0.7696  1.4881 -1.7127
 5974TIP3    H217880   6.317   5.609   5.794  0.8324 -0.2187  0.0649
 5975TIP3   OH217881   6.527   4.380   2.137  0.3424  0.8081 -0.0754
 5975TIP3    H117882   6.433   4.365   2.146  0.3261  1.6247  1.4716
 5975TIP3    H217883   6.564   4.350   2.219  1.5463 -0.0798 -0.9098
 5976TIP3   OH217884   4.791   1.808   5.107  0.4137 -0.4210 -0.3523
 5976TIP3    H117885   4.809   1.861   5.030  2.5268 -0.0431  0.3479
 5976TIP3    H217886   4.766   1.871   5.175  0.5688 -0.5549 -0.1702
 5977TIP3   OH217887   6.525   6.221   6.035 -0.0534 -0.6159  0.4127
 5977TIP3    H117888   6.553   6.312   6.021  2.4834 -1.2584  0.7606
 5977TIP3    H217889   6.563   6.198   6.120  0.8161 -2.4923 -0.4423
 5978TIP3   OH217890   2.698   0.123   0.243 -0.1473  0.1719 -0.1874
 5978TIP3    H117891   2.763   0.093   0.307  0.8590  0.7523 -0.8873
 5978TIP3    H217892   2.626   0.157   0.296  0.3608  0.0044  0.6343
 5979TIP3   OH217893   1.539   3.791   3.628  0.2890 -0.8711 -0.4879
 5979TIP3    H117894   1.531   3.864   3.689  1.8042 -0.5959 -0.5845
 5979TIP3    H217895   1.477   3.811   3.558  0.4726  0.1742 -0.3670
 5980TIP3   OH217896   0.731   7.551   3.073 -0.5332  0.2841 -0.6228
 5980TIP3    H117897   0.657   7.595   3.115  0.6020  2.0745 -0.3777
 5980TIP3    H217898   0.746   7.473   3.126  0.0637  1.8299  1.6533
 5981TIP3   OH217899   3.380   4.004   2.378  0.4108 -0.3666  0.5466
 5981TIP3    H117900   3.338   3.972   2.299 -1.6110  1.1143  0.9412
 5981TIP3    H217901   3.430   3.929   2.411 -1.3625 -2.0371 -0.3564
 5982TIP3   OH217902   6.751   6.998   3.033  0.0436  0.0452  0.2722
 5982TIP3    H117903   6.839   7.036   3.037 -0.2186  0.6501  0.3046
 5982TIP3    H217904   6.696   7.066   2.994  0.1256 -1.3619 -2.5678
 5983TIP3   OH217905   0.251   0.111   3.563  0.4539  0.3981  0.0847
 5983TIP3    H117906   0.262   0.054   3.486  1.8630  0.6643  0.0608
 5983TIP3    H217907   0.284   0.059   3.636  2.1196  1.2776  0.0068
 5984TIP3   OH217908   3.967   4.974   0.997  0.0779  0.1923 -0.0440
 5984TIP3    H117909   3.932   4.929   1.074 -0.1061 -1.0123 -0.8023
 5984TIP3    H217910   4.024   4.909   0.955  0.3721  0.9114 -0.7905
 5985TIP3   OH217911   0.832   2.344   6.372  0.2650 -0.6943  0.0771
 5985TIP3    H117912   0.811   2.296   6.292 -3.3593 -0.9066  0.9978
 5985TIP3    H217913   0.887   2.416   6.342  1.5425 -2.4296 -2.0918
 5986TIP3   OH217914   3.511   1.463   2.379  0.1252 -0.6980  0.5892
 5986TIP3    H117915   3.475   1.543   2.341 -1.6513 -1.7381 -0.0022
 5986TIP3    H217916   3.566   1.426   2.310  1.1664  0.1180  0.9583
 5987TIP3   OH217917   7.826   4.615   2.948  0.7479 -0.5341 -0.1645
 5987TIP3    H117918   7.877   4.534   2.949 -0.3580 -1.2788 -1.3996
 5987TIP3    H217919   7.831   4.646   2.858  0.4106  0.2775  0.0900
 5988TIP3   OH217920   1.969   1.518   0.361 -0.1354 -0.3445  0.2317
 5988TIP3    H117921   2.052   1.472   0.350  0.5812  0.9246  0.1035
 5988TIP3    H217922   1.903   1.449   0.367  0.9141 -1.3673  0.2102
 5989TIP3   OH217923   7.865   0.337   4.762 -0.3540 -0.0145 -0.2463
 5989TIP3    H117924   7.886   0.309   4.673  0.8580  1.2233 -0.3802
 5989TIP3    H217925   7.889   0.430   4.764 -0.2220 -0.0660  1.4090
 5990TIP3   OH217926   5.530   6.284   6.176 -0.4396  0.7767  0.8955
 5990TIP3    H117927   5.610   6.268   6.227 -0.2331  0.4957  0.4914
 5990TIP3    H217928   5.515   6.378   6.185  1.0849  1.2302 -0.6492
 5991TIP3   OH217929   4.122   2.402   0.261 -0.4844 -0.4346 -0.0230
 5991TIP3    H117930   4.102   2.450   0.341 -1.1054 -1.1765  0.2870
 5991TIP3    H217931   4.051   2.426   0.201 -0.1445 -0.0539 -0.2711
 5992TIP3   OH217932   4.091   6.356   1.079 -0.4189 -0.4056  0.7844
 5992TIP3    H117933   4.066   6.295   1.010  0.9379  1.0552 -1.0980
 5992TIP3    H217934   4.170   6.317   1.118 -0.4518 -0.6199  0.6385
 5993TIP3   OH217935   2.455   1.009   4.285 -0.0516 -0.1466  0.2914
 5993TIP3    H117936   2.538   1.035   4.245 -0.3277  0.8446  0.3333
 5993TIP3    H217937   2.400   0.981   4.211 -0.7673  2.2326 -0.1900
 5994TIP3   OH217938   3.999   2.318   1.130  0.7030  0.1182  0.0739
 5994TIP3    H117939   3.911   2.292   1.103  0.6839  0.0482  0.2026
 5994TIP3    H217940   4.057   2.280   1.064  0.6804 -0.3123  0.3026
 5995TIP3   OH217941   3.632   7.395   0.014 -0.2111 -0.5115  0.7295
 5995TIP3    H117942   3.641   7.316   0.068  0.0981 -1.1268 -0.1834
 5995TIP3    H217943   3.538   7.407   0.005 -0.2700 -1.2274  0.2696
 5996TIP3   OH217944   3.639   7.400   1.102  0.2577  0.0193  0.5574
 5996TIP3    H117945   3.560   7.364   1.142 -2.0745  2.8486 -1.0936
 5996TIP3    H217946   3.690   7.435   1.175 -1.5197  0.7824  1.4742
 5997TIP3   OH217947   5.257   5.984   3.240 -0.0013  0.8085  0.1345
 5997TIP3    H117948   5.212   5.999   3.324 -1.1041  0.8435 -0.4477
 5997TIP3    H217949   5.344   5.955   3.265 -0.3937  0.5674  1.3046
 5998TIP3   OH217950   8.031   5.614   3.490 -0.2749 -0.9185 -0.6409
 5998TIP3    H117951   8.042   5.553   3.564  0.6715 -0.1141 -0.0986
 5998TIP3    H217952   8.114   5.607   3.441  0.0865  0.3619 -0.2344
 5999TIP3   OH217953   6.138   3.208   2.726  0.4700 -0.0050 -0.6274
 5999TIP3    H117954   6.123   3.240   2.816  0.0296  0.7745 -0.9632
 5999TIP3    H217955   6.138   3.288   2.673 -0.4466 -0.5574 -1.4735
 6000TIP3   OH217956   1.947   6.726   0.271 -0.0886  0.2124 -0.1159
 6000TIP3    H117957   1.957   6.774   0.354 -2.0807 -0.1580  0.3983
 6000TIP3    H217958   1.988   6.641   0.288 -1.4596 -0.2914  0.9516
 6001TIP3   OH217959   0.209   4.241   1.455 -0.0105  0.3052 -0.6729
 6001TIP3    H117960   0.159   4.245   1.374 -1.7887 -0.9844  0.2790
 6001TIP3    H217961   0.207   4.148   1.480 -0.8200  0.8512  1.5553
 6002TIP3   OH217962   8.098   4.352   5.651  0.2299 -0.8405 -0.3465
 6002TIP3    H117963   8.190   4.372   5.633  0.2897 -0.4296  0.3636
 6002TIP3    H217964   8.055   4.438   5.655 -0.2511 -1.0425 -0.9813
 6003TIP3   OH217965   7.972   4.723   3.888 -0.4075 -0.2283 -0.1956
 6003TIP3    H117966   8.053   4.769   3.906 -1.2281  0.8955  0.7940
 6003TIP3    H217967   7.966   4.720   3.792  0.2467  0.6643 -0.2705
 6004TIP3   OH217968   5.579   2.354   6.069  0.2418 -0.0691  0.0432
 6004TIP3    H117969   5.651   2.313   6.022  0.0465 -1.5089  0.9423
 6004TIP3    H217970   5.515   2.375   6.002  1.2883  0.8382 -0.7145
 6005TIP3   OH217971   0.565   4.527   3.273 -0.4273 -0.3536  0.8041
 6005TIP3    H117972   0.600   4.463   3.210  0.7870 -0.2966  1.3969
 6005TIP3    H217973   0.590   4.492   3.359  0.9491  1.2735  1.1157
 6006TIP3   OH217974   4.032   5.860   4.302  0.6617  0.5110  0.0653
 6006TIP3    H117975   3.967   5.929   4.319  0.9163  0.7825 -0.0686
 6006TIP3    H217976   3.997   5.784   4.349 -0.0027  0.5198 -0.3902
 6007TIP3   OH217977   0.541   4.871   5.786 -0.7812 -0.1989 -0.7544
 6007TIP3    H117978   0.494   4.951   5.812 -0.4131 -0.2014 -0.0639
 6007TIP3    H217979   0.473   4.816   5.746 -0.9389  0.6608 -1.7273
 6008TIP3   OH217980   8.190   1.463   2.450 -0.0362  0.4317  0.2971
 6008TIP3    H117981   8.276   1.502   2.442 -0.0122  0.2582 -0.3326
 6008TIP3    H217982   8.200   1.374   2.416 -0.7396  0.8081 -0.9694
 6009TIP3   OH217983   3.821   6.499   2.812 -0.1564  0.0938 -0.7780
 6009TIP3    H117984   3.852   6.575   2.763  1.2539  0.9839  1.3516
 6009TIP3    H217985   3.885   6.430   2.792 -0.6557 -0.1386 -1.6240
 6010TIP3   OH217986   6.650   4.348   5.884  0.0842  0.2518  0.1262
 6010TIP3    H117987   6.613   4.389   5.962 -0.4421  1.0374 -0.5176
 6010TIP3    H217988   6.647   4.254   5.903  0.1772  0.4383  1.1366
 6011TIP3   OH217989   3.285   6.877   3.191  0.3340 -0.2604  0.3130
 6011TIP3    H117990   3.307   6.969   3.207 -0.4760 -0.0996  0.5577
 6011TIP3    H217991   3.307   6.833   3.273  1.5993 -0.4700 -0.1082
 6012TIP3   OH217992   5.034   5.340   1.289  0.5827 -0.2100  0.3520
 6012TIP3    H117993   4.969   5.360   1.356  1.2452 -0.2032  1.0173
 6012TIP3    H217994   5.048   5.246   1.295 -0.5112 -0.4736 -0.8817
 6013TIP3   OH217995   1.042   2.412   2.908 -0.0372 -0.0110 -0.5372
 6013TIP3    H117996   1.027   2.321   2.932 -0.6949  0.3275  0.3967
 6013TIP3    H217997   0.962   2.458   2.934  0.6991  1.0144  0.0353
 6014TIP3   OH217998   5.056   4.846   4.086  0.0724 -0.1739 -0.0477
 6014TIP3    H117999   5.108   4.785   4.035  0.7394  1.5110 -1.4548
 6014TIP3    H218000   5.113   4.922   4.100 -1.0113  0.5068  0.9208
 6015TIP3   OH218001   5.980   7.574   0.476  0.2276 -0.1457 -0.3444
 6015TIP3    H118002   5.912   7.599   0.414  0.1467 -2.5746 -1.3208
 6015TIP3    H218003   5.958   7.623   0.556 -2.2537 -0.2882 -0.8581
 6016TIP3   OH218004   0.343   5.376   0.293 -0.4027  0.0453 -0.1847
 6016TIP3    H118005   0.268   5.331   0.333 -1.9878  1.9534 -0.8216
 6016TIP3    H218006   0.419   5.324   0.320 -1.9879 -2.5528 -0.2759
 6017TIP3   OH218007   0.835   5.952   2.794 -0.1397 -0.0680 -0.5482
 6017TIP3    H118008   0.863   6.019   2.856 -1.2874  0.4878 -0.6043
 6017TIP3    H218009   0.779   5.999   2.732 -0.7982 -1.0387 -0.7110
 6018TIP3   OH218010   8.265   6.651   3.242 -0.0475  0.2628  0.1085
 6018TIP3    H118011   8.195   6.716   3.245 -0.0191  0.3225 -0.4026
 6018TIP3    H218012   8.340   6.696   3.282 -0.0704  0.4968 -0.1053
 6019TIP3   OH218013   5.293   0.485   6.763 -0.2349  0.3858 -0.3812
 6019TIP3    H118014   5.248   0.450   6.840 -0.0074  1.2135  0.1424
 6019TIP3    H218015   5.275   0.422   6.693  1.2035 -1.4710  0.8236
 6020TIP3   OH218016   3.396   6.637   1.677  0.2333  0.4342  0.1463
 6020TIP3    H118017   3.361   6.551   1.701  0.2187  0.0251 -1.2441
 6020TIP3    H218018   3.490   6.623   1.669  0.2598  0.6119  0.1540
 6021TIP3   OH218019   4.517   4.552   2.095  0.3955 -0.4570  0.1372
 6021TIP3    H118020   4.532   4.640   2.131 -3.1816 -0.0555  1.0437
 6021TIP3    H218021   4.574   4.495   2.147  0.5605  0.9890  1.6328
 6022TIP3   OH218022   2.183   5.937   3.717 -0.3223 -0.5952 -0.5560
 6022TIP3    H118023   2.135   6.020   3.720 -0.4122 -0.6663  0.1201
 6022TIP3    H218024   2.150   5.887   3.792  0.0103 -1.0902 -0.7314
 6023TIP3   OH218025   0.983   4.308   5.549  0.0410  0.1401  0.1245
 6023TIP3    H118026   1.046   4.379   5.542  0.1172  0.0646  0.0417
 6023TIP3    H218027   0.985   4.284   5.642 -0.7355  0.9275  0.3611
 6024TIP3   OH218028   2.071   5.013   3.273  0.1948 -0.5095 -0.2321
 6024TIP3    H118029   2.102   5.031   3.184 -0.4445 -1.0158 -0.5640
 6024TIP3    H218030   1.981   4.984   3.262  0.2275 -0.9446  0.5529
 6025TIP3   OH218031   6.249   3.649   2.241  0.4663 -0.2219  0.4275
 6025TIP3    H118032   6.294   3.571   2.273  0.1027  0.4186  2.6934
 6025TIP3    H218033   6.167   3.615   2.204  0.7749 -0.9820  0.4099
 6026TIP3   OH218034   0.891   6.765   6.077 -0.6306  0.0364  0.6152
 6026TIP3    H118035   0.947   6.833   6.040 -0.1934 -0.1752  0.8791
 6026TIP3    H218036   0.883   6.700   6.007 -2.3976  1.1114 -0.2392
 6027TIP3   OH218037   7.670   7.195   1.771 -0.2953  0.2754  0.1760
 6027TIP3    H118038   7.703   7.202   1.861  0.3127  0.0390 -0.0271
 6027TIP3    H218039   7.690   7.280   1.731  0.0783  0.1300  0.0511
 6028TIP3   OH218040   2.128   7.159   5.054 -0.3834 -0.3361 -0.0266
 6028TIP3    H118041   2.150   7.245   5.019  1.8965 -1.4966 -1.7594
 6028TIP3    H218042   2.111   7.174   5.147 -0.8592  2.0607 -0.4383
 6029TIP3   OH218043   0.144   2.672   1.926 -0.1698  0.1173 -0.0075
 6029TIP3    H118044   0.202   2.682   1.851  0.5126 -0.6172  0.4083
 6029TIP3    H218045   0.168   2.743   1.985 -1.3731  1.2963 -0.8831
 6030TIP3   OH218046   1.715   6.720   1.055 -0.5587 -0.0968 -0.0289
 6030TIP3    H118047   1.803   6.755   1.068 -0.2054 -0.6850 -0.7524
 6030TIP3    H218048   1.696   6.735   0.962 -0.8735 -0.7263 -0.0772
 6031TIP3   OH218049   8.034   4.464   2.703 -0.0884 -0.7825 -0.2717
 6031TIP3    H118050   8.127   4.462   2.725 -0.3219  1.5701  1.2942
 6031TIP3    H218051   7.991   4.419   2.776 -0.3247  0.0637  0.1141
 6032TIP3   OH218052   4.221   7.164   1.473  0.0532 -0.0379 -0.3802
 6032TIP3    H118053   4.211   7.169   1.378  0.8275 -0.9009 -0.5279
 6032TIP3    H218054   4.156   7.225   1.508  0.7058  1.3649 -1.5045
 6033TIP3   OH218055   5.579   5.025   0.113  0.2211 -0.3935 -0.3074
 6033TIP3    H118056   5.538   5.025   0.199  3.4381  0.1966  1.4181
 6033TIP3    H218057   5.577   5.117   0.085  0.5685 -0.3063 -0.0636
 6034TIP3   OH218058   4.729   6.214   4.375  0.3426  0.6198  0.3159
 6034TIP3    H118059   4.640   6.216   4.410  0.1276  0.5168 -0.2103
 6034TIP3    H218060   4.777   6.279   4.425 -0.1844  1.1053  0.1924
 6035TIP3   OH218061   6.700   2.116   6.478 -0.1923  0.3106  0.5605
 6035TIP3    H118062   6.684   2.144   6.568 -0.4935  0.1993  0.5413
 6035TIP3    H218063   6.696   2.020   6.482  0.7860  0.2646  0.6186
 6036TIP3   OH218064   3.332   0.766   6.661 -0.2788  0.0063  0.0138
 6036TIP3    H118065   3.344   0.676   6.634  1.8340 -0.3807  1.9209
 6036TIP3    H218066   3.298   0.760   6.750 -0.7509  1.1267 -0.0686
 6037TIP3   OH218067   3.449   4.105   4.845 -0.2400  0.3498 -0.0663
 6037TIP3    H118068   3.496   4.136   4.922 -1.1977 -0.0249  0.6961
 6037TIP3    H218069   3.460   4.010   4.846 -0.1265  0.3560 -0.4807
 6038TIP3   OH218070   1.404   1.044   3.582  0.2202  0.1987 -0.3304
 6038TIP3    H118071   1.360   0.960   3.572 -0.1047  0.3425 -0.1271
 6038TIP3    H218072   1.341   1.099   3.628  0.8210  0.2369  0.4663
 6039TIP3   OH218073   7.626   5.096   3.988 -0.2896 -0.4485 -0.4415
 6039TIP3    H118074   7.589   5.184   3.997  1.8110  0.3823  1.1865
 6039TIP3    H218075   7.634   5.064   4.078  1.0263 -1.3635 -0.8459
 6040TIP3   OH218076   5.858   3.140   1.181  0.3834  0.1615 -0.2328
 6040TIP3    H118077   5.797   3.131   1.254 -0.9554 -0.5221 -1.3662
 6040TIP3    H218078   5.895   3.227   1.191 -0.6731  0.5435  0.6073
 6041TIP3   OH218079   6.752   3.274   2.056  0.2743  0.1264 -0.5711
 6041TIP3    H118080   6.802   3.201   2.019  0.3986 -0.0138 -0.1274
 6041TIP3    H218081   6.788   3.286   2.144 -0.8414 -0.3305 -0.0346
 6042TIP3   OH218082   4.096   3.635   4.926  0.1550 -0.4950 -0.0801
 6042TIP3    H118083   4.059   3.690   4.857  1.0934  0.6125  0.2810
 6042TIP3    H218084   4.023   3.577   4.950 -0.7194  0.2562 -0.7972
 6043TIP3   OH218085   4.244   6.157   2.641  0.2135 -0.0625 -0.3638
 6043TIP3    H118086   4.256   6.107   2.723  0.6343 -0.1246 -0.4616
 6043TIP3    H218087   4.302   6.114   2.579 -1.1678 -0.9182 -1.1017
 6044TIP3   OH218088   2.892   6.442   0.925  0.1687  0.1067 -0.0239
 6044TIP3    H118089   2.885   6.515   0.862  1.3345  0.3342  0.1029
 6044TIP3    H218090   2.940   6.479   0.999 -0.3628 -0.4394  0.5995
 6045TIP3   OH218091   7.242   1.200   5.912  0.2183 -0.3847  0.3367
 6045TIP3    H118092   7.159   1.238   5.940 -0.4233  0.0828 -1.9384
 6045TIP3    H218093   7.225   1.105   5.908 -0.4726 -0.2431 -0.7296
 6046TIP3   OH218094   2.228   6.886   5.096  0.1090 -0.4194 -0.0882
 6046TIP3    H118095   2.178   6.967   5.101 -0.8110 -0.9303 -0.7851
 6046TIP3    H218096   2.319   6.913   5.112 -0.3913  0.4827  1.4902
 6047TIP3   OH218097   4.704   3.661   2.378  0.4420 -0.3381  0.1329
 6047TIP3    H118098   4.709   3.580   2.326 -3.3620 -0.7488  0.0951
 6047TIP3    H218099   4.765   3.720   2.335  0.7436 -2.0959 -2.0852
 6048TIP3   OH218100   5.030   7.548   0.649 -0.1814  0.1914 -0.3040
 6048TIP3    H118101   4.936   7.544   0.627 -0.1876  0.6956 -0.3850
 6048TIP3    H218102   5.064   7.617   0.593  0.1700  0.2549 -0.0128
 6049TIP3   OH218103   4.524   2.656   2.502  0.2349  0.0319  0.2190
 6049TIP3    H118104   4.475   2.623   2.426 -1.6407  0.9524  0.9599
 6049TIP3    H218105   4.485   2.742   2.520  1.1900  0.1789  1.7418
 6050TIP3   OH218106   4.311   1.648   4.217 -0.5459  0.2789  0.6517
 6050TIP3    H118107   4.317   1.559   4.251  0.0574  0.3052  0.6166
 6050TIP3    H218108   4.251   1.641   4.142 -0.6137 -0.0693  0.7379
 6051TIP3   OH218109   7.362   5.648   6.413  0.2753 -0.5795  0.0291
 6051TIP3    H118110   7.435   5.590   6.432  0.1086 -0.8382 -0.1146
 6051TIP3    H218111   7.391   5.701   6.339 -0.5075 -2.2450 -1.5627
 6052TIP3   OH218112   0.281   5.377   1.888 -0.3837 -0.6632 -0.2162
 6052TIP3    H118113   0.253   5.414   1.972 -1.2549  0.7572 -1.0758
 6052TIP3    H218114   0.238   5.432   1.823  2.1755 -0.1782 -1.6272
 6053TIP3   OH218115   3.141   0.579   4.640  0.0387  0.0759  0.3202
 6053TIP3    H118116   3.074   0.522   4.602  0.1820 -0.8664  1.4125
 6053TIP3    H218117   3.209   0.585   4.573  0.5377 -1.9745  0.5784
 6054TIP3   OH218118   4.738   6.287   4.922 -0.0381 -0.0642 -0.4872
 6054TIP3    H118119   4.759   6.202   4.962 -0.4194  0.0382 -0.0643
 6054TIP3    H218120   4.658   6.270   4.872 -1.7680  0.6793  1.8703
 6055TIP3   OH218121   3.365   5.861   5.678 -0.0667 -0.2606 -0.4866
 6055TIP3    H118122   3.372   5.908   5.596  0.2247 -0.6609 -0.6944
 6055TIP3    H218123   3.443   5.805   5.681  0.3822  0.3802  0.4664
 6056TIP3   OH218124   0.669   7.180   4.253  0.3589 -0.2785  0.1038
 6056TIP3    H118125   0.626   7.141   4.329 -0.1387 -1.3442 -0.6956
 6056TIP3    H218126   0.757   7.143   4.253  0.4255 -0.1235  0.2637
 6057TIP3   OH218127   7.731   4.513   6.317 -0.4065  0.0505  0.2969
 6057TIP3    H118128   7.708   4.566   6.240  0.7822 -2.1443 -1.6991
 6057TIP3    H218129   7.667   4.442   6.318  0.5287 -0.8134  0.3569
 6058TIP3   OH218130   3.495   2.586   1.806  0.4122 -0.4308  0.2078
 6058TIP3    H118131   3.417   2.606   1.755 -0.2254 -0.6438  1.0785
 6058TIP3    H218132   3.503   2.491   1.801  1.6963 -0.2833 -1.4024
 6059TIP3   OH218133   6.458   3.930   0.559  0.9593 -0.0836  1.0849
 6059TIP3    H118134   6.489   4.020   0.554  0.9075 -0.0896  0.4705
 6059TIP3    H218135   6.379   3.934   0.613  2.2127 -0.1307  3.0028
 6060TIP3   OH218136   0.464   5.416   2.202 -0.2438  0.2038 -0.5204
 6060TIP3    H118137   0.476   5.485   2.136 -1.2784 -1.4653 -2.5547
 6060TIP3    H218138   0.538   5.427   2.261 -0.2508  2.9073 -0.8611
 6061TIP3   OH218139   2.908   1.944   5.270 -0.4085 -0.4814  0.2282
 6061TIP3    H118140   2.888   1.852   5.257 -0.2161 -0.6689  1.1954
 6061TIP3    H218141   3.003   1.947   5.286 -0.5467 -0.2251  1.0547
 6062TIP3   OH218142   0.011   1.375   5.164 -0.0400  0.6155 -0.1434
 6062TIP3    H118143  -0.059   1.429   5.126 -0.5490  0.7160  0.9128
 6062TIP3    H218144   0.061   1.345   5.088 -0.9720  0.8918 -0.8940
 6063TIP3   OH218145   3.130   0.889   1.828 -0.3101  0.0185  0.0890
 6063TIP3    H118146   3.047   0.937   1.835 -2.0515 -2.3350 -2.1835
 6063TIP3    H218147   3.178   0.934   1.759 -1.7032 -1.0055 -1.6608
 6064TIP3   OH218148   7.713   2.743   4.881 -0.0680  0.1713 -0.3388
 6064TIP3    H118149   7.695   2.667   4.826  1.1009 -0.2011 -0.2317
 6064TIP3    H218150   7.630   2.758   4.928 -1.7275  1.6266 -3.4436
 6065TIP3   OH218151   5.523   2.156   2.628 -0.2352  0.0903 -0.4579
 6065TIP3    H118152   5.493   2.162   2.718  0.3940  0.2767 -0.2546
 6065TIP3    H218153   5.512   2.064   2.605 -0.3059  0.0218 -0.1526
 6066TIP3   OH218154   5.320   3.331   0.875  0.1479  0.5473  0.8271
 6066TIP3    H118155   5.297   3.380   0.955  1.1813  2.3243  0.1040
 6066TIP3    H218156   5.398   3.375   0.842 -0.0683 -0.3495 -1.0027
 6067TIP3   OH218157   2.233   2.825   4.162  0.2887  0.1151  0.2850
 6067TIP3    H118158   2.165   2.784   4.215 -0.9668  1.9185  0.1496
 6067TIP3    H218159   2.209   2.806   4.071  0.7128 -0.3328  0.2579
 6068TIP3   OH218160   1.736   3.413   5.301 -0.1928 -0.4873  0.6976
 6068TIP3    H118161   1.817   3.362   5.293 -0.6689 -1.6327  2.5094
 6068TIP3    H218162   1.679   3.358   5.355 -2.3819  0.0970 -0.8882
 6069TIP3   OH218163   4.299   4.728   5.446 -0.1764 -0.4882  0.0058
 6069TIP3    H118164   4.382   4.766   5.477 -0.6689  0.7604 -0.1821
 6069TIP3    H218165   4.298   4.747   5.352 -0.5614 -0.7306 -0.0386
 6070TIP3   OH218166   1.628   5.203   1.466  0.7716 -0.3848  0.0356
 6070TIP3    H118167   1.671   5.120   1.448  0.0930 -0.6893 -0.2110
 6070TIP3    H218168   1.608   5.240   1.380  0.1540 -0.4620  0.1363
 6071TIP3   OH218169   1.825   3.793   0.849 -0.5722 -0.1942 -0.0216
 6071TIP3    H118170   1.819   3.889   0.852  1.0228 -0.0891  0.6577
 6071TIP3    H218171   1.736   3.765   0.827 -1.6150  1.3598  1.8797
 6072TIP3   OH218172   4.941   0.758   3.399 -0.1957  0.3827 -0.2885
 6072TIP3    H118173   4.928   0.852   3.413 -1.3739  0.3381 -1.0238
 6072TIP3    H218174   4.888   0.716   3.466  1.3934  0.2144  0.9303
 6073TIP3   OH218175   5.673   0.238   1.934 -0.1588 -0.6553  0.8005
 6073TIP3    H118176   5.591   0.285   1.942  0.1318  0.1784 -0.6881
 6073TIP3    H218177   5.736   0.290   1.985 -0.3985 -0.9328  1.3897
 6074TIP3   OH218178   2.305   4.109   1.321  0.4498 -0.0747  0.1944
 6074TIP3    H118179   2.276   4.018   1.314  0.1272  0.0861 -0.7307
 6074TIP3    H218180   2.400   4.103   1.334  0.4443 -0.5472  0.0533
 6075TIP3   OH218181   3.696   2.477   5.509  0.0446 -0.6515  0.4329
 6075TIP3    H118182   3.729   2.413   5.447 -1.5868 -0.7266 -0.4014
 6075TIP3    H218183   3.712   2.562   5.468 -2.7073 -0.7450 -1.0744
 6076TIP3   OH218184   2.203   1.471   0.635  0.1181 -0.0870 -0.0406
 6076TIP3    H118185   2.191   1.390   0.585 -1.3517  0.5614 -0.7875
 6076TIP3    H218186   2.166   1.452   0.721  0.4119 -0.4244  0.0134
 6077TIP3   OH218187   3.691   4.471   3.756 -0.2254  0.2207  0.2772
 6077TIP3    H118188   3.696   4.404   3.689  2.1281  0.9502 -0.3948
 6077TIP3    H218189   3.627   4.439   3.819 -0.7694 -1.5815 -1.1360
 6078TIP3   OH218190   6.527   3.358   6.348  0.0447 -0.1300  0.0244
 6078TIP3    H118191   6.590   3.394   6.285 -0.4104  0.6323  0.0012
 6078TIP3    H218192   6.544   3.406   6.429  0.1373 -0.6002  0.2874
 6079TIP3   OH218193   2.260   1.727   1.179 -0.7090  0.4532 -0.2600
 6079TIP3    H118194   2.164   1.724   1.177 -0.6943 -0.7061 -0.0152
 6079TIP3    H218195   2.287   1.638   1.158  0.3245  0.7948 -0.4375
 6080TIP3   OH218196   6.447   5.098   0.036  0.2562  0.0072  0.6393
 6080TIP3    H118197   6.373   5.106  -0.025 -1.8425  1.6902  3.1754
 6080TIP3    H218198   6.498   5.178   0.021  1.2236 -0.8163 -0.6219
 6081TIP3   OH218199   4.622   1.584   4.449  1.0011 -0.3540  0.1010
 6081TIP3    H118200   4.628   1.504   4.396  0.9002  0.0901 -0.5959
 6081TIP3    H218201   4.711   1.618   4.451  2.1460 -2.8606  4.2744
 6082TIP3   OH218202   7.280   1.002   5.295  0.2844 -0.0790 -0.4514
 6082TIP3    H118203   7.239   1.044   5.219 -3.1017 -0.2736  1.0674
 6082TIP3    H218204   7.275   0.908   5.276  1.0206 -0.0714 -0.6993
 6083TIP3   OH218205   1.939   6.283   0.975 -0.2954 -0.4360  0.1780
 6083TIP3    H118206   1.843   6.278   0.970 -0.2234 -0.9992 -2.0214
 6083TIP3    H218207   1.958   6.288   1.068 -2.3942 -2.5246  0.8267
 6084TIP3   OH218208   1.560   4.233   3.067 -0.2168  0.1849 -0.1466
 6084TIP3    H118209   1.592   4.177   2.996  1.7328  0.0335  0.7887
 6084TIP3    H218210   1.635   4.242   3.126 -1.2153  1.8498  0.9427
 6085TIP3   OH218211   4.864   2.331   5.558  0.2269 -0.1111  0.0709
 6085TIP3    H118212   4.787   2.355   5.609  0.1935  0.5116 -0.2599
 6085TIP3    H218213   4.936   2.376   5.602  0.2308  0.2347 -0.2754
 6086TIP3   OH218214   3.588   3.483   4.186 -0.3268 -0.1541 -0.7659
 6086TIP3    H118215   3.621   3.560   4.140 -0.6012  0.1693 -0.4346
 6086TIP3    H218216   3.518   3.450   4.131 -0.3341 -0.0505 -0.8190
 6087TIP3   OH218217   0.343   1.636   6.418 -0.2145  0.2503 -0.1964
 6087TIP3    H118218   0.303   1.628   6.504 -1.4317  3.4070 -0.3305
 6087TIP3    H218219   0.436   1.621   6.434 -0.3397  1.2238  1.7923
 6088TIP3   OH218220   4.282   2.741   0.899  0.0430 -0.0252  0.6252
 6088TIP3    H118221   4.311   2.744   0.808 -0.7461  0.6740  0.3822
 6088TIP3    H218222   4.293   2.650   0.925  1.4788  0.0058  0.2451
 6089TIP3   OH218223   7.782   7.407   0.117  0.4961  0.2966 -0.2768
 6089TIP3    H118224   7.778   7.386   0.024  2.0579  0.4598 -0.3928
 6089TIP3    H218225   7.763   7.501   0.121  2.0738  0.6501 -0.6141
 6090TIP3   OH218226   1.102   1.541   4.534  0.1616  0.2340  0.0841
 6090TIP3    H118227   1.114   1.446   4.528  0.1900  0.2487 -0.0970
 6090TIP3    H218228   1.135   1.575   4.451 -1.5972  0.2288 -0.6592
 6091TIP3   OH218229   0.051   7.500   5.542  0.1120  0.3357  0.3857
 6091TIP3    H118230   0.137   7.457   5.549  0.3454  0.6857 -0.2687
 6091TIP3    H218231   0.050   7.562   5.614 -0.2116 -0.7175  1.3224
 6092TIP3   OH218232   3.470   1.891   5.526 -0.2541  0.4852 -0.4986
 6092TIP3    H118233   3.521   1.815   5.551 -1.4468 -0.9624 -2.1920
 6092TIP3    H218234   3.386   1.879   5.570 -1.1761 -0.3378 -2.3625
 6093TIP3   OH218235   7.699   1.962   2.607  0.2915  0.1079  0.0308
 6093TIP3    H118236   7.767   1.907   2.648 -0.6138 -2.9811 -2.2049
 6093TIP3    H218237   7.737   1.989   2.524 -0.8096 -0.8411 -0.8095
 6094TIP3   OH218238   2.561   0.949   0.793 -0.5173  0.0013 -0.6454
 6094TIP3    H118239   2.647   0.951   0.751 -0.4480  0.2201 -0.5006
 6094TIP3    H218240   2.579   0.970   0.885 -0.3144 -3.1206  0.1330
 6095TIP3   OH218241   0.112   7.626   0.017  0.1299 -0.4646 -0.4140
 6095TIP3    H118242   0.157   7.557   0.065  0.7303 -0.1597 -0.5305
 6095TIP3    H218243   0.039   7.582  -0.027  0.8838 -1.1343 -0.9986
 6096TIP3   OH218244   3.716   5.667   6.476 -0.6046  0.5502  0.1223
 6096TIP3    H118245   3.774   5.743   6.474 -0.4368  0.4247 -1.6350
 6096TIP3    H218246   3.725   5.628   6.389 -0.9123 -1.3199  0.8785
 6097TIP3   OH218247   3.531   6.901   5.235 -0.0136 -1.0301  0.4245
 6097TIP3    H118248   3.555   6.852   5.156 -0.0628  0.1245 -0.3358
 6097TIP3    H218249   3.464   6.963   5.205  0.8270  0.2404  1.1020
 6098TIP3   OH218250   1.638   7.142   1.805  0.3901 -0.4033  0.1794
 6098TIP3    H118251   1.598   7.062   1.840 -1.1608  0.0510 -0.4801
 6098TIP3    H218252   1.569   7.207   1.808  0.7674  0.1657 -1.9056
 6099TIP3   OH218253   4.661   5.283   0.659  0.0368  0.3951  0.2320
 6099TIP3    H118254   4.590   5.333   0.618  0.9927 -0.9838 -3.5240
 6099TIP3    H218255   4.738   5.302   0.606  2.0169  0.0537  2.7839
 6100TIP3   OH218256   0.235   1.925   6.678 -0.2646  0.2672  0.3074
 6100TIP3    H118257   0.162   1.983   6.699 -1.5338 -1.0933 -0.1236
 6100TIP3    H218258   0.238   1.863   6.751  1.3818  1.1176  0.9998
 6101TIP3   OH218259   1.428   6.049   5.510 -0.2278 -0.5474  0.1450
 6101TIP3    H118260   1.516   6.048   5.548 -0.4847 -1.1348  0.7589
 6101TIP3    H218261   1.410   5.957   5.491 -0.2095 -0.2962 -1.1908
 6102TIP3   OH218262   0.230   7.147   3.642  0.3741  0.1945  0.1365
 6102TIP3    H118263   0.308   7.195   3.667  0.5955  0.4027 -0.9096
 6102TIP3    H218264   0.158   7.194   3.685  0.8493 -0.3078  1.5321
 6103TIP3   OH218265   7.345   4.228   0.149  0.1662 -0.1072 -0.5789
 6103TIP3    H118266   7.362   4.288   0.221  1.8912 -0.7136 -0.4457
 6103TIP3    H218267   7.275   4.171   0.181 -0.5606  0.9709 -0.2116
 6104TIP3   OH218268   5.921   6.430   5.601  0.4820 -0.2925  0.3783
 6104TIP3    H118269   5.941   6.371   5.528  1.0706 -0.4774  0.6822
 6104TIP3    H218270   5.873   6.376   5.663 -0.0888 -0.1144  0.1039
 6105TIP3   OH218271   1.167   6.703   1.959  0.3058 -0.2189  0.2307
 6105TIP3    H118272   1.136   6.668   2.043  0.6918  0.4189  0.6485
 6105TIP3    H218273   1.091   6.697   1.901  0.8889 -3.7597 -0.3915
 6106TIP3   OH218274   2.469   6.764   6.299 -0.1431 -0.0867 -0.2451
 6106TIP3    H118275   2.451   6.826   6.229 -0.2983 -0.4379 -0.5152
 6106TIP3    H218276   2.472   6.818   6.378 -0.3978  0.2474 -0.4617
 6107TIP3   OH218277   7.345   5.890   0.338  0.3623  0.2717  0.4092
 6107TIP3    H118278   7.412   5.903   0.271 -0.6124 -1.2428 -0.9217
 6107TIP3    H218279   7.392   5.847   0.410  1.1565  0.7559  0.2028
 6108TIP3   OH218280   2.013   2.988   0.620 -0.6050  0.3084  0.2758
 6108TIP3    H118281   2.078   3.017   0.684  0.5116  1.7673 -1.4083
 6108TIP3    H218282   2.016   3.055   0.552 -3.3934  0.0265 -0.2136
 6109TIP3   OH218283   8.107   0.579   0.361 -0.0877  0.0269 -0.7339
 6109TIP3    H118284   8.119   0.601   0.454  0.4627  1.3742 -1.0960
 6109TIP3    H218285   8.013   0.578   0.349 -0.1695 -0.5220 -0.0711
 6110TIP3   OH218286   3.599   1.614   5.265  0.1424  0.6464  0.0900
 6110TIP3    H118287   3.663   1.564   5.214  0.3919  0.4653  0.5838
 6110TIP3    H218288   3.550   1.548   5.314 -0.4883  0.7756 -0.3472
 6111TIP3   OH218289   2.380   6.828   4.072 -0.4026 -0.2357 -0.1650
 6111TIP3    H118290   2.336   6.841   3.988  0.6844 -0.1521 -0.7462
 6111TIP3    H218291   2.462   6.877   4.063  0.2953 -1.2470  0.4674
 6112TIP3   OH218292   1.401   1.225   6.317 -0.0127  0.0258 -0.4582
 6112TIP3    H118293   1.345   1.245   6.242  0.0971 -0.0817 -0.5687
 6112TIP3    H218294   1.397   1.304   6.372 -1.1689 -0.3934  0.1008
 6113TIP3   OH218295   5.950   6.726   6.488 -0.7197 -0.1933  0.2109
 6113TIP3    H118296   6.023   6.730   6.426 -0.5003  0.6069  0.5000
 6113TIP3    H218297   5.992   6.727   6.574 -1.0538 -0.0744  0.3741
 6114TIP3   OH218298   0.473   2.244   3.046  0.2532 -0.6676  0.1591
 6114TIP3    H118299   0.387   2.221   3.012 -0.6735  1.2360  1.0603
 6114TIP3    H218300   0.456   2.278   3.133  1.7482  1.0619 -0.1678
 6115TIP3   OH218301   4.982   4.744   0.730  0.1609 -0.0288 -0.3677
 6115TIP3    H118302   4.995   4.666   0.676  0.9182  0.4717 -0.9310
 6115TIP3    H218303   4.985   4.816   0.668  0.0106  0.4910  0.2204
 6116TIP3   OH218304   4.206   1.743   1.422  0.4489 -0.2307 -0.3030
 6116TIP3    H118305   4.234   1.832   1.401 -0.5801 -0.1926 -1.6445
 6116TIP3    H218306   4.267   1.687   1.375  0.3431 -0.2080 -0.4681
 6117TIP3   OH218307   7.778   3.334   1.089 -0.7178  0.2508  0.7423
 6117TIP3    H118308   7.844   3.350   1.021 -0.1254 -0.9909  0.9943
 6117TIP3    H218309   7.795   3.244   1.119 -2.6169 -0.1642  0.7221
 6118TIP3   OH218310   1.328   1.845   2.964  0.1957  0.1766 -0.8491
 6118TIP3    H118311   1.250   1.812   3.008  0.5078 -0.0869 -0.4833
 6118TIP3    H218312   1.295   1.893   2.888 -0.4348  1.6420  0.3010
 6119TIP3   OH218313   6.194   7.238   0.986  0.2441 -0.1802 -0.0425
 6119TIP3    H118314   6.216   7.251   1.078 -0.7066  0.5271  0.0968
 6119TIP3    H218315   6.110   7.283   0.974  1.4248  1.7657 -1.7720
 6120TIP3   OH218316   6.764   5.184   3.457 -0.1012  0.1395 -0.2090
 6120TIP3    H118317   6.725   5.266   3.489 -0.0015  0.2688 -0.4148
 6120TIP3    H218318   6.712   5.115   3.498 -1.5253  0.3013 -1.6140
 6121TIP3   OH218319   7.844   4.468   0.977  0.5182 -0.0343  0.5614
 6121TIP3    H118320   7.831   4.398   0.913  0.6529  0.7004 -0.2943
 6121TIP3    H218321   7.924   4.443   1.024  0.3261 -0.6604  0.5638
 6122TIP3   OH218322   2.219   0.290   3.842  0.0752 -0.4141  0.3112
 6122TIP3    H118323   2.300   0.340   3.831 -0.1542 -0.5503 -2.5722
 6122TIP3    H218324   2.249   0.204   3.872  1.0079 -0.4436 -0.6716
 6123TIP3   OH218325   8.058   2.734   2.492  0.1167 -0.3675 -0.2963
 6123TIP3    H118326   7.985   2.764   2.438 -0.9657 -2.8928 -0.3429
 6123TIP3    H218327   8.058   2.793   2.567 -1.1153  0.4775 -0.9194
 6124TIP3   OH218328   1.216   1.609   4.292  0.5769 -0.2791  0.1295
 6124TIP3    H118329   1.169   1.572   4.217  1.3419 -0.9846 -0.0125
 6124TIP3    H218330   1.265   1.682   4.255  0.1728  0.0010  0.1391
 6125TIP3   OH218331   7.403   2.583   0.410 -0.4251  0.1414 -0.1053
 6125TIP3    H118332   7.445   2.650   0.464  1.5660 -0.1302 -1.2180
 6125TIP3    H218333   7.411   2.617   0.320 -2.6536  0.0610 -0.3791
 6126TIP3   OH218334   2.460   0.179   0.374  0.0840  0.0566 -1.0704
 6126TIP3    H118335   2.398   0.227   0.319 -0.7844 -1.1134 -1.1408
 6126TIP3    H218336   2.417   0.173   0.459  1.3562  1.7142 -0.2498
 6127TIP3   OH218337   4.814   5.453   5.336 -0.0301 -0.4802  0.2799
 6127TIP3    H118338   4.793   5.400   5.259  1.4427 -1.2909  0.3993
 6127TIP3    H218339   4.874   5.520   5.304  0.6674 -0.8803  0.7018
 6128TIP3   OH218340   7.352   2.842   2.658  0.1470 -0.3354 -0.2792
 6128TIP3    H118341   7.293   2.917   2.653 -1.5404 -1.4975  0.9659
 6128TIP3    H218342   7.419   2.860   2.592 -1.6215  1.0288 -1.8250
 6129TIP3   OH218343   1.892   1.803   3.736  0.5633 -0.0502 -0.1305
 6129TIP3    H118344   1.886   1.712   3.710  1.0705 -0.5030  1.2583
 6129TIP3    H218345   1.868   1.852   3.657 -1.3481 -1.3748 -0.4475
 6130TIP3   OH218346   8.007   7.618   0.222 -0.0154  0.0616 -0.0150
 6130TIP3    H118347   7.916   7.640   0.242  0.3945  0.4875  1.5239
 6130TIP3    H218348   8.034   7.682   0.157 -0.1541  1.3867  1.1886
 6131TIP3   OH218349   1.233   2.786   0.762  0.2583 -0.3533 -0.5579
 6131TIP3    H118350   1.272   2.787   0.849  0.8680 -0.1710 -0.8313
 6131TIP3    H218351   1.195   2.873   0.751  0.3596 -0.3094 -0.5553
 6132TIP3   OH218352   0.299   2.306   4.781  0.3978  0.1304 -0.3313
 6132TIP3    H118353   0.333   2.351   4.859  1.0631 -0.9700  0.0335
 6132TIP3    H218354   0.243   2.237   4.816 -2.0569  1.7075 -0.9214
 6133TIP3   OH218355   6.261   5.242   6.489 -0.2535 -0.2747 -0.1732
 6133TIP3    H118356   6.242   5.152   6.462 -0.4397 -0.4287  0.4403
 6133TIP3    H218357   6.354   5.242   6.510 -0.5533 -0.7547  1.3414
 6134TIP3   OH218358   5.440   3.634   1.302  0.4792  0.0074 -0.2187
 6134TIP3    H118359   5.394   3.570   1.247 -1.4143  1.1438 -0.0548
 6134TIP3    H218360   5.386   3.642   1.380  2.3237 -0.4283  1.1760
 6135TIP3   OH218361   2.337   3.119   6.720 -0.2538 -0.1092  0.1000
 6135TIP3    H118362   2.405   3.185   6.702 -0.0567 -0.2779  0.2268
 6135TIP3    H218363   2.365   3.078   6.801  0.2161 -1.1088 -0.5497
 6136TIP3   OH218364   6.751   2.836   1.839 -0.3638 -0.0418  0.5136
 6136TIP3    H118365   6.671   2.783   1.837  0.2492 -0.9721 -0.1954
 6136TIP3    H218366   6.821   2.774   1.816  0.3509  1.1203 -0.5358
 6137TIP3   OH218367   2.202   0.659   3.844 -0.1273 -0.5943  0.0367
 6137TIP3    H118368   2.251   0.732   3.806 -1.0983 -0.5402 -1.1703
 6137TIP3    H218369   2.261   0.623   3.911  1.0313  0.2564 -0.4838
 6138TIP3   OH218370   0.586   1.774   4.199 -0.2223  0.4533 -0.1795
 6138TIP3    H118371   0.668   1.800   4.240  0.0018 -0.1897 -0.2055
 6138TIP3    H218372   0.601   1.786   4.105 -0.8335  2.1991 -0.0772
 6139TIP3   OH218373   7.949   7.650   1.788  0.4625  0.2827 -0.0620
 6139TIP3    H118374   7.960   7.563   1.827 -0.4588 -1.3450 -3.1221
 6139TIP3    H218375   8.008   7.706   1.838  1.6809 -2.2482  1.5432
 6140TIP3   OH218376   3.325   1.180   2.685  0.0205 -0.0779 -0.0629
 6140TIP3    H118377   3.238   1.187   2.724 -0.0380  2.1461 -0.4254
 6140TIP3    H218378   3.379   1.143   2.755 -0.8348  0.3741  0.8730
 6141TIP3   OH218379   1.300   4.386   3.952  0.1875 -0.4251  0.3945
 6141TIP3    H118380   1.250   4.309   3.924 -2.2988  0.3414  2.3868
 6141TIP3    H218381   1.281   4.395   4.045  2.4839  1.1636  0.8007
 6142TIP3   OH218382   2.749   7.395   4.388 -0.4508  0.5102  0.3827
 6142TIP3    H118383   2.787   7.321   4.341 -0.5897  1.1924 -0.8494
 6142TIP3    H218384   2.658   7.399   4.358 -0.5978  0.8605  0.8525
 6143TIP3   OH218385   2.169   7.121   1.410 -0.0859 -0.0717  0.4352
 6143TIP3    H118386   2.185   7.072   1.490  1.7946 -0.0479  0.1125
 6143TIP3    H218387   2.210   7.206   1.426 -0.2674  0.1611 -0.3131
 6144TIP3   OH218388   2.233   1.651   5.610  0.2089  0.4083  0.1088
 6144TIP3    H118389   2.278   1.734   5.598 -0.9638  1.3486  1.7405
 6144TIP3    H218390   2.287   1.603   5.673  0.2428  0.4708  0.1277
 6145TIP3   OH218391   3.084   6.530   1.090  0.8690 -0.6515 -0.1561
 6145TIP3    H118392   3.031   6.584   1.148  0.9075  1.0942 -1.6458
 6145TIP3    H218393   3.158   6.502   1.144  1.0335  1.1053  0.5890
 6146TIP3   OH218394   3.105   1.385   4.419 -0.0558  0.7149 -0.3087
 6146TIP3    H118395   3.077   1.408   4.331  0.8271 -0.4489 -0.9310
 6146TIP3    H218396   3.050   1.438   4.477 -4.1819 -1.9798 -1.3252
 6147TIP3   OH218397   6.057   0.740   3.269 -0.6019 -0.4543 -0.4842
 6147TIP3    H118398   6.007   0.822   3.278  1.4173  0.6769  1.3949
 6147TIP3    H218399   6.051   0.699   3.355  2.3761  0.2229  0.1683
 6148TIP3   OH218400   5.552   2.327   2.415  0.6380  0.0082  0.1664
 6148TIP3    H118401   5.516   2.407   2.452 -2.1437 -0.6092 -0.9768
 6148TIP3    H218402   5.515   2.256   2.468 -0.0853 -0.6609 -1.1648
 6149TIP3   OH218403   0.584   5.570   0.331 -0.0353  0.2052  0.1584
 6149TIP3    H118404   0.566   5.621   0.410  1.5213  0.5233  0.3454
 6149TIP3    H218405   0.499   5.534   0.305 -0.9476  1.8102  0.7754
 6150TIP3   OH218406   7.805   7.764   4.188 -0.8257 -0.2816  0.3682
 6150TIP3    H118407   7.713   7.750   4.211 -0.6962 -1.7032  0.0980
 6150TIP3    H218408   7.830   7.843   4.237 -2.5006  0.8304 -0.4839
 6151TIP3   OH218409   1.511   0.596   6.309 -0.1104  0.1419  0.2132
 6151TIP3    H118410   1.443   0.570   6.372  1.0855  0.3987  1.6689
 6151TIP3    H218411   1.465   0.651   6.245 -1.3667 -0.1130  0.8555
 6152TIP3   OH218412   6.456   6.930   1.608 -0.4577  0.4287  0.2501
 6152TIP3    H118413   6.508   7.010   1.607  1.8055 -0.9674  0.6231
 6152TIP3    H218414   6.378   6.952   1.557 -0.1165  2.9659  0.6711
 6153TIP3   OH218415   4.656   7.166   1.017 -0.2094 -0.0861 -0.8224
 6153TIP3    H118416   4.732   7.156   0.960  0.3918  1.3547 -0.3171
 6153TIP3    H218417   4.590   7.208   0.961 -0.1128  0.0347 -0.8466
 6154TIP3   OH218418   8.090   2.869   0.909  0.4470 -0.5872 -0.4299
 6154TIP3    H118419   8.093   2.856   0.815  0.1161 -0.6369 -0.4363
 6154TIP3    H218420   8.053   2.957   0.920  1.4441 -0.1671 -0.3643
 6155TIP3   OH218421   6.964   0.166   1.471 -0.1550  0.3263 -0.2234
 6155TIP3    H118422   6.961   0.075   1.441  0.4795  0.7767 -1.7589
 6155TIP3    H218423   7.052   0.178   1.506 -0.1394  0.4309 -0.2970
 6156TIP3   OH218424   4.457   1.679   2.966 -0.2816 -0.1112  0.0584
 6156TIP3    H118425   4.530   1.665   2.907 -1.4635  1.8205 -2.0446
 6156TIP3    H218426   4.455   1.601   3.022  1.0726 -1.9683 -2.2912
 6157TIP3   OH218427   2.097   7.787   4.678 -0.1166  0.4061  0.3233
 6157TIP3    H118428   2.026   7.771   4.740  1.3670 -0.9292  1.7626
 6157TIP3    H218429   2.072   7.867   4.633 -3.1777 -0.7098 -0.1956
 6158TIP3   OH218430   6.590   5.552   2.714  0.1717  0.2714  0.0617
 6158TIP3    H118431   6.578   5.510   2.629 -0.0549 -0.5651  0.5056
 6158TIP3    H218432   6.557   5.641   2.701 -0.9771 -0.1980 -0.4055
 6159TIP3   OH218433   6.372   3.191   5.103 -0.1319 -0.2044 -0.0640
 6159TIP3    H118434   6.297   3.223   5.152  0.3321  0.8108  0.0047
 6159TIP3    H218435   6.434   3.162   5.170  0.0495  0.1542 -0.0709
 6160TIP3   OH218436   1.709   0.376   1.507  0.6878 -0.2031 -0.8766
 6160TIP3    H118437   1.801   0.352   1.520  0.4014 -0.7074  0.3495
 6160TIP3    H218438   1.713   0.465   1.472  1.6631 -0.6198 -1.9135
 6161TIP3   OH218439   5.270   3.574   2.404 -0.4864  0.2744 -0.8350
 6161TIP3    H118440   5.212   3.548   2.333 -0.8517 -2.2950  0.3016
 6161TIP3    H218441   5.212   3.585   2.479  0.0444  1.7799 -0.6059
 6162TIP3   OH218442   5.304   5.070   3.842  0.0932 -0.1808  0.5509
 6162TIP3    H118443   5.330   4.977   3.844 -0.1886 -0.2510  1.6411
 6162TIP3    H218444   5.258   5.080   3.759 -0.4537 -1.1852  0.7124
 6163TIP3   OH218445   4.288   6.722   5.633  0.0486  0.2756  0.0129
 6163TIP3    H118446   4.241   6.659   5.688  0.7410  1.7890  2.5251
 6163TIP3    H218447   4.380   6.703   5.649  0.3185 -0.5633 -2.3102
 6164TIP3   OH218448   1.005   1.856   6.646 -0.0181  0.0715 -0.5347
 6164TIP3    H118449   1.099   1.864   6.631  0.1794  0.5414  0.7884
 6164TIP3    H218450   0.967   1.928   6.596  0.3083 -0.1955 -1.1736
 6165TIP3   OH218451   7.095   5.594   0.020 -0.1963 -0.4771 -0.1893
 6165TIP3    H118452   7.180   5.560   0.049  0.0236 -0.1827 -0.4776
 6165TIP3    H218453   7.039   5.590   0.098 -0.2123 -1.5981 -0.2350
 6166TIP3   OH218454   3.981   3.167   4.841 -0.9476 -0.0427 -0.0045
 6166TIP3    H118455   4.052   3.141   4.782  0.4315  3.8014 -0.3830
 6166TIP3    H218456   3.901   3.153   4.791  0.0303  0.8538 -1.9464
 6167TIP3   OH218457   6.896   0.269   6.588 -0.0705  0.0601 -0.0301
 6167TIP3    H118458   6.899   0.242   6.680 -3.0370  0.2954  0.2407
 6167TIP3    H218459   6.861   0.358   6.591 -1.0793 -0.2577 -1.4089
 6168TIP3   OH218460   2.291   0.174   2.736  0.3711  0.3889  0.1414
 6168TIP3    H118461   2.380   0.138   2.733  0.5860  0.9595 -1.7346
 6168TIP3    H218462   2.303   0.264   2.767  0.0121 -0.5305  3.2388
 6169TIP3   OH218463   4.253   2.003   2.764 -0.0848  0.0101  0.6597
 6169TIP3    H118464   4.269   2.023   2.856 -1.1004  1.1941  0.5963
 6169TIP3    H218465   4.321   2.050   2.716 -0.8168  1.1323  0.6893
 6170TIP3   OH218466   2.889   7.249   5.308 -0.0166 -0.3857 -0.0932
 6170TIP3    H118467   2.821   7.181   5.308 -0.9317  0.5023 -0.2757
 6170TIP3    H218468   2.844   7.327   5.276  0.7678  0.5533  1.0135
 6171TIP3   OH218469   3.094   1.643   5.829 -0.0955 -0.1961 -0.0769
 6171TIP3    H118470   3.009   1.687   5.824 -0.0692  0.0558  1.4154
 6171TIP3    H218471   3.077   1.553   5.801 -0.8965 -0.2044  0.4304
 6172TIP3   OH218472   4.814   4.834   3.446  0.1617 -0.1224  0.1832
 6172TIP3    H118473   4.735   4.834   3.393 -0.2018  1.1832  0.6952
 6172TIP3    H218474   4.858   4.751   3.424 -1.9348 -1.4540  0.7760
 6173TIP3   OH218475   1.470   2.131   0.508  0.0087  0.6039 -0.1796
 6173TIP3    H118476   1.543   2.111   0.449  0.1063  2.3855 -0.7291
 6173TIP3    H218477   1.513   2.169   0.585 -0.2512  0.1840  0.1731
 6174TIP3   OH218478   1.599   5.036   2.100  0.1320  0.1993  0.5401
 6174TIP3    H118479   1.597   4.941   2.108  0.6514 -0.1267 -2.3162
 6174TIP3    H218480   1.508   5.063   2.112 -0.0409 -0.6510  1.2403
 6175TIP3   OH218481   1.174   0.237   5.309  0.4548 -0.0269 -0.0127
 6175TIP3    H118482   1.240   0.207   5.372  0.7909  0.5361 -0.0950
 6175TIP3    H218483   1.168   0.331   5.324 -0.6104 -0.1227  0.2591
 6176TIP3   OH218484   6.079   1.460   1.439  0.6383  0.1006  0.0332
 6176TIP3    H118485   6.092   1.382   1.385  1.0555  0.6114 -0.6164
 6176TIP3    H218486   6.067   1.531   1.376 -0.9464  0.3761  0.6195
 6177TIP3   OH218487   1.307   3.852   4.395  0.0497  0.2280 -0.2729
 6177TIP3    H118488   1.337   3.904   4.470 -0.7212 -0.4125  0.5030
 6177TIP3    H218489   1.218   3.884   4.378 -0.8439 -1.4708  0.8763
 6178TIP3   OH218490   0.642   6.662   2.443 -0.3576 -0.4073  0.0455
 6178TIP3    H118491   0.608   6.702   2.524  0.1142  0.0178  0.0419
 6178TIP3    H218492   0.599   6.711   2.373 -1.1061 -1.0717  0.0320
 6179TIP3   OH218493   7.076   0.218   0.587  0.1530  0.4401 -0.4256
 6179TIP3    H118494   7.059   0.194   0.679  0.6791  1.5051 -0.0351
 6179TIP3    H218495   7.027   0.299   0.574  0.6154  0.6516 -0.8851
 6180TIP3   OH218496   5.022   3.318   5.425  0.2956  0.1263  0.9742
 6180TIP3    H118497   5.010   3.412   5.417 -0.9756  0.0885  1.9632
 6180TIP3    H218498   5.099   3.298   5.373 -0.4203  1.4569 -0.6663
 6181TIP3   OH218499   6.524   2.874   3.562 -0.2292  0.4352 -0.2925
 6181TIP3    H118500   6.501   2.814   3.634 -0.0005  2.4865  1.6043
 6181TIP3    H218501   6.525   2.818   3.484  1.0229 -2.2456  1.4843
 6182TIP3   OH218502   3.483   7.598   5.656 -0.0535  0.3563 -0.0397
 6182TIP3    H118503   3.409   7.577   5.598  0.7160 -1.1605 -0.5213
 6182TIP3    H218504   3.559   7.602   5.598  0.8073 -1.6527  0.8809
 6183TIP3   OH218505   4.672   1.648   0.366  0.0380  0.1094 -0.0663
 6183TIP3    H118506   4.611   1.661   0.439  1.2391 -1.5564  1.3320
 6183TIP3    H218507   4.745   1.707   0.386  1.5230 -2.0896  1.5763
 6184TIP3   OH218508   7.909   7.105   6.213 -0.2886 -0.0690  0.0279
 6184TIP3    H118509   7.870   7.093   6.127 -0.5568 -0.3213  0.1833
 6184TIP3    H218510   8.003   7.095   6.198 -0.0936  2.1146 -0.6386
 6185TIP3   OH218511   6.859   1.776   5.706 -0.3766  0.1203 -0.2926
 6185TIP3    H118512   6.835   1.838   5.774 -0.0967  1.6335 -1.5090
 6185TIP3    H218513   6.837   1.820   5.624 -1.4455 -1.9551 -1.1969
 6186TIP3   OH218514   3.408   1.280   4.839  0.2615 -0.2597  0.1803
 6186TIP3    H118515   3.425   1.195   4.882 -0.3932  0.1034  1.1926
 6186TIP3    H218516   3.413   1.344   4.910 -2.3163  0.2102  0.0173
 6187TIP3   OH218517   6.140   0.907   3.072  0.0116  0.0752  0.0793
 6187TIP3    H118518   6.062   0.962   3.066 -0.6302 -0.6868  1.0714
 6187TIP3    H218519   6.135   0.867   3.158  1.1446 -0.5336 -0.1110
 6188TIP3   OH218520   4.915   0.934   6.522 -0.5477  0.0841  0.3470
 6188TIP3    H118521   4.942   0.915   6.432 -2.3494  0.2371 -0.2804
 6188TIP3    H218522   4.829   0.974   6.512 -1.4187 -1.1821  2.2139
 6189TIP3   OH218523   7.833   4.321   2.867 -0.5662  0.3747 -0.1889
 6189TIP3    H118524   7.741   4.312   2.890 -0.0328 -0.0584  1.9733
 6189TIP3    H218525   7.878   4.255   2.919  1.2955  2.6175  1.2598
 6190TIP3   OH218526   6.121   3.502   1.804 -0.4525  0.3080  0.0649
 6190TIP3    H118527   6.159   3.436   1.746  0.0125  1.8728 -1.4865
 6190TIP3    H218528   6.026   3.488   1.798 -0.4392  0.7579 -1.4972
 6191TIP3   OH218529   6.994   4.584   2.308 -0.0821 -0.4891  0.1390
 6191TIP3    H118530   7.068   4.558   2.253  0.3577  0.1823  0.3916
 6191TIP3    H218531   6.917   4.561   2.257  0.3170  0.3906 -0.8917
 6192TIP3   OH218532   1.801   4.852   4.985 -0.1529  0.4401  0.1820
 6192TIP3    H118533   1.709   4.827   4.986 -0.7522  2.4668  1.8596
 6192TIP3    H218534   1.848   4.774   5.014 -1.3549 -0.5049 -0.3624
 6193TIP3   OH218535   5.676   2.443   3.727 -0.0325  0.1648 -0.1142
 6193TIP3    H118536   5.674   2.352   3.755  0.3971  0.2701  0.2554
 6193TIP3    H218537   5.674   2.493   3.808  0.0278  0.4833 -0.3080
 6194TIP3   OH218538   7.709   0.875   5.277 -0.1269 -0.3567  0.0976
 6194TIP3    H118539   7.631   0.928   5.259  0.3708  0.5654  0.5301
 6194TIP3    H218540   7.675   0.792   5.309 -0.9353  0.0173  0.2361
 6195TIP3   OH218541   6.703   2.391   0.102 -0.0559 -0.5577  0.2384
 6195TIP3    H118542   6.794   2.361   0.097  0.2187  0.0737  1.0890
 6195TIP3    H218543   6.683   2.390   0.195 -0.9329 -0.7010  0.0548
 6196TIP3   OH218544   2.421   5.209   0.872 -0.4661 -0.2112  0.2220
 6196TIP3    H118545   2.426   5.168   0.959  0.2744  0.5459  0.5489
 6196TIP3    H218546   2.421   5.303   0.890  0.6246 -0.0368 -0.6408
 6197TIP3   OH218547   5.155   4.689   0.346 -0.0968 -1.1189  0.2116
 6197TIP3    H118548   5.190   4.778   0.344  0.3214 -1.2888 -0.0701
 6197TIP3    H218549   5.060   4.701   0.339  0.0240 -0.7483 -0.9394
 6198TIP3   OH218550   1.640   3.348   4.948  0.3329 -0.0754  0.3912
 6198TIP3    H118551   1.551   3.314   4.943 -0.1482  0.7925  2.1320
 6198TIP3    H218552   1.684   3.290   5.010  1.2529 -0.9986 -1.0850
 6199TIP3   OH218553   1.244   0.670   1.794 -0.2051  0.4765  0.9787
 6199TIP3    H118554   1.212   0.753   1.830  0.0821  1.6531 -1.2745
 6199TIP3    H218555   1.166   0.627   1.760 -0.0543  1.1211 -0.2482
 6200TIP3   OH218556   1.291   2.491   1.038 -0.0243 -0.1532 -0.1865
 6200TIP3    H118557   1.284   2.441   0.956  0.6890 -1.2835  0.4159
 6200TIP3    H218558   1.381   2.475   1.068  0.2866  1.6386 -0.0370
 6201TIP3   OH218559   7.337   5.005   2.125 -0.2209 -0.1472  0.3091
 6201TIP3    H118560   7.360   4.985   2.215  0.6476  0.8284  0.3200
 6201TIP3    H218561   7.419   4.998   2.076 -0.6984 -0.7660 -0.4256
 6202TIP3   OH218562   6.182   6.079   6.442 -0.3602  0.3298 -0.2911
 6202TIP3    H118563   6.130   6.069   6.363 -0.9985  2.2011 -0.1495
 6202TIP3    H218564   6.128   6.040   6.511 -1.4609  1.9202 -0.2071
 6203TIP3   OH218565   5.950   7.211   6.613  0.2093  0.5214 -0.2728
 6203TIP3    H118566   6.002   7.260   6.550  0.2793  1.5378  0.5594
 6203TIP3    H218567   6.013   7.153   6.656  0.0531 -0.6328 -1.5440
 6204TIP3   OH218568   3.542   0.893   5.718 -0.1441 -0.0010 -0.3259
 6204TIP3    H118569   3.632   0.899   5.685 -0.7496 -0.8951 -2.2739
 6204TIP3    H218570   3.552   0.876   5.812  1.6878  1.2146 -0.2389
 6205TIP3   OH218571   6.943   1.875   3.719 -0.6226 -0.1135  0.0795
 6205TIP3    H118572   6.926   1.802   3.660 -0.0644  0.4159 -0.7632
 6205TIP3    H218573   6.857   1.900   3.752 -0.7243 -1.7501  1.1425
 6206TIP3   OH218574   4.930   2.570   4.838  0.1657 -0.0191  0.4105
 6206TIP3    H118575   4.915   2.625   4.914  2.3381 -0.4639  1.2195
 6206TIP3    H218576   4.846   2.525   4.824 -0.4707  0.5905  2.0921
 6207TIP3   OH218577   2.755   2.894   5.388 -0.1920 -0.6129 -0.2031
 6207TIP3    H118578   2.781   2.901   5.296  0.5006  0.7420  0.0765
 6207TIP3    H218579   2.823   2.841   5.429  1.2500  1.4098  0.1485
 6208TIP3   OH218580   3.472   1.346   5.222  0.1162 -0.6911  0.0726
 6208TIP3    H118581   3.528   1.269   5.221 -0.3742 -1.0468 -0.3055
 6208TIP3    H218582   3.512   1.405   5.157  1.2945 -0.0285  1.3469
 6209TIP3   OH218583   3.111   3.844   6.041  0.4015 -0.1113  0.3202
 6209TIP3    H118584   3.136   3.776   6.104 -0.8827 -0.6168  0.3119
 6209TIP3    H218585   3.187   3.851   5.983  1.3135 -0.1654  1.4643
 6210TIP3   OH218586   5.732   1.753   4.665 -0.2664 -0.2214  0.0049
 6210TIP3    H118587   5.789   1.801   4.725 -0.4483 -0.4182  0.3404
 6210TIP3    H218588   5.767   1.665   4.664 -0.8725 -0.4873  0.6390
 6211TIP3   OH218589   2.935   0.457   2.547  0.5228 -0.5073 -0.1711
 6211TIP3    H118590   3.008   0.494   2.497  0.2907 -0.1665 -0.2578
 6211TIP3    H218591   2.890   0.533   2.584 -0.7132 -0.6248 -1.3778
 6212TIP3   OH218592   3.582   4.071   5.702 -0.2678  0.2474  0.3981
 6212TIP3    H118593   3.510   4.101   5.757  0.6200 -0.7814  2.1946
 6212TIP3    H218594   3.542   4.007   5.643 -1.3339  1.7555 -0.6248
 6213TIP3   OH218595   3.227   0.201   2.044  0.4083  0.6402 -0.4033
 6213TIP3    H118596   3.138   0.200   2.010  0.1571 -0.6809  0.2317
 6213TIP3    H218597   3.216   0.212   2.139  0.7859 -1.6349 -0.0495
 6214TIP3   OH218598   3.002   3.541   5.818 -0.0905 -0.0842 -0.4115
 6214TIP3    H118599   3.014   3.472   5.883  0.5448  0.6626  0.2853
 6214TIP3    H218600   3.065   3.520   5.748  0.3652 -0.0206 -0.0282
 6215TIP3   OH218601   0.759   2.815   2.163 -0.4815  0.5891 -0.0219
 6215TIP3    H118602   0.717   2.809   2.077 -1.3250 -0.4067  0.4456
 6215TIP3    H218603   0.812   2.895   2.158 -1.4882  1.2173 -1.0392
 6216TIP3   OH218604   6.864   0.251   1.756 -0.0070  0.3181  0.2159
 6216TIP3    H118605   6.891   0.331   1.710 -0.3814  1.0149  1.1918
 6216TIP3    H218606   6.837   0.192   1.686  1.2883  0.6346 -0.6019
 6217TIP3   OH218607   2.652   2.554   4.164  0.1351 -0.6923 -0.2127
 6217TIP3    H118608   2.605   2.524   4.086  0.9917  0.2879 -1.1279
 6217TIP3    H218609   2.583   2.573   4.227 -0.6365 -0.4835 -1.0942
 6218TIP3   OH218610   3.332   0.529   0.157  0.3019 -0.1605 -0.5795
 6218TIP3    H118611   3.424   0.547   0.138  0.4229  0.7028  0.6957
 6218TIP3    H218612   3.333   0.448   0.207  0.5699  0.7038  0.8945
 6219TIP3   OH218613   5.379   1.981   0.694  0.2916  0.2274  0.0760
 6219TIP3    H118614   5.335   1.966   0.610  0.5561 -0.1087 -0.0029
 6219TIP3    H218615   5.406   1.894   0.723  3.2067  0.6405 -1.1235
 6220TIP3   OH218616   7.881   6.223   4.076  0.2127  0.5196 -0.1390
 6220TIP3    H118617   7.791   6.225   4.108  0.3211 -1.4889  0.3997
 6220TIP3    H218618   7.931   6.184   4.147  1.4321  1.0894 -0.6497
 6221TIP3   OH218619   6.019   0.114   4.151 -0.6428 -0.7112 -0.0739
 6221TIP3    H118620   5.932   0.138   4.119  0.2171  0.6046 -1.5552
 6221TIP3    H218621   6.035   0.174   4.224 -0.4372  0.0063 -0.6953
 6222TIP3   OH218622   1.668   4.061   1.612 -0.9095 -0.1726  0.1404
 6222TIP3    H118623   1.728   4.003   1.565 -0.7327 -1.0840  1.4345
 6222TIP3    H218624   1.638   4.009   1.687 -0.2033  1.6126  1.7552
 6223TIP3   OH218625   2.144   0.144   0.735  0.1716 -0.2277  0.4972
 6223TIP3    H118626   2.139   0.051   0.758 -1.6383  0.0805  1.5359
 6223TIP3    H218627   2.233   0.170   0.760  0.2243 -1.3488  1.5858
 6224TIP3   OH218628   6.484   4.314   6.349 -0.2154 -0.1389 -0.4162
 6224TIP3    H118629   6.425   4.332   6.276  0.3209 -2.5266 -1.5238
 6224TIP3    H218630   6.455   4.231   6.384 -0.9994  1.3477  2.7681
 6225TIP3   OH218631   2.159   5.211   1.894  0.3768  0.2172  0.4685
 6225TIP3    H118632   2.153   5.159   1.975 -0.8626 -1.2033 -0.4934
 6225TIP3    H218633   2.081   5.267   1.896 -0.1856 -0.5282 -0.1986
 6226TIP3   OH218634   3.290   0.875   1.578  0.2192  0.5288  0.1345
 6226TIP3    H118635   3.381   0.902   1.583  0.1337  0.9979 -0.6131
 6226TIP3    H218636   3.292   0.797   1.522  0.3930 -0.7324  1.7990
 6227TIP3   OH218637   4.368   0.683   2.820  0.4065  0.0503  0.4918
 6227TIP3    H118638   4.458   0.654   2.804 -1.1658 -4.3714 -2.1326
 6227TIP3    H218639   4.354   0.666   2.913  1.1864 -3.5639  0.1133
 6228TIP3   OH218640   4.214   2.257   2.016  0.0704 -0.3160  0.0905
 6228TIP3    H118641   4.206   2.192   2.086 -2.5765 -1.9246 -1.5443
 6228TIP3    H218642   4.246   2.207   1.941 -1.2123  0.4259 -0.9828
 6229TIP3   OH218643   4.404   2.543   3.679  0.3532  0.9516 -0.8702
 6229TIP3    H118644   4.459   2.620   3.691  2.3582 -0.3687 -1.1500
 6229TIP3    H218645   4.448   2.474   3.729 -0.6436 -0.3456 -1.7071
 6230TIP3   OH218646   7.090   1.092   5.087 -0.3930 -0.5382 -0.1576
 6230TIP3    H118647   7.100   1.065   4.996  0.7909  1.8674 -0.8087
 6230TIP3    H218648   7.008   1.050   5.115  0.0707 -2.6913 -1.7538
 6231TIP3   OH218649   2.424   0.592   1.768  0.2970  0.0433 -0.0325
 6231TIP3    H118650   2.331   0.597   1.786  0.3061 -0.3745  0.1502
 6231TIP3    H218651   2.460   0.674   1.803  0.0626  0.0122  0.2843
 6232TIP3   OH218652   0.700   6.083   3.430  0.0587  0.5876  0.0935
 6232TIP3    H118653   0.659   6.005   3.466 -0.6947  1.0575  0.2957
 6232TIP3    H218654   0.673   6.084   3.338  2.1993 -0.7522 -0.5976
 6233TIP3   OH218655   2.857   0.736   1.487  0.1955 -0.1452 -0.6533
 6233TIP3    H118656   2.824   0.747   1.398 -1.0272  0.2098 -0.1749
 6233TIP3    H218657   2.838   0.645   1.508 -2.0946  0.4525  0.2024
 6234TIP3   OH218658   1.114   2.131   0.610  0.1607 -0.0456 -0.3649
 6234TIP3    H118659   1.161   2.115   0.691 -0.7312 -0.5533  0.0679
 6234TIP3    H218660   1.143   2.219   0.582  0.4769  0.1279  0.4846
 6235TIP3   OH218661   7.503   0.870   6.214  0.6963 -0.0508  0.1391
 6235TIP3    H118662   7.560   0.856   6.139  2.5627  0.3188  1.4031
 6235TIP3    H218663   7.561   0.907   6.281 -0.3906 -2.2349  2.4518
 6236TIP3   OH218664   3.980   1.528   5.778  0.1454 -0.0282  0.0889
 6236TIP3    H118665   4.023   1.512   5.695  0.3107  0.0899  0.1517
 6236TIP3    H218666   3.984   1.623   5.790 -0.1849 -0.0115  0.0657
 6237TIP3   OH218667   7.369   1.922   5.484 -0.0879 -0.4141  0.5781
 6237TIP3    H118668   7.446   1.920   5.542 -0.0146 -0.4690  0.4800
 6237TIP3    H218669   7.331   1.835   5.492 -0.2633 -0.3218  0.7878
 6238TIP3   OH218670   6.794   5.416   6.562 -0.0398  0.1883 -0.0607
 6238TIP3    H118671   6.885   5.389   6.569  0.1026  0.7563  0.2806
 6238TIP3    H218672   6.776   5.416   6.468 -0.4672 -2.4488 -0.0604
 6239TIP3   OH218673   5.986   2.615   1.898  0.0962 -0.3523  0.1287
 6239TIP3    H118674   6.025   2.593   1.983 -0.9797  0.7868  0.9631
 6239TIP3    H218675   5.892   2.602   1.911 -0.2834  1.6483 -0.2678
 6240TIP3   OH218676   4.120   3.000   5.662  0.1436  0.2868 -0.2790
 6240TIP3    H118677   4.134   3.074   5.720  0.5584 -0.6448  0.8529
 6240TIP3    H218678   4.155   2.925   5.710  0.5721 -0.5080 -1.7734
 6241TIP3   OH218679   5.884   5.749   3.595  0.5688 -0.2247  0.5067
 6241TIP3    H118680   5.951   5.687   3.568  1.6205 -0.3025  3.0425
 6241TIP3    H218681   5.878   5.811   3.522  3.5576 -0.1202  0.2272
 6242TIP3   OH218682   5.347   5.281   4.448 -0.2127  0.2063 -0.2984
 6242TIP3    H118683   5.396   5.333   4.384  2.2632 -1.2084  0.3407
 6242TIP3    H218684   5.386   5.194   4.443 -2.4059 -0.9008  0.6145
 6243TIP3   OH218685   8.108   1.730   1.754 -0.1740 -0.6000 -0.1294
 6243TIP3    H118686   8.096   1.748   1.661 -1.2394  1.2240  0.3250
 6243TIP3    H218687   8.021   1.709   1.786 -0.1005  0.3609  0.7528
 6244TIP3   OH218688   0.320   3.152   4.195  0.2929  0.1869  0.4581
 6244TIP3    H118689   0.373   3.227   4.169 -0.6241  1.4642  2.1139
 6244TIP3    H218690   0.381   3.094   4.241  1.0236 -0.1820 -0.9069
 6245TIP3   OH218691   7.326   3.522   2.340 -0.5089  0.4567 -0.1956
 6245TIP3    H118692   7.299   3.611   2.316 -1.8909 -0.1801 -1.1290
 6245TIP3    H218693   7.321   3.472   2.259  3.0609  0.0886 -0.3477
 6246TIP3   OH218694   3.720   7.062   0.975  0.2021  0.2258  0.0846
 6246TIP3    H118695   3.668   7.019   1.042  0.4586  1.7116  1.2862
 6246TIP3    H218696   3.786   6.997   0.949  1.0186  0.0847  2.3327
 6247TIP3   OH218697   7.472   3.633   5.433  0.4668  0.1874  0.1264
 6247TIP3    H118698   7.469   3.557   5.375 -4.1225  1.3654 -1.5997
 6247TIP3    H218699   7.533   3.693   5.389  1.2979 -1.0436 -0.4735
 6248TIP3   OH218700   7.576   7.161   1.145  0.4532 -0.1663  0.5412
 6248TIP3    H118701   7.582   7.239   1.201  0.4209  0.5613 -0.4394
 6248TIP3    H218702   7.620   7.187   1.064  1.0361 -1.4118  0.4423
 6249TIP3   OH218703   6.520   3.130   0.657 -0.1293  0.2651  0.1381
 6249TIP3    H118704   6.610   3.144   0.631  0.2996 -1.5542  0.5066
 6249TIP3    H218705   6.510   3.182   0.737  1.8133 -2.4171  2.3026
 6250TIP3   OH218706   7.062   3.888   3.037  0.3139 -0.0976  0.1875
 6250TIP3    H118707   7.112   3.969   3.035 -0.5586  0.4369 -0.9386
 6250TIP3    H218708   6.980   3.912   3.079  0.7092 -0.8288  1.4502
 6251TIP3   OH218709   1.794   1.556   3.665 -0.5956  0.2287 -0.4138
 6251TIP3    H118710   1.776   1.490   3.732  0.8482  0.9166  0.7103
 6251TIP3    H218711   1.759   1.518   3.584 -1.1303 -1.2470  0.4643
 6252TIP3   OH218712   1.568   0.079   3.289 -0.4105 -0.0022 -0.1548
 6252TIP3    H118713   1.514   0.153   3.318  1.1240  1.4523 -0.8349
 6252TIP3    H218714   1.620   0.056   3.366 -1.0814 -0.5639  0.1354
 6253TIP3   OH218715   8.168   2.397   1.852 -0.1093 -0.3949 -0.3835
 6253TIP3    H118716   8.232   2.377   1.921  0.3184  1.0701 -0.3252
 6253TIP3    H218717   8.093   2.433   1.899  0.5152  1.4234 -0.6956
 6254TIP3   OH218718   3.251   7.217   4.067  0.1808  0.2514 -0.2531
 6254TIP3    H118719   3.307   7.140   4.073  0.0050  0.0837 -0.7593
 6254TIP3    H218720   3.162   7.181   4.058  0.0143  0.5140  0.2946
 6255TIP3   OH218721   8.202   3.426   4.713 -0.6723 -0.4457  0.2741
 6255TIP3    H118722   8.186   3.500   4.654  0.7917 -0.0567  0.3397
 6255TIP3    H218723   8.206   3.465   4.800 -1.9096 -0.9008  0.5622
 6256TIP3   OH218724   6.706   7.332   0.623 -0.4116  0.4358 -0.0033
 6256TIP3    H118725   6.749   7.387   0.558 -2.6468 -0.3139 -2.2775
 6256TIP3    H218726   6.627   7.380   0.647 -0.8492 -0.4016  0.2786
 6257TIP3   OH218727   4.805   4.970   1.277 -0.0639 -0.6427  0.7019
 6257TIP3    H118728   4.762   4.885   1.275  0.4376 -0.9547 -2.1744
 6257TIP3    H218729   4.738   5.031   1.245  0.7538 -0.7257 -1.3462
 6258TIP3   OH218730   8.054   6.968   1.597  0.1088 -0.2815 -0.6746
 6258TIP3    H118731   8.102   6.901   1.549 -1.0053 -1.2690 -0.4668
 6258TIP3    H218732   8.089   7.051   1.565  0.5363 -0.9390 -1.9689
 6259TIP3   OH218733   1.547   2.376   1.121 -0.2894 -0.5305 -0.0128
 6259TIP3    H118734   1.607   2.442   1.153 -2.4283  0.6847  1.7616
 6259TIP3    H218735   1.534   2.317   1.195 -0.7349 -1.2115 -0.6092
 6260TIP3   OH218736   6.074   4.597   3.588 -0.2488 -0.9344 -0.2407
 6260TIP3    H118737   6.027   4.648   3.523  0.0593  0.3474  0.5130
 6260TIP3    H218738   6.048   4.634   3.672  3.2978  1.0034  0.1947
 6261TIP3   OH218739   3.831   1.538   2.796  0.2261 -0.3489  0.2828
 6261TIP3    H118740   3.800   1.616   2.843  1.8426 -0.3746  1.5116
 6261TIP3    H218741   3.756   1.479   2.794 -0.6610  0.7368  0.4509
 6262TIP3   OH218742   7.574   0.679   5.029 -0.2132 -0.3181 -0.0614
 6262TIP3    H118743   7.647   0.661   5.089  0.0057 -1.2763 -0.6067
 6262TIP3    H218744   7.510   0.610   5.047  0.6537 -1.7660 -2.2012
 6263TIP3   OH218745   6.500   2.429   4.283  0.0740 -0.7171 -0.1255
 6263TIP3    H118746   6.535   2.455   4.198  0.2570 -0.9280 -0.1138
 6263TIP3    H218747   6.415   2.391   4.263 -0.1159 -0.2750 -0.1619
 6264TIP3   OH218748   7.068   2.651   3.197 -0.2657  0.2859 -0.6495
 6264TIP3    H118749   6.989   2.598   3.201 -0.5820  0.6764 -1.4812
 6264TIP3    H218750   7.140   2.588   3.201 -0.6364 -0.1904 -1.3103
 6265TIP3   OH218751   6.843   0.263   1.142 -0.3297 -0.2504 -0.0531
 6265TIP3    H118752   6.796   0.338   1.180  0.7675  0.4556 -0.0562
 6265TIP3    H218753   6.813   0.260   1.051 -0.8649 -0.2243  0.1155
 6266TIP3   OH218754   3.812   3.393   3.615  0.0078  0.0959 -0.4168
 6266TIP3    H118755   3.889   3.349   3.651 -0.5985  0.6402  1.7180
 6266TIP3    H218756   3.823   3.485   3.641 -0.7942  0.4060 -1.1174
 6267TIP3   OH218757   7.306   5.344   1.992  0.0389  0.4360 -0.3578
 6267TIP3    H118758   7.348   5.260   1.971  2.5111  1.5514 -0.2761
 6267TIP3    H218759   7.306   5.392   1.909  1.1278  1.3060  0.1040
 6268TIP3   OH218760   2.608   4.450   3.335  0.4370 -0.4233 -0.0350
 6268TIP3    H118761   2.565   4.500   3.405  1.1809  0.0852  0.0696
 6268TIP3    H218762   2.674   4.510   3.301  2.3969 -1.8413  1.0971
 6269TIP3   OH218763   8.016   5.855   5.782  0.1885 -0.2630  0.0954
 6269TIP3    H118764   7.952   5.904   5.731  0.1705 -2.3212 -2.0829
 6269TIP3    H218765   7.965   5.812   5.851 -0.0873  1.1701  0.8190
 6270TIP3   OH218766   4.331   7.056   5.898 -0.3039  0.1307  0.1607
 6270TIP3    H118767   4.250   7.009   5.877 -0.1041 -0.8685  1.4374
 6270TIP3    H218768   4.317   7.144   5.865 -0.9108 -0.6633 -1.8545
 6271TIP3   OH218769   2.496   2.335   2.779  0.6465  0.3747  0.1255
 6271TIP3    H118770   2.535   2.394   2.715  2.0968 -0.8053 -0.1049
 6271TIP3    H218771   2.566   2.316   2.841  0.1693 -0.9859  0.2843
 6272TIP3   OH218772   5.552   3.888   2.439 -0.0684  0.6794 -0.1801
 6272TIP3    H118773   5.555   3.811   2.496  1.0705  2.2725  2.0747
 6272TIP3    H218774   5.459   3.898   2.417 -0.2403 -1.3208 -0.6081
 6273TIP3   OH218775   6.277   5.414   5.596  0.5118 -0.0987 -0.1710
 6273TIP3    H118776   6.202   5.382   5.545 -0.9879  1.7807  0.7414
 6273TIP3    H218777   6.301   5.339   5.651  0.3991 -1.2634 -1.6317
 6274TIP3   OH218778   4.814   0.087   4.146 -0.3131  0.0979  0.3128
 6274TIP3    H118779   4.774   0.045   4.070 -0.7895  0.7441  0.1994
 6274TIP3    H218780   4.896   0.040   4.159 -0.5809 -0.5128 -0.1402
 6275TIP3   OH218781   0.443   2.668   0.423 -0.3088  0.3033  0.2339
 6275TIP3    H118782   0.369   2.630   0.470 -2.7864  0.9385 -2.8120
 6275TIP3    H218783   0.408   2.690   0.337  3.6484 -0.1149 -1.7373
 6276TIP3   OH218784   2.252   0.341   0.287  0.0341  0.6358 -0.9086
 6276TIP3    H118785   2.284   0.414   0.235 -0.7681  1.9680  0.4043
 6276TIP3    H218786   2.160   0.361   0.303  0.2154  0.2164  0.8869
 6277TIP3   OH218787   2.642   7.161   2.426  0.0279  0.0460  0.0187
 6277TIP3    H118788   2.666   7.206   2.506 -1.0209  1.2005 -0.2786
 6277TIP3    H218789   2.724   7.124   2.393  0.4878 -0.3754  1.5506
 6278TIP3   OH218790   6.651   5.837   4.581 -0.0759  0.1250  0.0610
 6278TIP3    H118791   6.699   5.844   4.664 -0.4604 -0.7822  0.3667
 6278TIP3    H218792   6.720   5.828   4.515  0.3386  2.6373  0.0234
 6279TIP3   OH218793   1.924   1.243   4.064 -0.7334  0.5784 -0.0174
 6279TIP3    H118794   2.005   1.291   4.073 -0.8102  0.8833 -0.9081
 6279TIP3    H218795   1.864   1.284   4.126  0.0757 -0.3175  1.4171
 6280TIP3   OH218796   4.184   2.948   2.359 -0.3873  0.5486  0.4302
 6280TIP3    H118797   4.103   2.995   2.376 -0.3793  0.5346  0.5047
 6280TIP3    H218798   4.200   2.960   2.265 -0.8547 -0.0480  0.2713
 6281TIP3   OH218799   0.578   2.300   2.825  0.2704  0.4894 -0.3920
 6281TIP3    H118800   0.548   2.292   2.916  1.0907  3.8269  0.3417
 6281TIP3    H218801   0.526   2.372   2.789  1.2690  0.4871 -1.9324
 6282TIP3   OH218802   2.609   2.829   0.860  0.4660  0.0369  0.0842
 6282TIP3    H118803   2.596   2.906   0.805 -0.4792 -1.5312 -2.0592
 6282TIP3    H218804   2.528   2.821   0.911 -0.3559 -0.6843 -1.2813
 6283TIP3   OH218805   6.193   2.524   5.543 -0.2049 -0.2050 -0.4165
 6283TIP3    H118806   6.144   2.506   5.623 -0.2622 -0.9617 -0.6226
 6283TIP3    H218807   6.209   2.619   5.547 -3.1858  0.4299 -1.2071
 6284TIP3   OH218808   5.210   3.990   3.048 -0.4611  0.6068 -0.0727
 6284TIP3    H118809   5.272   3.941   2.994  1.5978  0.6660  2.0629
 6284TIP3    H218810   5.142   3.926   3.070  0.7264 -0.5360  0.4107
 6285TIP3   OH218811   3.107   3.758   1.181  0.2044  0.7604 -0.0172
 6285TIP3    H118812   3.166   3.832   1.168  0.5743  0.5959  0.6642
 6285TIP3    H218813   3.100   3.749   1.276 -0.7937  0.6741 -0.0839
 6286TIP3   OH218814   4.564   1.041   4.698 -0.3658 -0.2082  0.1320
 6286TIP3    H118815   4.470   1.058   4.698  0.0272  2.5943 -1.7073
 6286TIP3    H218816   4.575   0.964   4.643 -1.5446 -0.2417 -0.0773
 6287TIP3   OH218817   3.198   1.925   1.174  0.4409  0.1624  0.1965
 6287TIP3    H118818   3.124   1.869   1.199  0.1968 -0.0848 -1.0054
 6287TIP3    H218819   3.264   1.864   1.143  0.9046  0.4317  0.6449
 6288TIP3   OH218820   3.617   1.950   5.075 -0.3522  0.3842 -0.0471
 6288TIP3    H118821   3.569   1.915   5.151  0.6842 -1.0557 -0.0106
 6288TIP3    H218822   3.709   1.935   5.097  0.0441  1.5688 -0.8455
 6289TIP3   OH218823   7.479   1.398   5.835  0.1585  0.0283 -0.2916
 6289TIP3    H118824   7.436   1.469   5.882  0.1302 -0.0196 -0.2446
 6289TIP3    H218825   7.474   1.423   5.743  2.3075  1.2970 -0.1293
 6290TIP3   OH218826   4.155   6.376   0.332 -0.3950 -0.0790  0.9771
 6290TIP3    H118827   4.199   6.293   0.349 -2.7790 -1.5921  0.2050
 6290TIP3    H218828   4.194   6.408   0.250 -0.5367 -1.2456  0.4361
 6291TIP3   OH218829   7.694   4.221   1.519  0.1169  0.2119  0.2770
 6291TIP3    H118830   7.619   4.187   1.567  0.9941 -0.6203  1.1097
 6291TIP3    H218831   7.683   4.188   1.430  0.9617 -2.4249  1.0517
 6292TIP3   OH218832   0.243   6.816   5.652  0.6481 -0.1632  0.0976
 6292TIP3    H118833   0.298   6.790   5.726  0.4727 -1.0660 -0.0851
 6292TIP3    H218834   0.243   6.912   5.656  1.4843 -0.1711  0.6458
 6293TIP3   OH218835   5.071   1.857   5.947  0.0520  0.1975 -0.3853
 6293TIP3    H118836   5.043   1.889   5.862  0.1680  3.0553  0.5400
 6293TIP3    H218837   5.165   1.874   5.950  0.1439 -0.3598  0.1202
 6294TIP3   OH218838   5.404   3.613   1.908 -0.1137  0.1031 -0.3443
 6294TIP3    H118839   5.458   3.538   1.934 -1.5207 -1.6534 -2.1647
 6294TIP3    H218840   5.466   3.687   1.906  1.1082 -0.6837  2.5475
 6295TIP3   OH218841   1.624   2.027   2.627 -0.1116  0.0155 -0.3081
 6295TIP3    H118842   1.551   1.968   2.645  1.0272 -1.6075 -0.7500
 6295TIP3    H218843   1.652   2.003   2.538  0.8424  0.7227 -0.2104
 6296TIP3   OH218844   8.082   5.691   6.224 -0.4256  0.0001  0.4456
 6296TIP3    H118845   8.018   5.718   6.289 -0.5194  0.5733  0.1272
 6296TIP3    H218846   8.164   5.731   6.252  0.1645 -1.9571  1.6786
 6297TIP3   OH218847   7.532   0.239   6.481  0.6025 -0.6422  0.2504
 6297TIP3    H118848   7.601   0.302   6.460  0.0374 -0.0527  0.1327
 6297TIP3    H218849   7.450   0.288   6.470  0.1781 -1.1983  0.8441
 6298TIP3   OH218850   6.609   4.663   4.291 -0.2240 -0.5957  0.2024
 6298TIP3    H118851   6.683   4.632   4.239 -0.7738 -1.0053 -0.3468
 6298TIP3    H218852   6.643   4.669   4.380  0.5326 -0.5570 -0.0770
 6299TIP3   OH218853   1.807   5.347   3.651  0.1343 -0.4568 -0.4507
 6299TIP3    H118854   1.901   5.367   3.648 -0.0511  0.6192 -3.9271
 6299TIP3    H218855   1.793   5.287   3.578 -1.9154 -0.4141 -0.1392
 6300TIP3   OH218856   5.594   6.022   4.066 -0.3305  0.2135  0.2674
 6300TIP3    H118857   5.583   5.997   3.974  1.4241 -2.9907  0.7853
 6300TIP3    H218858   5.510   6.063   4.090 -0.3568  2.5259 -3.0320
 6301TIP3   OH218859   5.619   3.996   1.198 -0.1384  0.5741  0.2453
 6301TIP3    H118860   5.542   3.955   1.159  0.1274  0.9707 -0.7261
 6301TIP3    H218861   5.661   3.925   1.248  0.4721 -0.4639 -1.6378
 6302TIP3   OH218862   4.626   7.768   0.511 -0.4132  0.2369 -0.4049
 6302TIP3    H118863   4.568   7.789   0.584 -0.3741  0.1718 -0.3553
 6302TIP3    H218864   4.653   7.854   0.478 -0.0505  0.2690 -0.0381
 6303TIP3   OH218865   7.004   6.340   2.037 -0.2182  0.3151  0.3949
 6303TIP3    H118866   7.072   6.285   2.076 -0.1884 -0.4686 -0.7043
 6303TIP3    H218867   6.935   6.278   2.012  0.6811  0.4074 -2.7730
 6304TIP3   OH218868   0.062   1.741   2.160  0.5589  0.2126  0.0700
 6304TIP3    H118869   0.010   1.808   2.115 -0.1697  0.0464  0.6720
 6304TIP3    H218870   0.085   1.781   2.244 -1.1963 -0.8436  1.1093
 6305TIP3   OH218871   3.490   7.413   6.781 -0.2825 -0.4199  0.0068
 6305TIP3    H118872   3.555   7.469   6.824 -2.1960  0.6156  1.7065
 6305TIP3    H218873   3.438   7.474   6.728 -0.9366 -0.9432  0.0340
 6306TIP3   OH218874   6.436   3.830   4.699  0.6440 -0.1417  0.2988
 6306TIP3    H118875   6.356   3.832   4.753 -0.0429  0.1235 -0.6985
 6306TIP3    H218876   6.437   3.915   4.655  2.3647  0.5332  1.5103
 6307TIP3   OH218877   8.298   7.295   2.697 -0.0387  0.3496  0.2693
 6307TIP3    H118878   8.255   7.363   2.644 -0.0232  0.3225  0.2217
 6307TIP3    H218879   8.241   7.285   2.773 -0.6364 -0.3686 -0.2581
 6308TIP3   OH218880   6.034   6.510   1.962  0.1209 -0.2771 -0.3770
 6308TIP3    H118881   6.048   6.598   1.929 -0.0919 -0.6347 -1.4495
 6308TIP3    H218882   6.091   6.504   2.039  2.2524 -0.1358 -1.8841
 6309TIP3   OH218883   4.324   3.138   4.505 -0.1373 -0.4684  0.2492
 6309TIP3    H118884   4.320   3.131   4.410  0.1298 -1.9116  0.3150
 6309TIP3    H218885   4.416   3.159   4.523  0.1168 -1.4933  0.2248
 6310TIP3   OH218886   4.967   2.490   2.450 -0.3782 -0.3608 -0.6026
 6310TIP3    H118887   4.957   2.414   2.394 -0.2763  0.2315 -1.4495
 6310TIP3    H218888   4.915   2.470   2.528  1.5577 -2.2886  0.2929
 6311TIP3   OH218889   1.087   4.528   2.804  0.3059  0.0915 -0.9130
 6311TIP3    H118890   1.162   4.586   2.790 -0.0638  0.9434  0.4537
 6311TIP3    H218891   1.119   4.461   2.865 -0.0517  0.5268 -0.2294
 6312TIP3   OH218892   2.623   5.682   6.005 -1.1390 -0.1924  0.2958
 6312TIP3    H118893   2.707   5.643   6.026  0.0942  2.4660  0.7352
 6312TIP3    H218894   2.641   5.739   5.930 -2.1539  1.5023  1.2587
 6313TIP3   OH218895   1.398   4.845   1.362 -0.2166  0.4726 -0.2557
 6313TIP3    H118896   1.351   4.788   1.422 -1.3414  1.1997 -0.4085
 6313TIP3    H218897   1.387   4.804   1.276  1.6848 -0.7528  0.0381
 6314TIP3   OH218898   3.742   5.756   5.431  0.4336  0.0209  0.1643
 6314TIP3    H118899   3.774   5.805   5.356  1.0650  1.7464  1.4815
 6314TIP3    H218900   3.806   5.772   5.500  0.3951 -2.3164  0.8295
 6315TIP3   OH218901   6.866   7.653   5.070 -0.1969 -0.0005 -0.2414
 6315TIP3    H118902   6.959   7.649   5.091 -0.4058 -0.0235  0.7490
 6315TIP3    H218903   6.857   7.729   5.014  0.3497  0.2996  0.0738
 6316TIP3   OH218904   3.921   5.026   4.773 -0.7851  0.2816 -0.2130
 6316TIP3    H118905   3.859   5.041   4.845 -1.1023 -1.2593 -0.1378
 6316TIP3    H218906   3.866   5.000   4.699 -0.3591  0.6752 -0.6781
 6317TIP3   OH218907   0.619   1.200   5.120 -0.4605  0.2631  0.1393
 6317TIP3    H118908   0.652   1.151   5.045  1.5766  1.7552 -0.0287
 6317TIP3    H218909   0.525   1.204   5.107 -0.3970 -1.3775 -1.1638
 6318TIP3   OH218910   1.055   0.747   3.079 -0.5114  0.1551 -0.3668
 6318TIP3    H118911   1.062   0.663   3.034 -0.0911  0.1849 -0.3614
 6318TIP3    H218912   1.145   0.780   3.082 -0.7252  0.7975 -0.7379
 6319TIP3   OH218913   7.383   4.616   5.523 -0.3286 -0.4578  0.3162
 6319TIP3    H118914   7.296   4.653   5.538  0.1399  0.5613  0.6219
 6319TIP3    H218915   7.401   4.633   5.431 -0.4660 -0.7066  0.2425
 6320TIP3   OH218916   0.273   1.381   0.838 -0.0903  0.7689  0.0811
 6320TIP3    H118917   0.178   1.385   0.825 -0.0041  2.4052 -0.3270
 6320TIP3    H218918   0.298   1.294   0.808 -1.2154  1.0198 -1.7175
 6321TIP3   OH218919   5.214   6.301   4.822  0.4012  0.3853 -0.4107
 6321TIP3    H118920   5.223   6.225   4.765 -1.1557  0.7509 -1.1938
 6321TIP3    H218921   5.275   6.365   4.786  0.4185  0.1367 -0.8301
 6322TIP3   OH218922   7.130   3.936   5.074  0.3412  0.3914 -0.5308
 6322TIP3    H118923   7.071   4.006   5.046  0.9219  1.2539  0.2993
 6322TIP3    H218924   7.074   3.875   5.121  0.0625  1.1260  0.1240
 6323TIP3   OH218925   0.590   5.308   5.469 -0.0215 -0.0980  0.0370
 6323TIP3    H118926   0.589   5.213   5.481 -0.1280 -0.0271  0.6171
 6323TIP3    H218927   0.583   5.320   5.374  0.7267 -0.6842 -0.1071
 6324TIP3   OH218928   0.118   3.297   4.792 -0.4299  0.4934  0.1727
 6324TIP3    H118929   0.191   3.355   4.768 -0.4503  0.6194  0.4142
 6324TIP3    H218930   0.044   3.328   4.740 -0.3241  0.3954 -0.0373
 6325TIP3   OH218931   6.262   2.812   4.344 -0.5968 -0.2072 -0.2398
 6325TIP3    H118932   6.199   2.844   4.281 -1.0823  0.6972  0.6844
 6325TIP3    H218933   6.343   2.859   4.324 -1.1756  1.2870  0.7996
 6326TIP3   OH218934   0.068   3.088   0.346 -0.3805  0.4723 -0.1351
 6326TIP3    H118935   0.141   3.035   0.378 -0.6972 -0.3154 -0.6755
 6326TIP3    H218936   0.087   3.176   0.377  0.6666  0.2337 -0.0557
 6327TIP3   OH218937   7.848   1.107   3.503  0.0045 -0.2077  0.0079
 6327TIP3    H118938   7.875   1.182   3.451 -1.0156  1.3959  1.6951
 6327TIP3    H218939   7.921   1.045   3.496  1.1840  1.2206 -0.8191
 6328TIP3   OH218940   5.297   2.269   0.751 -0.2085  0.5270 -0.5648
 6328TIP3    H118941   5.329   2.186   0.716 -0.5798 -0.1501  0.6515
 6328TIP3    H218942   5.249   2.308   0.678  0.8477  0.1769 -1.4770
 6329TIP3   OH218943   2.671   3.613   6.472  0.5594  0.1317  0.1458
 6329TIP3    H118944   2.669   3.627   6.377 -0.3123  0.7730  0.2455
 6329TIP3    H218945   2.760   3.583   6.490  0.2503 -1.7967 -1.1198
 6330TIP3   OH218946   1.142   0.493   3.119  0.0049 -0.0293 -0.1690
 6330TIP3    H118947   1.108   0.452   3.199 -0.9452 -0.5194 -0.8036
 6330TIP3    H218948   1.213   0.550   3.149 -1.5953  1.3201  1.2604
 6331TIP3   OH218949   4.348   0.944   1.740 -0.2888  0.0488  0.4016
 6331TIP3    H118950   4.397   0.920   1.661 -0.0641 -1.7177  1.0223
 6331TIP3    H218951   4.387   0.890   1.809 -1.4584  0.4699  1.4221
 6332TIP3   OH218952   0.942   1.030   1.027 -0.0242  0.3450  0.3388
 6332TIP3    H118953   1.017   0.981   0.993  0.3680 -0.6536  2.4813
 6332TIP3    H218954   0.973   1.121   1.032  0.5429  0.1821 -0.1631
 6333TIP3   OH218955   3.805   1.672   3.874 -0.1948 -0.3419 -0.4664
 6333TIP3    H118956   3.792   1.718   3.791 -1.0795  0.1953 -0.0473
 6333TIP3    H218957   3.797   1.741   3.941 -0.9378 -1.0000  0.1412
 6334TIP3   OH218958   3.201   4.435   2.276  0.6188  0.0491 -0.1890
 6334TIP3    H118959   3.152   4.426   2.195 -0.9387  1.2580  0.5642
 6334TIP3    H218960   3.183   4.525   2.305  1.7517 -0.1059  1.0992
 6335TIP3   OH218961   4.689   6.757   1.701 -0.3515  0.3592  0.3690
 6335TIP3    H118962   4.718   6.840   1.663 -0.0021 -1.1593 -2.9700
 6335TIP3    H218963   4.597   6.772   1.723 -0.0562  1.8748  0.7132
 6336TIP3   OH218964   0.565   1.664   2.700  0.0009  0.0103 -0.4635
 6336TIP3    H118965   0.614   1.720   2.640 -0.5335  0.7516 -0.2123
 6336TIP3    H218966   0.519   1.724   2.758 -0.2359 -0.6900  0.0953
 6337TIP3   OH218967   3.755   3.680   4.989 -0.7078 -0.1989  0.2513
 6337TIP3    H118968   3.698   3.671   5.066  0.2041 -0.3611  0.9258
 6337TIP3    H218969   3.830   3.624   5.008 -0.2056  0.2042 -0.5101
 6338TIP3   OH218970   4.190   0.044   4.581  0.6238  0.3029 -0.4568
 6338TIP3    H118971   4.267   0.100   4.590  1.9212 -1.1802 -1.9005
 6338TIP3    H218972   4.215  -0.039   4.622 -0.7976  0.3024  0.4819
 6339TIP3   OH218973   1.604   5.235   1.160  0.0457  0.4296  0.5584
 6339TIP3    H118974   1.552   5.243   1.080  0.9290  1.0911  0.0370
 6339TIP3    H218975   1.674   5.298   1.150  0.0897  0.6377  1.9390
 6340TIP3   OH218976   8.146   0.342   3.396 -0.1233 -0.4199  0.5977
 6340TIP3    H118977   8.150   0.267   3.336 -1.4548 -1.3764  1.6506
 6340TIP3    H218978   8.230   0.340   3.441  1.5158  1.1621 -2.1204
 6341TIP3   OH218979   3.044   3.971   3.855  0.2805  0.7594 -0.1039
 6341TIP3    H118980   3.004   3.887   3.879 -0.3091  0.7412 -1.0759
 6341TIP3    H218981   3.137   3.952   3.849 -0.1020 -0.7000 -3.4259
 6342TIP3   OH218982   5.021   6.002   1.556 -0.0294  0.3106 -0.3090
 6342TIP3    H118983   4.987   6.047   1.633 -0.3585 -0.1597 -0.1760
 6342TIP3    H218984   4.999   6.060   1.483 -0.8606  0.1658 -0.1907
 6343TIP3   OH218985   1.696   5.903   1.315 -0.1370  0.0568  0.9289
 6343TIP3    H118986   1.661   5.937   1.398 -2.2410 -0.1298  0.1922
 6343TIP3    H218987   1.728   5.816   1.336 -1.0695 -0.1660  1.4816
 6344TIP3   OH218988   6.768   7.442   1.578  0.4732 -0.7783 -0.6052
 6344TIP3    H118989   6.800   7.501   1.509 -0.0201 -0.9722 -1.0115
 6344TIP3    H218990   6.679   7.420   1.551 -0.3195  0.3952  0.8976
 6345TIP3   OH218991   1.236   2.923   3.150  0.4924 -0.3822  0.2340
 6345TIP3    H118992   1.203   2.872   3.224  1.3549 -0.4255  0.6041
 6345TIP3    H218993   1.301   2.865   3.109  1.7191  0.5081  0.8448
 6346TIP3   OH218994   6.142   6.164   0.917 -0.5270  0.1485  0.1298
 6346TIP3    H118995   6.178   6.111   0.846 -1.2375 -0.1287 -0.0327
 6346TIP3    H218996   6.156   6.112   0.996 -1.0013 -0.1792  0.0029
 6347TIP3   OH218997   3.997   1.219   6.742  0.4410 -0.4360 -0.6986
 6347TIP3    H118998   4.071   1.226   6.803 -1.1469  0.7946  1.2099
 6347TIP3    H218999   3.993   1.304   6.698  0.7674 -0.8652 -1.5861
 6348TIP3   OH219000   7.976   2.089   6.400 -0.5826 -0.0305  0.5988
 6348TIP3    H119001   7.920   2.024   6.443  0.8082 -1.1254  0.8591
 6348TIP3    H219002   8.057   2.087   6.451 -0.5275  2.0374  0.6884
 6349TIP3   OH219003   2.993   6.804   3.183  0.0403  0.8252  0.5595
 6349TIP3    H119004   2.972   6.890   3.220  0.0790  1.6166 -1.1645
 6349TIP3    H219005   3.087   6.807   3.168 -0.2824  1.4203 -1.6624
 6350TIP3   OH219006   5.452   1.821   1.022 -0.2942  0.0466  0.0907
 6350TIP3    H119007   5.457   1.911   0.992  1.0091 -0.4007 -1.0896
 6350TIP3    H219008   5.489   1.769   0.951  1.3731 -1.1965  1.7720
 6351TIP3   OH219009   7.396   0.694   4.018 -0.0418 -0.1458 -0.1422
 6351TIP3    H119010   7.381   0.774   3.967 -0.7693 -1.2363 -1.7080
 6351TIP3    H219011   7.399   0.624   3.953  1.1256 -1.3525  1.1473
 6352TIP3   OH219012   1.769   1.060   2.188 -0.3283 -0.3268  0.3258
 6352TIP3    H119013   1.683   1.025   2.166  0.0029 -0.5579 -0.6360
 6352TIP3    H219014   1.769   1.148   2.149  0.8657 -1.3355 -2.2052
 6353TIP3   OH219015   0.191   0.477   5.494  0.4402 -0.2932 -0.1688
 6353TIP3    H119016   0.191   0.399   5.439 -1.5838 -0.6730  0.2874
 6353TIP3    H219017   0.099   0.506   5.495  0.9750  1.5560  0.4228
 6354TIP3   OH219018   5.708   0.415   4.316  0.2016  0.0645  0.1423
 6354TIP3    H119019   5.711   0.511   4.320 -1.0674  0.1341 -0.3048
 6354TIP3    H219020   5.647   0.396   4.245 -1.7649 -1.0540  2.0067
 6355TIP3   OH219021   4.593   4.164   2.597  0.1436 -0.2977  0.4451
 6355TIP3    H119022   4.541   4.125   2.667  0.0960 -0.5839  0.2505
 6355TIP3    H219023   4.638   4.238   2.639 -0.1825 -0.2331  0.6852
 6356TIP3   OH219024   7.496   1.381   0.710 -0.2107 -0.0007 -0.0085
 6356TIP3    H119025   7.412   1.400   0.669  0.7722 -0.7001 -2.5028
 6356TIP3    H219026   7.559   1.436   0.663  0.9982 -0.7904  0.6301
 6357TIP3   OH219027   7.334   0.195   1.015 -0.0854 -0.0947  0.3924
 6357TIP3    H119028   7.383   0.121   1.051 -0.8469 -0.3805  0.8579
 6357TIP3    H219029   7.263   0.210   1.077  0.6467  1.7192  0.8630
 6358TIP3   OH219030   5.815   5.678   5.855 -0.6510 -0.2460  0.3315
 6358TIP3    H119031   5.802   5.592   5.895  0.2933  0.2897  1.8613
 6358TIP3    H219032   5.736   5.692   5.802 -1.7867 -1.1540  1.7135
 6359TIP3   OH219033   3.581   1.033   5.169 -0.1749  0.0280 -0.0447
 6359TIP3    H119034   3.657   0.980   5.194 -1.1015 -1.6262 -0.5802
 6359TIP3    H219035   3.537   1.051   5.252 -1.7004 -3.0345 -0.0417
 6360TIP3   OH219036   1.172   6.591   0.446  0.0647  0.0088 -0.4631
 6360TIP3    H119037   1.099   6.569   0.505 -0.0483  1.5519  0.0188
 6360TIP3    H219038   1.181   6.515   0.389 -0.6229 -1.0299  0.7666
 6361TIP3   OH219039   0.121   3.369   5.103 -0.2425  0.4646 -0.4759
 6361TIP3    H119040   0.109   3.278   5.130  1.4274  0.4983  0.5027
 6361TIP3    H219041   0.124   3.367   5.008 -0.0570 -0.5187 -0.4518
 6362TIP3   OH219042   2.564   3.473   2.118  0.4219  0.3098  0.0105
 6362TIP3    H119043   2.487   3.420   2.136 -1.1510  1.1976 -3.2681
 6362TIP3    H219044   2.605   3.431   2.043  1.7080  1.2825  0.1337
 6363TIP3   OH219045   5.302   4.341   4.866 -0.6727  1.1126 -0.0595
 6363TIP3    H119046   5.273   4.333   4.775  1.3197  1.4369 -0.7871
 6363TIP3    H219047   5.321   4.434   4.878 -1.0860  1.1037  0.7593
 6364TIP3   OH219048   1.609   7.197   0.862  0.1966  0.2280  0.2381
 6364TIP3    H119049   1.622   7.164   0.773 -2.7688 -1.2586  0.2474
 6364TIP3    H219050   1.629   7.123   0.919  1.9207  1.1273  0.8745
 6365TIP3   OH219051   0.372   6.534   5.757  0.0707  0.3809 -0.1495
 6365TIP3    H119052   0.442   6.579   5.803  0.3306  0.0792 -0.2439
 6365TIP3    H219053   0.403   6.527   5.667  0.2963 -0.5169 -0.0067
 6366TIP3   OH219054   3.639   5.234   2.319 -0.0041  0.0597 -0.1304
 6366TIP3    H119055   3.603   5.269   2.237  1.1778  1.5634 -0.0466
 6366TIP3    H219056   3.732   5.256   2.316  0.0000  0.4784  1.7732
 6367TIP3   OH219057   1.024   5.863   1.653  0.1631 -0.0508 -0.8248
 6367TIP3    H119058   0.969   5.786   1.665  2.2437 -1.8547 -2.0942
 6367TIP3    H219059   1.063   5.879   1.739 -0.7134 -0.0517 -0.4210
 6368TIP3   OH219060   1.895   4.664   3.660  0.2624  0.0180  0.0050
 6368TIP3    H119061   1.945   4.663   3.578  1.0433 -0.3826  0.4712
 6368TIP3    H219062   1.834   4.738   3.651 -0.7456 -0.9555 -1.5582
 6369TIP3   OH219063   1.157   5.706   4.160  0.2957  0.3027 -0.4904
 6369TIP3    H119064   1.158   5.670   4.249  1.7338  0.2456 -0.5067
 6369TIP3    H219065   1.208   5.787   4.167  0.5351  0.2269 -1.2932
 6370TIP3   OH219066   4.960   4.475   0.615  0.0294  0.3436  0.3839
 6370TIP3    H119067   5.004   4.444   0.695 -0.2373  0.2791  0.5101
 6370TIP3    H219068   4.867   4.474   0.638 -0.1339 -0.6199 -0.2401
 6371TIP3   OH219069   6.544   6.663   4.505  0.1489  0.5132 -0.3634
 6371TIP3    H119070   6.595   6.737   4.539  0.1997  1.3163 -2.0501
 6371TIP3    H219071   6.514   6.693   4.419 -2.4740 -0.2531  0.2088
 6372TIP3   OH219072   3.436   7.782   5.403  0.3944 -0.4858  0.6445
 6372TIP3    H119073   3.525   7.766   5.374  0.4518  0.6425  0.1313
 6372TIP3    H219074   3.422   7.876   5.388 -1.1059 -0.7645  0.0416
 6373TIP3   OH219075   7.518   6.102   4.874 -1.1860  0.6441  0.2805
 6373TIP3    H119076   7.595   6.119   4.929 -1.7838 -0.8919  1.6880
 6373TIP3    H219077   7.554   6.075   4.790 -0.1711 -0.2905  0.9914
 6374TIP3   OH219078   5.864   0.730   5.005  0.0188 -0.3219 -0.1661
 6374TIP3    H119079   5.778   0.688   5.013  0.0337 -0.1235  1.5530
 6374TIP3    H219080   5.845   0.820   4.980 -0.3637 -0.0304  1.1110
 6375TIP3   OH219081   0.406   5.634   3.152  0.1237 -0.2146  0.5630
 6375TIP3    H119082   0.425   5.544   3.179 -1.6674 -0.4966  1.0370
 6375TIP3    H219083   0.323   5.655   3.195 -0.0718  1.2638 -0.4541
 6376TIP3   OH219084   0.328   3.712   3.740 -0.0594 -0.4349  0.5523
 6376TIP3    H119085   0.386   3.768   3.689  1.2119 -1.3762  0.9289
 6376TIP3    H219086   0.335   3.745   3.830 -1.9034  0.8932  0.2782
 6377TIP3   OH219087   5.254   7.764   3.052 -0.1816  0.7412 -0.1352
 6377TIP3    H119088   5.214   7.754   3.138  0.2400  0.7274  0.0630
 6377TIP3    H219089   5.311   7.840   3.061 -0.5175  1.0472 -0.5509
 6378TIP3   OH219090   2.335   7.116   0.070 -0.2155 -0.1339  0.3558
 6378TIP3    H119091   2.430   7.125   0.069  0.0585  0.0182  5.2319
 6378TIP3    H219092   2.320   7.024   0.092 -1.3544 -0.5680 -1.9855
 6379TIP3   OH219093   4.340   0.553   4.427  0.2844  0.6093 -0.3194
 6379TIP3    H119094   4.247   0.536   4.417 -0.4778  2.6985  2.0121
 6379TIP3    H219095   4.371   0.571   4.338 -1.6170  0.3064 -1.0904
 6380TIP3   OH219096   1.593   3.457   2.913  0.3375 -0.2640 -0.0603
 6380TIP3    H119097   1.625   3.416   2.832  0.8677  0.1033 -0.0390
 6380TIP3    H219098   1.669   3.458   2.971  0.3224  0.7297 -0.0509
 6381TIP3   OH219099   3.533   7.857   5.737  0.5231 -0.2978 -0.7384
 6381TIP3    H119100   3.538   7.770   5.697 -0.3468 -0.4333 -0.5684
 6381TIP3    H219101   3.589   7.851   5.815 -0.3118 -1.0146 -0.1783
 6382TIP3   OH219102   4.815   6.251   0.913  0.3312 -0.4775 -0.0064
 6382TIP3    H119103   4.866   6.235   0.834 -0.8663 -2.4633 -0.4283
 6382TIP3    H219104   4.873   6.303   0.969  1.1697  1.0871 -2.1947
 6383TIP3   OH219105   5.851   4.056   4.966 -0.2808 -0.4554  0.3098
 6383TIP3    H119106   5.862   3.963   4.984  1.0929 -0.5386 -0.7911
 6383TIP3    H219107   5.895   4.100   5.038  5.6604 -0.7740 -2.5366
 6384TIP3   OH219108   3.467   7.320   4.262 -0.1390  0.1191  0.2238
 6384TIP3    H119109   3.465   7.403   4.309 -1.0623 -0.0440  0.4864
 6384TIP3    H219110   3.375   7.298   4.247  0.0986 -0.7244 -0.0714
 6385TIP3   OH219111   1.854   3.077   2.210 -0.0477 -0.1634  0.8482
 6385TIP3    H119112   1.937   3.103   2.250 -0.4029 -0.2574  1.6786
 6385TIP3    H219113   1.870   2.989   2.177  0.7069  0.4865 -0.6161
 6386TIP3   OH219114   6.612   3.170   4.548  0.3001 -0.9336  0.2583
 6386TIP3    H119115   6.601   3.075   4.555  1.1197 -0.9712  1.2715
 6386TIP3    H219116   6.701   3.186   4.578  0.3380  0.1213 -0.3685
 6387TIP3   OH219117   5.239   6.709   5.780 -0.3056 -0.5191 -0.1177
 6387TIP3    H119118   5.284   6.635   5.741  0.4494 -0.1220 -0.0093
 6387TIP3    H219119   5.215   6.679   5.868 -1.2625 -1.1168 -0.5659
 6388TIP3   OH219120   6.748   0.640   4.464 -0.7654  0.0231  0.0250
 6388TIP3    H119121   6.806   0.571   4.497  0.1885  0.8272  0.0942
 6388TIP3    H219122   6.800   0.684   4.397 -1.6931  0.1220 -0.6385
 6389TIP3   OH219123   6.834   3.873   5.863  0.4321  0.1368 -0.0394
 6389TIP3    H119124   6.754   3.827   5.838  0.6331  0.8968 -2.3552
 6389TIP3    H219125   6.898   3.804   5.879  0.3513 -0.4781 -2.0919
 6390TIP3   OH219126   4.173   1.783   0.575  0.5949  0.1174  0.3667
 6390TIP3    H119127   4.187   1.708   0.517  0.2578  0.0130  0.4135
 6390TIP3    H219128   4.211   1.756   0.659  0.7912  0.1379  0.2823
 6391TIP3   OH219129   3.079   5.365   4.401 -0.0287 -0.3992  0.4120
 6391TIP3    H119130   3.125   5.415   4.468 -0.7640 -0.8755  1.3023
 6391TIP3    H219131   3.001   5.417   4.381  0.8716  0.4468 -1.1502
 6392TIP3   OH219132   2.690   1.628   3.365 -0.0930 -0.1396  0.1820
 6392TIP3    H119133   2.747   1.663   3.297 -0.6932 -0.7632 -0.6571
 6392TIP3    H219134   2.695   1.692   3.436 -0.4220  1.1817 -0.9373
 6393TIP3   OH219135   5.872   1.477   5.658 -0.1710 -0.1982 -0.3600
 6393TIP3    H119136   5.781   1.458   5.636 -0.6150  2.0726 -0.7327
 6393TIP3    H219137   5.901   1.539   5.591  0.7934  1.1252  1.1988
 6394TIP3   OH219138   7.210   7.404   5.714  0.3369  0.3683 -1.3395
 6394TIP3    H119139   7.179   7.319   5.744 -0.0958  1.6049  2.2046
 6394TIP3    H219140   7.178   7.411   5.623 -2.5256 -1.8647 -0.6535
 6395TIP3   OH219141   0.518   3.852   1.375  0.0374  0.2437 -0.2449
 6395TIP3    H119142   0.557   3.938   1.360  0.6578 -0.2055 -1.3172
 6395TIP3    H219143   0.575   3.791   1.328  0.0628 -0.8592  1.1545
 6396TIP3   OH219144   5.141   4.222   1.816 -0.1217 -0.1070  0.4690
 6396TIP3    H119145   5.057   4.177   1.825 -0.3507  0.0823 -0.5933
 6396TIP3    H219146   5.184   4.178   1.742 -0.3830  1.4453 -0.6425
 6397TIP3   OH219147   6.290   4.859   3.606 -0.1051 -0.9598  0.1517
 6397TIP3    H119148   6.361   4.815   3.558  2.0258  0.4939  1.7890
 6397TIP3    H219149   6.286   4.814   3.690  0.2119  0.1609  0.7866
 6398TIP3   OH219150   7.374   6.398   1.284 -0.3015  1.0208  0.6352
 6398TIP3    H119151   7.452   6.449   1.305 -0.8245  1.5067  1.4926
 6398TIP3    H219152   7.395   6.354   1.202  1.8318 -0.8451  2.0685
 6399TIP3   OH219153   7.971   5.175   6.305  0.0843  0.2102 -0.6213
 6399TIP3    H119154   8.009   5.098   6.346  0.9640  0.2458 -1.3485
 6399TIP3    H219155   8.035   5.244   6.318 -1.1916  1.1538  1.0312
 6400TIP3   OH219156   6.491   5.599   3.331  0.0422 -0.1907  0.1767
 6400TIP3    H119157   6.480   5.555   3.247 -0.5055 -0.3749  0.3407
 6400TIP3    H219158   6.501   5.691   3.309  0.2902 -0.2858 -0.1152
 6401TIP3   OH219159   7.289   5.808   2.416 -0.3933  1.0838 -0.3888
 6401TIP3    H119160   7.272   5.841   2.504 -0.3988 -0.0503  0.0572
 6401TIP3    H219161   7.371   5.759   2.424 -0.3960  0.9642 -1.0146
 6402TIP3   OH219162   6.272   7.638   5.959 -0.1999 -0.0214 -0.1918
 6402TIP3    H119163   6.199   7.592   6.001 -0.2783 -0.1701 -0.4895
 6402TIP3    H219164   6.262   7.619   5.866  0.3822 -0.2800 -0.2080
 6403TIP3   OH219165   7.065   3.270   5.152 -0.5004  0.1605  0.0838
 6403TIP3    H119166   7.024   3.194   5.112 -1.3906  0.2879  0.7165
 6403TIP3    H219167   7.036   3.344   5.099  0.2640  0.0782 -0.4567
 6404TIP3   OH219168   0.858   4.386   2.054  0.1371  0.4655  0.3248
 6404TIP3    H119169   0.936   4.391   2.110  0.3715  0.2945  0.0196
 6404TIP3    H219170   0.869   4.304   2.006  0.2071  0.8819 -0.3715
 6405TIP3   OH219171   5.796   3.135   0.915 -0.3009  0.0361 -0.1610
 6405TIP3    H119172   5.802   3.155   1.009 -0.5344  1.9313 -0.5232
 6405TIP3    H219173   5.702   3.122   0.900 -0.3222  0.3012 -0.2490
 6406TIP3   OH219174   7.932   2.964   4.782  0.1694 -0.4450 -0.2189
 6406TIP3    H119175   7.839   2.970   4.802  0.1072 -0.0126 -0.6296
 6406TIP3    H219176   7.969   3.047   4.812  0.2920 -0.3045 -0.7577
 6407TIP3   OH219177   4.388   7.056   4.994  0.3507 -0.5601 -0.1213
 6407TIP3    H119178   4.460   7.029   5.052  1.3952  1.5351 -0.3583
 6407TIP3    H219179   4.322   7.092   5.054  1.0630  0.8120 -0.1282
 6408TIP3   OH219180   7.812   1.086   5.022 -0.3974 -0.4255  0.6944
 6408TIP3    H119181   7.755   1.124   5.089 -0.3410 -0.6300  0.8628
 6408TIP3    H219182   7.892   1.138   5.026 -0.7951  0.2620  0.0270
 6409TIP3   OH219183   1.993   4.677   6.498 -0.2324 -0.1457 -0.3398
 6409TIP3    H119184   2.049   4.683   6.575 -2.2036 -2.3993  1.4539
 6409TIP3    H219185   1.975   4.583   6.489 -1.4850  0.2252 -2.5102
 6410TIP3   OH219186   3.283   1.490   5.502  0.2569  0.0803 -0.2019
 6410TIP3    H119187   3.250   1.444   5.580 -0.1700  0.9203  0.1184
 6410TIP3    H219188   3.377   1.502   5.519  0.8579 -2.4661 -1.1902
 6411TIP3   OH219189   4.274   2.951   3.818 -0.0674  0.5222  0.0647
 6411TIP3    H119190   4.357   2.916   3.850  0.4049  0.8251 -0.7857
 6411TIP3    H219191   4.290   2.967   3.725 -0.7095  1.6778  0.1400
 6412TIP3   OH219192   0.189   0.618   5.875  0.4567 -0.6321  0.0014
 6412TIP3    H119193   0.171   0.548   5.937  1.7450  0.4229  1.6689
 6412TIP3    H219194   0.248   0.677   5.922  1.1797  0.4356 -2.1056
 6413TIP3   OH219195   4.030   3.975   1.210 -0.0609 -0.3024  0.3469
 6413TIP3    H119196   4.046   4.067   1.190 -1.4262 -0.1129  0.0490
 6413TIP3    H219197   4.030   3.971   1.306  1.3026 -0.2566  0.3709
 6414TIP3   OH219198   7.586   2.789   5.448 -0.1243 -0.2241  0.0129
 6414TIP3    H119199   7.661   2.770   5.505 -1.5426 -0.8534  1.7590
 6414TIP3    H219200   7.575   2.884   5.453  0.1763 -0.2017  0.2304
 6415TIP3   OH219201   1.451   4.178   4.350 -0.1099  0.1638  0.3264
 6415TIP3    H119202   1.460   4.193   4.444  1.6459  0.7135  0.1127
 6415TIP3    H219203   1.505   4.102   4.333  1.5865  1.4946 -0.5651
 6416TIP3   OH219204   4.308   4.778   6.058 -0.5141 -0.2586  0.0402
 6416TIP3    H119205   4.266   4.801   6.140  0.4149 -0.1578  0.4958
 6416TIP3    H219206   4.337   4.861   6.021 -0.3764 -0.3593 -0.0841
 6417TIP3   OH219207   5.158   4.500   3.123 -0.0425  0.0457  0.5593
 6417TIP3    H119208   5.102   4.435   3.081 -0.5325 -0.8723  2.4925
 6417TIP3    H219209   5.186   4.558   3.052 -2.6575 -0.0349 -0.6420
 6418TIP3   OH219210   0.956   0.293   6.813  0.4334 -0.3366  0.6443
 6418TIP3    H119211   0.986   0.376   6.775  1.2972  0.0563  2.1010
 6418TIP3    H219212   1.008   0.227   6.768 -0.1804 -0.1148 -0.4506
 6419TIP3   OH219213   7.946   3.747   1.703  0.1402 -0.3061  0.1366
 6419TIP3    H119214   7.949   3.788   1.617  1.5925 -0.7572 -0.0579
 6419TIP3    H219215   7.853   3.727   1.717 -0.5854  2.5621  0.0631
 6420TIP3   OH219216   4.095   0.225   0.263  0.4900 -0.0785  0.4023
 6420TIP3    H119217   4.011   0.237   0.308  1.4376  0.5282  2.1225
 6420TIP3    H219218   4.072   0.195   0.176 -1.4721 -1.0378  1.1994
 6421TIP3   OH219219   4.531   0.115   0.028  0.2911 -0.5475  0.3456
 6421TIP3    H119220   4.593   0.181  -0.003  0.3745 -1.5239 -1.7759
 6421TIP3    H219221   4.470   0.162   0.084  1.9344  0.7709  1.0760
 6422TIP3   OH219222   3.751   2.441   4.133  0.0419 -0.7504  0.1187
 6422TIP3    H119223   3.707   2.358   4.152  0.7440 -1.1624 -0.0244
 6422TIP3    H219224   3.709   2.472   4.053 -0.4914 -0.7628  0.3844
 6423TIP3   OH219225   5.283   6.862   2.494 -0.2735 -0.0423  0.6061
 6423TIP3    H119226   5.280   6.858   2.589  1.9145  1.5570  0.8137
 6423TIP3    H219227   5.200   6.904   2.469  0.0548  1.4858  1.9784
 6424TIP3   OH219228   6.939   6.396   3.923  0.0797  0.5807  0.2260
 6424TIP3    H119229   6.856   6.400   3.969  0.5504  0.0242  1.1660
 6424TIP3    H219230   6.940   6.473   3.866 -0.6205  1.1613  0.9832
 6425TIP3   OH219231   5.261   2.359   5.237  0.4465 -0.1056  0.5705
 6425TIP3    H119232   5.273   2.308   5.317  1.1180 -0.4476  0.2597
 6425TIP3    H219233   5.320   2.433   5.247  0.7412 -0.2977  0.2727
 6426TIP3   OH219234   3.579   7.702   0.706  0.1072 -0.0778  0.0636
 6426TIP3    H119235   3.582   7.627   0.646 -1.0370  1.2462 -1.7896
 6426TIP3    H219236   3.649   7.687   0.769 -0.7428 -3.2028  0.4125
 6427TIP3   OH219237   4.545   2.213   1.066  0.0192  0.1960  0.9551
 6427TIP3    H119238   4.595   2.155   1.009  0.5465 -0.3429  1.9364
 6427TIP3    H219239   4.589   2.298   1.060 -0.4574  0.3806 -0.1006
 6428TIP3   OH219240   4.312   0.747   1.913 -0.3331 -0.0231 -0.1980
 6428TIP3    H119241   4.360   0.670   1.883  0.9360  0.0058  1.6504
 6428TIP3    H219242   4.236   0.712   1.959 -0.2146 -0.1538 -0.1008
 6429TIP3   OH219243   3.213   0.088   5.484 -0.0397 -0.5784  0.2307
 6429TIP3    H119244   3.270   0.034   5.539 -0.0022 -2.9286 -1.9022
 6429TIP3    H219245   3.194   0.165   5.537  0.5330 -2.3253  3.2332
 6430TIP3   OH219246   3.818   4.573   4.505  1.0611  0.2317 -0.9624
 6430TIP3    H119247   3.899   4.603   4.462 -0.1023  0.7963 -2.9127
 6430TIP3    H219248   3.758   4.555   4.432 -0.3732 -0.7903  0.4136
 6431TIP3   OH219249   0.645   6.278   3.624 -0.5121  0.4291 -0.2772
 6431TIP3    H119250   0.664   6.205   3.566  1.5794 -0.5739  1.5242
 6431TIP3    H219251   0.698   6.351   3.590  1.0829 -0.2901  0.5733
 6432TIP3   OH219252   6.297   5.177   5.773 -0.2389 -0.2958 -1.2285
 6432TIP3    H119253   6.254   5.118   5.711 -0.8012 -1.3656  0.1392
 6432TIP3    H219254   6.378   5.132   5.796 -0.3918 -0.2601 -0.6209
 6433TIP3   OH219255   3.551   4.739   2.476  0.0451 -0.1150 -0.1507
 6433TIP3    H119256   3.636   4.764   2.440  0.2710 -0.7198 -0.0524
 6433TIP3    H219257   3.490   4.746   2.402  0.5977 -1.8424 -0.8201
 6434TIP3   OH219258   3.441   4.000   6.619  0.3819 -0.8326  0.6771
 6434TIP3    H119259   3.489   3.973   6.697 -0.4979  0.0515  1.5550
 6434TIP3    H219260   3.510   4.022   6.555  1.1431 -0.4364  1.6057
 6435TIP3   OH219261   0.643   2.886   5.153 -0.9654 -0.3769 -0.4792
 6435TIP3    H119262   0.667   2.976   5.136 -0.6033 -0.6327 -1.3754
 6435TIP3    H219263   0.671   2.869   5.243  0.1068  0.0215 -0.7307
 6436TIP3   OH219264   6.885   6.904   1.089  0.4138  0.3414  0.7648
 6436TIP3    H119265   6.931   6.983   1.061  2.2781 -0.5390  1.1345
 6436TIP3    H219266   6.844   6.870   1.010  1.1696  0.6819  0.2177
 6437TIP3   OH219267   6.075   5.964   1.781 -0.0016 -0.3704 -0.2537
 6437TIP3    H119268   6.104   5.959   1.690  0.1851  1.5322 -0.3436
 6437TIP3    H219269   6.099   6.053   1.809  1.6370 -1.4667  2.2335
 6438TIP3   OH219270   0.802   6.192   4.569 -0.0474 -0.0613  0.4056
 6438TIP3    H119271   0.750   6.260   4.527  0.0723 -0.2118  0.0016
 6438TIP3    H219272   0.883   6.190   4.518  0.0689 -0.3045  0.5975
 6439TIP3   OH219273   3.852   4.072   5.051 -0.4695 -0.3105 -0.0951
 6439TIP3    H119274   3.907   4.124   4.993  0.0694 -0.3949  0.3298
 6439TIP3    H219275   3.838   3.990   5.004  0.1535 -0.4685 -0.0190
 6440TIP3   OH219276   6.972   4.666   0.732 -0.1288 -0.5818 -0.1452
 6440TIP3    H119277   7.014   4.739   0.777 -0.6861  0.2484 -0.9360
 6440TIP3    H219278   6.908   4.633   0.795  1.4121 -1.6482  0.9435
 6441TIP3   OH219279   0.858   0.248   3.987  0.4286 -0.0229 -0.3808
 6441TIP3    H119280   0.812   0.331   3.977 -0.2050 -0.4050 -0.7635
 6441TIP3    H219281   0.944   0.271   4.021 -0.2554  0.6681  0.9413
 6442TIP3   OH219282   5.586   2.756   6.428 -0.0628  0.2121 -0.4229
 6442TIP3    H119283   5.574   2.687   6.363 -0.1500 -0.5610  0.3797
 6442TIP3    H219284   5.529   2.827   6.400 -0.5779 -0.3609 -0.8443
 6443TIP3   OH219285   1.363   2.646   4.880  0.3767 -0.0557  0.1045
 6443TIP3    H119286   1.417   2.691   4.815  1.9823  0.1601  1.5175
 6443TIP3    H219287   1.382   2.691   4.962 -0.5110 -1.2144  0.9810
 6444TIP3   OH219288   6.543   3.445   1.160 -0.0471 -0.1213  0.3332
 6444TIP3    H119289   6.559   3.517   1.099  1.9784 -0.7442  0.0533
 6444TIP3    H219290   6.583   3.474   1.242  0.8499 -0.9256  0.1979
 6445TIP3   OH219291   6.344   5.086   1.635  0.1637 -0.4915  0.0001
 6445TIP3    H119292   6.331   5.016   1.572  2.1017 -0.1108 -0.8947
 6445TIP3    H219293   6.411   5.053   1.695 -0.1341 -0.0378  0.6035
 6446TIP3   OH219294   7.609   5.421   3.664 -0.1829 -0.0106  0.2743
 6446TIP3    H119295   7.607   5.413   3.759 -0.1958 -2.4816  0.1178
 6446TIP3    H219296   7.684   5.368   3.637  1.0574  2.2357 -1.0321
 6447TIP3   OH219297   8.211   7.633   3.265  0.5281 -0.1160 -0.5205
 6447TIP3    H119298   8.219   7.585   3.183  0.6236  0.6832 -0.9833
 6447TIP3    H219299   8.285   7.695   3.264  0.4326  0.0168  0.0880
 6448TIP3   OH219300   2.019   6.185   6.251  0.0267  0.6154 -0.4606
 6448TIP3    H119301   2.072   6.107   6.235 -1.8836 -0.5566 -1.4200
 6448TIP3    H219302   2.020   6.196   6.346  0.3774 -0.5534 -0.3108
 6449TIP3   OH219303   4.574   0.904   4.315 -0.0543  1.0410 -0.1710
 6449TIP3    H119304   4.497   0.884   4.263  1.0433 -1.8469 -0.8856
 6449TIP3    H219305   4.551   0.876   4.404 -0.1247  1.0206 -0.1956
 6450TIP3   OH219306   5.880   1.817   3.440  0.1491 -0.4249  0.3545
 6450TIP3    H119307   5.962   1.866   3.438  0.0016 -0.2074 -1.1977
 6450TIP3    H219308   5.817   1.878   3.479  0.3102  0.0643 -0.1447
 6451TIP3   OH219309   6.897   1.679   2.273 -0.8481 -0.5665 -0.1178
 6451TIP3    H119310   6.955   1.651   2.202 -0.3052  0.6827 -0.1898
 6451TIP3    H219311   6.956   1.692   2.348 -0.8441  1.5726 -0.4259
 6452TIP3   OH219312   0.957   6.679   5.796 -0.3945  0.1126 -0.5628
 6452TIP3    H119313   0.940   6.772   5.785 -1.6127 -0.1608 -1.2326
 6452TIP3    H219314   0.871   6.638   5.785 -0.6607 -0.8090  3.4032
 6453TIP3   OH219315   6.759   7.347   2.006 -0.3123 -0.6243  0.0494
 6453TIP3    H119316   6.739   7.422   1.950 -1.8951 -0.3383  0.9594
 6453TIP3    H219317   6.755   7.272   1.947 -1.1362 -0.2401 -0.4047
 6454TIP3   OH219318   2.116   7.097   2.579  0.5767  0.1297 -0.7164
 6454TIP3    H119319   2.086   7.082   2.489  0.4369 -1.8857 -0.3816
 6454TIP3    H219320   2.071   7.030   2.630  2.3738 -0.1937  0.5069
 6455TIP3   OH219321   7.217   0.399   3.910  0.0240 -0.3389 -0.4539
 6455TIP3    H119322   7.222   0.475   3.852  0.3747  0.0350  0.0532
 6455TIP3    H219323   7.228   0.436   3.998 -1.2033 -0.7969 -0.0865
 6456TIP3   OH219324   6.963   1.132   2.843 -0.0790  0.0632 -0.2038
 6456TIP3    H119325   6.926   1.088   2.767  0.1184 -0.0034 -0.2625
 6456TIP3    H219326   6.895   1.127   2.910  0.6008 -2.0014  0.4270
 6457TIP3   OH219327   1.994   5.438   0.187 -0.3917 -0.3397  0.4172
 6457TIP3    H119328   1.905   5.449   0.152  0.4178 -0.6761 -1.9386
 6457TIP3    H219329   1.993   5.485   0.270 -2.5281  0.3887  0.0528
 6458TIP3   OH219330   3.415   3.837   4.815  0.0934  0.1049  0.7654
 6458TIP3    H119331   3.330   3.830   4.770 -0.9258 -2.0283  2.8273
 6458TIP3    H219332   3.407   3.780   4.891  3.8066 -1.1159  0.4297
 6459TIP3   OH219333   3.185   1.089   0.955 -0.5532 -0.0204  0.2825
 6459TIP3    H119334   3.090   1.083   0.947 -0.5276  0.9034 -1.0332
 6459TIP3    H219335   3.219   1.045   0.877  0.0566  0.7092  0.1223
 6460TIP3   OH219336   3.448   4.517   0.648 -0.5307  0.1085 -0.0779
 6460TIP3    H119337   3.422   4.428   0.674 -0.9534  0.2758  0.0763
 6460TIP3    H219338   3.386   4.574   0.693 -0.9986  0.4318 -1.1021
 6461TIP3   OH219339   3.229   5.765   4.830  0.1104  0.4374 -0.2802
 6461TIP3    H119340   3.234   5.752   4.925 -2.5396 -0.0622 -0.1454
 6461TIP3    H219341   3.136   5.762   4.810  0.6512 -1.4548 -3.1764
 6462TIP3   OH219342   3.479   4.927   6.195 -0.2621  0.4369 -0.2276
 6462TIP3    H119343   3.391   4.948   6.225  0.2299 -0.1444  1.7430
 6462TIP3    H219344   3.486   4.832   6.205 -0.3794  0.0108 -3.2343
 6463TIP3   OH219345   8.058   5.261   2.230  0.2878  0.1400  0.0932
 6463TIP3    H119346   7.995   5.217   2.172  1.4187 -2.8930  0.9423
 6463TIP3    H219347   8.137   5.269   2.177  0.7603 -0.9730  0.5933
 6464TIP3   OH219348   5.340   4.960   1.632  0.3601 -0.3377  0.3016
 6464TIP3    H119349   5.406   5.002   1.577  0.0567 -0.5973 -0.2666
 6464TIP3    H219350   5.356   4.866   1.621 -0.8252 -0.4364 -0.7605
 6465TIP3   OH219351   6.556   6.840   1.912  0.4525  0.4307  0.3835
 6465TIP3    H119352   6.571   6.923   1.866  1.2795 -0.2182 -0.5640
 6465TIP3    H219353   6.643   6.801   1.920  0.2070  0.1143  1.7455
 6466TIP3   OH219354   0.016   0.560   3.927 -0.3321 -0.1136  0.1681
 6466TIP3    H119355  -0.027   0.490   3.878 -0.1578  0.2181 -0.4559
 6466TIP3    H219356   0.103   0.566   3.890 -0.6538  1.0817 -0.4300
 6467TIP3   OH219357   7.581   6.042   4.611  0.4027 -0.1325 -0.1039
 6467TIP3    H119358   7.666   6.040   4.567 -0.2571 -0.8016 -1.4046
 6467TIP3    H219359   7.519   6.009   4.545 -0.9555  0.8904  0.6106
 6468TIP3   OH219360   6.296   4.363   6.141  0.0664  0.0769  0.0141
 6468TIP3    H119361   6.240   4.437   6.163  1.0935  0.8813  0.0010
 6468TIP3    H219362   6.249   4.317   6.071 -0.7299  0.5265  0.2413
 6469TIP3   OH219363   4.100   5.107   5.738 -0.2932 -0.1800  0.5148
 6469TIP3    H119364   4.062   5.051   5.669  0.0237  1.3391 -0.9601
 6469TIP3    H219365   4.061   5.074   5.819 -3.2992  0.0087 -0.6902
 6470TIP3   OH219366   0.711   1.781   4.932  0.4585  0.1511 -0.2805
 6470TIP3    H119367   0.616   1.775   4.917  0.5927  0.1137 -1.1788
 6470TIP3    H219368   0.742   1.691   4.922  0.7665  0.3620 -1.3545
 6471TIP3   OH219369   3.022   7.686   4.323 -0.3233 -0.1652 -0.6799
 6471TIP3    H119370   3.051   7.770   4.358  0.9921 -0.6779 -0.4841
 6471TIP3    H219371   2.929   7.680   4.347  0.1285  0.2017  1.3604
 6472TIP3   OH219372   2.032   4.581   4.746 -0.3607  0.5451  0.0623
 6472TIP3    H119373   2.052   4.666   4.708  0.1521  1.4332  2.1767
 6472TIP3    H219374   2.104   4.565   4.808  0.0558 -1.8729 -0.9410
 6473TIP3   OH219375   4.004   5.332   4.157  1.1561 -0.0733  0.1085
 6473TIP3    H119376   4.002   5.427   4.155  0.7469 -0.0910 -0.2709
 6473TIP3    H219377   3.999   5.305   4.066 -1.7354 -0.4995  0.3068
 6474TIP3   OH219378   1.180   0.619   4.858  0.7973  0.1553 -0.0320
 6474TIP3    H119379   1.202   0.705   4.822  0.2052  0.1404 -0.4533
 6474TIP3    H219380   1.183   0.560   4.783 -1.3132  0.2780 -0.2927
 6475TIP3   OH219381   3.065   4.067   5.830  0.4382 -0.5022 -0.0193
 6475TIP3    H119382   3.140   4.047   5.775  0.0952 -1.0960 -0.2797
 6475TIP3    H219383   3.017   3.985   5.836  0.0906 -0.2653  0.5857
 6476TIP3   OH219384   7.084   4.348   1.068  0.4422  0.5458  0.0984
 6476TIP3    H119385   7.153   4.347   1.134  0.1204 -2.1927  0.5182
 6476TIP3    H219386   7.123   4.305   0.992 -0.9178 -1.7094  0.5899
 6477TIP3   OH219387   1.270   4.042   0.936  0.1965 -0.3000 -0.3760
 6477TIP3    H119388   1.276   3.988   1.015  0.2628  0.2539  0.0027
 6477TIP3    H219389   1.330   4.116   0.953  0.2177 -0.1840 -0.9457
 6478TIP3   OH219390   5.095   4.736   4.969  0.1654 -0.2475 -0.5736
 6478TIP3    H119391   5.111   4.654   5.016 -0.3676  0.3374  0.6989
 6478TIP3    H219392   5.006   4.761   4.995 -0.4101 -0.2335 -2.4619
 6479TIP3   OH219393   3.882   7.475   4.576 -0.0913 -0.4710 -0.5154
 6479TIP3    H119394   3.942   7.442   4.509  1.5934  1.0678  0.1431
 6479TIP3    H219395   3.933   7.541   4.623 -1.7438 -0.3790  1.2696
 6480TIP3   OH219396   5.880   1.927   4.838  0.0676  0.6270  0.3747
 6480TIP3    H119397   5.861   1.882   4.921 -2.8441  1.6033  0.3445
 6480TIP3    H219398   5.936   2.000   4.863 -0.4207  0.6665  1.4354
 6481TIP3   OH219399   1.941   4.879   2.833  0.5347  0.3045  0.6105
 6481TIP3    H119400   1.998   4.802   2.840 -1.6653 -1.4826 -0.1237
 6481TIP3    H219401   1.852   4.844   2.838 -0.5599  2.8406  0.3680
 6482TIP3   OH219402   7.601   3.901   5.942 -0.0510  0.3701 -0.1506
 6482TIP3    H119403   7.625   3.811   5.921 -0.5766 -0.3161  1.8966
 6482TIP3    H219404   7.588   3.943   5.858  0.4937 -1.3834 -1.1681
 6483TIP3   OH219405   2.554   2.824   2.906  0.2208  0.7402 -0.1709
 6483TIP3    H119406   2.483   2.768   2.874 -0.6094  0.5961  1.8081
 6483TIP3    H219407   2.530   2.912   2.879 -0.5291  0.6446  0.1688
 6484TIP3   OH219408   2.491   3.405   1.312 -0.0872  0.3550  0.3320
 6484TIP3    H119409   2.521   3.386   1.401 -1.1124 -1.8026  0.2903
 6484TIP3    H219410   2.516   3.496   1.297  0.4253  0.6746  2.6937
 6485TIP3   OH219411   1.597   3.033   3.085  1.1212 -0.8278  0.0743
 6485TIP3    H119412   1.530   2.996   3.028 -1.9026  3.6781  0.1410
 6485TIP3    H219413   1.644   3.095   3.030  2.4253 -0.8731  1.0788
 6486TIP3   OH219414   7.602   4.040   1.764  0.3762 -0.0993 -0.4218
 6486TIP3    H119415   7.548   3.975   1.807  0.5482 -2.0734 -2.9267
 6486TIP3    H219416   7.667   4.066   1.830 -1.8753  0.3070  1.7650
 6487TIP3   OH219417   2.029   2.732   6.250 -0.6552 -0.5689  0.4837
 6487TIP3    H119418   1.947   2.777   6.230 -0.1145 -0.2625 -1.1655
 6487TIP3    H219419   2.084   2.747   6.174  1.5332  0.5851  2.1912
 6488TIP3   OH219420   4.777   2.092   3.493 -0.1058 -0.3126 -0.1513
 6488TIP3    H119421   4.730   2.145   3.429  1.0162  0.9170 -0.0138
 6488TIP3    H219422   4.826   2.028   3.440  1.9196  1.5754 -0.7206
 6489TIP3   OH219423   7.907   7.074   4.712  0.1300  0.0778 -0.0166
 6489TIP3    H119424   7.864   7.139   4.767  0.5996  0.2262  0.1741
 6489TIP3    H219425   7.880   6.990   4.749  0.1810  0.1723  0.2386
 6490TIP3   OH219426   6.874   0.874   1.621 -0.1387 -0.4082  0.0804
 6490TIP3    H119427   6.808   0.935   1.654 -0.6336 -1.3328  0.8400
 6490TIP3    H219428   6.829   0.790   1.618  0.4985 -0.7331 -1.0805
 6491TIP3   OH219429   5.118   4.413   4.315  0.2056  0.3152  0.4825
 6491TIP3    H119430   5.099   4.337   4.371 -0.4779 -0.0701 -0.2546
 6491TIP3    H219431   5.036   4.462   4.312  0.0855  0.0797 -0.5533
 6492TIP3   OH219432   5.074   1.507   1.102 -0.0798 -0.1312  0.3016
 6492TIP3    H119433   5.055   1.437   1.039  1.3718 -1.8492  1.6717
 6492TIP3    H219434   5.169   1.511   1.105 -0.1355  1.4896  0.7668
 6493TIP3   OH219435   2.363   0.096   1.743 -0.0624 -0.0710  0.3092
 6493TIP3    H119436   2.268   0.109   1.752  0.0269  0.9739 -0.1811
 6493TIP3    H219437   2.372   0.003   1.722 -1.0501  0.0145 -0.5905
 6494TIP3   OH219438   7.429   4.162   1.587  0.1295 -0.5239  0.4150
 6494TIP3    H119439   7.479   4.103   1.644 -0.4057 -1.4787 -0.0788
 6494TIP3    H219440   7.391   4.227   1.646  0.1771 -1.0721  1.0545
 6495TIP3   OH219441   7.405  -0.001   3.622 -0.1052  0.0588  0.5946
 6495TIP3    H119442   7.402   0.089   3.655  0.3666  1.4805 -2.7986
 6495TIP3    H219443   7.498  -0.024   3.624  0.3189  1.2221 -2.0389
 6496TIP3   OH219444   1.443   0.489   0.977 -0.0551  0.4052 -0.1169
 6496TIP3    H119445   1.388   0.420   1.015 -0.0874 -0.0688 -1.0084
 6496TIP3    H219446   1.530   0.449   0.968  0.4362  1.1091  1.1683
 6497TIP3   OH219447   4.861   6.463   6.025  0.4617  0.0348  0.4056
 6497TIP3    H119448   4.937   6.496   6.072  1.1063  1.1787 -1.3374
 6497TIP3    H219449   4.896   6.399   5.964 -0.2074 -0.6161  0.6892
 6498TIP3   OH219450   1.331   1.371   0.630  0.0175 -0.4188  0.4347
 6498TIP3    H119451   1.409   1.318   0.644 -0.6569 -1.7684 -0.6675
 6498TIP3    H219452   1.363   1.461   0.629  1.7961 -0.9974 -1.3644
 6499TIP3   OH219453   2.029   6.637   2.137 -0.2528 -0.3425  0.3502
 6499TIP3    H119454   2.121   6.659   2.127 -0.5251 -0.1929 -3.0662
 6499TIP3    H219455   2.029   6.555   2.186  1.6855 -0.3542  0.4108
 6500TIP3   OH219456   6.568   6.217   0.965  0.2372 -0.0386 -0.2836
 6500TIP3    H119457   6.505   6.255   1.026 -0.4622  0.7642 -1.4747
 6500TIP3    H219458   6.632   6.173   1.021 -1.0152 -0.3256  0.9823
 6501TIP3   OH219459   2.412   0.420   1.342 -0.5459 -0.0564 -0.0259
 6501TIP3    H119460   2.338   0.472   1.375  0.7751  0.1895  2.8763
 6501TIP3    H219461   2.467   0.484   1.296 -1.2596  0.1027 -0.6819
 6502TIP3   OH219462   3.162   3.719   4.192 -0.0283  0.2823  0.7335
 6502TIP3    H119463   3.244   3.727   4.240  1.0304 -2.3707 -0.4285
 6502TIP3    H219464   3.186   3.729   4.100 -1.2004  0.5261  0.4314
 6503TIP3   OH219465   5.383   4.036   3.271  0.3724 -0.5520  0.2317
 6503TIP3    H119466   5.369   3.948   3.236  0.7904  0.1265 -1.7306
 6503TIP3    H219467   5.382   4.093   3.195 -0.6462  1.2749  1.5440
 6504TIP3   OH219468   7.433   2.155   3.019  0.1617 -0.1513  0.3082
 6504TIP3    H119469   7.510   2.128   2.968  0.7009  0.1364  0.9465
 6504TIP3    H219470   7.443   2.250   3.028 -0.2514 -0.1205  0.4332
 6505TIP3   OH219471   4.907   6.683   6.509 -0.2460 -0.4076  0.5698
 6505TIP3    H119472   4.936   6.704   6.598 -1.3075 -1.2550  1.1410
 6505TIP3    H219473   4.822   6.641   6.521 -1.4705  1.4548 -0.9827
 6506TIP3   OH219474   0.820   5.504   2.646  0.3012  0.4696 -0.0343
 6506TIP3    H119475   0.881   5.574   2.666 -0.0103  0.3869  1.3100
 6506TIP3    H219476   0.875   5.431   2.618  1.0760 -0.2464  2.9615
 6507TIP3   OH219477   8.219   1.873   0.622 -0.5107  0.6075  0.1350
 6507TIP3    H119478   8.269   1.898   0.545  0.4337  0.4874  0.6958
 6507TIP3    H219479   8.218   1.777   0.620  0.3445  0.5766  0.7781
 6508TIP3   OH219480   4.563   4.818   5.133  0.7974  0.0104  0.0938
 6508TIP3    H119481   4.526   4.745   5.082 -0.4373 -0.3987  1.5021
 6508TIP3    H219482   4.487   4.871   5.156  1.6836  1.7726 -0.8891
 6509TIP3   OH219483   5.637   3.580   6.089 -0.1499 -0.5650  0.3284
 6509TIP3    H119484   5.711   3.638   6.109  0.2141 -1.4700  1.8004
 6509TIP3    H219485   5.566   3.640   6.065  0.6593  0.3936  0.2178
 6510TIP3   OH219486   5.800   2.259   1.893 -0.1854 -0.3790  0.2521
 6510TIP3    H119487   5.751   2.177   1.882 -2.9117  1.2055 -0.3577
 6510TIP3    H219488   5.849   2.269   1.811 -1.1888 -0.5736 -0.3819
 6511TIP3   OH219489   1.059   0.733   0.283 -0.1046  0.6277  0.3200
 6511TIP3    H119490   0.975   0.717   0.240  1.3949 -2.3918 -1.9117
 6511TIP3    H219491   1.082   0.823   0.259 -1.4143  0.5219 -1.5080
 6512TIP3   OH219492   4.062   7.003   5.598  0.3077 -0.0327 -0.3487
 6512TIP3    H119493   4.137   7.024   5.541 -0.6391 -1.1320 -2.1101
 6512TIP3    H219494   4.034   7.088   5.633  0.6766  0.7815 -1.9085
 6513TIP3   OH219495   4.683   4.338   3.198  1.0667  0.0935 -0.0761
 6513TIP3    H119496   4.695   4.303   3.110 -0.3789 -0.0924 -0.2163
 6513TIP3    H219497   4.616   4.282   3.238 -2.7883  3.5802 -0.9442
 6514TIP3   OH219498   5.803   1.866   0.165  0.0558 -0.1665  0.0302
 6514TIP3    H119499   5.798   1.959   0.188  1.1533  0.2043 -1.0647
 6514TIP3    H219500   5.886   1.837   0.202 -1.1273 -1.2561  2.0131
 6515TIP3   OH219501   3.479   5.696   0.176  0.3990  0.3121 -0.1321
 6515TIP3    H119502   3.456   5.763   0.111 -0.5270  0.1611  0.0293
 6515TIP3    H219503   3.405   5.635   0.174 -1.1213  1.8131  3.1023
 6516TIP3   OH219504   1.693   4.768   4.729 -0.0841  0.1896 -0.1929
 6516TIP3    H119505   1.600   4.784   4.747 -0.4759  0.7427 -2.3918
 6516TIP3    H219506   1.734   4.765   4.816 -2.1058  0.1471  0.8240
 6517TIP3   OH219507   5.185   3.890   3.462 -0.1771  0.2813 -0.4672
 6517TIP3    H119508   5.145   3.858   3.381  0.0513  0.9672 -0.8562
 6517TIP3    H219509   5.221   3.811   3.504  0.0498 -0.0280 -1.2266
 6518TIP3   OH219510   6.373   3.159   4.708 -0.1786  0.7888  1.1806
 6518TIP3    H119511   6.444   3.157   4.644  0.9130 -0.4869  2.3716
 6518TIP3    H219512   6.409   3.207   4.782 -0.7488  0.6079  1.5832
 6519TIP3   OH219513   6.121   1.307   4.280 -0.0355 -0.2902 -0.1938
 6519TIP3    H119514   6.079   1.388   4.309 -0.3185 -0.4867 -0.0534
 6519TIP3    H219515   6.134   1.320   4.186  0.9478  0.3717  0.0139
 6520TIP3   OH219516   6.480   1.454   5.416  0.1090 -0.4041 -0.0173
 6520TIP3    H119517   6.432   1.382   5.376  0.5691 -0.3045 -0.7558
 6520TIP3    H219518   6.433   1.471   5.498 -1.2739 -0.1566 -0.8233
 6521TIP3   OH219519   0.942   7.301   0.574  0.1922  0.1867  0.2125
 6521TIP3    H119520   0.993   7.380   0.590 -1.4601  1.2917  0.2495
 6521TIP3    H219521   0.943   7.253   0.657 -0.8006  1.3836  0.9366
 6522TIP3   OH219522   1.768   5.927   0.348  0.3486 -0.2287 -0.4961
 6522TIP3    H119523   1.687   5.976   0.364  1.6854  1.9047  0.0185
 6522TIP3    H219524   1.738   5.838   0.327 -2.0875  0.3198  0.3687
 6523TIP3   OH219525   4.851   4.315   4.588 -0.7810  0.1546 -0.0446
 6523TIP3    H119526   4.783   4.312   4.655 -0.5287 -0.7352  0.1966
 6523TIP3    H219527   4.911   4.383   4.618 -0.8514  0.0016  0.4612
 6524TIP3   OH219528   0.792   5.019   2.713 -0.0167 -0.0047  0.8130
 6524TIP3    H119529   0.858   5.009   2.644 -1.5876  1.8496 -1.0799
 6524TIP3    H219530   0.765   4.929   2.733  2.3285 -0.7495  0.9690
 6525TIP3   OH219531   0.582   6.056   6.403 -0.7187 -0.3704  0.6303
 6525TIP3    H119532   0.539   6.141   6.408 -2.3433 -1.2277  2.5699
 6525TIP3    H219533   0.511   5.994   6.389  0.4155 -1.4503 -0.5080
 6526TIP3   OH219534   3.779   1.356   1.152 -0.6067  0.6896 -0.2930
 6526TIP3    H119535   3.847   1.375   1.216 -1.2002 -0.3487  0.6934
 6526TIP3    H219536   3.821   1.370   1.067  0.5277  1.0420  0.3038
 6527TIP3   OH219537   2.066   5.065   3.008  0.1071 -0.5238  0.1029
 6527TIP3    H119538   2.000   5.132   2.992  2.1291  1.3764 -0.9132
 6527TIP3    H219539   2.041   4.993   2.951  0.3193  1.2448 -2.4193
 6528TIP3   OH219540   3.737   1.609   2.509 -0.0061  0.0166  0.0501
 6528TIP3    H119541   3.642   1.614   2.499 -0.0972  1.2406  1.1961
 6528TIP3    H219542   3.750   1.565   2.593  0.4512 -0.3146 -0.1902
 6529TIP3   OH219543   2.234   4.549   5.294 -0.1583 -0.0771  0.0455
 6529TIP3    H119544   2.326   4.567   5.315  0.3491 -2.1570 -0.0846
 6529TIP3    H219545   2.238   4.475   5.232 -1.9240 -0.7959  0.7161
 6530TIP3   OH219546   6.317   4.415   1.659 -0.1848 -0.1088 -0.2603
 6530TIP3    H119547   6.382   4.398   1.726  0.8993  2.5896 -0.5303
 6530TIP3    H219548   6.237   4.435   1.707 -0.1771 -0.9044  0.1104
 6531TIP3   OH219549   5.849   2.495   6.423 -0.2502  0.4105 -0.2460
 6531TIP3    H119550   5.796   2.537   6.491 -0.0000 -0.7962  0.7398
 6531TIP3    H219551   5.938   2.523   6.442 -0.1506 -0.1094  0.0862
 6532TIP3   OH219552   2.559   3.169   4.486 -0.1893  0.1091  0.3553
 6532TIP3    H119553   2.610   3.089   4.497 -0.7005 -0.2282  0.3516
 6532TIP3    H219554   2.600   3.233   4.544  1.0900  0.2706 -0.6757
 6533TIP3   OH219555   7.916   3.841   5.835 -0.0854  0.1598 -0.1659
 6533TIP3    H119556   7.879   3.835   5.747 -0.3178  1.6404 -0.1895
 6533TIP3    H219557   7.889   3.927   5.867  0.7719  0.0226  0.9980
 6534TIP3   OH219558   6.233   5.398   6.246 -0.6665  0.0380 -1.0762
 6534TIP3    H119559   6.279   5.380   6.328 -1.4028  1.7475 -0.2398
 6534TIP3    H219560   6.296   5.375   6.178 -0.4262 -2.4816 -0.1126
 6535TIP3   OH219561   5.662   6.012   1.482  0.3576 -0.6028  0.2635
 6535TIP3    H119562   5.573   6.010   1.518 -0.2989  0.6218 -1.1937
 6535TIP3    H219563   5.684   5.920   1.466 -1.0722 -0.8551 -0.3572
 6536TIP3   OH219564   6.587   0.468   3.496  0.1831 -0.8106  0.0241
 6536TIP3    H119565   6.579   0.373   3.488  0.4176 -0.7285 -1.5985
 6536TIP3    H219566   6.653   0.492   3.430  1.2181  0.3301  1.4096
 6537TIP3   OH219567   3.327   7.440   5.134  0.2617 -0.1353 -0.0625
 6537TIP3    H119568   3.320   7.504   5.063 -1.5364 -0.4755 -0.2372
 6537TIP3    H219569   3.316   7.491   5.214  0.7981  0.0424 -0.1005
 6538TIP3   OH219570   7.946   0.559   2.641 -0.0162 -0.0797 -0.3461
 6538TIP3    H119571   7.907   0.525   2.722  1.9196 -2.2765 -0.2519
 6538TIP3    H219572   8.030   0.595   2.668  0.5933 -0.7250 -1.3358
 6539TIP3   OH219573   0.411   5.991   4.117  0.5528  0.1934  0.2586
 6539TIP3    H119574   0.356   5.913   4.111 -1.2573  1.3279  0.9316
 6539TIP3    H219575   0.498   5.958   4.137  0.4821 -1.7846 -2.2026
 6540TIP3   OH219576   5.367   4.331   1.967  0.0627 -0.2521 -0.5431
 6540TIP3    H119577   5.291   4.292   1.925 -0.6767 -1.4765  1.7563
 6540TIP3    H219578   5.434   4.263   1.964  0.1809 -0.1515 -0.2565
 6541TIP3   OH219579   2.353   6.704   2.255  0.0992  0.3535 -0.2730
 6541TIP3    H119580   2.266   6.738   2.273  0.2804  0.5753  0.2120
 6541TIP3    H219581   2.410   6.752   2.315  0.1388 -2.0613  1.8038
 6542TIP3   OH219582   2.361   4.862   0.188 -0.3930  0.1306  0.1066
 6542TIP3    H119583   2.313   4.915   0.252 -0.1645 -1.1412  1.3970
 6542TIP3    H219584   2.293   4.818   0.137 -0.5821  0.2454  0.2564
 6543TIP3   OH219585   4.166   3.569   3.133  0.0002 -0.1595 -0.1307
 6543TIP3    H119586   4.132   3.659   3.125  1.2136  0.2674 -0.6600
 6543TIP3    H219587   4.228   3.560   3.060  0.4232 -1.1984  0.3356
 6544TIP3   OH219588   2.734   2.518   0.440  0.1084 -0.2241 -0.3108
 6544TIP3    H119589   2.743   2.507   0.534 -2.6753  0.0859  0.0983
 6544TIP3    H219590   2.751   2.432   0.403  0.2321 -0.5962  0.5977
 6545TIP3   OH219591   8.264   5.455   6.097 -0.3125  0.1007 -0.2441
 6545TIP3    H119592   8.276   5.367   6.060 -0.2013 -0.3371  0.7779
 6545TIP3    H219593   8.218   5.504   6.029 -3.3280 -1.6958  0.3234
 6546TIP3   OH219594   3.845   6.712   4.070  0.6836 -0.5816 -0.0884
 6546TIP3    H119595   3.838   6.697   3.975  1.2353  1.7238 -0.5522
 6546TIP3    H219596   3.922   6.767   4.080  0.6608 -0.8256  1.7329
 6547TIP3   OH219597   6.937   3.684   2.848 -0.0970 -0.5137 -0.3617
 6547TIP3    H119598   6.855   3.730   2.828 -0.4025 -0.3669  1.1515
 6547TIP3    H219599   6.979   3.737   2.915  1.3048 -0.5412 -1.1917
 6548TIP3   OH219600   6.772   2.244   4.408 -0.2673 -0.0702 -0.5443
 6548TIP3    H119601   6.827   2.246   4.486  0.6079  0.3141 -1.1605
 6548TIP3    H219602   6.703   2.181   4.430  0.1689 -0.2425  0.4012
 6549TIP3   OH219603   7.901   3.297   3.187 -0.2559 -0.2247 -0.4394
 6549TIP3    H119604   7.945   3.374   3.152 -0.4473 -0.6316 -1.6073
 6549TIP3    H219605   7.828   3.332   3.238 -0.4465  0.3538 -1.1040
 6550TIP3   OH219606   0.211   3.055   2.581 -0.0858 -0.0413  0.5556
 6550TIP3    H119607   0.231   3.139   2.622  1.4739  0.1480 -0.5114
 6550TIP3    H219608   0.277   2.995   2.616  0.7460 -0.0729 -0.9934
 6551TIP3   OH219609   1.888   0.910   0.277 -0.3743  0.4370  0.5676
 6551TIP3    H119610   1.868   0.822   0.246 -1.8185  0.5666  1.0621
 6551TIP3    H219611   1.961   0.897   0.338  0.0077 -0.2843 -0.0177
 6552TIP3   OH219612   6.929   1.076   0.498  0.3255  0.7193 -0.2522
 6552TIP3    H119613   6.917   0.984   0.520  0.3698  0.7547 -0.0830
 6552TIP3    H219614   6.879   1.088   0.417  0.4078  0.5217 -0.3308
 6553TIP3   OH219615   7.459   2.774   6.718  0.0644 -0.2338  0.1190
 6553TIP3    H119616   7.498   2.704   6.770  1.7943 -0.0058 -0.7988
 6553TIP3    H219617   7.380   2.735   6.680  0.6343 -1.4740  0.1645
 6554TIP3   OH219618   4.745   6.234   2.806 -0.0111 -0.2949  0.3516
 6554TIP3    H119619   4.708   6.243   2.894  0.2764 -2.2800  0.7189
 6554TIP3    H219620   4.838   6.252   2.817 -0.0078 -0.3530  0.4181
 6555TIP3   OH219621   3.206   1.317   3.677  0.2406 -0.3812 -0.0168
 6555TIP3    H119622   3.142   1.245   3.678 -0.4205  0.1471 -1.7042
 6555TIP3    H219623   3.273   1.290   3.740  0.4154 -2.8540 -1.1438
 6556TIP3   OH219624   4.186   0.020   1.394  0.2699 -0.4476  0.3508
 6556TIP3    H119625   4.170   0.113   1.378  0.4738 -0.3479  0.7102
 6556TIP3    H219626   4.218   0.016   1.484  1.8925 -0.6764 -0.1959
 6557TIP3   OH219627   0.849   5.426   3.130  0.7695  0.2410 -0.2585
 6557TIP3    H119628   0.841   5.345   3.079 -1.7318  1.1820 -1.5180
 6557TIP3    H219629   0.912   5.479   3.081  0.6133 -0.0163 -0.7449
 6558TIP3   OH219630   3.138   0.526   2.397  0.1202  0.1027 -0.0522
 6558TIP3    H119631   3.103   0.586   2.330 -1.1562 -1.5110 -0.8940
 6558TIP3    H219632   3.229   0.555   2.409  0.6271  0.0758 -2.9875
 6559TIP3   OH219633   2.346   2.358   1.752  0.3336 -0.0076 -0.5959
 6559TIP3    H119634   2.441   2.348   1.752  0.3350 -0.0589 -1.7083
 6559TIP3    H219635   2.329   2.426   1.688 -0.4789 -1.0916 -1.5711
 6560TIP3   OH219636   2.722   6.450   2.683  0.5778 -0.2136  0.5561
 6560TIP3    H119637   2.816   6.443   2.702  0.9648  0.5215 -0.9624
 6560TIP3    H219638   2.713   6.415   2.594 -0.2763  1.4052 -0.0360
 6561TIP3   OH219639   2.535   1.334   0.098  0.5770  0.1852  0.1343
 6561TIP3    H119640   2.536   1.427   0.122 -1.1750  0.1947  0.2714
 6561TIP3    H219641   2.532   1.288   0.181 -2.4404  0.1424  0.0791
 6562TIP3   OH219642   4.329   6.217   1.120  0.2677  0.0768 -0.2904
 6562TIP3    H119643   4.316   6.228   1.026 -3.0607 -1.3325 -0.1479
 6562TIP3    H219644   4.413   6.173   1.127  0.9348  0.8598 -2.5451
 6563TIP3   OH219645   6.878   5.707   6.372 -0.0334 -0.0454 -0.4219
 6563TIP3    H119646   6.931   5.630   6.394 -0.4960 -0.1235  0.4611
 6563TIP3    H219647   6.941   5.770   6.337  0.2907 -0.9791 -1.6037
 6564TIP3   OH219648   7.064   7.017   3.754 -0.6403  0.0502  0.0666
 6564TIP3    H119649   7.005   7.085   3.721 -1.7681 -0.7254  0.4185
 6564TIP3    H219650   7.144   7.064   3.778 -1.8835  1.5139  1.6348
 6565TIP3   OH219651   2.914   0.038   2.317 -0.1378  0.3005  0.1828
 6565TIP3    H119652   2.866   0.103   2.368  0.7822  1.4817 -0.4287
 6565TIP3    H219653   3.005   0.068   2.318  0.1270 -0.3809 -1.0103
 6566TIP3   OH219654   0.412   4.769   2.490  0.1139  0.4522 -0.3450
 6566TIP3    H119655   0.498   4.727   2.484  0.4439  1.0891 -0.1835
 6566TIP3    H219656   0.391   4.767   2.584  0.7441  1.8031 -0.1353
 6567TIP3   OH219657   4.753   1.987   5.849  0.2144 -0.1565  0.1617
 6567TIP3    H119658   4.801   2.060   5.888  0.3307  0.0898 -0.4418
 6567TIP3    H219659   4.806   1.960   5.775 -1.7945  1.8477 -2.2029
 6568TIP3   OH219660   2.865   1.624   5.547 -0.1553  0.1643 -0.9248
 6568TIP3    H119661   2.818   1.540   5.543  0.8472 -0.3828 -1.7298
 6568TIP3    H219662   2.796   1.689   5.559 -1.3493 -0.4552 -3.5951
 6569TIP3   OH219663   3.652   6.756   3.563  0.4977  0.3864  0.2407
 6569TIP3    H119664   3.668   6.667   3.533 -0.5656  0.4311 -0.5081
 6569TIP3    H219665   3.714   6.809   3.513 -0.5707  0.3369 -1.2206
 6570TIP3   OH219666   4.195   0.676   0.288  0.2416  0.0558  0.1842
 6570TIP3    H119667   4.163   0.700   0.376  0.8711 -0.9507  0.7052
 6570TIP3    H219668   4.129   0.614   0.256 -0.7003  1.4281 -0.6304
 6571TIP3   OH219669   4.121   0.924   4.786  0.1148  0.2208  0.5056
 6571TIP3    H119670   4.187   0.992   4.771  0.5412 -0.1907  0.4875
 6571TIP3    H219671   4.169   0.853   4.829 -0.7308  0.6972  2.3138
 6572TIP3   OH219672   1.650   3.636   5.176 -0.2232  0.6178  0.2337
 6572TIP3    H119673   1.699   3.620   5.095  0.0933  0.7086  0.4039
 6572TIP3    H219674   1.666   3.558   5.229 -3.6108 -1.3422 -1.2883
 6573TIP3   OH219675   7.503   0.648   0.356 -0.4163  0.3703  0.2486
 6573TIP3    H119676   7.468   0.560   0.367 -0.9736  0.4320 -0.9357
 6573TIP3    H219677   7.510   0.682   0.446 -1.5691 -0.3398  0.6276
 6574TIP3   OH219678   3.652   2.481   2.222  0.3928  0.0282  0.5132
 6574TIP3    H119679   3.663   2.536   2.299  1.1010 -1.5189  1.5650
 6574TIP3    H219680   3.562   2.449   2.227  0.3656  0.1138  0.5694
 6575TIP3   OH219681   3.199   5.906   3.424  0.0679  0.1320 -0.1573
 6575TIP3    H119682   3.238   5.838   3.368 -0.7679 -0.3881 -0.1271
 6575TIP3    H219683   3.183   5.979   3.364 -2.3435 -0.9980 -1.0579
 6576TIP3   OH219684   7.545   7.782   4.658 -0.4835  0.0715 -0.2516
 6576TIP3    H119685   7.477   7.719   4.680 -1.0135  0.7576  0.1329
 6576TIP3    H219686   7.609   7.775   4.728 -0.4356 -0.1794 -0.3191
 6577TIP3   OH219687   1.186   3.729   2.575  0.3320 -0.5351 -0.7069
 6577TIP3    H119688   1.236   3.803   2.611 -1.1064  1.0232 -1.7472
 6577TIP3    H219689   1.205   3.656   2.634  0.9322  0.9478  1.0357
 6578TIP3   OH219690   7.799   5.047   2.231 -0.7471 -0.7052  0.5579
 6578TIP3    H119691   7.733   5.096   2.183  2.1590  0.2972 -2.8327
 6578TIP3    H219692   7.850   5.113   2.278  1.0543 -0.7078 -1.2434
 6579TIP3   OH219693   3.495   4.488   4.681  0.2438  0.0955 -0.3701
 6579TIP3    H119694   3.415   4.453   4.721  0.6910 -0.4136  0.0957
 6579TIP3    H219695   3.565   4.460   4.740  0.8493 -0.1279 -1.1842
 6580TIP3   OH219696   7.130   1.303   6.790 -0.1217  0.6644  0.0166
 6580TIP3    H119697   7.184   1.272   6.717 -1.4907 -0.5307 -0.5355
 6580TIP3    H219698   7.041   1.278   6.766 -0.7597  1.3596  1.5438
 6581TIP3   OH219699   0.762   6.422   6.195 -0.7798 -0.0588 -0.1533
 6581TIP3    H119700   0.764   6.331   6.227 -0.3930 -0.0992 -0.2876
 6581TIP3    H219701   0.839   6.429   6.139  0.8175  1.1430  2.0215
 6582TIP3   OH219702   1.458   7.395   2.825  0.4741  0.1564 -0.0265
 6582TIP3    H119703   1.467   7.360   2.913  0.7294  0.7544  0.1900
 6582TIP3    H219704   1.510   7.336   2.770 -0.0604 -0.4834  0.1478
 6583TIP3   OH219705   0.514   0.822   6.309  0.4560 -0.5567  0.1838
 6583TIP3    H119706   0.491   0.753   6.372  1.5318 -0.1400  1.0572
 6583TIP3    H219707   0.483   0.903   6.350 -1.2988 -0.5206 -1.0812
 6584TIP3   OH219708   5.332   1.442   4.426  0.0411  0.0195 -0.7740
 6584TIP3    H119709   5.302   1.530   4.445 -2.2568 -0.9769  0.6468
 6584TIP3    H219710   5.366   1.447   4.337  0.0067  2.3213 -0.7143
 6585TIP3   OH219711   2.105   0.879   5.664 -0.3526 -0.1879 -0.5151
 6585TIP3    H119712   2.134   0.795   5.700 -1.3998  0.3125  1.6483
 6585TIP3    H219713   2.086   0.860   5.572  0.2988 -2.0923 -0.2990
 6586TIP3   OH219714   7.904   5.899   3.823 -0.0078  0.4690 -0.0380
 6586TIP3    H119715   7.929   5.819   3.868 -0.0738  0.4029 -0.1209
 6586TIP3    H219716   7.931   5.969   3.883  0.7780  0.4125 -0.3118
 6587TIP3   OH219717   3.830   2.085   3.668  0.3338  0.1684 -0.1481
 6587TIP3    H119718   3.831   1.993   3.641  1.5410  0.1670 -0.1591
 6587TIP3    H219719   3.746   2.118   3.636  0.4765 -0.5706 -1.3786
 6588TIP3   OH219720   2.295   6.015   2.125 -0.3052  0.2900 -0.2513
 6588TIP3    H119721   2.366   6.003   2.062 -0.0691  1.4090 -0.2278
 6588TIP3    H219722   2.313   5.950   2.193  1.7366  1.6522  0.6318
 6589TIP3   OH219723   2.416   0.526   5.054 -0.5550  0.2721  0.1322
 6589TIP3    H119724   2.426   0.620   5.044  0.4664  0.2298  0.6160
 6589TIP3    H219725   2.361   0.515   5.131  0.1488  0.4813  0.6823
 6590TIP3   OH219726   5.502   0.292   3.769  0.0192  0.0660  0.5113
 6590TIP3    H119727   5.450   0.220   3.804  0.0989 -0.1906  0.0999
 6590TIP3    H219728   5.438   0.358   3.742 -0.0689 -0.0411  0.4621
 6591TIP3   OH219729   1.419   1.844   2.162  0.2766  0.0003 -0.2540
 6591TIP3    H119730   1.447   1.915   2.105  0.1727  1.4001  1.3631
 6591TIP3    H219731   1.491   1.782   2.160  1.4679  1.3254  0.2065
 6592TIP3   OH219732   6.768   3.903   3.063 -0.0862  0.3005  0.3988
 6592TIP3    H119733   6.767   3.880   2.970 -1.4606 -0.2680  0.5165
 6592TIP3    H219734   6.685   3.868   3.097  0.3331  0.5941  1.8149
 6593TIP3   OH219735   3.744   7.172   0.106 -0.0416 -0.8991 -0.1377
 6593TIP3    H119736   3.762   7.144   0.195  1.3198 -0.4101 -0.2407
 6593TIP3    H219737   3.741   7.091   0.055 -2.2016 -1.2995  0.5473
 6594TIP3   OH219738   5.629   5.415   1.445  0.0536  0.1633 -0.2680
 6594TIP3    H119739   5.556   5.353   1.439 -0.7480  0.9003  1.3499
 6594TIP3    H219740   5.594   5.489   1.494  1.7474  0.7612  0.0913
 6595TIP3   OH219741   4.083   5.172   3.607  0.1831  0.4035  0.2600
 6595TIP3    H119742   4.038   5.248   3.569 -1.4785 -0.0421  1.2228
 6595TIP3    H219743   4.136   5.208   3.678  0.4694  0.8053 -0.1482
 6596TIP3   OH219744   6.334   7.379   0.424  0.1447  0.5175  0.7743
 6596TIP3    H119745   6.238   7.380   0.423  0.1308  1.7360  1.4565
 6596TIP3    H219746   6.357   7.374   0.517  0.7849 -2.2412  0.5756
 6597TIP3   OH219747   1.392   1.408   1.395 -1.0293 -0.4887 -0.7011
 6597TIP3    H119748   1.373   1.446   1.309 -0.5900 -0.3548 -0.7432
 6597TIP3    H219749   1.487   1.414   1.403 -0.8086 -2.5441 -1.1657
 6598TIP3   OH219750   1.317   0.647   4.278 -0.0151  0.0165  0.0585
 6598TIP3    H119751   1.295   0.726   4.326 -0.3072 -0.2569  0.3791
 6598TIP3    H219752   1.405   0.664   4.243  0.9252 -0.3974  2.0452
 6599TIP3   OH219753   1.871   1.050   4.659  0.2733  0.5705 -0.0491
 6599TIP3    H119754   1.849   1.106   4.733 -0.6020  2.0922 -1.3908
 6599TIP3    H219755   1.856   0.961   4.690  0.5178  1.1355  1.7656
 6600TIP3   OH219756   8.296   3.809   6.752 -0.0472  0.0941  0.2257
 6600TIP3    H119757   8.264   3.782   6.838 -0.0553 -0.2996  0.0999
 6600TIP3    H219758   8.306   3.904   6.759 -2.4692  0.4351 -0.1268
 6601TIP3   OH219759   3.958   4.831   1.326  0.4360  0.6787 -0.3516
 6601TIP3    H119760   3.935   4.745   1.291  0.8486  0.7438 -0.7897
 6601TIP3    H219761   4.008   4.812   1.406 -2.6944  0.5250  1.7509
 6602TIP3   OH219762   2.987   5.425   1.861  0.0667 -0.3217  0.2869
 6602TIP3    H119763   3.032   5.459   1.783 -2.3123  1.3036 -0.4915
 6602TIP3    H219764   3.003   5.492   1.928 -0.2554 -0.2796  0.3244
 6603TIP3   OH219765   0.738   5.411   6.685  0.1109 -0.4954  0.1267
 6603TIP3    H119766   0.820   5.385   6.642  0.0886  2.6882 -2.2105
 6603TIP3    H219767   0.766   5.465   6.759  0.1860  0.2091 -0.3997
 6604TIP3   OH219768   4.150   7.322   4.637 -0.3997  0.5768 -0.0973
 6604TIP3    H119769   4.177   7.248   4.692 -1.7145 -0.2143 -0.4791
 6604TIP3    H219770   4.216   7.390   4.654  0.9370 -0.7352  0.1213
 6605TIP3   OH219771   6.920   3.707   1.417 -0.1249  0.0945  0.2792
 6605TIP3    H119772   7.015   3.716   1.412 -0.2540  0.9262 -1.4620
 6605TIP3    H219773   6.900   3.716   1.511  1.4148  0.8751  0.5701
 6606TIP3   OH219774   3.808   6.285   2.364  0.2367 -0.0518 -0.1735
 6606TIP3    H119775   3.757   6.227   2.421  1.6867 -1.6052 -0.3842
 6606TIP3    H219776   3.777   6.265   2.275 -0.1180  0.4011 -0.1559
 6607TIP3   OH219777   4.532   1.470   1.331 -0.3296  0.4519 -0.1729
 6607TIP3    H119778   4.575   1.554   1.313 -0.2368  0.4223 -0.0943
 6607TIP3    H219779   4.592   1.425   1.391  0.1876 -0.1466 -1.1180
 6608TIP3   OH219780   0.474   6.032   5.086 -0.0513  0.2895 -0.4489
 6608TIP3    H119781   0.519   6.096   5.031  1.2052  1.3686  1.7213
 6608TIP3    H219782   0.519   5.949   5.068  0.3221  0.6146 -1.0449
 6609TIP3   OH219783   2.471   7.585   5.485 -0.1900 -0.0821 -0.1052
 6609TIP3    H119784   2.406   7.584   5.415  1.2760 -0.9647 -1.5066
 6609TIP3    H219785   2.531   7.656   5.461  0.8079 -0.9521 -0.2356
 6610TIP3   OH219786   7.556   0.310   3.241 -0.5278  0.2665 -0.3664
 6610TIP3    H119787   7.591   0.247   3.305 -0.8263  0.3688 -0.1038
 6610TIP3    H219788   7.591   0.394   3.270  0.0950  0.1907 -0.8752
 6611TIP3   OH219789   3.379   0.162   4.439 -0.5271  0.0067 -0.3121
 6611TIP3    H119790   3.401   0.249   4.406  0.1850 -0.1803 -0.3469
 6611TIP3    H219791   3.380   0.106   4.361  0.6165 -0.3330 -0.0660
 6612TIP3   OH219792   5.510   4.898   4.614 -0.5719 -0.0155  0.3255
 6612TIP3    H119793   5.428   4.864   4.652 -1.7440 -1.3769 -3.0212
 6612TIP3    H219794   5.481   4.955   4.543  1.4537  1.3836  0.5674
 6613TIP3   OH219795   6.663   3.003   6.152  0.4572 -0.1327 -0.3550
 6613TIP3    H119796   6.586   2.972   6.200  0.4208  1.3007  0.5807
 6613TIP3    H219797   6.671   2.943   6.077 -1.1910 -0.6828 -0.1264
 6614TIP3   OH219798   1.106   2.781   1.493 -0.3745  0.0271 -0.1959
 6614TIP3    H119799   1.200   2.789   1.509 -0.2389  0.9365 -1.3089
 6614TIP3    H219800   1.089   2.687   1.492 -0.0495 -0.1956  2.9500
 6615TIP3   OH219801   0.109   6.563   4.060 -0.9372  0.4228 -0.2209
 6615TIP3    H119802   0.193   6.555   4.015 -1.1759  1.6814 -0.9135
 6615TIP3    H219803   0.131   6.552   4.153 -0.5185 -2.7433 -0.5581
 6616TIP3   OH219804   3.798   7.131   4.801  0.0035 -0.3060  0.1539
 6616TIP3    H119805   3.820   7.093   4.716 -1.4555 -0.4071 -0.2105
 6616TIP3    H219806   3.825   7.066   4.865  0.6611 -0.4478 -0.2602
 6617TIP3   OH219807   0.376   1.296   6.271 -0.2647 -0.0875 -0.2967
 6617TIP3    H119808   0.382   1.338   6.185 -0.2331 -1.0580 -0.7782
 6617TIP3    H219809   0.350   1.367   6.330 -0.6829  0.5095 -1.1752
 6618TIP3   OH219810   5.384   3.035   2.770  0.2792  0.1463 -0.1967
 6618TIP3    H119811   5.463   3.083   2.793 -1.5263  2.7757  1.1673
 6618TIP3    H219812   5.378   2.965   2.835  1.5813 -0.2341 -0.4744
 6619TIP3   OH219813   6.642   2.212   6.199 -0.0824  0.0875 -0.1779
 6619TIP3    H119814   6.588   2.206   6.278  0.7502 -0.4073  0.3660
 6619TIP3    H219815   6.730   2.229   6.232  0.0537  1.2373 -1.0693
 6620TIP3   OH219816   2.570   2.193   1.960 -0.1859  0.1763  0.0063
 6620TIP3    H119817   2.634   2.231   1.901 -0.3189 -0.8556 -0.8430
 6620TIP3    H219818   2.558   2.258   2.029  1.2606  0.6617 -0.1798
 6621TIP3   OH219819   4.455   4.149   0.792  0.2261  0.5352  0.2588
 6621TIP3    H119820   4.512   4.077   0.765 -2.4397 -1.1781 -1.2553
 6621TIP3    H219821   4.437   4.197   0.712 -0.3192  1.1712  0.7501
 6622TIP3   OH219822   0.095   2.728   1.141 -0.4278 -0.1593 -0.1159
 6622TIP3    H119823   0.081   2.823   1.135 -0.3075 -0.1745 -0.7519
 6622TIP3    H219824   0.177   2.713   1.093 -0.6987 -0.6431 -0.4334
 6623TIP3   OH219825   5.592   6.023   2.853  0.9144 -0.0105 -0.2743
 6623TIP3    H119826   5.570   5.998   2.763  0.5656  0.0460 -0.2077
 6623TIP3    H219827   5.523   6.085   2.878  0.7827 -0.3291  0.1655
 6624TIP3   OH219828   7.162   7.768   2.459  0.3560 -0.3517 -0.4404
 6624TIP3    H119829   7.104   7.794   2.530  0.3782 -1.8380  0.1670
 6624TIP3    H219830   7.111   7.703   2.410  0.6460  0.0647 -1.3136
 6625TIP3   OH219831   0.733   2.638   3.504  0.3403 -0.6931 -0.1743
 6625TIP3    H119832   0.712   2.572   3.570 -0.8282  0.2400  0.4253
 6625TIP3    H219833   0.798   2.694   3.547  0.0768 -0.4740 -0.0612
 6626TIP3   OH219834   0.807   0.967   4.641  0.2116  0.7358  0.2257
 6626TIP3    H119835   0.793   0.997   4.552 -1.3593  0.3951  0.3263
 6626TIP3    H219836   0.898   0.938   4.643 -0.2273 -1.0533 -1.8311
 6627TIP3   OH219837   0.289   2.313   1.821 -0.5039  0.2923 -0.0641
 6627TIP3    H119838   0.259   2.322   1.731  0.6175  2.6071 -0.2875
 6627TIP3    H219839   0.333   2.228   1.824 -1.8259 -0.4796 -1.2661
 6628TIP3   OH219840   2.016   4.582   5.997  0.2850 -0.1641 -1.0813
 6628TIP3    H119841   2.013   4.523   5.922  0.3184 -1.0093 -0.4262
 6628TIP3    H219842   1.941   4.557   6.051  1.1473 -0.6221 -0.0601
 6629TIP3   OH219843   2.868   1.050   6.273 -0.0579 -0.2011  0.1898
 6629TIP3    H119844   2.895   0.974   6.324 -1.0842 -2.4005 -2.3235
 6629TIP3    H219845   2.920   1.046   6.193 -1.5157  0.6169 -0.8439
 6630TIP3   OH219846   7.510   6.428  -0.021  0.3435  0.1738 -0.0103
 6630TIP3    H119847   7.573   6.403   0.047  0.5292  1.4421  0.3120
 6630TIP3    H219848   7.443   6.359  -0.018  0.5702 -0.0177  1.1767
 6631TIP3   OH219849   8.135   4.244   2.376  0.2849 -0.0290  0.0388
 6631TIP3    H119850   8.199   4.250   2.306  0.4289  1.2050  0.2613
 6631TIP3    H219851   8.054   4.279   2.338  0.3431  0.5667  0.4446
 6632TIP3   OH219852   8.260   0.179   1.258  0.2433  0.0681 -0.0173
 6632TIP3    H119853   8.250   0.202   1.350  0.5655  0.4897 -0.0832
 6632TIP3    H219854   8.177   0.207   1.217 -0.1103 -0.6038  0.2344
 6633TIP3   OH219855   5.366   1.493   5.200 -0.1569  0.0189 -0.2488
 6633TIP3    H119856   5.286   1.484   5.148 -0.5277  1.4240  0.0327
 6633TIP3    H219857   5.343   1.453   5.284  0.0476 -1.1794 -0.7462
 6634TIP3   OH219858   2.792   3.126   3.108 -0.2143 -0.1235  0.3748
 6634TIP3    H119859   2.763   3.166   3.190  2.0414 -1.2739  1.8503
 6634TIP3    H219860   2.883   3.102   3.124  0.5430  0.2082 -2.7489
 6635TIP3   OH219861   6.370   7.221   6.793 -0.0217  0.3339 -0.6480
 6635TIP3    H119862   6.410   7.288   6.738 -1.2738  1.5983 -0.0833
 6635TIP3    H219863   6.291   7.262   6.828  0.0218 -0.8834  1.0205
 6636TIP3   OH219864   1.401   4.011   4.611 -0.2640  0.1218 -0.2902
 6636TIP3    H119865   1.385   4.104   4.624  0.0612  0.4361 -1.8819
 6636TIP3    H219866   1.475   3.991   4.668  0.2329  1.0566 -0.5833
 6637TIP3   OH219867   2.220   5.602   4.369 -0.1644 -0.3461 -0.0928
 6637TIP3    H119868   2.302   5.630   4.330 -2.2330  2.6113 -2.8498
 6637TIP3    H219869   2.229   5.625   4.462  2.2390 -0.6198 -0.1939
 6638TIP3   OH219870   4.792   6.331   6.623  0.5331 -0.7068  0.3096
 6638TIP3    H119871   4.848   6.369   6.555 -0.5418 -1.1650 -0.8533
 6638TIP3    H219872   4.720   6.290   6.575 -0.9300  0.0575  1.7801
 6639TIP3   OH219873   8.003   2.401   4.510 -0.3869  0.9498  0.7584
 6639TIP3    H119874   8.041   2.389   4.423 -0.2874 -0.5256  0.9749
 6639TIP3    H219875   8.036   2.486   4.539 -1.2724  1.9732 -1.0424
 6640TIP3   OH219876   0.167   1.360   2.624 -0.1112  0.2371  0.1007
 6640TIP3    H119877   0.131   1.322   2.544  0.2643 -1.0050  0.5129
 6640TIP3    H219878   0.223   1.432   2.593 -0.8606  0.5082 -0.6734
 6641TIP3   OH219879   0.403   7.598   1.412  0.7155 -0.3063 -0.2305
 6641TIP3    H119880   0.368   7.605   1.501 -0.9756  0.4618 -0.9162
 6641TIP3    H219881   0.491   7.636   1.418 -0.4444  2.5462  0.5610
 6642TIP3   OH219882   2.853   3.164   3.601 -0.0212 -0.4601 -0.2016
 6642TIP3    H119883   2.785   3.231   3.602 -0.6468 -1.0292  1.6540
 6642TIP3    H219884   2.838   3.115   3.683  0.8149 -2.4292 -1.1654
 6643TIP3   OH219885   7.575   6.335   4.075 -0.0971 -0.0422  0.1764
 6643TIP3    H119886   7.557   6.273   4.004  0.9777 -1.4673  1.1096
 6643TIP3    H219887   7.518   6.306   4.147  0.4700 -0.0040  0.6449
 6644TIP3   OH219888   4.127   0.713   2.103  0.7248  0.4130  0.3749
 6644TIP3    H119889   4.103   0.806   2.109  1.6047  0.7344 -0.8142
 6644TIP3    H219890   4.101   0.677   2.187 -0.2630  1.5917  0.6068
 6645TIP3   OH219891   8.167   6.878   6.043  0.2949 -0.2026  0.1436
 6645TIP3    H119892   8.089   6.850   6.091  1.0573 -0.7992  1.0478
 6645TIP3    H219893   8.203   6.950   6.095  1.0345 -0.7459  0.3877
 6646TIP3   OH219894   5.820   3.281   6.390  0.1390 -0.4027  0.3299
 6646TIP3    H119895   5.746   3.308   6.336 -1.3054  1.7238  3.0746
 6646TIP3    H219896   5.786   3.207   6.441  0.8098 -1.1137 -0.2436
 6647TIP3   OH219897   3.087   3.104   3.237 -0.5841  0.2944  0.3901
 6647TIP3    H119898   3.160   3.073   3.183  0.1401  0.1737  1.4175
 6647TIP3    H219899   3.068   3.191   3.203  0.5049  0.6081  0.5471
 6648TIP3   OH219900   4.103   2.726   3.554  0.0016  0.4251  0.4279
 6648TIP3    H119901   4.043   2.760   3.487 -0.5550  1.6341  1.4799
 6648TIP3    H219902   4.185   2.711   3.508  0.0036  2.4215 -0.3166
 6649TIP3   OH219903   3.194   6.182   5.604  0.2534  0.1396 -0.4427
 6649TIP3    H119904   3.147   6.133   5.672  1.5415 -1.5944 -0.7484
 6649TIP3    H219905   3.267   6.223   5.650  0.4548 -0.0572 -0.5907
 6650TIP3   OH219906   1.684   6.802   1.906  0.0259  0.3187 -0.5318
 6650TIP3    H119907   1.592   6.801   1.881  0.0738 -1.1307 -0.7211
 6650TIP3    H219908   1.725   6.736   1.850  1.6444  2.4536 -2.0961
 6651TIP3   OH219909   4.161   0.625   6.361  0.1007 -0.1512 -0.4089
 6651TIP3    H119910   4.085   0.659   6.410 -0.4014 -0.6598 -0.8297
 6651TIP3    H219911   4.142   0.532   6.348  1.2576 -0.5084  0.3292
 6652TIP3   OH219912   1.634   6.188   6.033 -0.0187  0.0417  0.3632
 6652TIP3    H119913   1.552   6.237   6.022  0.1659  0.0144 -1.4192
 6652TIP3    H219914   1.700   6.256   6.045 -0.0361  0.1429 -0.1126
 6653TIP3   OH219915   3.435   2.259   2.401 -0.3342  0.6213  0.0306
 6653TIP3    H119916   3.405   2.335   2.353 -0.9932 -0.4631 -1.3447
 6653TIP3    H219917   3.438   2.287   2.492 -1.2798  2.0570 -0.3555
 6654TIP3   OH219918   8.016   0.555   5.851  0.8067 -0.3982 -0.3092
 6654TIP3    H119919   8.090   0.598   5.809  0.2962 -1.2774 -2.2567
 6654TIP3    H219920   7.949   0.624   5.859  1.6254  0.2882  1.0652
 6655TIP3   OH219921   0.251   4.852   4.213 -0.3965  0.3884 -0.0455
 6655TIP3    H119922   0.222   4.860   4.304 -0.7096  0.9886 -0.1893
 6655TIP3    H219923   0.177   4.810   4.169 -0.7096  1.1171 -0.2371
 6656TIP3   OH219924   0.871   3.801   2.967  0.2300  0.3632  0.3964
 6656TIP3    H119925   0.813   3.824   3.040  0.3578  1.6249  0.1247
 6656TIP3    H219926   0.957   3.788   3.008  0.3692  1.3746  0.4580
 6657TIP3   OH219927   4.444   7.261   0.819  0.3920 -0.1956  0.4308
 6657TIP3    H119928   4.415   7.170   0.829  1.0572 -0.6296 -1.2054
 6657TIP3    H219929   4.401   7.292   0.739 -0.2406  1.1225  1.2518
 6658TIP3   OH219930   2.509   5.244   3.592 -0.4116 -0.2511 -1.2884
 6658TIP3    H119931   2.484   5.174   3.652 -1.9624  1.0224 -0.3760
 6658TIP3    H219932   2.522   5.320   3.649  1.2925  0.2174 -2.2497
 6659TIP3   OH219933   6.959   5.674   5.663 -0.0135  0.3182 -0.6341
 6659TIP3    H119934   7.014   5.597   5.648  0.2460  0.6107 -1.2468
 6659TIP3    H219935   6.871   5.638   5.679 -0.1279 -0.0862 -2.0023
 6660TIP3   OH219936   2.126   1.815   4.278 -0.5371  0.2407 -0.2865
 6660TIP3    H119937   2.123   1.899   4.324 -2.1243 -0.6812  1.4359
 6660TIP3    H219938   2.085   1.753   4.339  0.2733 -1.7236 -1.6468
 6661TIP3   OH219939   5.262   7.040   3.898  0.1687  0.7393  0.2075
 6661TIP3    H119940   5.352   7.069   3.885  1.2382 -1.9086  0.9510
 6661TIP3    H219941   5.220   7.050   3.813  1.7752  0.2303 -0.6784
 6662TIP3   OH219942   7.998   3.261   2.501 -0.4968  0.1402 -0.1466
 6662TIP3    H119943   8.059   3.254   2.427 -0.6537  0.5909 -0.3216
 6662TIP3    H219944   8.038   3.208   2.570 -0.0165  0.2522 -0.3339
 6663TIP3   OH219945   4.937   2.784   1.237 -0.5009  0.0013  0.0196
 6663TIP3    H119946   5.030   2.780   1.258 -0.1621  0.9942 -1.1762
 6663TIP3    H219947   4.910   2.692   1.230  0.0298 -0.3174  1.7376
 6664TIP3   OH219948   3.659   2.937   5.269  0.2357 -0.5306 -0.3469
 6664TIP3    H119949   3.567   2.913   5.284 -0.5121  2.0608 -0.2537
 6664TIP3    H219950   3.709   2.867   5.310 -1.7210 -1.0923  1.2517
 6665TIP3   OH219951   1.771   6.428   1.683  0.4635  0.2343  0.1118
 6665TIP3    H119952   1.699   6.477   1.722 -0.7713 -0.4534 -1.2124
 6665TIP3    H219953   1.828   6.405   1.757  0.7368  2.9884  0.8662
 6666TIP3   OH219954   7.514   0.871   3.145  0.2860  0.2939  0.5535
 6666TIP3    H119955   7.561   0.915   3.215 -0.3268 -0.0294  1.1896
 6666TIP3    H219956   7.579   0.858   3.076  0.9581  0.4192  1.1520
 6667TIP3   OH219957   4.177   7.236   1.157  0.3157 -0.4627 -0.2425
 6667TIP3    H119958   4.088   7.228   1.190  1.4270 -2.9845  2.6566
 6667TIP3    H219959   4.187   7.162   1.097  0.1304  0.5766 -1.5980
 6668TIP3   OH219960   4.795   0.310   1.489 -0.1278  0.5781  0.0202
 6668TIP3    H119961   4.737   0.247   1.445 -0.6120 -1.0114  2.7358
 6668TIP3    H219962   4.880   0.265   1.494  0.8679  2.0329 -1.9733
 6669TIP3   OH219963   3.839   3.673   3.691 -0.8432 -0.0882  0.3005
 6669TIP3    H119964   3.846   3.692   3.597 -0.4204  0.4793  0.4407
 6669TIP3    H219965   3.883   3.747   3.734  0.6415 -1.2562  0.8688
 6670TIP3   OH219966   4.712   4.296   4.351 -0.0990 -0.0139 -0.1097
 6670TIP3    H119967   4.763   4.283   4.271 -0.8790  0.0450 -0.6351
 6670TIP3    H219968   4.776   4.318   4.418  0.7271 -1.5134 -0.3755
 6671TIP3   OH219969   1.644   5.408   5.100 -0.0272 -0.2959  0.3927
 6671TIP3    H119970   1.687   5.450   5.025  0.3271 -1.9527 -0.3636
 6671TIP3    H219971   1.701   5.334   5.122  0.0397  0.3206  2.5194
 6672TIP3   OH219972   5.002   3.813   4.472  0.4489 -0.1772  0.0186
 6672TIP3    H119973   5.088   3.800   4.513 -0.2740 -2.2707  1.0235
 6672TIP3    H219974   5.020   3.814   4.379  1.7015  0.7000  0.2465
 6673TIP3   OH219975   5.089   2.283   0.555  0.4316  0.2161  0.0548
 6673TIP3    H119976   5.096   2.313   0.465 -0.6052  1.1219  0.2613
 6673TIP3    H219977   5.000   2.304   0.581  0.4726 -0.7416  1.0491
 6674TIP3   OH219978   0.975   0.044   5.881 -0.0329  0.6001  0.2022
 6674TIP3    H119979   0.893   0.092   5.891 -0.1789  0.2851  0.5191
 6674TIP3    H219980   0.949  -0.046   5.863  0.2395  0.7282 -0.9059
 6675TIP3   OH219981   4.750   4.820   6.732 -0.1414  0.2144 -0.6168
 6675TIP3    H119982   4.792   4.836   6.648  0.3005  1.2390 -0.2226
 6675TIP3    H219983   4.683   4.888   6.739 -2.0942 -1.5159 -1.3292
 6676TIP3   OH219984   0.520   2.939   4.279 -0.0228  0.1680 -0.0557
 6676TIP3    H119985   0.566   2.859   4.253  1.5219  0.9721  0.1357
 6676TIP3    H219986   0.465   2.912   4.353  0.7092 -0.6463  0.2025
 6677TIP3   OH219987   4.543   1.550   5.471  0.3416 -0.2392  0.1044
 6677TIP3    H119988   4.606   1.555   5.399  0.5162 -1.4537  0.1432
 6677TIP3    H219989   4.573   1.614   5.535  1.0724 -0.2437 -0.2338
 6678TIP3   OH219990   4.696   3.954   5.815 -0.1436  0.3435 -0.1329
 6678TIP3    H119991   4.638   3.969   5.890 -1.1712  1.5672 -1.1185
 6678TIP3    H219992   4.663   3.874   5.774  0.3365 -0.2522  0.6330
 6679TIP3   OH219993   0.982   3.969   5.825 -0.0981  0.1670 -0.0309
 6679TIP3    H119994   1.009   3.945   5.736  1.9637  0.8408  0.3579
 6679TIP3    H219995   0.969   4.064   5.822 -0.5022  0.1240  0.2795
 6680TIP3   OH219996   7.001   7.393   6.081  0.4382 -0.3811  0.0264
 6680TIP3    H119997   6.947   7.335   6.134 -0.7506  0.1029 -0.6195
 6680TIP3    H219998   6.955   7.398   5.997  2.8074 -1.9947 -1.4921
 6681TIP3   OH219999   3.762   3.997   3.692 -0.0083 -0.0936  0.2331
 6681TIP3    H120000   3.837   3.996   3.631 -0.8961 -0.9828 -0.9007
 6681TIP3    H220001   3.705   4.066   3.658 -0.4452 -0.5056  0.1188
 6682TIP3   OH220002   2.839   0.267   6.310 -0.2537  0.8050  0.3064
 6682TIP3    H120003   2.895   0.233   6.380 -0.9831  0.9085  0.9647
 6682TIP3    H220004   2.752   0.233   6.330 -0.0699 -1.2524 -1.9786
 6683TIP3   OH220005   0.948   0.659   2.651 -0.0598  0.4877 -0.0944
 6683TIP3    H120006   0.871   0.685   2.701 -0.2111  1.2373 -0.6973
 6683TIP3    H220007   0.963   0.567   2.676 -1.7707 -0.0132 -0.7377
 6684TIP3   OH220008   2.813   0.762   3.451 -0.3822  0.0493 -0.0234
 6684TIP3    H120009   2.839   0.674   3.426  0.4366 -0.0181  0.9624
 6684TIP3    H220010   2.829   0.816   3.373 -3.4806 -1.0726 -1.5835
 6685TIP3   OH220011   6.539   5.814   3.856  0.7864 -0.7732 -0.1525
 6685TIP3    H120012   6.574   5.734   3.896  0.1467  0.4223  3.0504
 6685TIP3    H220013   6.448   5.817   3.883  0.2478  0.0788 -1.9117
 6686TIP3   OH220014   2.835   3.425   2.739  0.1859  0.3321 -0.6088
 6686TIP3    H120015   2.785   3.470   2.670 -0.8822 -1.5933 -1.1605
 6686TIP3    H220016   2.798   3.337   2.742  0.8802  0.0512  1.7861
 6687TIP3   OH220017   7.487   7.394   0.938 -0.1018 -0.3289  0.3578
 6687TIP3    H120018   7.419   7.445   0.982  0.5243  0.4787  0.4143
 6687TIP3    H220019   7.568   7.418   0.984  0.5836  0.5723 -1.2244
 6688TIP3   OH220020   8.248   5.239   1.827 -0.3298  0.4109 -0.5687
 6688TIP3    H120021   8.217   5.153   1.855  1.2701  0.0754  0.3143
 6688TIP3    H220022   8.338   5.223   1.798  0.0129  1.7944 -0.3331
 6689TIP3   OH220023   5.395   1.151   2.195  0.1370  0.4865  0.4494
 6689TIP3    H120024   5.424   1.145   2.104  0.4925  0.8556  0.5338
 6689TIP3    H220025   5.423   1.069   2.235 -2.2806 -0.8432 -0.3846
 6690TIP3   OH220026   7.838   5.305   1.416  0.2061 -0.5480  0.4161
 6690TIP3    H120027   7.905   5.334   1.477  0.4032  0.6770 -0.3532
 6690TIP3    H220028   7.755   5.331   1.456  0.2605 -0.8017  0.6981
 6691TIP3   OH220029   7.921   7.393   4.990  0.3063 -0.2356  0.0153
 6691TIP3    H120030   7.917   7.364   4.899 -1.6136  0.6321 -0.2334
 6691TIP3    H220031   7.918   7.312   5.041 -0.4724 -0.6703 -0.6998
 6692TIP3   OH220032   5.138   4.609   2.285  0.7457 -0.0910 -1.0232
 6692TIP3    H120033   5.099   4.532   2.244 -0.3032 -0.4632  0.5815
 6692TIP3    H220034   5.146   4.585   2.377  1.2524  1.3934 -0.6597
 6693TIP3   OH220035   3.106   5.097   2.897 -0.1544  0.0739  0.0053
 6693TIP3    H120036   3.115   5.035   2.969  1.1191 -0.1416 -0.3040
 6693TIP3    H220037   3.180   5.077   2.840 -1.6722 -0.4290 -1.8956
 6694TIP3   OH220038   2.557   0.132   2.123 -0.6984  0.7185 -0.4442
 6694TIP3    H120039   2.573   0.087   2.206 -0.8932 -0.8070 -1.1950
 6694TIP3    H220040   2.598   0.218   2.134  1.1812 -0.2354  0.4330
 6695TIP3   OH220041   6.273   3.230   1.174  0.0129  0.5672  0.4703
 6695TIP3    H120042   6.199   3.282   1.141 -0.2377  0.1040  0.2831
 6695TIP3    H220043   6.297   3.271   1.257  0.7716  1.8724 -0.3563
 6696TIP3   OH220044   5.221   7.359   3.986 -0.2181 -0.4984  0.0163
 6696TIP3    H120045   5.195   7.365   4.078 -0.0520 -1.3761  0.1332
 6696TIP3    H220046   5.234   7.450   3.958  1.0598 -0.2688  1.2420
 6697TIP3   OH220047   7.208   1.633   0.950 -0.5302  0.1758  0.0655
 6697TIP3    H120048   7.290   1.598   0.984 -0.0335  0.2391 -1.0126
 6697TIP3    H220049   7.235   1.704   0.891 -1.3456  0.1505 -0.3537
 6698TIP3   OH220050   7.599   7.373   3.689  0.0537 -0.2721  0.2426
 6698TIP3    H120051   7.631   7.285   3.708  1.0391 -0.0818 -0.4599
 6698TIP3    H220052   7.636   7.395   3.604  0.9005  1.3148  0.9670
 6699TIP3   OH220053   1.545   4.454   4.998  0.0137  0.1605 -0.0747
 6699TIP3    H120054   1.556   4.376   4.944  1.6036 -0.7526  1.4668
 6699TIP3    H220055   1.633   4.473   5.030 -0.1180  3.2276 -1.1952
 6700TIP3   OH220056   7.737   6.501   3.084 -0.4395  0.0570 -0.2606
 6700TIP3    H120057   7.680   6.430   3.111 -1.8890  0.9455 -0.8741
 6700TIP3    H220058   7.763   6.544   3.165 -0.0084 -0.8214  0.0714
 6701TIP3   OH220059   3.304   3.431   4.266  0.3639 -0.0413 -0.8647
 6701TIP3    H120060   3.339   3.520   4.272 -1.3811  0.6684 -0.6086
 6701TIP3    H220061   3.326   3.403   4.177  1.3735  0.4400 -0.7780
 6702TIP3   OH220062   2.168   0.695   1.817 -0.0329 -0.4620 -0.2972
 6702TIP3    H120063   2.134   0.765   1.761  2.3690 -0.8446 -2.3665
 6702TIP3    H220064   2.163   0.731   1.906 -0.5953  1.5967 -1.1103
 6703TIP3   OH220065   8.232   0.738   2.079 -0.2621  0.4101  0.7085
 6703TIP3    H120066   8.310   0.698   2.041 -0.3614  0.1680  0.7542
 6703TIP3    H220067   8.210   0.809   2.019  0.0939  0.5915  0.7886
 6704TIP3   OH220068   4.434   3.185   4.896  0.0017  0.1774  0.2314
 6704TIP3    H120069   4.395   3.125   4.831  0.4591  0.4031 -0.2539
 6704TIP3    H220070   4.465   3.127   4.965  0.1899 -0.1289 -0.1043
 6705TIP3   OH220071   8.148   0.073   6.120 -0.1595 -0.2346 -0.0568
 6705TIP3    H120072   8.157  -0.022   6.115 -0.2396 -0.1772 -2.7899
 6705TIP3    H220073   8.055   0.089   6.105  0.2754  0.2988 -2.7534
 6706TIP3   OH220074   2.464   3.605   3.406  0.2713 -0.1240  0.4714
 6706TIP3    H120075   2.397   3.553   3.451 -0.4725 -0.0323 -0.4928
 6706TIP3    H220076   2.492   3.550   3.333 -1.0952  1.0887 -1.0412
 6707TIP3   OH220077   3.919   5.797   5.654  0.2511 -0.1996  0.4264
 6707TIP3    H120078   3.983   5.855   5.695  1.7655 -1.0406 -0.6468
 6707TIP3    H220079   3.861   5.770   5.726  1.6121 -0.0953  1.5996
 6708TIP3   OH220080   0.028   7.117   2.075 -0.2346 -0.1275  0.0718
 6708TIP3    H120081   0.078   7.077   2.004 -1.0667  0.1193 -0.6651
 6708TIP3    H220082   0.035   7.054   2.147  1.2001 -0.0518  0.0186
 6709TIP3   OH220083   1.979   3.811   0.607 -0.8141 -0.1468  0.1731
 6709TIP3    H120084   1.942   3.799   0.694 -1.3637  2.1620  0.3110
 6709TIP3    H220085   1.903   3.806   0.548 -0.2842 -3.1435 -0.4143
 6710TIP3   OH220086   5.717   2.653   6.642 -0.1443 -0.3136 -0.2700
 6710TIP3    H120087   5.690   2.678   6.730  1.2284 -0.0361  0.1009
 6710TIP3    H220088   5.658   2.701   6.584 -0.3078  0.4316  0.4898
 6711TIP3   OH220089   1.830   0.704   2.305 -0.6557  0.2435  0.4184
 6711TIP3    H120090   1.754   0.682   2.360 -0.4826 -0.6999  0.2842
 6711TIP3    H220091   1.849   0.796   2.327 -0.4706 -0.1658  2.0865
 6712TIP3   OH220092   4.763   7.479   4.821 -0.6588  0.1183 -0.1369
 6712TIP3    H120093   4.738   7.424   4.747 -0.4901 -0.8273  0.4887
 6712TIP3    H220094   4.845   7.442   4.853 -0.6077  0.6540  0.3814
 6713TIP3   OH220095   2.593   2.220   4.899  0.4412 -0.0535 -0.3751
 6713TIP3    H120096   2.589   2.245   4.991 -3.0100 -0.6878 -0.2012
 6713TIP3    H220097   2.561   2.297   4.852  1.8855  0.1561 -1.0663
 6714TIP3   OH220098   4.397   6.612   0.778  0.3188  0.2476 -0.6368
 6714TIP3    H120099   4.319   6.610   0.834 -0.3944 -0.2209 -1.6233
 6714TIP3    H220100   4.426   6.521   0.774  2.0147  0.6479  1.1802
 6715TIP3   OH220101   7.607   5.958   0.875  0.7405  0.7394 -0.3115
 6715TIP3    H120102   7.637   6.031   0.823  1.0958  0.4608 -0.5004
 6715TIP3    H220103   7.512   5.968   0.879  0.3567 -0.7139 -3.2983
 6716TIP3   OH220104   2.845   2.440   1.591 -0.6833 -0.0487 -0.0065
 6716TIP3    H120105   2.830   2.419   1.499  0.1165  1.5702 -0.5470
 6716TIP3    H220106   2.940   2.449   1.598 -0.8741  3.9476 -0.0782
 6717TIP3   OH220107   4.671   6.722   3.495  0.1584  0.0899 -0.3795
 6717TIP3    H120108   4.644   6.643   3.542 -2.8518 -1.1248 -3.6731
 6717TIP3    H220109   4.743   6.693   3.439 -0.0508  0.0372 -0.6216
 6718TIP3   OH220110   3.306   2.434   0.606 -0.3224 -0.6479 -0.0701
 6718TIP3    H120111   3.373   2.485   0.652 -0.6888  0.7650 -1.0389
 6718TIP3    H220112   3.356   2.371   0.554  0.2362 -0.1560 -0.1456
 6719TIP3   OH220113   4.311   3.632   1.208  0.0136 -0.5086  0.2918
 6719TIP3    H120114   4.336   3.710   1.158 -1.1794  2.1011  3.4260
 6719TIP3    H220115   4.349   3.646   1.294 -0.1675 -3.5316  0.9490
 6720TIP3   OH220116   1.236   6.169   1.906 -0.2650 -0.4417  0.7147
 6720TIP3    H120117   1.231   6.237   1.974 -0.0221 -0.5648  0.8565
 6720TIP3    H220118   1.221   6.087   1.953 -0.2529 -0.5138  0.5919
 6721TIP3   OH220119   5.789   0.130   4.356  0.0402  0.1458  0.3494
 6721TIP3    H120120   5.741   0.205   4.391 -0.3364 -0.1733  0.5241
 6721TIP3    H220121   5.744   0.110   4.273  1.4675  1.4550 -0.8087
 6722TIP3   OH220122   0.080   6.643   1.550  0.2127  0.4199 -0.4819
 6722TIP3    H120123   0.003   6.671   1.500  0.9454  0.3046 -1.7163
 6722TIP3    H220124   0.105   6.720   1.601 -0.1146  0.7773 -0.8487
 6723TIP3   OH220125   0.066   7.050   5.700  0.4268  0.5880 -0.0831
 6723TIP3    H120126  -0.018   7.008   5.721  0.9983 -0.6702 -0.2402
 6723TIP3    H220127   0.055   7.082   5.611 -0.6320  2.4157  0.6495
 6724TIP3   OH220128   7.001   1.464   3.044 -0.5620  0.4441 -0.0179
 6724TIP3    H120129   6.996   1.457   2.948  0.4140  0.9734 -0.1201
 6724TIP3    H220130   6.988   1.557   3.062 -2.6376  0.0936  0.5228
 6725TIP3   OH220131   8.294   1.749   5.097 -0.5130  0.2962 -0.2602
 6725TIP3    H120132   8.285   1.770   5.004  0.3273  0.7649 -0.2413
 6725TIP3    H220133   8.205   1.726   5.124 -0.4888 -1.5825 -1.5852
 6726TIP3   OH220134   3.141   3.542   5.581  0.5306  0.5027  0.2393
 6726TIP3    H120135   3.144   3.499   5.496  0.9351  1.7357 -0.3960
 6726TIP3    H220136   3.072   3.608   5.572  0.3782  0.4479  0.9661
 6727TIP3   OH220137   2.990   4.846   6.211  0.4853  0.0492  0.1443
 6727TIP3    H120138   2.904   4.862   6.248 -0.2645  0.7201 -1.7812
 6727TIP3    H220139   2.980   4.765   6.160  0.5485  0.8927 -1.2739
 6728TIP3   OH220140   2.601   1.032   1.079 -0.4658 -0.1277 -0.1218
 6728TIP3    H120141   2.543   1.071   1.144 -0.2026  0.2339 -0.1046
 6728TIP3    H220142   2.635   0.953   1.121  1.0376  0.9935  0.8321
 6729TIP3   OH220143   6.530   3.761   3.797 -0.0605 -0.5353 -0.1239
 6729TIP3    H120144   6.599   3.825   3.814  0.4216 -0.5521 -1.8918
 6729TIP3    H220145   6.493   3.787   3.713  2.1375 -4.1740 -2.5042
 6730TIP3   OH220146   6.802   3.593   0.987 -0.2742 -0.0794 -0.0444
 6730TIP3    H120147   6.865   3.565   1.054  1.3747 -1.7254 -2.1185
 6730TIP3    H220148   6.737   3.644   1.034  1.1650 -0.5920  2.6743
 6731TIP3   OH220149   8.217   0.719   5.312  0.3507  0.0953 -0.5012
 6731TIP3    H120150   8.227   0.713   5.217 -2.4320 -0.5329 -0.8515
 6731TIP3    H220151   8.278   0.788   5.338  0.9608  0.5140 -2.7836
 6732TIP3   OH220152   6.685   4.264   6.577 -0.3297  0.0330  0.0517
 6732TIP3    H120153   6.715   4.348   6.611 -0.2380  0.0530 -0.0766
 6732TIP3    H220154   6.627   4.286   6.504  0.0693 -0.0234 -0.2849
 6733TIP3   OH220155   8.083   7.226   5.869 -0.5250 -0.0040 -0.0336
 6733TIP3    H120156   7.995   7.262   5.873  0.0646  1.6985 -0.8533
 6733TIP3    H220157   8.072   7.133   5.852 -2.1524  0.0451  0.6584
 6734TIP3   OH220158   6.143   3.115   5.285 -0.9125  0.0280  0.1693
 6734TIP3    H120159   6.136   3.098   5.379 -2.8837 -0.2858 -0.0073
 6734TIP3    H220160   6.083   3.187   5.268 -0.3158  0.3219 -0.8036
 6735TIP3   OH220161   1.074   5.792   2.418  0.3578  0.3817  0.3710
 6735TIP3    H120162   1.066   5.825   2.329 -0.0456  0.0515  0.2804
 6735TIP3    H220163   1.168   5.792   2.436  0.6108 -1.2945 -0.7253
 6736TIP3   OH220164   4.987   7.222   4.426  0.9658 -0.2025 -0.1063
 6736TIP3    H120165   5.053   7.244   4.492  0.4428  0.4914  0.1971
 6736TIP3    H220166   4.921   7.290   4.434  0.3604 -0.7102 -0.6242
 6737TIP3   OH220167   2.825   6.698   0.798 -0.2752  0.2554 -0.1795
 6737TIP3    H120168   2.755   6.666   0.740 -1.3132  0.4054  0.9494
 6737TIP3    H220169   2.783   6.766   0.851  0.4659 -0.2960  1.1616
 6738TIP3   OH220170   0.859   4.747   0.758 -0.0742  0.3872  0.3551
 6738TIP3    H120171   0.929   4.696   0.800 -0.9351 -0.9256  0.2451
 6738TIP3    H220172   0.863   4.833   0.801  0.3658 -0.2860  1.7164
 6739TIP3   OH220173   4.437   6.247   3.867  0.1216 -0.3956  0.4581
 6739TIP3    H120174   4.412   6.332   3.832  2.1258 -0.0797 -0.3971
 6739TIP3    H220175   4.532   6.254   3.882  0.2744 -2.3332  0.7216
 6740TIP3   OH220176   1.035   4.096   2.728  0.4268  0.1342 -0.1789
 6740TIP3    H120177   1.102   4.029   2.739  0.0106 -0.0453  1.6180
 6740TIP3    H220178   1.039   4.147   2.810  0.0248  1.6423 -1.0643
 6741TIP3   OH220179   4.296   3.614   0.104 -0.1994 -0.3353  0.6674
 6741TIP3    H120180   4.254   3.558   0.039  0.4578  0.1188 -0.1650
 6741TIP3    H220181   4.386   3.583   0.108  0.6293  1.5959 -0.9699
 6742TIP3   OH220182   1.390   4.015   5.843 -0.0124 -0.4933  0.1609
 6742TIP3    H120183   1.446   4.084   5.807 -0.0228 -0.7464 -0.3415
 6742TIP3    H220184   1.382   4.037   5.936 -0.8048  0.7189 -0.1755
 6743TIP3   OH220185   0.599   3.826   3.508  0.0779  0.4617  0.5727
 6743TIP3    H120186   0.505   3.848   3.507  0.0746  1.4106  4.4716
 6743TIP3    H220187   0.605   3.752   3.568  1.8669  0.8650  0.9440
 6744TIP3   OH220188   5.522   3.414   4.709  0.1405 -0.2510  0.0897
 6744TIP3    H120189   5.490   3.481   4.649  1.6907  0.8062  0.3781
 6744TIP3    H220190   5.505   3.451   4.796 -0.5912 -1.0334  0.2864
 6745TIP3   OH220191   2.031   5.341   1.434  0.4780 -0.3890  0.5383
 6745TIP3    H120192   2.032   5.262   1.380 -2.3529  0.4467 -0.9328
 6745TIP3    H220193   2.009   5.412   1.373  2.2729  1.4763  1.9314
 6746TIP3   OH220194   0.554   7.073   1.692  0.4556  0.0632  0.5001
 6746TIP3    H120195   0.580   7.030   1.773  1.1857 -2.1001 -0.7984
 6746TIP3    H220196   0.630   7.067   1.635 -0.0230  1.5708 -0.3644
 6747TIP3   OH220197   6.159   4.014   5.481  0.5488 -0.1406  0.1376
 6747TIP3    H120198   6.161   4.012   5.577 -0.8235 -0.0026  0.1867
 6747TIP3    H220199   6.178   4.105   5.459  1.3262 -0.2699  0.2534
 6748TIP3   OH220200   1.220   1.889   3.531 -0.4926 -0.2529  0.0979
 6748TIP3    H120201   1.200   1.850   3.616 -2.7579  1.2282  0.3259
 6748TIP3    H220202   1.288   1.953   3.550 -0.7826 -0.1262  0.7528
 6749TIP3   OH220203   4.575   4.853   3.278 -0.1480 -0.1011  0.2381
 6749TIP3    H120204   4.559   4.929   3.221 -0.7550  0.2412  0.8563
 6749TIP3    H220205   4.571   4.778   3.219  1.5444  0.3956 -0.5921
 6750TIP3   OH220206   5.322   5.894   5.179 -0.1454  0.3390  0.0085
 6750TIP3    H120207   5.239   5.927   5.214  0.2303  1.0257  0.2694
 6750TIP3    H220208   5.316   5.909   5.085  0.8357  3.1358  0.2924
 6751TIP3   OH220209   7.991   3.397   4.400 -0.4826 -0.0473  0.6698
 6751TIP3    H120210   8.035   3.352   4.472 -0.7575  0.7852  1.3869
 6751TIP3    H220211   7.898   3.381   4.415 -0.4786 -1.6968 -0.7697
 6752TIP3   OH220212   8.163   3.819   0.506 -0.4266 -1.2037  0.2812
 6752TIP3    H120213   8.222   3.746   0.485  2.3317  0.3482  1.9649
 6752TIP3    H220214   8.217   3.879   0.557 -2.8603  1.5673 -0.1426
 6753TIP3   OH220215   7.975   1.595   2.356 -0.5541 -0.0358 -0.3059
 6753TIP3    H120216   8.028   1.553   2.423  0.7255  1.9682  0.0254
 6753TIP3    H220217   8.000   1.551   2.275  0.0700 -0.5166  0.1351
 6754TIP3   OH220218   0.084   7.294   2.301 -0.7421 -0.7094  0.0480
 6754TIP3    H120219   0.155   7.356   2.314 -1.6490  0.5695 -0.8072
 6754TIP3    H220220   0.103   7.251   2.218  0.6882 -2.7654  1.3631
 6755TIP3   OH220221   3.089   4.362   1.753  0.1455  0.1595 -0.3284
 6755TIP3    H120222   3.126   4.423   1.817 -0.6635  1.1977 -0.8061
 6755TIP3    H220223   3.165   4.330   1.705  0.7276 -0.3770  0.9137
 6756TIP3   OH220224   4.378   2.896   4.955  0.1263 -0.5462 -0.6997
 6756TIP3    H120225   4.294   2.891   4.908 -1.2833 -2.1508  1.7820
 6756TIP3    H220226   4.431   2.828   4.914 -1.0671 -1.9096 -0.0695
 6757TIP3   OH220227   7.789   5.680   3.050 -0.2941 -0.1363  0.0173
 6757TIP3    H120228   7.719   5.702   3.112  0.1544  0.3605  0.3565
 6757TIP3    H220229   7.743   5.660   2.969 -0.8485 -0.1033  0.3144
 6758TIP3   OH220230   7.056   3.933   4.376  0.2235 -0.5793 -0.0245
 6758TIP3    H120231   7.028   3.950   4.286 -0.8654 -1.1513  0.1918
 6758TIP3    H220232   7.140   3.887   4.366 -0.7449 -2.2776 -0.8348
 6759TIP3   OH220233   5.130   0.730   4.883 -0.0389 -0.4291  0.5089
 6759TIP3    H120234   5.052   0.694   4.926 -0.6018  0.1793  0.0140
 6759TIP3    H220235   5.188   0.755   4.956 -0.2124 -1.0632  0.8769
 6760TIP3   OH220236   4.612   5.021   4.831 -0.3158  0.1311  0.3329
 6760TIP3    H120237   4.531   4.999   4.878 -1.2588  1.9131 -0.3698
 6760TIP3    H220238   4.585   5.031   4.740  0.4952  1.6830  0.2348
 6761TIP3   OH220239   4.440   3.112   2.123  0.2921 -0.3384 -0.2577
 6761TIP3    H120240   4.434   3.040   2.060  0.0185  0.0494 -0.6790
 6761TIP3    H220241   4.501   3.080   2.189  0.2853 -0.9035 -0.5135
 6762TIP3   OH220242   4.169   0.546   5.269 -0.4082 -0.2005  0.1753
 6762TIP3    H120243   4.240   0.548   5.205 -1.3693  0.1482 -0.9109
 6762TIP3    H220244   4.206   0.588   5.346  0.0065  1.7469 -1.0115
 6763TIP3   OH220245   8.025   7.334   4.416  0.4169 -0.0235  0.2899
 6763TIP3    H120246   8.073   7.417   4.411 -1.0940  0.8292 -0.7364
 6763TIP3    H220247   7.934   7.357   4.399 -0.4952 -1.5267  2.6380
 6764TIP3   OH220248   2.540   2.444   4.496 -0.4725 -0.4822  0.0059
 6764TIP3    H120249   2.474   2.436   4.427  0.6830 -0.8955 -1.0792
 6764TIP3    H220250   2.573   2.534   4.487  0.8328 -1.0297 -1.1041
 6765TIP3   OH220251   3.698   1.729   4.396  0.3151  0.0802 -0.3279
 6765TIP3    H120252   3.778   1.710   4.445  0.7248 -0.7735 -1.2884
 6765TIP3    H220253   3.627   1.710   4.457  0.8160 -0.6925  0.0205
 6766TIP3   OH220254   1.170   2.205   4.882  0.1755 -0.0575 -0.4942
 6766TIP3    H120255   1.249   2.258   4.869  0.6161 -1.1266 -2.6755
 6766TIP3    H220256   1.174   2.139   4.812 -0.0552 -3.3422  2.3446
 6767TIP3   OH220257   1.368   5.755   0.622 -0.1658  0.3590  0.1979
 6767TIP3    H120258   1.330   5.798   0.545  0.3818  0.2110 -0.1652
 6767TIP3    H220259   1.446   5.711   0.588 -0.1442 -0.0491  0.7642
 6768TIP3   OH220260   7.392   0.819   0.119 -0.1982  0.1375  0.2491
 6768TIP3    H120261   7.297   0.828   0.130 -0.4997 -1.8330 -0.4763
 6768TIP3    H220262   7.420   0.765   0.193  0.6029  1.6809  1.1461
 6769TIP3   OH220263   1.252   1.317   3.004  0.1508  0.0545  0.4956
 6769TIP3    H120264   1.212   1.338   3.089 -1.4072  0.0771 -0.2245
 6769TIP3    H220265   1.200   1.246   2.969 -1.0427  1.8666 -1.6972
 6770TIP3   OH220266   2.608   6.885   4.875  0.5537  0.6110 -0.0191
 6770TIP3    H120267   2.586   6.882   4.782 -1.9676  2.3803  0.4322
 6770TIP3    H220268   2.685   6.941   4.880  1.5436 -0.5859 -1.1084
 6771TIP3   OH220269   1.870   3.324   1.965 -0.2494  0.5731  0.4549
 6771TIP3    H120270   1.827   3.290   1.887 -2.4253 -0.0354  1.8487
 6771TIP3    H220271   1.963   3.306   1.951 -0.8969 -2.5671 -0.5492
 6772TIP3   OH220272   2.813   7.107   6.678 -0.0514  0.0481  0.4782
 6772TIP3    H120273   2.802   7.174   6.610  0.9082  0.3573  0.6179
 6772TIP3    H220274   2.907   7.091   6.681 -0.1706 -0.5641  1.1673
 6773TIP3   OH220275   5.090   0.132   6.326  0.4847  0.6087  0.7029
 6773TIP3    H120276   5.023   0.095   6.385 -0.6696  1.8208  0.1972
 6773TIP3    H220277   5.050   0.212   6.292  1.5810  0.5302 -0.8508
 6774TIP3   OH220278   1.970   7.778   0.811 -0.1438 -0.1185  0.2667
 6774TIP3    H120279   1.958   7.765   0.717  0.3316  0.4726  0.1200
 6774TIP3    H220280   1.882   7.796   0.844  0.0443  2.7154 -0.5597
 6775TIP3   OH220281   1.929   6.612   1.853  0.0373 -1.1295  0.0798
 6775TIP3    H120282   2.013   6.571   1.876  1.1953 -0.2163 -2.1710
 6775TIP3    H220283   1.951   6.704   1.840 -1.4261 -0.7940 -0.1164
 6776TIP3   OH220284   5.266   2.060   1.817  0.1931 -0.4178 -0.7578
 6776TIP3    H120285   5.320   1.998   1.867 -1.2404 -0.7573  0.4635
 6776TIP3    H220286   5.284   2.145   1.857  0.5536 -0.3700 -1.0147
 6777TIP3   OH220287   1.845   2.132   0.927 -0.1132 -0.0942 -0.0827
 6777TIP3    H120288   1.880   2.141   0.838 -2.5179 -0.9888 -1.2298
 6777TIP3    H220289   1.875   2.046   0.956 -1.7754 -1.1451 -1.3155
 6778TIP3   OH220290   1.888   7.649   4.524 -0.1651 -0.2623  0.6050
 6778TIP3    H120291   1.893   7.745   4.530  0.5144 -0.3005  0.7146
 6778TIP3    H220292   1.869   7.621   4.614 -1.3080 -0.1860  0.4041
 6779TIP3   OH220293   3.350   6.228   2.356 -0.0110 -0.0405 -0.3078
 6779TIP3    H120294   3.425   6.284   2.335  0.5177 -0.8529 -0.6638
 6779TIP3    H220295   3.276   6.288   2.362  0.4459  0.6280 -1.1641
 6780TIP3   OH220296   2.746   1.913   3.829 -0.6978 -0.3265 -0.1208
 6780TIP3    H120297   2.732   1.829   3.786 -0.0372 -0.8219  0.6048
 6780TIP3    H220298   2.801   1.962   3.767 -0.8179 -0.5521 -0.4076
 6781TIP3   OH220299   7.526   7.489   4.415  0.0261 -0.2889 -0.3350
 6781TIP3    H120300   7.566   7.403   4.417  0.9452  0.1229 -0.5349
 6781TIP3    H220301   7.432   7.473   4.429  0.1910 -1.3071 -0.3773
 6782TIP3   OH220302   7.372   6.390   4.567  0.1157  0.0355  0.3750
 6782TIP3    H120303   7.291   6.353   4.600 -0.9241  2.0613  0.2522
 6782TIP3    H220304   7.429   6.315   4.552 -1.4721 -1.3741  1.1477
 6783TIP3   OH220305   1.321   7.219   3.014  0.8975  0.0082 -0.0667
 6783TIP3    H120306   1.273   7.138   3.029  2.2288 -1.0093 -0.9836
 6783TIP3    H220307   1.268   7.287   3.055 -1.3071 -1.0217 -1.0440
 6784TIP3   OH220308   4.371   0.024   2.084  0.6336 -0.0879  0.2652
 6784TIP3    H120309   4.372   0.089   2.014  0.3784  0.5341  0.8281
 6784TIP3    H220310   4.350   0.073   2.163 -0.6219 -1.0075  0.5433
 6785TIP3   OH220311   0.392   7.402   6.728  0.3174  0.3594 -0.0873
 6785TIP3    H120312   0.473   7.351   6.719 -0.1398 -0.2606 -0.7908
 6785TIP3    H220313   0.341   7.355   6.793 -1.0175 -1.3743 -2.2286
 6786TIP3   OH220314   0.692   1.651   1.442  0.4179  0.1485  0.5366
 6786TIP3    H120315   0.679   1.624   1.533 -0.6294  1.3989  0.7785
 6786TIP3    H220316   0.667   1.573   1.391  3.6887 -1.5700  1.2998
 6787TIP3   OH220317   1.707   7.320   5.769  0.0364  0.1067 -0.3730
 6787TIP3    H120318   1.662   7.403   5.782  1.0493  0.7030 -0.5913
 6787TIP3    H220319   1.673   7.263   5.838 -0.5266  0.7563 -0.1050
 6788TIP3   OH220320   4.173   3.550   0.961  0.6153  0.1490  0.2620
 6788TIP3    H120321   4.197   3.640   0.938  0.6656  0.4487  1.4424
 6788TIP3    H220322   4.208   3.538   1.049  0.3441 -0.9325  0.2281
 6789TIP3   OH220323   2.614   2.419   0.725 -0.1261  0.3737 -0.1435
 6789TIP3    H120324   2.592   2.327   0.734 -0.0420  0.3829  0.1428
 6789TIP3    H220325   2.534   2.466   0.749  0.0512  0.3938  0.4098
 6790TIP3   OH220326   1.181   4.713   4.578  0.3585  0.1989  0.4454
 6790TIP3    H120327   1.108   4.774   4.594 -1.1857 -1.0987 -1.1643
 6790TIP3    H220328   1.151   4.660   4.504  3.1587 -0.1110 -0.5782
 6791TIP3   OH220329   5.288   6.656   4.098  0.2855 -0.2016  0.4062
 6791TIP3    H120330   5.240   6.736   4.075 -1.2960 -0.8980  1.1272
 6791TIP3    H220331   5.277   6.648   4.193  0.0554 -1.5050  0.2863
 6792TIP3   OH220332   0.282   4.614   0.931  0.0128 -0.0990  0.4495
 6792TIP3    H120333   0.367   4.658   0.926 -0.0208 -0.0303  0.4846
 6792TIP3    H220334   0.300   4.523   0.909  0.0470 -0.0205  0.1420
 6793TIP3   OH220335   7.250   3.766   1.041  0.0390  0.0875  0.3698
 6793TIP3    H120336   7.159   3.798   1.040 -0.1418 -0.4110  0.3056
 6793TIP3    H220337   7.243   3.675   1.013  0.8315  0.7149 -2.1268
 6794TIP3   OH220338   0.294   2.813   2.103  0.1232  0.6544 -0.4225
 6794TIP3    H120339   0.305   2.906   2.084  0.0868  0.9147  0.7696
 6794TIP3    H220340   0.278   2.809   2.197 -0.3099 -0.5273 -0.5298
 6795TIP3   OH220341   3.635   7.165   5.050 -0.2844 -0.0086  0.3097
 6795TIP3    H120342   3.609   7.129   4.965  1.5389 -1.6406  0.3637
 6795TIP3    H220343   3.555   7.164   5.102 -1.0120 -0.9301 -0.7633
 6796TIP3   OH220344   5.166   0.861   0.205 -0.7024 -0.5219 -0.3969
 6796TIP3    H120345   5.194   0.781   0.249  0.4642 -0.3075 -0.7214
 6796TIP3    H220346   5.230   0.927   0.231 -0.5639 -0.1523 -1.6012
 6797TIP3   OH220347   0.132   1.997   0.157  0.0902 -0.7793  0.7375
 6797TIP3    H120348   0.206   2.012   0.098 -0.3853 -0.2453  0.2753
 6797TIP3    H220349   0.091   2.082   0.167 -1.0139 -1.2392  0.2592
 6798TIP3   OH220350   2.907   2.337   6.589  0.8070 -0.2204  0.4705
 6798TIP3    H120351   2.927   2.259   6.640  0.9313  0.0795  0.8856
 6798TIP3    H220352   2.969   2.403   6.620  0.2501  0.2491  0.6143
 6799TIP3   OH220353   3.846   4.837   3.978  0.1418 -0.0218 -0.1765
 6799TIP3    H120354   3.881   4.748   3.975  0.3659  0.0919 -1.8861
 6799TIP3    H220355   3.817   4.849   4.069  1.1770 -1.4125  0.3628
 6800TIP3   OH220356   2.873   3.154   1.443  0.4214 -0.1406 -0.0758
 6800TIP3    H120357   2.955   3.179   1.400  1.4420 -2.2955  0.5161
 6800TIP3    H220358   2.823   3.108   1.376 -0.1836  0.8567 -0.3315
 6801TIP3   OH220359   1.727   5.386   4.428  0.3231 -0.6653  0.0944
 6801TIP3    H120360   1.707   5.465   4.478  1.0974 -1.4533  1.7321
 6801TIP3    H220361   1.805   5.350   4.470 -0.5705 -2.8157  0.0438
 6802TIP3   OH220362   7.124   1.213   4.044  0.2858  0.0810  0.3035
 6802TIP3    H120363   7.201   1.267   4.063  0.9039 -1.3233  2.0559
 6802TIP3    H220364   7.159   1.133   4.005 -0.1272 -1.0083  2.0457
 6803TIP3   OH220365   6.197   5.747   6.291  0.5547 -0.1953 -0.1975
 6803TIP3    H120366   6.141   5.695   6.234 -1.9803  1.3590  0.7199
 6803TIP3    H220367   6.196   5.835   6.252  2.3534 -0.0871 -0.1059
 6804TIP3   OH220368   2.755   7.185   4.161  0.5402  0.1196 -0.4231
 6804TIP3    H120369   2.843   7.154   4.143  0.8603  0.4170  0.5918
 6804TIP3    H220370   2.755   7.276   4.132  1.0969  0.6400  1.1186
 6805TIP3   OH220371   5.141   7.038   5.080  0.5582 -1.1647  0.0920
 6805TIP3    H120372   5.170   7.055   4.990  1.3741  0.8146  0.6740
 6805TIP3    H220373   5.046   7.028   5.073  0.6019 -0.9423 -0.9822
 6806TIP3   OH220374   2.894   5.306   0.061 -0.4388  0.4125  0.4830
 6806TIP3    H120375   2.951   5.229   0.066 -0.0974  0.6518  0.3026
 6806TIP3    H220376   2.816   5.281   0.111 -0.8275 -0.4763 -0.5270
 6807TIP3   OH220377   3.402   5.263   5.133  0.5125 -0.4956  0.4011
 6807TIP3    H120378   3.446   5.180   5.155  0.1500 -1.0096 -0.7318
 6807TIP3    H220379   3.343   5.279   5.207 -0.8418 -2.2952 -0.2027
 6808TIP3   OH220380   7.600   4.121   2.717  0.2574 -0.5890  0.2372
 6808TIP3    H120381   7.610   4.060   2.790  0.0174 -2.0967 -0.9415
 6808TIP3    H220382   7.546   4.192   2.752  1.8185 -0.2354  2.0839
 6809TIP3   OH220383   0.771   7.766   0.591 -0.0135 -0.3080  0.1786
 6809TIP3    H120384   0.828   7.826   0.641 -0.3351  1.8986 -1.8933
 6809TIP3    H220385   0.737   7.706   0.657  1.2614  1.0533  2.2399
 6810TIP3   OH220386   7.366   2.212   3.818  0.0391 -0.4460  0.1338
 6810TIP3    H120387   7.386   2.236   3.727 -2.2961  0.2864 -0.2462
 6810TIP3    H220388   7.286   2.159   3.811  1.0739 -2.3065  1.6063
 6811TIP3   OH220389   6.458   2.803   2.253 -0.3299 -0.2809  0.5413
 6811TIP3    H120390   6.543   2.837   2.226  0.5580 -1.5855  1.5646
 6811TIP3    H220391   6.402   2.881   2.260  1.0759  0.7310  0.9500
 6812TIP3   OH220392   0.134   3.072   1.841 -0.2591  0.6494 -0.2655
 6812TIP3    H120393   0.091   3.016   1.776  1.5050 -0.8497 -0.2358
 6812TIP3    H220394   0.103   3.040   1.925 -0.9991  1.2710 -0.2849
 6813TIP3   OH220395   4.980   5.680   3.377  0.2151  0.1319  0.2371
 6813TIP3    H120396   4.891   5.650   3.361 -0.2931  1.9003 -0.4345
 6813TIP3    H220397   5.035   5.603   3.361 -1.0665 -0.6071 -0.7709
 6814TIP3   OH220398   3.671   4.979   1.193  0.1111 -0.3447  0.1546
 6814TIP3    H120399   3.604   5.042   1.219 -2.8804 -1.8376 -3.1273
 6814TIP3    H220400   3.700   5.009   1.107  0.6898 -1.9308 -0.2390
 6815TIP3   OH220401   5.846   6.786   4.994 -0.7387  0.0215  0.1075
 6815TIP3    H120402   5.881   6.820   4.912 -0.4583  0.3120  0.3441
 6815TIP3    H220403   5.902   6.710   5.014  1.2515  1.7314  1.6003
 6816TIP3   OH220404   2.686   2.749   2.459 -0.5242 -0.3527  0.1256
 6816TIP3    H120405   2.697   2.797   2.541  3.2197  0.0915 -0.4540
 6816TIP3    H220406   2.642   2.812   2.401 -1.0141  0.2026  1.0736
 6817TIP3   OH220407   5.330   7.402   2.981  0.2024  0.1453  0.7806
 6817TIP3    H120408   5.293   7.399   3.070 -0.1036 -0.9581  0.6356
 6817TIP3    H220409   5.317   7.313   2.947  0.0586  0.6281 -0.4762
 6818TIP3   OH220410   4.092   7.733   1.904  0.3746 -0.6020 -0.0638
 6818TIP3    H120411   4.063   7.799   1.966  0.1377 -0.7686  0.0031
 6818TIP3    H220412   4.088   7.650   1.953  0.3438 -0.7106 -0.2487
 6819TIP3   OH220413   7.152   4.160   0.854 -0.3466  0.2839 -0.0014
 6819TIP3    H120414   7.109   4.207   0.783  0.7385  1.4748  0.1011
 6819TIP3    H220415   7.240   4.198   0.859  0.2351 -1.0823  0.7413
 6820TIP3   OH220416   3.137   6.410   2.316  0.1456 -0.8508  0.0998
 6820TIP3    H120417   3.068   6.354   2.284 -1.8695  1.9587 -0.8533
 6820TIP3    H220418   3.189   6.431   2.239 -0.3759  0.1930  0.0140
 6821TIP3   OH220419   6.094   1.171   3.455  0.2954  0.3352 -0.4331
 6821TIP3    H120420   6.161   1.128   3.507  0.7822 -1.1844 -2.2137
 6821TIP3    H220421   6.138   1.195   3.373 -1.2253 -0.4664 -1.5392
 6822TIP3   OH220422   6.219   5.505   6.620 -0.2476 -0.2391 -0.2875
 6822TIP3    H120423   6.132   5.472   6.642 -0.2131 -0.4047 -0.3994
 6822TIP3    H220424   6.233   5.479   6.529 -0.2792  0.2134 -0.4204
 6823TIP3   OH220425   2.652   6.984   3.785  0.4068  0.2117 -0.4223
 6823TIP3    H120426   2.733   7.003   3.737  0.0241  0.3602 -1.0164
 6823TIP3    H220427   2.587   7.042   3.746 -0.7621 -2.0943 -2.1550
 6824TIP3   OH220428   1.555   0.546   0.059  0.3653 -0.1210  0.0082
 6824TIP3    H120429   1.548   0.640   0.070  1.6151 -0.1362  1.1148
 6824TIP3    H220430   1.649   0.529   0.050  0.1594 -1.2560 -0.1920
 6825TIP3   OH220431   4.088   0.203   1.963 -0.4636 -0.2346  0.5281
 6825TIP3    H120432   4.114   0.111   1.970 -0.4940 -0.1651  1.9120
 6825TIP3    H220433   4.171   0.250   1.951 -0.5871 -0.5525 -2.1500
 6826TIP3   OH220434   1.496   6.950   6.714  0.2723  0.0778 -0.2984
 6826TIP3    H120435   1.526   7.039   6.731  1.0816 -0.3562  0.6180
 6826TIP3    H220436   1.402   6.959   6.700  0.3393  1.0721 -0.1708
 6827TIP3   OH220437   2.637   6.838   3.087  0.1691 -0.2235 -0.0410
 6827TIP3    H120438   2.681   6.803   3.011  1.1706  0.6214  0.1303
 6827TIP3    H220439   2.652   6.774   3.156  0.6574 -0.2131 -0.1351
 6828TIP3   OH220440   1.076   0.919   4.688 -0.1605  0.7440 -0.6255
 6828TIP3    H120441   1.033   0.925   4.773 -0.3136  0.7741 -0.7045
 6828TIP3    H220442   1.169   0.912   4.708 -0.2725 -0.2787 -0.4228
 6829TIP3   OH220443   7.365   4.410   2.473 -0.7667 -0.0110  0.0824
 6829TIP3    H120444   7.322   4.389   2.556 -3.3603  3.4398 -0.1849
 6829TIP3    H220445   7.310   4.370   2.406 -0.5675  0.0601 -0.1261
 6830TIP3   OH220446   4.992   0.770   5.733 -0.8959  0.1508 -0.2658
 6830TIP3    H120447   4.950   0.687   5.757 -0.6220 -0.3105 -1.3406
 6830TIP3    H220448   5.081   0.762   5.767  0.2861 -1.5325 -3.3501
 6831TIP3   OH220449   3.973   2.332   5.795  0.1181  0.1163 -0.5286
 6831TIP3    H120450   4.045   2.323   5.858 -0.4662 -1.4076 -0.0169
 6831TIP3    H220451   3.897   2.295   5.841 -0.2026 -1.6106 -2.3053
 6832TIP3   OH220452   1.160   7.210   1.616  0.0850 -0.0701  0.0164
 6832TIP3    H120453   1.145   7.138   1.554 -1.4549 -0.4021  0.7295
 6832TIP3    H220454   1.154   7.289   1.563 -1.4375 -0.3395 -0.2513
 6833TIP3   OH220455   6.591   5.657   0.785  0.1164  0.1055 -1.0088
 6833TIP3    H120456   6.578   5.751   0.799  1.1220  0.5246 -2.5725
 6833TIP3    H220457   6.540   5.638   0.706 -0.7167 -0.8548 -0.2631
 6834TIP3   OH220458   7.911   5.021   4.615  0.5231  0.3044  0.0944
 6834TIP3    H120459   7.835   5.046   4.668 -0.6557  1.0001 -1.8475
 6834TIP3    H220460   7.984   5.072   4.651 -0.3272  1.0754  0.7534
 6835TIP3   OH220461   4.804   5.535   1.738 -0.5198  0.6870 -0.0185
 6835TIP3    H120462   4.836   5.459   1.786 -2.2615  0.5724  1.0717
 6835TIP3    H220463   4.874   5.558   1.678  1.2274  0.0096  1.6737
 6836TIP3   OH220464   2.933   2.011   2.241 -0.3120  0.3019 -0.3171
 6836TIP3    H120465   2.850   2.052   2.266 -0.0576  0.8229 -0.3180
 6836TIP3    H220466   3.000   2.069   2.275  0.0606 -0.2536 -0.0875
 6837TIP3   OH220467   2.999   2.022   6.606 -0.1426  1.3029 -0.5169
 6837TIP3    H120468   2.955   2.022   6.691  0.5715  0.5714 -0.1357
 6837TIP3    H220469   3.086   2.059   6.623  0.9342 -1.0872 -0.3884
 6838TIP3   OH220470   3.276   0.691   5.904  0.4717  0.5580  0.4982
 6838TIP3    H120471   3.368   0.719   5.903  0.9178 -0.8141  1.1358
 6838TIP3    H220472   3.246   0.712   5.992  0.4890  0.0222  0.6311
 6839TIP3   OH220473   3.104   2.799   0.414  0.4358  0.1236  0.1842
 6839TIP3    H120474   3.131   2.708   0.408  1.1110  0.3056  0.3744
 6839TIP3    H220475   3.016   2.801   0.375  0.9693 -0.3566 -1.0975
 6840TIP3   OH220476   7.955   1.739   1.493  0.4564  0.1717 -0.0838
 6840TIP3    H120477   7.876   1.762   1.444  0.3972 -1.6797 -0.9295
 6840TIP3    H220478   8.025   1.791   1.453  0.1243 -0.1374 -1.0768
 6841TIP3   OH220479   1.875   7.207   5.578  0.0730  0.7182 -0.1676
 6841TIP3    H120480   1.954   7.205   5.632 -0.1087  0.1534  0.0804
 6841TIP3    H220481   1.804   7.224   5.639 -0.2351 -0.7515 -0.0985
 6842TIP3   OH220482   0.556   1.813   0.181  0.2146  0.5319  0.3047
 6842TIP3    H120483   0.558   1.804   0.085  0.7833 -1.9023  0.4898
 6842TIP3    H220484   0.614   1.744   0.213 -1.4315  0.0343  2.4539
 6843TIP3   OH220485   5.805   0.997   2.422 -0.1892  0.3412  0.4696
 6843TIP3    H120486   5.777   0.933   2.488 -1.8448  2.0711  1.5368
 6843TIP3    H220487   5.878   1.043   2.464  2.1747 -1.8092 -0.9493
 6844TIP3   OH220488   7.125   7.594   3.874  0.1105  0.3397  0.1943
 6844TIP3    H120489   7.152   7.548   3.953 -0.5647  0.2842  0.3923
 6844TIP3    H220490   7.192   7.571   3.809 -0.7621 -1.8023 -0.0221
 6845TIP3   OH220491   0.135   2.735   0.382 -0.0179 -0.1179 -0.4378
 6845TIP3    H120492   0.103   2.706   0.297  0.6900 -0.6833 -0.5218
 6845TIP3    H220493   0.144   2.654   0.433 -1.1814  0.2755  0.4521
 6846TIP3   OH220494   5.301   2.553   0.840 -0.0347  0.1024  0.1020
 6846TIP3    H120495   5.391   2.581   0.824  0.2806  0.3206  2.0896
 6846TIP3    H220496   5.263   2.544   0.752  1.0979  2.6202 -0.7331
 6847TIP3   OH220497   4.536   6.062   4.770  0.5658  0.0733 -0.1242
 6847TIP3    H120498   4.462   6.042   4.827  1.6256  1.6504  1.9689
 6847TIP3    H220499   4.528   6.001   4.697 -1.9645 -0.7468  0.7441
 6848TIP3   OH220500   0.329   1.718   4.626  0.1233 -0.0007 -0.2928
 6848TIP3    H120501   0.383   1.781   4.673 -0.2828  0.1665 -0.0476
 6848TIP3    H220502   0.298   1.658   4.693  0.3012 -0.3119 -0.4878
 6849TIP3   OH220503   0.162   5.549   5.110  0.3585 -0.2980  0.0530
 6849TIP3    H120504   0.153   5.619   5.174  2.3144 -0.4966  0.6328
 6849TIP3    H220505   0.139   5.469   5.158 -0.9784 -0.1754 -0.3480
 6850TIP3   OH220506   6.078   0.610   4.421 -0.4705  0.7992 -0.0961
 6850TIP3    H120507   6.030   0.690   4.397 -0.0858  2.0395  2.7751
 6850TIP3    H220508   6.170   0.631   4.403 -0.3368  1.1785  0.9388
 6851TIP3   OH220509   8.043   3.200   4.601 -0.2713 -0.0777 -0.2522
 6851TIP3    H120510   8.094   3.273   4.637 -0.3421  0.1582 -0.6214
 6851TIP3    H220511   7.980   3.179   4.670 -1.3579  1.3147 -0.7573
 6852TIP3   OH220512   7.210   2.625   5.047  0.2180  0.0140  0.0661
 6852TIP3    H120513   7.173   2.660   5.128  0.9962 -0.4857  0.6662
 6852TIP3    H220514   7.272   2.692   5.018 -0.0254  0.1723 -0.0841
 6853TIP3   OH220515   7.105   4.806   6.727 -0.5879 -0.0813  0.4894
 6853TIP3    H120516   7.121   4.726   6.777 -1.1806 -0.9958 -0.7082
 6853TIP3    H220517   7.011   4.822   6.737 -1.1743 -1.4685 -1.9024
 6854TIP3   OH220518   2.620   3.519   2.910  0.6506  0.6719  0.0013
 6854TIP3    H120519   2.574   3.504   2.827 -1.3018  2.4223  0.6929
 6854TIP3    H220520   2.712   3.508   2.888  0.0996 -0.2095 -2.1014
 6855TIP3   OH220521   1.230   5.146   1.960 -0.1031 -0.3461  0.1850
 6855TIP3    H120522   1.278   5.076   2.003 -0.0152 -0.2805  0.1953
 6855TIP3    H220523   1.138   5.132   1.985  0.0190  0.0303  0.8731
 6856TIP3   OH220524   0.056   3.926   0.288 -0.3694 -0.2564  0.6918
 6856TIP3    H120525   0.131   3.986   0.281 -1.6743  1.2667 -1.6978
 6856TIP3    H220526  -0.017   3.982   0.314 -1.7260 -0.5905 -2.0319
 6857TIP3   OH220527   6.045   7.614   6.563 -0.2321  0.1263  0.5182
 6857TIP3    H120528   5.988   7.613   6.640 -1.6332 -0.4774 -0.4958
 6857TIP3    H220529   5.986   7.627   6.489  1.1888  1.7180 -0.4123
 6858TIP3   OH220530   1.392   6.431   2.811 -0.0771 -0.2067  0.1068
 6858TIP3    H120531   1.464   6.396   2.759 -0.2129  1.2965 -1.1748
 6858TIP3    H220532   1.372   6.362   2.874  1.3827 -1.3143 -0.5773
 6859TIP3   OH220533   2.738   7.497   1.802  0.7951 -0.7606 -0.5314
 6859TIP3    H120534   2.651   7.507   1.762  0.5397 -2.1227 -0.3747
 6859TIP3    H220535   2.733   7.545   1.884  0.0091 -1.2207 -0.2979
 6860TIP3   OH220536   0.683   5.374   1.393  0.4618  0.2602 -0.3477
 6860TIP3    H120537   0.764   5.409   1.357 -0.8425  3.4995 -0.4503
 6860TIP3    H220538   0.614   5.410   1.337 -1.2568  0.4786  1.7754
 6861TIP3   OH220539   0.690   3.690   1.216 -0.2456  0.1613 -0.2992
 6861TIP3    H120540   0.708   3.672   1.123  0.4570  1.9495 -0.5473
 6861TIP3    H220541   0.748   3.631   1.263 -0.4445 -0.6150 -1.0064
 6862TIP3   OH220542   8.261   1.323   0.210 -0.1890 -0.3277  0.2092
 6862TIP3    H120543   8.357   1.317   0.212 -0.1058  0.7937  0.2569
 6862TIP3    H220544   8.232   1.257   0.273  0.4417 -2.4109 -1.5717
 6863TIP3   OH220545   6.564   2.677   2.839  0.1112  0.2701  0.0921
 6863TIP3    H120546   6.655   2.683   2.870  0.6671  1.3515 -1.5738
 6863TIP3    H220547   6.514   2.730   2.900  0.6393 -0.1334  0.8895
 6864TIP3   OH220548   0.054   2.455   2.876 -0.5406  0.6180 -0.2561
 6864TIP3    H120549   0.010   2.506   2.944 -1.4324  1.5402 -1.4689
 6864TIP3    H220550  -0.013   2.394   2.844  0.3921 -1.0776  0.8826
 6865TIP3   OH220551   5.171   5.018   0.325  0.1345 -0.2837  0.2036
 6865TIP3    H120552   5.258   5.013   0.285 -0.6972 -2.2413 -1.6044
 6865TIP3    H220553   5.141   5.106   0.305  1.6478  0.4139  0.8106
 6866TIP3   OH220554   4.170   0.263   4.111 -0.2256  0.3329 -0.5943
 6866TIP3    H120555   4.105   0.193   4.121 -0.1594  0.3462 -0.0124
 6866TIP3    H220556   4.245   0.220   4.071 -0.2427  0.1047 -0.3843
 6867TIP3   OH220557   5.405   4.239   0.955  0.3410  0.2738 -0.3722
 6867TIP3    H120558   5.499   4.242   0.970  0.7216 -2.1837 -1.6940
 6867TIP3    H220559   5.395   4.262   0.863 -0.6473  2.7402  0.2756
 6868TIP3   OH220560   1.785   1.105   3.390  0.2904  0.2274  0.1834
 6868TIP3    H120561   1.783   1.064   3.477  2.2489 -1.2835 -0.4094
 6868TIP3    H220562   1.872   1.146   3.384  0.3423 -0.0254 -1.1803
 6869TIP3   OH220563   2.330   4.436   1.034 -0.2697  0.3964 -0.3540
 6869TIP3    H120564   2.425   4.439   1.020 -0.3955 -0.6982 -1.6131
 6869TIP3    H220565   2.319   4.465   1.125  1.3952 -0.7598  0.2752
 6870TIP3   OH220566   0.808   0.380   3.678  0.1204 -0.2473  0.0800
 6870TIP3    H120567   0.887   0.326   3.672 -0.4291 -1.0401 -0.2585
 6870TIP3    H220568   0.824   0.438   3.752  0.6549 -1.0209  0.5897
 6871TIP3   OH220569   5.103   6.856   4.045 -0.2367 -0.1128 -0.0106
 6871TIP3    H120570   5.108   6.892   4.133  2.1215 -1.5319  0.5070
 6871TIP3    H220571   5.142   6.924   3.989 -0.2400  0.1034  0.2501
 6872TIP3   OH220572   1.249   1.373   1.620  0.0403 -0.5031  0.4069
 6872TIP3    H120573   1.316   1.368   1.551 -0.3342  0.2133 -0.0190
 6872TIP3    H220574   1.299   1.379   1.701  0.4947 -0.5248  0.1333
 6873TIP3   OH220575   5.752   6.615   0.687  0.1392 -0.4322 -0.1313
 6873TIP3    H120576   5.695   6.542   0.713  0.6971 -0.6654  0.4755
 6873TIP3    H220577   5.698   6.668   0.628 -0.2821 -1.3206 -0.5677
 6874TIP3   OH220578   4.047   4.135   1.853  0.2408 -0.2020 -0.0843
 6874TIP3    H120579   3.977   4.198   1.835  0.7215 -0.2002 -2.1001
 6874TIP3    H220580   4.006   4.069   1.910 -1.1803  0.1763 -0.6273
 6875TIP3   OH220581   4.684   2.712   4.521 -0.4290  0.0685  0.3810
 6875TIP3    H120582   4.684   2.617   4.511  2.7304  0.1170 -1.9297
 6875TIP3    H220583   4.676   2.727   4.615 -0.8824 -2.4690  0.8183
 6876TIP3   OH220584   1.463   1.725   1.207 -0.0481 -0.1130  0.0664
 6876TIP3    H120585   1.442   1.640   1.167 -1.3663  1.0488 -1.8714
 6876TIP3    H220586   1.506   1.774   1.138  1.0994  0.6824  1.3117
 6877TIP3   OH220587   7.688   3.956   5.661 -0.3271 -0.2784 -0.2441
 6877TIP3    H120588   7.613   3.987   5.609 -1.2309 -1.0041  0.5703
 6877TIP3    H220589   7.745   4.032   5.670 -3.0669  1.7196  2.8070
 6878TIP3   OH220590   3.027   4.879   0.944  0.2036  0.8603 -0.0184
 6878TIP3    H120591   2.937   4.847   0.936 -0.6308  2.3072  2.4199
 6878TIP3    H220592   3.034   4.910   1.035  3.4034  0.1891  0.0973
 6879TIP3   OH220593   6.271   7.535   1.120 -0.2760  0.4777 -0.1491
 6879TIP3    H120594   6.341   7.577   1.170  0.9343 -1.1767 -0.3976
 6879TIP3    H220595   6.257   7.451   1.163 -0.5094 -0.1877 -1.4781
 6880TIP3   OH220596   2.749   4.671   2.561  0.5188  0.6942 -0.2564
 6880TIP3    H120597   2.794   4.636   2.484 -1.9593 -0.9700 -1.0690
 6880TIP3    H220598   2.735   4.763   2.541  0.8505  0.5220 -1.3399
 6881TIP3   OH220599   7.118   3.225   2.356 -0.3087 -0.3094 -0.2732
 6881TIP3    H120600   7.184   3.205   2.289 -0.5940  0.3745 -0.7745
 6881TIP3    H220601   7.169   3.252   2.432  0.0663 -2.2749  0.2253
 6882TIP3   OH220602   0.240   6.263   2.903 -0.0648 -0.6260 -0.0740
 6882TIP3    H120603   0.192   6.200   2.848 -1.1346 -0.8514  1.0679
 6882TIP3    H220604   0.172   6.302   2.958  0.8204  0.4398  0.2761
 6883TIP3   OH220605   7.487   1.756   2.543  0.3692  0.0915  0.0586
 6883TIP3    H120606   7.557   1.814   2.516  2.3038 -0.8789  2.6170
 6883TIP3    H220607   7.431   1.809   2.600  0.5614  0.1620  0.1809
 6884TIP3   OH220608   7.914   2.289   6.770 -0.0268  0.3248 -0.0726
 6884TIP3    H120609   7.967   2.330   6.838 -0.2455 -0.4591  0.5847
 6884TIP3    H220610   7.905   2.356   6.702  2.3667  0.2448 -0.5310
 6885TIP3   OH220611   5.084   3.473   0.020 -0.5738  0.4315  0.2015
 6885TIP3    H120612   5.142   3.536   0.062 -1.1756 -0.8799  3.2474
 6885TIP3    H220613   5.129   3.451  -0.062  3.0322 -0.1291  2.1140
 6886TIP3   OH220614   2.704   4.206   4.737 -0.1308  0.4192  0.0656
 6886TIP3    H120615   2.651   4.252   4.672  0.4199 -1.4566 -1.8254
 6886TIP3    H220616   2.787   4.190   4.693  0.1903 -1.1019  1.1478
 6887TIP3   OH220617   4.873   5.618   3.816 -0.0437 -0.3552 -0.1006
 6887TIP3    H120618   4.825   5.538   3.834  0.8289 -0.4544  2.0614
 6887TIP3    H220619   4.935   5.594   3.747 -0.9311 -1.0564 -0.6735
 6888TIP3   OH220620   1.348   2.047   3.966 -0.1015  0.1212 -0.1381
 6888TIP3    H120621   1.306   2.131   3.988  0.2570  0.5665 -1.0953
 6888TIP3    H220622   1.434   2.052   4.009 -0.1445  0.1782 -0.0582
 6889TIP3   OH220623   5.689   1.953   2.970 -0.1257 -0.0870 -0.0324
 6889TIP3    H120624   5.755   1.923   2.908 -0.1847  2.0971 -1.2649
 6889TIP3    H220625   5.608   1.909   2.941 -0.2937  1.3622 -2.0098
 6890TIP3   OH220626   7.478   6.482   5.605 -0.2159 -0.2998  0.0958
 6890TIP3    H120627   7.542   6.469   5.535 -0.0507 -1.1092  0.3968
 6890TIP3    H220628   7.424   6.403   5.604 -2.1928  0.9664 -1.1302
 6891TIP3   OH220629   5.841   0.809   1.305  0.0964  0.5410  0.6758
 6891TIP3    H120630   5.878   0.733   1.260  2.6876  0.8595  2.0511
 6891TIP3    H220631   5.799   0.860   1.236  1.2079 -0.5102 -0.8473
 6892TIP3   OH220632   2.617   3.307   1.526  0.6187  0.2811 -0.5674
 6892TIP3    H120633   2.699   3.272   1.559  0.2736 -0.2239 -0.2246
 6892TIP3    H220634   2.558   3.232   1.523 -0.2064  0.8559  0.4150
 6893TIP3   OH220635   6.145   1.805   6.477  0.0257 -0.3864  0.2225
 6893TIP3    H120636   6.218   1.866   6.481 -0.5473  0.2828  0.6050
 6893TIP3    H220637   6.174   1.730   6.530  0.2802  0.0421  0.7002
 6894TIP3   OH220638   3.772   6.016   0.306 -0.0128  0.1667 -0.4863
 6894TIP3    H120639   3.840   6.083   0.321  0.4230 -0.4022  0.1399
 6894TIP3    H220640   3.796   5.976   0.222  1.0731 -0.7644  0.2393
 6895TIP3   OH220641   6.989   6.623   2.058 -0.3431 -0.0435 -0.3814
 6895TIP3    H120642   7.081   6.600   2.051 -0.4618 -0.4538 -0.6217
 6895TIP3    H220643   6.945   6.541   2.081 -0.6663  0.1139 -0.4324
 6896TIP3   OH220644   0.277   1.673   5.873  0.2785  0.1745 -0.2220
 6896TIP3    H120645   0.354   1.643   5.923  1.3100  4.3444  1.1889
 6896TIP3    H220646   0.205   1.668   5.936  0.9236  2.4142  0.8263
 6897TIP3   OH220647   4.008   7.040   6.681 -0.6414  0.5816  0.1101
 6897TIP3    H120648   4.003   7.001   6.768 -0.7720 -0.8182 -0.4957
 6897TIP3    H220649   4.031   6.967   6.623  0.9843  1.7547 -0.8329
 6898TIP3   OH220650   7.192   6.209   4.237  0.6057  0.5553  0.1315
 6898TIP3    H120651   7.284   6.225   4.257  0.7975  1.4329 -1.3399
 6898TIP3    H220652   7.159   6.293   4.204 -0.5624  0.0988  0.0787
 6899TIP3   OH220653   7.899   7.100   2.118 -0.1881 -0.2533  0.0010
 6899TIP3    H120654   7.845   7.172   2.086  0.7797  0.2991 -0.4492
 6899TIP3    H220655   7.957   7.079   2.045  2.1952  1.1495  1.3435
 6900TIP3   OH220656   2.858   0.764   6.402  0.3413 -0.1374 -0.0627
 6900TIP3    H120657   2.808   0.682   6.393 -0.9694  0.3725  1.8332
 6900TIP3    H220658   2.949   0.736   6.411 -0.2610 -1.6026  2.4380
 6901TIP3   OH220659   8.179   2.663   6.399  0.8147  0.1622  0.0005
 6901TIP3    H120660   8.104   2.709   6.437  0.8793  1.0622 -0.9389
 6901TIP3    H220661   8.174   2.575   6.438 -1.8474 -0.4535 -1.4533
 6902TIP3   OH220662   1.699   6.621   0.800 -0.6601 -0.2038  0.2627
 6902TIP3    H120663   1.657   6.543   0.763 -1.3585 -0.0874  0.7832
 6902TIP3    H220664   1.631   6.688   0.799 -0.6669 -0.1587  1.5942
 6903TIP3   OH220665   4.789   5.148   5.254 -0.6193  0.3686 -0.4434
 6903TIP3    H120666   4.830   5.140   5.341 -1.3989 -2.1356 -0.2284
 6903TIP3    H220667   4.863   5.163   5.195  0.2414 -0.5185  0.3595
 6904TIP3   OH220668   2.195   4.320   0.553  0.5034 -0.1862  0.3482
 6904TIP3    H120669   2.228   4.349   0.638 -3.1517 -0.9486  2.1936
 6904TIP3    H220670   2.192   4.225   0.560 -0.0103 -0.2449 -0.5852
 6905TIP3   OH220671   1.967   0.905   2.797 -0.5184  0.0061  0.4953
 6905TIP3    H120672   2.025   0.919   2.873 -0.2308  0.7046  0.1621
 6905TIP3    H220673   2.027   0.898   2.723 -0.7923 -0.8395  0.3467
 6906TIP3   OH220674   4.816   6.389   1.586 -0.3112  0.4532  0.5066
 6906TIP3    H120675   4.751   6.437   1.535 -1.2969 -0.0919  1.2055
 6906TIP3    H220676   4.767   6.356   1.662  0.8234  0.1675  1.1407
 6907TIP3   OH220677   1.350   0.799   5.833 -0.0675 -0.8273 -0.4614
 6907TIP3    H120678   1.405   0.853   5.890 -1.8478 -0.4291  0.9930
 6907TIP3    H220679   1.307   0.738   5.892 -1.9821 -0.4084 -1.3503
 6908TIP3   OH220680   7.142   0.707   3.155 -0.9389 -0.1043  0.1111
 6908TIP3    H120681   7.072   0.754   3.109  0.6422  1.2381 -1.0340
 6908TIP3    H220682   7.186   0.775   3.206 -0.4939 -0.9359  0.8558
 6909TIP3   OH220683   7.755   4.672   2.058 -0.7770  0.0766 -0.2957
 6909TIP3    H120684   7.711   4.757   2.062  1.5051  1.2917  2.2975
 6909TIP3    H220685   7.754   4.641   2.149  0.3723 -1.6449 -0.8291
 6910TIP3   OH220686   0.247   4.319   3.418  0.0677  0.0751  0.2408
 6910TIP3    H120687   0.302   4.244   3.393 -1.3629 -0.4816 -1.4872
 6910TIP3    H220688   0.266   4.385   3.352  0.2635  0.7192  0.9307
 6911TIP3   OH220689   4.849   0.685   4.471 -0.4534  0.5929 -0.3228
 6911TIP3    H120690   4.783   0.672   4.538 -0.5489  0.3293 -0.4661
 6911TIP3    H220691   4.918   0.735   4.514  0.6269 -1.6207  0.6877
 6912TIP3   OH220692   2.617   4.788   3.141 -0.2259 -0.4186 -0.2423
 6912TIP3    H120693   2.641   4.856   3.078  1.8589 -1.2918 -0.4540
 6912TIP3    H220694   2.524   4.773   3.125  0.1512 -0.4096 -2.9368
 6913TIP3   OH220695   7.615   3.330   0.395 -0.0237  0.2407 -0.5713
 6913TIP3    H120696   7.666   3.282   0.331 -0.7225 -0.2749 -0.7549
 6913TIP3    H220697   7.530   3.343   0.353 -0.5676 -0.3094  0.3205
 6914TIP3   OH220698   7.215   3.552   4.527 -0.3039 -0.2758 -0.2344
 6914TIP3    H120699   7.124   3.542   4.497  0.1094  0.6180 -1.8839
 6914TIP3    H220700   7.209   3.613   4.600 -1.1561 -1.1769  0.4744
 6915TIP3   OH220701   2.890   4.139   5.517  0.0201 -0.1668 -0.5950
 6915TIP3    H120702   2.979   4.138   5.552 -0.3837 -2.9313  0.5556
 6915TIP3    H220703   2.902   4.154   5.423  1.7806 -1.1929 -0.5869
 6916TIP3   OH220704   7.354   1.943   1.036 -0.5190 -1.1810  0.5393
 6916TIP3    H120705   7.309   1.905   0.960  0.2548  0.8435 -1.0416
 6916TIP3    H220706   7.284   1.968   1.096 -1.3009 -1.0229 -0.4158
 6917TIP3   OH220707   3.515   4.425   6.564  0.8792  0.3840  0.6474
 6917TIP3    H120708   3.451   4.404   6.496  1.1716  1.0460  0.1470
 6917TIP3    H220709   3.467   4.481   6.625  0.5824 -0.3096  1.0548
 6918TIP3   OH220710   5.602   3.966   3.007 -0.0731 -0.2161  0.2479
 6918TIP3    H120711   5.648   3.893   2.967  0.3159 -1.3737  2.6047
 6918TIP3    H220712   5.511   3.937   3.012 -0.2661  0.2562 -0.5165
 6919TIP3   OH220713   2.031   2.067   3.964  0.1450 -0.1947 -0.6432
 6919TIP3    H120714   1.979   2.140   3.930 -0.4445 -0.8571 -1.2198
 6919TIP3    H220715   2.066   2.024   3.886  0.9767 -0.1866 -0.2861
 6920TIP3   OH220716   1.457   5.805   4.127  0.9364 -0.2586  0.1430
 6920TIP3    H120717   1.447   5.814   4.221  2.4256 -0.3904  0.3453
 6920TIP3    H220718   1.522   5.873   4.104  1.9327 -1.3866 -0.4808
 6921TIP3   OH220719   1.756   2.038   5.390  0.0579  0.2116  0.2760
 6921TIP3    H120720   1.678   2.075   5.349 -0.2469 -0.1220  0.5522
 6921TIP3    H220721   1.722   1.983   5.460  0.4442 -1.6264 -0.9232
 6922TIP3   OH220722   6.232   5.099   2.018 -0.1998  0.3254 -0.1541
 6922TIP3    H120723   6.315   5.072   1.980 -0.0412  0.7346 -0.0972
 6922TIP3    H220724   6.214   5.034   2.086  0.8077  1.0629  0.8512
 6923TIP3   OH220725   0.747   6.577   6.429  0.2712  0.1544  0.0686
 6923TIP3    H120726   0.691   6.652   6.410  1.5172  0.8508 -1.1530
 6923TIP3    H220727   0.752   6.530   6.345  1.1706 -0.1022  0.2567
 6924TIP3   OH220728   5.846   7.148   2.055  0.0748 -0.1598 -0.1977
 6924TIP3    H120729   5.932   7.148   2.097 -0.0791 -0.8729  0.1282
 6924TIP3    H220730   5.854   7.088   1.981 -0.3084 -0.6982  0.1916
 6925TIP3   OH220731   1.791   6.688   3.962  0.4944 -0.7484  0.2477
 6925TIP3    H120732   1.853   6.747   4.005 -0.1624 -0.3434  0.6674
 6925TIP3    H220733   1.767   6.733   3.881  0.1013 -0.4831  0.5009
 6926TIP3   OH220734   7.361   2.544   1.640 -0.0698  0.5290  0.0006
 6926TIP3    H120735   7.356   2.637   1.661 -0.8930  0.4686  0.1182
 6926TIP3    H220736   7.438   2.535   1.585  1.3088  0.9338  1.7853
 6927TIP3   OH220737   2.118   5.671   5.052 -1.3522 -0.0003 -0.0827
 6927TIP3    H120738   2.072   5.598   5.010 -0.0869 -1.2295  0.5784
 6927TIP3    H220739   2.127   5.645   5.144 -0.7501  0.9283  0.1437
 6928TIP3   OH220740   7.103   5.187   0.645 -0.5677 -0.1359  0.5603
 6928TIP3    H120741   7.151   5.174   0.563 -0.4496  1.5631  0.3151
 6928TIP3    H220742   7.022   5.138   0.634  0.3164 -1.5566  0.2446
 6929TIP3   OH220743   0.046   3.574   5.303 -0.0833  0.1440 -0.1386
 6929TIP3    H120744   0.087   3.508   5.248 -0.4168  0.0472 -0.2734
 6929TIP3    H220745  -0.032   3.531   5.339 -0.4136  0.5235 -0.3890
 6930TIP3   OH220746   2.369   0.853   2.077  0.2447  0.3876 -0.4139
 6930TIP3    H120747   2.343   0.789   2.143 -1.1973  0.8990 -0.4582
 6930TIP3    H220748   2.297   0.916   2.074  0.9761  1.2223 -1.3927
 6931TIP3   OH220749   5.121   1.063   0.681  0.2361 -0.6618  0.1216
 6931TIP3    H120750   5.031   1.074   0.652  0.7699 -1.2573 -1.9220
 6931TIP3    H220751   5.114   1.034   0.772 -1.6295 -0.8337 -0.0458
 6932TIP3   OH220752   5.017   4.839   2.228  0.5355 -0.2300 -0.3040
 6932TIP3    H120753   5.003   4.900   2.302 -0.0797  0.7918 -1.2267
 6932TIP3    H220754   5.048   4.759   2.269 -3.2386 -0.9796  1.5146
 6933TIP3   OH220755   2.710   6.478   2.187 -0.0822 -0.0884  0.1772
 6933TIP3    H120756   2.630   6.519   2.157 -0.3482 -0.6397  0.1196
 6933TIP3    H220757   2.728   6.410   2.123  1.2149  0.9484 -0.6048
 6934TIP3   OH220758   5.564   1.058   5.959  0.2962 -0.8453 -0.4495
 6934TIP3    H120759   5.499   1.127   5.973  1.6120  0.2759  0.3726
 6934TIP3    H220760   5.647   1.105   5.952  1.0198 -2.2412 -1.5528
 6935TIP3   OH220761   5.273   4.290   3.415  0.4173 -0.0878  0.1451
 6935TIP3    H120762   5.309   4.281   3.327  1.4513  0.7776  0.4600
 6935TIP3    H220763   5.289   4.381   3.439  0.8928 -0.5110  1.5396
 6936TIP3   OH220764   5.433   1.710   0.756  0.8212  0.2557  0.3020
 6936TIP3    H120765   5.357   1.653   0.744 -0.4710  1.9418  0.0818
 6936TIP3    H220766   5.491   1.688   0.683 -0.1909  0.0517 -0.4673
 6937TIP3   OH220767   6.045   3.681   4.828 -0.9206  0.0367 -0.1049
 6937TIP3    H120768   6.107   3.615   4.799 -1.2488 -1.0010  1.4086
 6937TIP3    H220769   5.996   3.705   4.750  0.5927  0.0509 -1.0984
 6938TIP3   OH220770   2.661   6.269   1.357  0.4792 -0.1764 -0.7662
 6938TIP3    H120771   2.582   6.292   1.308  0.7103 -0.4940 -1.2923
 6938TIP3    H220772   2.672   6.175   1.342  1.4275  0.0248 -1.3973
 6939TIP3   OH220773   7.535   5.990   3.357  0.4252  0.2167  0.9699
 6939TIP3    H120774   7.627   6.015   3.367  0.3830  0.5680  0.5402
 6939TIP3    H220775   7.493   6.019   3.438  0.0741  3.0368 -0.0866
 6940TIP3   OH220776   3.688   6.501   3.394 -0.3611  0.1320  0.6300
 6940TIP3    H120777   3.764   6.450   3.422  1.2932  1.9988 -0.1641
 6940TIP3    H220778   3.717   6.545   3.314 -2.3146  0.8912  0.2861
 6941TIP3   OH220779   5.401   1.598   1.749  0.4463 -0.5125 -0.3860
 6941TIP3    H120780   5.336   1.583   1.681 -0.5396  1.5871 -0.0082
 6941TIP3    H220781   5.384   1.531   1.815 -0.3367 -0.9210 -0.9933
 6942TIP3   OH220782   6.570   6.589   6.577 -0.2160  0.1446  0.6404
 6942TIP3    H120783   6.486   6.564   6.615 -0.0285  0.5516  1.3340
 6942TIP3    H220784   6.621   6.508   6.575 -1.1073 -0.4371 -1.1425
 6943TIP3   OH220785   8.259   5.094   3.613  0.6377 -0.4627  0.4338
 6943TIP3    H120786   8.212   5.051   3.542  0.0741 -1.4064  1.3577
 6943TIP3    H220787   8.289   5.177   3.575  0.3664 -0.9566 -0.8990
 6944TIP3   OH220788   5.221   4.638   4.026 -0.0180  0.1281  0.0283
 6944TIP3    H120789   5.247   4.636   4.118 -0.8631  0.7087  0.2928
 6944TIP3    H220790   5.145   4.581   4.021 -0.6942  1.0090 -0.0592
 6945TIP3   OH220791   6.508   1.759   4.425 -0.4918  0.3762 -0.1600
 6945TIP3    H120792   6.437   1.703   4.395 -1.5224  0.5476  1.7772
 6945TIP3    H220793   6.510   1.746   4.520 -2.4864  5.3773  0.8770
 6946TIP3   OH220794   5.596   4.467   4.659 -0.4735 -0.0357 -0.4775
 6946TIP3    H120795   5.590   4.375   4.636  0.3123 -0.6287  1.5491
 6946TIP3    H220796   5.526   4.481   4.723 -1.3053  1.0800 -1.5611
 6947TIP3   OH220797   4.177   4.393   4.201 -0.3874  0.4542 -0.1558
 6947TIP3    H120798   4.150   4.424   4.115 -0.6936  1.1282  0.1714
 6947TIP3    H220799   4.103   4.343   4.233 -0.1944  0.0303 -0.3639
 6948TIP3   OH220800   5.684   7.647   1.136  0.3993 -0.3914  0.0025
 6948TIP3    H120801   5.661   7.738   1.157  1.3688 -0.3161  0.8042
 6948TIP3    H220802   5.759   7.628   1.192  0.2610 -1.6685 -0.2253
 6949TIP3   OH220803   4.576   3.391   5.024 -0.1100  0.6521 -0.1983
 6949TIP3    H120804   4.493   3.434   5.001 -0.2392 -0.0267 -1.0573
 6949TIP3    H220805   4.552   3.328   5.092 -1.1543 -2.3703 -3.0705
 6950TIP3   OH220806   5.804   0.651   4.021 -0.9072  0.0952 -0.3583
 6950TIP3    H120807   5.898   0.658   4.005 -0.7104 -0.3483  0.5183
 6950TIP3    H220808   5.781   0.730   4.070 -0.8065 -0.1904  0.1689
 6951TIP3   OH220809   1.480   4.862   5.244 -0.2970  0.2830 -0.0408
 6951TIP3    H120810   1.470   4.786   5.301  0.6324  0.8670  0.9417
 6951TIP3    H220811   1.410   4.922   5.271 -0.6371  0.0475 -0.3859
 6952TIP3   OH220812   3.938   2.413   6.586  0.0503  0.0742 -0.1009
 6952TIP3    H120813   3.939   2.498   6.542  0.0903  0.4822  0.6699
 6952TIP3    H220814   3.872   2.423   6.656  0.9008 -0.1293  0.7466
 6953TIP3   OH220815   2.664   7.716   1.053  0.3189  0.0491  0.0810
 6953TIP3    H120816   2.612   7.687   1.128  0.6951 -1.5480 -0.2254
 6953TIP3    H220817   2.622   7.674   0.978  0.9740  0.2233 -0.3869
 6954TIP3   OH220818   6.377   3.662   6.759 -0.6712  0.5592  0.3172
 6954TIP3    H120819   6.460   3.708   6.748 -1.0401  0.8885 -1.5224
 6954TIP3    H220820   6.383   3.620   6.845  0.9402  1.4646  0.6832
 6955TIP3   OH220821   1.565   5.085   4.737  0.0370 -0.0471 -0.0426
 6955TIP3    H120822   1.639   5.057   4.791 -0.1426  0.1519  0.3129
 6955TIP3    H220823   1.489   5.041   4.776 -0.0316 -0.2575 -0.4099
 6956TIP3   OH220824   6.457   6.340   1.339  0.1136 -0.2086 -0.2005
 6956TIP3    H120825   6.455   6.431   1.368 -1.5252 -0.0608 -0.6613
 6956TIP3    H220826   6.471   6.346   1.244 -0.8259 -0.3776 -0.3601
 6957TIP3   OH220827   5.847   3.321   0.163 -0.6762 -0.0022 -0.2655
 6957TIP3    H120828   5.797   3.314   0.244 -0.7285 -0.9466 -0.3669
 6957TIP3    H220829   5.936   3.345   0.191 -0.5095 -1.0368  0.1443
 6958TIP3   OH220830   2.469   3.897   6.413  0.4260 -0.0282  0.1908
 6958TIP3    H120831   2.380   3.892   6.448  0.1103  2.0673 -0.2138
 6958TIP3    H220832   2.525   3.909   6.489  0.4533 -1.6909  0.4820
 6959TIP3   OH220833   6.403   4.379   2.619  0.2599  0.5332  0.2678
 6959TIP3    H120834   6.370   4.301   2.574  1.7722  1.1312 -2.0613
 6959TIP3    H220835   6.463   4.345   2.685 -1.3820 -0.3357  1.3936
 6960TIP3   OH220836   5.115   2.736   0.977  0.0840  0.0661 -0.0881
 6960TIP3    H120837   5.159   2.651   0.968  1.1203  0.5083  0.6300
 6960TIP3    H220838   5.088   2.741   1.068  1.0203  0.9587  0.1620
 6961TIP3   OH220839   2.713   6.279   6.731 -0.5711  0.6305  0.3382
 6961TIP3    H120840   2.809   6.285   6.732 -0.3097 -2.0987  1.6332
 6961TIP3    H220841   2.683   6.369   6.721  2.1165  1.5047 -0.6713
 6962TIP3   OH220842   7.353   0.626   3.743 -0.0735 -0.1191 -0.3619
 6962TIP3    H120843   7.361   0.606   3.650  0.5566  1.3389 -0.6456
 6962TIP3    H220844   7.323   0.717   3.746 -0.3495 -0.2250  0.8690
 6963TIP3   OH220845   5.819   2.943   5.284  0.3485 -0.0786 -0.0941
 6963TIP3    H120846   5.874   2.970   5.210  1.3094 -0.8694  0.3030
 6963TIP3    H220847   5.881   2.916   5.351 -0.5248 -1.0788  0.3462
 6964TIP3   OH220848   5.290   5.814   3.992  0.5338  0.1825  0.1181
 6964TIP3    H120849   5.220   5.869   4.029  0.9027  2.4653 -2.2862
 6964TIP3    H220850   5.340   5.784   4.068 -0.9602  1.4441  1.6787
 6965TIP3   OH220851   1.411   1.381   1.915 -0.2154  0.4149 -0.0660
 6965TIP3    H120852   1.345   1.335   1.966  1.7843  0.5468  2.8556
 6965TIP3    H220853   1.464   1.311   1.876 -1.0886  0.3129 -1.1034
 6966TIP3   OH220854   4.349   5.212   1.514 -0.3824 -0.4500 -0.3991
 6966TIP3    H120855   4.346   5.121   1.486  1.1204 -0.7643  0.3446
 6966TIP3    H220856   4.323   5.209   1.606  3.1025 -0.7192  0.7261
 6967TIP3   OH220857   3.351   0.147   3.870  0.8888 -0.2712 -0.0503
 6967TIP3    H120858   3.325   0.236   3.847  0.1869  0.3440  2.7013
 6967TIP3    H220859   3.308   0.091   3.804 -0.9303  1.2656 -0.2625
 6968TIP3   OH220860   5.832   7.183   2.384 -0.3035  0.4396  0.5545
 6968TIP3    H120861   5.775   7.142   2.319  0.1208  0.6079  0.0659
 6968TIP3    H220862   5.856   7.112   2.444  0.3630 -0.0209 -0.2403
 6969TIP3   OH220863   2.277   6.888   6.160 -0.4879 -1.2889  0.3148
 6969TIP3    H120864   2.315   6.930   6.083 -3.9823  1.9147  0.0006
 6969TIP3    H220865   2.249   6.802   6.129  0.9707 -1.3168 -1.0519
 6970TIP3   OH220866   7.089   0.099   6.463 -0.1222  0.3052 -0.2999
 6970TIP3    H120867   7.171   0.070   6.503 -1.0498 -0.2890  1.2935
 6970TIP3    H220868   7.054   0.163   6.525 -2.2375 -1.5902  0.5821
 6971TIP3   OH220869   8.189   4.185   2.956  0.1497 -0.4554 -0.6510
 6971TIP3    H120870   8.134   4.108   2.939 -0.0954 -0.3305 -0.4267
 6971TIP3    H220871   8.194   4.230   2.871 -3.4942  1.7707  0.1019
 6972TIP3   OH220872   0.328   6.279   4.659 -0.1222 -0.2076 -0.2805
 6972TIP3    H120873   0.372   6.311   4.581 -1.7433 -0.9082 -1.5658
 6972TIP3    H220874   0.354   6.187   4.665 -1.0574 -0.5255 -0.8350
 6973TIP3   OH220875   3.572   5.182   3.450 -0.4547 -0.4235 -0.3315
 6973TIP3    H120876   3.598   5.203   3.539 -0.6774 -1.3083 -0.0467
 6973TIP3    H220877   3.617   5.246   3.395  0.2982 -0.3627  0.3507
 6974TIP3   OH220878   4.648   2.913   6.132 -0.4351  0.3357  0.4051
 6974TIP3    H120879   4.613   2.844   6.188  1.0680 -0.4510  0.4308
 6974TIP3    H220880   4.572   2.948   6.086 -1.5918  0.4368  2.3095
 6975TIP3   OH220881   5.452   4.102   5.398 -0.9992  0.0775 -1.0313
 6975TIP3    H120882   5.358   4.088   5.398 -1.0868  0.6417 -1.3096
 6975TIP3    H220883   5.484   4.053   5.474 -1.8669  2.2090  0.7829
 6976TIP3   OH220884   1.494   3.413   6.165  0.3252  0.1474 -0.4083
 6976TIP3    H120885   1.410   3.455   6.147  0.5540  0.5828 -0.4834
 6976TIP3    H220886   1.493   3.397   6.259 -0.4442 -1.1867 -0.6218
 6977TIP3   OH220887   1.874   6.437   0.158 -0.2972 -0.1479  0.0674
 6977TIP3    H120888   1.796   6.386   0.181  0.5131 -1.1408  0.7217
 6977TIP3    H220889   1.902   6.401   0.073  1.5475 -2.4599  1.5275
 6978TIP3   OH220890   2.621   2.207   3.108  0.7546 -0.5427  0.0245
 6978TIP3    H120891   2.636   2.301   3.120 -0.5649 -0.3770  0.5984
 6978TIP3    H220892   2.531   2.193   3.138  0.6304 -1.8504 -0.8434
 6979TIP3   OH220893   6.725   0.228   6.383  0.0801 -0.5376 -0.3507
 6979TIP3    H120894   6.658   0.204   6.447  0.6446 -0.3673  0.3126
 6979TIP3    H220895   6.803   0.247   6.435 -0.3051  2.8770 -0.7645
 6980TIP3   OH220896   7.361   3.026   0.880 -0.1849 -0.1745  0.0116
 6980TIP3    H120897   7.435   3.086   0.895 -0.8089  0.9642 -1.2439
 6980TIP3    H220898   7.392   2.942   0.913  1.1634  0.5700  0.7700
 6981TIP3   OH220899   1.625   5.881   1.904 -0.4361 -0.2415 -0.2879
 6981TIP3    H120900   1.695   5.817   1.912  1.2781  1.7734  3.0939
 6981TIP3    H220901   1.646   5.930   1.824  3.5750  1.7642  1.7065
 6982TIP3   OH220902   1.854   5.332   4.800  0.5175 -0.5694 -0.0288
 6982TIP3    H120903   1.764   5.363   4.800  0.7784  0.2128  0.5587
 6982TIP3    H220904   1.878   5.328   4.707  0.4454  0.9417 -0.1395
 6983TIP3   OH220905   2.641   3.316   5.235  0.2947  0.2373 -0.5999
 6983TIP3    H120906   2.622   3.240   5.290 -0.8798 -0.3912 -1.8095
 6983TIP3    H220907   2.572   3.379   5.258 -1.9035 -1.0377 -3.1203
 6984TIP3   OH220908   7.969   2.333   3.670 -0.4819 -0.1634 -0.3837
 6984TIP3    H120909   7.963   2.244   3.637 -0.1417  0.3143 -1.8187
 6984TIP3    H220910   8.059   2.360   3.649  0.0812 -0.1488  1.8491
 6985TIP3   OH220911   7.622   2.719   0.506 -0.7314  0.1206  0.1443
 6985TIP3    H120912   7.715   2.723   0.486 -0.9895  0.5760 -1.0618
 6985TIP3    H220913   7.601   2.807   0.539 -0.8575  0.2288 -0.2149
 6986TIP3   OH220914   6.613   7.659   0.174  0.3254 -0.0835  0.7053
 6986TIP3    H120915   6.618   7.686   0.265  1.4508 -0.9146  0.9063
 6986TIP3    H220916   6.647   7.569   0.173  1.0343  0.1699 -0.6362
 6987TIP3   OH220917   4.111   5.861   5.844  0.0141 -0.7398  0.2118
 6987TIP3    H120918   4.154   5.776   5.846 -0.1335 -0.8248 -0.1185
 6987TIP3    H220919   4.173   5.918   5.799  0.3653 -0.5256  0.9542
 6988TIP3   OH220920   5.526   2.278   1.589 -0.0311  0.0131  0.5068
 6988TIP3    H120921   5.489   2.190   1.575  0.8774 -0.4961  1.1970
 6988TIP3    H220922   5.608   2.262   1.634 -0.5321  1.3080  1.9604
 6989TIP3   OH220923   6.748   1.961   3.945 -0.1623  0.6605  0.1220
 6989TIP3    H120924   6.826   1.913   3.973 -0.6125  0.5244  1.1812
 6989TIP3    H220925   6.692   1.963   4.022 -0.6565  1.8871 -0.2458
 6990TIP3   OH220926   3.479   4.938   0.559 -0.2788 -0.2226  0.1213
 6990TIP3    H120927   3.467   4.973   0.647 -2.9470 -0.0234 -0.2527
 6990TIP3    H220928   3.391   4.919   0.528  0.5748 -0.2517 -2.5465
 6991TIP3   OH220929   2.949   6.434   6.438 -0.4138  0.9155  0.4700
 6991TIP3    H120930   2.866   6.461   6.398 -0.1917  1.0011  0.0618
 6991TIP3    H220931   2.923   6.384   6.515 -0.8577 -0.1255 -0.3371
 6992TIP3   OH220932   8.163   0.373   2.484 -0.3587  0.2736  0.1343
 6992TIP3    H120933   8.169   0.354   2.390 -1.5391  1.2144 -0.1520
 6992TIP3    H220934   8.070   0.370   2.504 -0.0091 -3.1810  2.0328
 6993TIP3   OH220935   2.958   6.223   2.208 -0.1864 -0.1491  0.2736
 6993TIP3    H120936   2.892   6.292   2.214  0.2098  0.1764  1.1377
 6993TIP3    H220937   2.923   6.151   2.261 -0.8003 -0.7966 -0.9836
 6994TIP3   OH220938   3.122   2.862   6.006 -0.2488 -0.2739 -0.1662
 6994TIP3    H120939   3.097   2.933   6.065 -1.0504 -1.7253  1.3238
 6994TIP3    H220940   3.071   2.787   6.036 -0.2939 -1.2180 -2.4099
 6995TIP3   OH220941   8.032   0.584   6.411 -0.5516 -0.7211 -0.2629
 6995TIP3    H120942   8.014   0.558   6.321  2.5387 -4.4016 -0.0468
 6995TIP3    H220943   8.100   0.651   6.403 -1.4816  0.2029 -0.6369
 6996TIP3   OH220944   3.292   0.068   1.100  0.4467  0.2551 -0.2010
 6996TIP3    H120945   3.273  -0.010   1.048 -0.6632  0.4961 -0.1877
 6996TIP3    H220946   3.255   0.140   1.050  1.5949  0.8093 -0.2814
 6997TIP3   OH220947   1.663   5.349   6.272  0.8781 -0.2530  0.0859
 6997TIP3    H120948   1.725   5.287   6.236  0.9833 -1.0720  1.5828
 6997TIP3    H220949   1.627   5.305   6.350 -1.5991  0.1701 -0.7199
 6998TIP3   OH220950   2.852   7.781   1.497  0.0780  0.8326 -0.5063
 6998TIP3    H120951   2.943   7.774   1.469 -0.4034  1.9845 -2.6550
 6998TIP3    H220952   2.853   7.847   1.567  1.1970 -1.3089  1.6286
 6999TIP3   OH220953   6.021   1.481   1.037  0.5166 -0.2715  0.2871
 6999TIP3    H120954   6.058   1.561   1.074  1.1125 -0.3719 -0.0729
 6999TIP3    H220955   6.075   1.411   1.073 -0.1510 -0.5385  0.7868
 7000TIP3   OH220956   3.316   6.170   1.472 -0.5759 -0.0993 -0.2293
 7000TIP3    H120957   3.281   6.105   1.533 -0.5617 -0.6081 -0.7569
 7000TIP3    H220958   3.266   6.158   1.392  0.2878 -0.3341 -0.7471
 7001TIP3   OH220959   6.209   6.997   5.078  0.2092 -0.1145  0.3164
 7001TIP3    H120960   6.244   7.023   5.163  3.2225  0.6676 -1.0379
 7001TIP3    H220961   6.230   7.070   5.020 -0.7034 -1.1217 -1.3642
 7002TIP3   OH220962   5.310   4.235   5.709 -0.4436  0.6410  0.4063
 7002TIP3    H120963   5.270   4.149   5.697 -1.7665  1.2809  0.0703
 7002TIP3    H220964   5.289   4.260   5.799  0.8470  0.1809  0.8583
 7003TIP3   OH220965   5.205   7.796   0.102  0.2128  0.0541  0.3686
 7003TIP3    H120966   5.243   7.754   0.025 -1.7610 -0.6675 -0.2601
 7003TIP3    H220967   5.270   7.862   0.127  0.5332  0.9215 -2.4404
 7004TIP3   OH220968   6.833   3.196   1.692 -0.7217  0.1219 -0.1597
 7004TIP3    H120969   6.881   3.148   1.760 -0.1459  0.4224 -0.3536
 7004TIP3    H220970   6.796   3.127   1.637 -0.6316 -0.1143  0.0698
 7005TIP3   OH220971   7.698   6.050   1.323 -0.1002  0.5059 -0.6264
 7005TIP3    H120972   7.681   6.096   1.405  1.0643 -0.4614  0.2018
 7005TIP3    H220973   7.619   5.999   1.307  1.3825 -3.4697  2.8143
 7006TIP3   OH220974   7.614   0.877   2.121  0.1212 -0.1923  0.0130
 7006TIP3    H120975   7.622   0.902   2.213  0.7729  0.8069 -0.2932
 7006TIP3    H220976   7.668   0.798   2.113  0.5882  0.0879  0.3550
 7007TIP3   OH220977   3.828   1.249   0.076  0.1817  0.4467 -0.1382
 7007TIP3    H120978   3.837   1.308   0.151 -0.1156 -0.9921  1.0767
 7007TIP3    H220979   3.905   1.192   0.081 -0.7353 -0.8224  0.1713
 7008TIP3   OH220980   4.525   2.830   1.196  0.1752 -0.7495 -0.4527
 7008TIP3    H120981   4.492   2.910   1.235  0.7116  0.3769 -2.2083
 7008TIP3    H220982   4.511   2.763   1.263  1.0371  1.0448  1.6395
 7009TIP3   OH220983   8.167   6.218   3.990 -0.2589 -0.0557  0.0123
 7009TIP3    H120984   8.090   6.221   4.046 -0.8692  0.2000 -0.8140
 7009TIP3    H220985   8.176   6.308   3.958  0.1002 -0.1920 -0.2713
 7010TIP3   OH220986   1.226   7.525   2.758 -0.0405  0.0273  0.1772
 7010TIP3    H120987   1.314   7.495   2.777  0.2046  1.1919  0.9636
 7010TIP3    H220988   1.177   7.510   2.839 -0.5431 -0.5017 -0.2136
 7011TIP3   OH220989   5.841   2.296   5.963  0.7320  0.3279 -0.5184
 7011TIP3    H120990   5.862   2.368   6.023  1.5331  1.9267 -2.6010
 7011TIP3    H220991   5.919   2.240   5.965  0.6227  0.1967  0.1701
 7012TIP3   OH220992   0.035   7.643   4.834  0.0561  0.1732  0.1180
 7012TIP3    H120993  -0.046   7.694   4.827 -1.7785 -2.6923 -1.0382
 7012TIP3    H220994   0.014   7.571   4.892  2.2669  0.0791  0.9091
 7013TIP3   OH220995   5.231   1.953   0.442 -0.4134 -0.1475 -0.0868
 7013TIP3    H120996   5.166   1.895   0.483  0.7783  0.2518  2.5721
 7013TIP3    H220997   5.279   1.895   0.382 -2.2607 -0.7591 -1.0584
 7014TIP3   OH220998   7.245   7.698   1.343  0.2547 -0.4308 -0.0355
 7014TIP3    H120999   7.151   7.682   1.335  0.1920 -0.8093  1.1999
 7014TIP3    H221000   7.284   7.648   1.272 -0.5757  1.2324 -1.7653
 7015TIP3   OH221001   4.861   3.589   4.579 -0.0405  0.4309 -0.7480
 7015TIP3    H121002   4.771   3.608   4.552 -0.5532 -0.0056  0.5675
 7015TIP3    H221003   4.915   3.640   4.519 -1.2083  1.8142 -0.6831
 7016TIP3   OH221004   6.858   3.787   2.213 -0.7581  0.3297  0.4533
 7016TIP3    H121005   6.953   3.782   2.204 -0.6426  0.7297  1.4291
 7016TIP3    H221006   6.837   3.724   2.282 -1.3223 -0.4819 -0.4214
 7017TIP3   OH221007   3.766   5.814   3.900 -0.1639 -0.8608 -0.4136
 7017TIP3    H121008   3.745   5.742   3.960 -2.8809 -0.3679 -0.6444
 7017TIP3    H221009   3.827   5.869   3.950 -2.1679 -0.5616  1.9012
 7018TIP3   OH221010   7.209   4.764   0.978 -0.1348  0.2849 -0.0810
 7018TIP3    H121011   7.288   4.732   1.022 -0.2316 -0.4285 -0.4126
 7018TIP3    H221012   7.143   4.698   0.996 -0.7449  1.0102  0.4208
 7019TIP3   OH221013   3.561   6.514   6.155 -0.0773 -0.3448  0.1551
 7019TIP3    H121014   3.604   6.565   6.224  0.2570 -0.7514  0.2565
 7019TIP3    H221015   3.528   6.436   6.201  0.1031 -0.5938 -0.1332
 7020TIP3   OH221016   5.696   3.453   1.144  0.0948 -0.3291 -0.2235
 7020TIP3    H121017   5.630   3.385   1.160 -1.0343  1.2262  2.2929
 7020TIP3    H221018   5.646   3.527   1.108  0.5049  0.7084  1.2711
 7021TIP3   OH221019   7.438   6.008   5.575 -0.0715  0.6506 -0.2952
 7021TIP3    H121020   7.396   6.091   5.551 -0.0650  0.8043  0.2219
 7021TIP3    H221021   7.456   6.016   5.669  0.2876  0.2195 -0.3242
 7022TIP3   OH221022   5.989   3.460   2.816  0.3165 -0.5397 -0.3622
 7022TIP3    H121023   5.903   3.488   2.848  0.9636  1.2991 -0.1428
 7022TIP3    H221024   6.028   3.413   2.889  1.3665  2.7212  1.3557
 7023TIP3   OH221025   7.140   1.153   3.415  0.0318  0.1224 -0.3703
 7023TIP3    H121026   7.232   1.167   3.395  0.6700  0.1897  2.1910
 7023TIP3    H221027   7.105   1.241   3.431 -0.8412  0.2145 -2.4631
 7024TIP3   OH221028   1.369   1.194   5.420  0.0303  0.1116 -0.6613
 7024TIP3    H121029   1.278   1.219   5.432  0.1625  0.3887 -0.2089
 7024TIP3    H221030   1.380   1.116   5.475  0.4918  1.0558  0.6383
 7025TIP3   OH221031   1.345   7.045   5.198 -0.3805 -0.0636  0.4196
 7025TIP3    H121032   1.333   6.958   5.161  0.5495 -0.8874  1.9634
 7025TIP3    H221033   1.263   7.064   5.244  0.4944 -1.4967  2.7069
 7026TIP3   OH221034   2.316   6.421   3.238 -0.1095  0.2527  0.5982
 7026TIP3    H121035   2.312   6.351   3.173  0.6935  0.2276  0.5637
 7026TIP3    H221036   2.256   6.488   3.206  0.1636  0.1731 -0.0888
 7027TIP3   OH221037   2.282   5.073   5.103  0.2632  0.4473 -0.0820
 7027TIP3    H121038   2.239   4.987   5.107 -1.6900  1.3782 -0.1832
 7027TIP3    H221039   2.319   5.077   5.015 -1.8873  0.6878 -1.0377
 7028TIP3   OH221040   1.144   6.939   0.831 -0.1058  0.2042 -0.1714
 7028TIP3    H121041   1.099   6.867   0.787  1.4415 -1.1502  0.3876
 7028TIP3    H221042   1.078   6.975   0.891 -0.5976 -1.4035  0.2894
 7029TIP3   OH221043   0.907   4.612   4.428  0.0275 -0.0203 -0.1017
 7029TIP3    H121044   0.903   4.682   4.494 -1.6676 -0.7933  0.6606
 7029TIP3    H221045   0.837   4.552   4.453  0.0954 -0.9189 -1.9685
 7030TIP3   OH221046   0.959   5.153   2.000  0.3943 -0.3617 -0.0147
 7030TIP3    H121047   0.941   5.079   1.943  1.1187 -0.4070 -0.1953
 7030TIP3    H221048   0.895   5.219   1.975 -0.4851 -1.0405  0.3857
 7031TIP3   OH221049   3.313   7.202   3.722  0.0750  0.0400 -0.2817
 7031TIP3    H121050   3.398   7.159   3.719  0.6590  1.1935 -0.7290
 7031TIP3    H221051   3.317   7.269   3.654 -1.5282 -0.4848 -0.9341
 7032TIP3   OH221052   7.900   7.225   4.183  0.1753  0.0497 -0.3309
 7032TIP3    H121053   7.931   7.170   4.111  2.4079  0.8725 -0.0744
 7032TIP3    H221054   7.930   7.313   4.160 -0.0931  0.5241  1.0440
 7033TIP3   OH221055   7.575   6.613   6.339 -0.0739 -0.8604  0.0825
 7033TIP3    H121056   7.506   6.673   6.366  0.9476 -0.0857  1.1077
 7033TIP3    H221057   7.543   6.526   6.362 -0.0920 -0.3876  1.9826
 7034TIP3   OH221058   6.081   1.789   2.105  0.0197  1.0542 -0.2246
 7034TIP3    H121059   6.091   1.880   2.130  0.9836  0.8596  0.1445
 7034TIP3    H221060   6.145   1.742   2.159 -1.7106 -0.0855  0.9645
 7035TIP3   OH221061   6.256   1.330   6.179  0.7123 -0.1012 -0.3693
 7035TIP3    H121062   6.275   1.411   6.131 -2.0209  0.0433 -1.3895
 7035TIP3    H221063   6.208   1.358   6.257 -0.9601 -0.7026 -1.1261
 7036TIP3   OH221064   7.725   2.219   5.163 -0.2619  0.3233  0.0381
 7036TIP3    H121065   7.652   2.280   5.166 -2.2835 -1.9672  1.5815
 7036TIP3    H221066   7.800   2.272   5.136 -2.1045  3.1562  0.0792
 7037TIP3   OH221067   0.820   0.845   3.074  0.2934  0.0019  0.1947
 7037TIP3    H121068   0.912   0.827   3.056  0.5309  1.8897 -0.7239
 7037TIP3    H221069   0.820   0.891   3.158  0.1503 -0.1480  0.2794
 7038TIP3   OH221070   7.082   2.760   0.263 -0.2293  0.0448  0.1936
 7038TIP3    H121071   7.108   2.670   0.246  1.1471  0.6030 -0.8261
 7038TIP3    H221072   7.162   2.811   0.250 -1.3742  1.6283 -1.0409
 7039TIP3   OH221073   4.308   3.373   5.356 -0.8016 -0.1186 -0.1181
 7039TIP3    H121074   4.250   3.301   5.383  0.3972 -1.2947 -0.5727
 7039TIP3    H221075   4.330   3.353   5.265 -0.3858  0.7972 -0.2294
 7040TIP3   OH221076   4.618   5.212   1.495 -0.2071 -0.0279 -0.2856
 7040TIP3    H121077   4.524   5.230   1.506 -0.2239  0.0072 -0.4849
 7040TIP3    H221078   4.631   5.127   1.537  0.0957  0.9587  1.7555
 7041TIP3   OH221079   3.328   7.770   4.312  0.5159 -0.3258 -0.0113
 7041TIP3    H121080   3.279   7.816   4.244 -1.9369 -2.8015 -0.1117
 7041TIP3    H221081   3.312   7.821   4.391  0.6233  0.7493 -0.6519
 7042TIP3   OH221082   2.336   6.859   0.938 -0.0876 -0.4387  0.0437
 7042TIP3    H121083   2.383   6.803   1.000  0.5332 -0.1880 -0.1857
 7042TIP3    H221084   2.293   6.925   0.993  1.2867  0.3964  0.1769
 7043TIP3   OH221085   1.965   6.887   3.955 -0.3622 -0.1412 -0.2157
 7043TIP3    H121086   2.013   6.875   3.873  0.0047  0.8599 -0.1557
 7043TIP3    H221087   1.899   6.953   3.936 -0.8335 -0.5201  0.0741
 7044TIP3   OH221088   6.682   2.354   5.222 -0.4559 -0.0148  0.2311
 7044TIP3    H121089   6.746   2.283   5.226  0.5900  0.8736 -0.4799
 7044TIP3    H221090   6.727   2.425   5.177 -1.4851  1.1223  0.9459
 7045TIP3   OH221091   0.297   2.155   4.080 -0.0204 -0.4804 -0.2499
 7045TIP3    H121092   0.349   2.191   4.151  0.9629 -0.5583 -0.9115
 7045TIP3    H221093   0.206   2.171   4.106  0.3366  0.0107  0.7367
 7046TIP3   OH221094   7.008   0.502   0.828 -0.0465  0.2353 -0.0562
 7046TIP3    H121095   7.098   0.472   0.842 -0.0521  0.1282 -0.2548
 7046TIP3    H221096   7.005   0.588   0.870  0.5629  0.9092 -1.3600
 7047TIP3   OH221097   7.653   3.719   3.218 -0.5276  0.5148 -0.0021
 7047TIP3    H121098   7.716   3.790   3.206 -0.7900  0.5153 -1.7872
 7047TIP3    H221099   7.634   3.718   3.312  0.3820  2.0237  0.2273
 7048TIP3   OH221100   1.573   7.000   3.053 -0.2638  0.4451 -0.2180
 7048TIP3    H121101   1.533   7.081   3.021 -0.2675  0.9152  0.9148
 7048TIP3    H221102   1.644   6.982   2.992 -1.3386  0.3358 -1.4963
 7049TIP3   OH221103   0.471   3.701   3.118  0.2043  0.1018  0.1804
 7049TIP3    H121104   0.565   3.691   3.132 -0.1267 -1.4601  1.5232
 7049TIP3    H221105   0.447   3.777   3.171  0.7077  0.5124 -0.1751
 7050TIP3   OH221106   4.874   1.095   0.577  0.1622  0.2249 -0.5241
 7050TIP3    H121107   4.827   1.140   0.506  0.5385  0.8393 -0.3930
 7050TIP3    H221108   4.817   1.106   0.654 -1.2321 -2.1543 -1.1087
 7051TIP3   OH221109   2.895   6.075   5.241 -0.3402 -0.1424  0.9532
 7051TIP3    H121110   2.988   6.071   5.267  0.2190 -2.8410 -0.9754
 7051TIP3    H221111   2.896   6.118   5.156 -0.9672  0.4277  1.2315
 7052TIP3   OH221112   4.742   7.224   3.708  0.4256  0.5641  0.5005
 7052TIP3    H121113   4.699   7.297   3.664  1.5337  0.3352 -1.0374
 7052TIP3    H221114   4.747   7.156   3.641  1.2346 -0.1896  1.3085
 7053TIP3   OH221115   3.893   1.096   6.501 -0.1226 -0.1045 -0.1000
 7053TIP3    H121116   3.880   1.123   6.591  0.4702  0.9696 -0.3249
 7053TIP3    H221117   3.854   1.166   6.449 -1.8576 -1.4361 -0.6947
 7054TIP3   OH221118   8.092   5.191   4.715 -0.7673 -0.1532  0.0898
 7054TIP3    H121119   8.087   5.286   4.720 -1.1819 -0.1256 -0.5964
 7054TIP3    H221120   8.131   5.164   4.797 -0.4155  0.6298  0.1865
 7055TIP3   OH221121   5.467   4.220   1.344 -0.1808  0.2977 -0.0547
 7055TIP3    H121122   5.510   4.306   1.344 -0.1673  0.2957  0.3706
 7055TIP3    H221123   5.535   4.158   1.321 -0.2011  0.4065 -0.4107
 7056TIP3   OH221124   8.180   7.039   4.245  0.5930 -0.1210  0.5714
 7056TIP3    H121125   8.223   7.088   4.175 -1.4807 -2.1834 -2.4202
 7056TIP3    H221126   8.122   7.103   4.287 -0.0384  0.6459 -1.3767
 7057TIP3   OH221127   2.908   4.410   2.597 -0.3437  0.5556 -0.1967
 7057TIP3    H121128   2.895   4.465   2.520 -2.2957  0.3721 -0.0693
 7057TIP3    H221129   2.976   4.348   2.571 -0.7667  0.6659 -1.6887
 7058TIP3   OH221130   4.296   7.082   4.305 -0.2850 -0.3142 -0.3527
 7058TIP3    H121131   4.357   7.098   4.233 -1.6217  0.9645 -1.2606
 7058TIP3    H221132   4.327   7.000   4.344 -0.3611 -1.9054 -3.3069
 7059TIP3   OH221133   6.890   7.189   3.643 -0.1474 -0.1180 -0.1233
 7059TIP3    H121134   6.850   7.153   3.564  0.6422 -0.7864 -0.2388
 7059TIP3    H221135   6.930   7.271   3.614 -0.8693  0.2313 -0.1461
 7060TIP3   OH221136   7.789   6.235   3.784 -0.2756 -0.2065  0.2016
 7060TIP3    H121137   7.852   6.240   3.855 -1.2899 -0.2393  1.1405
 7060TIP3    H221138   7.825   6.170   3.724  1.3375  0.9178 -0.1038
 7061TIP3   OH221139   6.273   2.787   5.566  0.1567 -0.3161 -0.2721
 7061TIP3    H121140   6.294   2.807   5.475  0.9117  0.4066  0.0435
 7061TIP3    H221141   6.299   2.866   5.614 -1.6992 -0.0506  0.3866
 7062TIP3   OH221142   6.722   4.903   4.649 -0.6842  0.2238 -0.3134
 7062TIP3    H121143   6.726   4.996   4.673  1.4205  0.9895 -3.0896
 7062TIP3    H221144   6.805   4.867   4.680 -0.2581 -0.0122 -1.6822
 7063TIP3   OH221145   0.528   6.861   2.276 -0.7917 -0.4597 -0.2899
 7063TIP3    H121146   0.574   6.943   2.262 -0.0629 -0.7912  0.1272
 7063TIP3    H221147   0.436   6.886   2.286 -0.7236  0.1907 -1.2376
 7064TIP3   OH221148   8.339   6.475   1.059 -0.6862 -0.3759  0.0645
 7064TIP3    H121149   8.306   6.448   0.973 -0.9594  1.8980 -0.6103
 7064TIP3    H221150   8.267   6.457   1.119 -0.8710 -1.0453 -0.3535
 7065TIP3   OH221151   1.443   5.714   5.701  0.2967  0.0545  0.2265
 7065TIP3    H121152   1.445   5.677   5.789 -0.0373 -0.0078  0.2119
 7065TIP3    H221153   1.404   5.801   5.712 -2.0909 -0.8857 -0.1569
 7066TIP3   OH221154   5.616   5.207   2.661 -0.4000  0.3446 -0.5058
 7066TIP3    H121155   5.573   5.278   2.709 -0.8437  1.2093 -2.1177
 7066TIP3    H221156   5.710   5.221   2.676 -0.5566 -0.3602  1.3865
 7067TIP3   OH221157   4.351   3.907   3.937  0.6396  0.5272  0.1462
 7067TIP3    H121158   4.313   3.839   3.992  1.3939  0.0364  0.0814
 7067TIP3    H221159   4.367   3.980   3.996 -0.8566  0.9328  0.0729
 7068TIP3   OH221160   7.335   1.387   4.072  0.0844  0.1587 -0.7625
 7068TIP3    H121161   7.366   1.397   3.982  3.9115 -1.8809  0.1366
 7068TIP3    H221162   7.409   1.412   4.126 -2.1964  1.5882  1.9593
 7069TIP3   OH221163   4.482   1.150   2.250  0.6433 -0.1801 -0.2344
 7069TIP3    H121164   4.478   1.070   2.197  0.7713 -0.1476 -0.2934
 7069TIP3    H221165   4.414   1.138   2.316  0.4220 -0.1839 -0.4600
 7070TIP3   OH221166   2.007   1.657   4.742 -0.1405 -0.5065 -0.0079
 7070TIP3    H121167   1.936   1.713   4.712  0.2585  0.2544  0.4384
 7070TIP3    H221168   2.021   1.682   4.833 -0.1355 -1.5281  0.2859
 7071TIP3   OH221169   4.421   2.912   2.984 -0.3327  0.1675 -0.0893
 7071TIP3    H121170   4.372   2.873   2.911 -0.8861  0.9176 -0.1312
 7071TIP3    H221171   4.509   2.925   2.949  0.6925 -3.5057  0.7623
 7072TIP3   OH221172   4.146   1.483   6.336  0.1778 -0.2614  0.0193
 7072TIP3    H121173   4.092   1.453   6.410 -0.3774 -0.0467 -0.2906
 7072TIP3    H221174   4.208   1.544   6.375 -1.4096  1.4325  0.0388
 7073TIP3   OH221175   1.527   2.029   2.009 -0.4064 -0.1789  0.6758
 7073TIP3    H121176   1.460   2.081   1.966  0.1612  1.3909  1.5790
 7073TIP3    H221177   1.607   2.082   2.002  0.2168 -0.9436  1.6051
 7074TIP3   OH221178   3.974   7.355   2.894 -0.1102  0.4579 -0.1299
 7074TIP3    H121179   4.049   7.295   2.895  1.6696  2.5497 -0.4134
 7074TIP3    H221180   3.940   7.352   2.983 -0.6657 -1.5944 -0.3479
 7075TIP3   OH221181   4.322   2.121   0.013  0.5550 -0.2793  0.0870
 7075TIP3    H121182   4.262   2.107   0.086  1.5684 -0.0542  1.0041
 7075TIP3    H221183   4.318   2.215  -0.003  2.0832  0.0634  1.4724
 7076TIP3   OH221184   1.432   1.403   4.232  0.1912  0.3637 -0.0503
 7076TIP3    H121185   1.386   1.478   4.270  0.8110  0.1295  1.2173
 7076TIP3    H221186   1.416   1.410   4.138  0.3246  2.1305  0.0353
 7077TIP3   OH221187   8.166   0.361   2.848  0.3872 -0.1786 -0.1061
 7077TIP3    H121188   8.227   0.408   2.791  0.3688  0.2606  0.2369
 7077TIP3    H221189   8.186   0.393   2.936  0.6320 -1.0794  0.1807
 7078TIP3   OH221190   0.820   5.842   3.147  0.8913 -0.0351  0.0927
 7078TIP3    H121191   0.729   5.864   3.168  0.7414 -1.5134  1.1141
 7078TIP3    H221192   0.849   5.914   3.090 -0.0637  1.9221  1.9172
 7079TIP3   OH221193   2.468   1.091   4.950 -0.1333 -0.3811  0.0884
 7079TIP3    H121194   2.428   1.105   4.865 -0.3408 -4.0099 -0.5488
 7079TIP3    H221195   2.556   1.058   4.931 -0.3245 -1.6300  1.2429
 7080TIP3   OH221196   6.285   4.870   3.184 -0.4349  0.3346  0.0252
 7080TIP3    H121197   6.232   4.815   3.243  0.5080 -0.0650  0.5246
 7080TIP3    H221198   6.371   4.874   3.226  0.8829 -1.5477 -2.2189
 7081TIP3   OH221199   2.998   6.079   2.846  0.2068  1.2655 -0.0987
 7081TIP3    H121200   2.987   6.166   2.808  1.5854  1.3111 -0.4510
 7081TIP3    H221201   3.086   6.052   2.820 -0.1686 -0.2197  0.0443
 7082TIP3   OH221202   5.397   1.838   1.945 -0.0038 -0.6532 -0.1627
 7082TIP3    H121203   5.388   1.771   1.878  2.9535 -0.9415 -0.3813
 7082TIP3    H221204   5.482   1.822   1.984  1.2673  3.4291 -0.7742
 7083TIP3   OH221205   6.269   4.978   6.368 -0.0126  0.7212  0.0499
 7083TIP3    H121206   6.277   4.884   6.357 -0.8256  0.6626 -0.0862
 7083TIP3    H221207   6.359   5.010   6.366  0.3308 -0.1532  1.0989
 7084TIP3   OH221208   0.236   1.702   5.598  0.3874  0.2944  0.0643
 7084TIP3    H121209   0.264   1.685   5.688 -2.0730  0.1483  0.8605
 7084TIP3    H221210   0.286   1.639   5.546 -1.4000 -2.8781  1.8834
 7085TIP3   OH221211   4.040   6.307   5.950  0.3649 -0.0605 -0.2691
 7085TIP3    H121212   3.978   6.234   5.946 -1.5799  1.4803 -0.4172
 7085TIP3    H221213   4.017   6.361   5.874  2.8335 -0.0634 -1.0977
 7086TIP3   OH221214   2.674   7.247   1.255 -0.3549 -0.0367  0.5296
 7086TIP3    H121215   2.657   7.168   1.307  0.0052 -1.3759 -1.2797
 7086TIP3    H221216   2.607   7.245   1.187  0.3322  0.6214 -0.1867
 7087TIP3   OH221217   3.660   5.775   0.791 -0.1305  0.0036  1.1471
 7087TIP3    H121218   3.723   5.829   0.838  2.4166 -1.3261 -0.5202
 7087TIP3    H221219   3.653   5.816   0.704 -0.5940 -0.5529  0.9141
 7088TIP3   OH221220   5.837   3.400   5.928  0.3600  0.0167 -0.1465
 7088TIP3    H121221   5.900   3.447   5.874 -1.0207  1.5417 -0.5080
 7088TIP3    H221222   5.773   3.466   5.953 -0.8670 -1.3853  0.5678
 7089TIP3   OH221223   2.120   1.376   0.876 -0.2648 -0.6860 -0.1485
 7089TIP3    H121224   2.128   1.284   0.900 -0.8456 -0.8031 -0.3649
 7089TIP3    H221225   2.197   1.418   0.913 -0.3468 -1.1376  0.5562
 7090TIP3   OH221226   0.040   0.440   6.028  0.3669  0.1054 -0.6969
 7090TIP3    H121227   0.059   0.389   6.107  1.0292 -0.5686 -1.2774
 7090TIP3    H221228  -0.008   0.379   5.972  1.5519 -0.0496 -1.5788
 7091TIP3   OH221229   3.604   1.447   3.031 -0.1237 -0.6174 -0.0936
 7091TIP3    H121230   3.658   1.373   3.059  0.8664  0.5172  1.1601
 7091TIP3    H221231   3.564   1.479   3.112 -1.7668 -0.7097 -0.8452
 7092TIP3   OH221232   5.036   0.700   3.158  0.3506 -0.1390 -0.1740
 7092TIP3    H121233   5.109   0.639   3.170 -1.1127 -1.7829  0.9053
 7092TIP3    H221234   5.015   0.729   3.247 -2.3699 -2.3295  0.0292
 7093TIP3   OH221235   1.128   1.247   4.151 -0.2675 -0.4121 -0.2855
 7093TIP3    H121236   1.191   1.190   4.106 -0.1749 -0.2343 -0.3801
 7093TIP3    H221237   1.044   1.202   4.142  0.0954 -1.4769  1.2238
 7094TIP3   OH221238   4.867   0.572   6.102 -0.2041 -0.5954 -0.5944
 7094TIP3    H121239   4.842   0.648   6.049  0.2746 -1.5759 -2.3170
 7094TIP3    H221240   4.790   0.516   6.101 -0.3022 -0.4768  0.0436
 7095TIP3   OH221241   4.837   3.609   2.649  0.3441 -0.2799 -0.6892
 7095TIP3    H121242   4.829   3.695   2.690 -0.1071 -0.9586  0.7331
 7095TIP3    H221243   4.815   3.623   2.557 -0.6829  0.9474 -0.2790
 7096TIP3   OH221244   0.072   2.807   4.603  0.2307  0.3335  0.1301
 7096TIP3    H121245   0.040   2.815   4.693 -0.9198  0.5405 -0.2768
 7096TIP3    H221246  -0.006   2.818   4.549  1.0006  0.8773 -0.9198
 7097TIP3   OH221247   6.653   7.091   5.421 -0.3723 -0.5472  0.4377
 7097TIP3    H121248   6.642   7.186   5.422 -0.1932 -0.4297 -2.1062
 7097TIP3    H221249   6.575   7.058   5.377 -0.1683 -1.5505  0.7984
 7098TIP3   OH221250   7.749   5.549   2.401 -0.0492 -0.5896  0.1124
 7098TIP3    H121251   7.767   5.521   2.311  0.6505 -1.0603  0.3839
 7098TIP3    H221252   7.744   5.467   2.450  0.8059 -0.3018  0.7086
 7099TIP3   OH221253   3.156   7.174   4.321 -0.1136  0.2521 -0.0993
 7099TIP3    H121254   3.194   7.172   4.233  0.7710  0.9988  0.2518
 7099TIP3    H221255   3.165   7.265   4.349 -0.9504  0.1513  0.5291
 7100TIP3   OH221256   2.623   4.279   3.576 -0.0260 -0.1914  0.9082
 7100TIP3    H121257   2.578   4.322   3.503 -0.6450 -0.3101  1.2144
 7100TIP3    H221258   2.580   4.313   3.655  0.1330 -0.6260  1.1875
 7101TIP3   OH221259   2.997   3.719   0.702 -0.2711 -0.2890 -0.6095
 7101TIP3    H121260   3.076   3.774   0.705  1.9279 -3.2761  1.2471
 7101TIP3    H221261   3.021   3.646   0.645 -1.6905 -1.2731  0.0010
 7102TIP3   OH221262   7.234   4.140   2.446  0.1618  0.0333  0.0906
 7102TIP3    H121263   7.175   4.119   2.518 -0.3981  2.2269  0.3539
 7102TIP3    H221264   7.316   4.097   2.469 -0.1149  0.3805  1.8654
 7103TIP3   OH221265   6.676   2.936   2.097  0.2733  0.3106 -0.2419
 7103TIP3    H121266   6.746   2.880   2.130  0.6187  1.0142  0.2666
 7103TIP3    H221267   6.674   2.921   2.003  1.3161  0.5023 -0.3006
 7104TIP3   OH221268   2.328   2.196   3.211  0.5768 -0.2824 -0.5181
 7104TIP3    H121269   2.342   2.234   3.298 -3.0509 -1.7195  0.9009
 7104TIP3    H221270   2.276   2.261   3.165  1.6774  0.0535 -1.3305
 7105TIP3   OH221271   5.060   4.551   1.625  0.3327 -0.2924  0.2841
 7105TIP3    H121272   5.064   4.556   1.720  1.3520  1.6682  0.1744
 7105TIP3    H221273   4.968   4.570   1.604 -0.2622 -2.2503  0.8911
 7106TIP3   OH221274   4.260   2.963   1.265  0.2902 -0.3510 -0.5243
 7106TIP3    H121275   4.241   2.872   1.244 -0.0400 -0.4659  0.2357
 7106TIP3    H221276   4.202   3.013   1.207 -1.0662 -0.6750  0.4940
 7107TIP3   OH221277   2.753   3.876   6.002 -0.6599 -0.5782  0.3678
 7107TIP3    H121278   2.756   3.799   6.058  1.1455 -0.4827  0.4514
 7107TIP3    H221279   2.661   3.881   5.973 -1.2067 -1.6978  1.7925
 7108TIP3   OH221280   0.984   5.291   6.600  0.3643  0.6149 -0.7333
 7108TIP3    H121281   1.068   5.280   6.644  0.6999  2.1683 -0.9586
 7108TIP3    H221282   0.991   5.235   6.523 -1.2292 -4.3928  2.2535
 7109TIP3   OH221283   5.395   7.515   0.504 -0.0078 -1.2616  0.3766
 7109TIP3    H121284   5.368   7.593   0.455  2.0167 -0.8207 -0.1221
 7109TIP3    H221285   5.356   7.527   0.590 -1.2718 -0.6400 -0.2495
 7110TIP3   OH221286   5.010   0.016   0.803 -0.5829  0.1739 -0.0017
 7110TIP3    H121287   4.922  -0.021   0.798 -0.4839 -0.0916  0.2403
 7110TIP3    H221288   5.037   0.026   0.712 -0.1299 -1.4955 -0.0731
 7111TIP3   OH221289   1.103   7.179   1.357  0.2341  0.0383  0.1818
 7111TIP3    H121290   1.022   7.217   1.391  0.6569  0.2984  0.9155
 7111TIP3    H221291   1.105   7.205   1.265 -1.5866 -1.7607 -0.4464
 7112TIP3   OH221292   0.036   0.417   4.743  0.3447  0.0324 -0.3335
 7112TIP3    H121293  -0.021   0.426   4.819  2.8047 -3.4006  2.1938
 7112TIP3    H221294   0.105   0.482   4.756 -0.4255  1.0148 -0.9578
 7113TIP3   OH221295   2.115   2.656   4.353  0.0355  0.3581 -0.4096
 7113TIP3    H121296   2.108   2.671   4.447 -1.5271  1.9163 -0.7074
 7113TIP3    H221297   2.024   2.646   4.324  0.5693 -1.7902 -1.5412
 7114TIP3   OH221298   7.502   1.331   6.761  0.0464 -0.6529  0.1744
 7114TIP3    H121299   7.481   1.382   6.683 -1.4248  0.7617  1.4467
 7114TIP3    H221300   7.559   1.387   6.813  1.0476 -1.5983  0.1440
 7115TIP3   OH221301   5.307   6.625   6.469 -0.3454  0.4353 -0.1452
 7115TIP3    H121302   5.354   6.612   6.551 -1.5209 -1.9603  0.2616
 7115TIP3    H221303   5.366   6.593   6.401 -0.9082 -1.6448  0.2666
 7116TIP3   OH221304   6.276   2.714   2.786 -0.5197 -0.2991  0.9380
 7116TIP3    H121305   6.295   2.775   2.714 -2.0728 -0.7618  0.1056
 7116TIP3    H221306   6.218   2.763   2.844 -1.2326 -0.7491  0.6110
 7117TIP3   OH221307   7.745   1.270   2.774  0.4213 -0.4185  0.1377
 7117TIP3    H121308   7.678   1.218   2.818 -1.6790  1.4021 -0.6924
 7117TIP3    H221309   7.774   1.216   2.701 -0.7251 -0.9619  0.0656
 7118TIP3   OH221310   0.709   2.391   2.120  0.4949  0.1693 -0.1402
 7118TIP3    H121311   0.630   2.352   2.157  0.8918  0.2764  0.8501
 7118TIP3    H221312   0.680   2.430   2.037 -0.5229  0.3892  0.3045
 7119TIP3   OH221313   7.070   7.668   4.336 -0.3105  0.3913  0.2324
 7119TIP3    H121314   7.018   7.666   4.416  1.7206 -1.4796  1.6202
 7119TIP3    H221315   7.051   7.754   4.298 -4.2110 -0.0727  0.6473
 7120TIP3   OH221316   1.466   4.689   5.446  0.2983 -0.3255 -0.0306
 7120TIP3    H121317   1.513   4.609   5.470 -0.7935 -0.3245  2.3319
 7120TIP3    H221318   1.395   4.695   5.509  0.3465  2.5275 -0.1516
 7121TIP3   OH221319   1.102   7.690   2.579  0.4238  0.2196 -0.0848
 7121TIP3    H121320   1.152   7.678   2.659 -0.4579  2.4341  0.8916
 7121TIP3    H221321   1.011   7.674   2.605  0.2779 -0.6634 -1.0641
 7122TIP3   OH221322   0.121   2.478   5.518 -0.4583 -0.0230  0.3613
 7122TIP3    H121323   0.159   2.403   5.472 -0.6686  1.4376 -2.4129
 7122TIP3    H221324   0.196   2.528   5.549 -0.1857  0.5744 -1.1990
 7123TIP3   OH221325   1.822   4.570   2.562 -0.4273  0.2646  0.2258
 7123TIP3    H121326   1.886   4.612   2.619 -0.9114 -0.1841  1.1181
 7123TIP3    H221327   1.873   4.511   2.507  0.2232  1.7353 -0.8081
 7124TIP3   OH221328   5.051   6.986   0.597  0.1571  0.5772 -0.3710
 7124TIP3    H121329   5.078   7.043   0.669  0.7171  1.3270 -1.1548
 7124TIP3    H221330   4.983   6.930   0.635  1.3089  0.1068  1.0744
 7125TIP3   OH221331   1.827   0.504   4.561  0.2394  0.4972  0.3039
 7125TIP3    H121332   1.858   0.583   4.606  0.0496  0.9672 -0.3693
 7125TIP3    H221333   1.907   0.457   4.537  0.3218 -0.5757  2.5068
 7126TIP3   OH221334   5.912   0.410   2.497 -0.0501 -0.2748 -0.3444
 7126TIP3    H121335   5.931   0.371   2.583  0.6184 -1.1982 -0.8837
 7126TIP3    H221336   5.820   0.434   2.501  0.0497 -0.0110  0.7390
 7127TIP3   OH221337   4.092   2.503   1.958 -0.6407  0.5901  0.1547
 7127TIP3    H121338   4.006   2.515   1.998  0.1842  1.2234  1.8497
 7127TIP3    H221339   4.134   2.435   2.011  0.0459  0.5851 -0.3855
 7128TIP3   OH221340   8.003   5.571   1.231  1.2668  0.2224  0.1761
 7128TIP3    H121341   7.962   5.541   1.311  2.4107  1.3952  1.2696
 7128TIP3    H221342   7.934   5.570   1.165  0.1814 -0.2955  1.3041
 7129TIP3   OH221343   5.012   3.168   3.141 -0.2076 -0.4817  0.3272
 7129TIP3    H121344   5.000   3.073   3.150 -0.6625 -0.3089  1.9873
 7129TIP3    H221345   4.935   3.205   3.184 -0.1888  0.6461 -0.5921
 7130TIP3   OH221346   0.080   5.943   6.618  0.1277 -0.4181 -0.2779
 7130TIP3    H121347   0.049   5.875   6.560  0.9724 -1.2231  0.1908
 7130TIP3    H221348   0.158   5.906   6.660  0.6086  0.8299 -0.0186
 7131TIP3   OH221349   7.692   1.514   0.581  0.1173 -0.0633 -0.4111
 7131TIP3    H121350   7.683   1.582   0.515  1.4209  1.1335  0.5889
 7131TIP3    H221351   7.715   1.435   0.531 -0.3258  0.4734 -1.4833
 7132TIP3   OH221352   5.539   5.023   1.435 -0.8409 -0.4788  0.2328
 7132TIP3    H121353   5.562   5.068   1.353 -2.4043  0.6719  0.3772
 7132TIP3    H221354   5.621   5.020   1.484 -0.8294  3.6881  0.8619
 7133TIP3   OH221355   2.061   2.315   1.268 -0.0992  0.5196  0.4434
 7133TIP3    H121356   1.983   2.318   1.213 -1.1382 -3.4809  1.3990
 7133TIP3    H221357   2.109   2.238   1.237  2.0267  1.2505  1.7271
 7134TIP3   OH221358   1.463   4.247   1.805 -0.1582  0.2537  0.8289
 7134TIP3    H121359   1.446   4.222   1.714  1.2200  1.0402  0.3323
 7134TIP3    H221360   1.538   4.194   1.832  0.6936  1.4220  0.8406
 7135TIP3   OH221361   4.800   4.216   0.861  0.0255  0.0269 -0.4198
 7135TIP3    H121362   4.804   4.312   0.869 -1.3581 -0.0286  2.4359
 7135TIP3    H221363   4.839   4.184   0.942 -0.2585 -1.8102 -0.9735
 7136TIP3   OH221364   3.617   2.067   2.502 -0.3895 -0.3203  0.1992
 7136TIP3    H121365   3.624   2.143   2.559  2.3348  2.0228 -2.8070
 7136TIP3    H221366   3.566   2.098   2.427  3.1006 -0.2023 -2.4285
 7137TIP3   OH221367   4.006   2.839   4.895  0.3775 -0.8902 -0.1867
 7137TIP3    H121368   3.995   2.934   4.892  1.8834 -0.6464  0.6660
 7137TIP3    H221369   3.918   2.803   4.889 -0.2993  0.5944  0.4854
 7138TIP3   OH221370  -0.005   7.008   1.271  0.4087  0.1552  0.1993
 7138TIP3    H121371  -0.038   6.996   1.182 -0.1286 -2.8999  0.6788
 7138TIP3    H221372   0.090   7.000   1.263  0.5414  1.7581 -0.2676
 7139TIP3   OH221373   6.151   0.055   3.309  0.5539  0.1072  0.1756
 7139TIP3    H121374   6.072   0.081   3.263 -0.0305  0.3527  1.2925
 7139TIP3    H221375   6.129   0.062   3.402  1.4139 -1.2435  0.5131
 7140TIP3   OH221376   0.782   3.559   6.002 -0.0643 -0.9219 -0.0205
 7140TIP3    H121377   0.812   3.470   5.983 -0.8338 -1.0808 -0.5207
 7140TIP3    H221378   0.703   3.569   5.951 -1.0404 -0.6024  1.4816
 7141TIP3   OH221379   6.927   0.367   0.234 -0.1479  0.3831 -0.4932
 7141TIP3    H121380   6.933   0.319   0.152 -2.2774 -0.4070 -0.2685
 7141TIP3    H221381   6.904   0.300   0.299  0.2960  1.1791  0.5145
 7142TIP3   OH221382   3.975   7.517   0.288 -0.0735 -0.5154 -0.4091
 7142TIP3    H121383   3.995   7.434   0.245  0.6177 -0.2830 -0.5495
 7142TIP3    H221384   3.879   7.522   0.288 -0.1505 -1.7395  0.4470
 7143TIP3   OH221385   4.710   4.925   1.587  0.4302  0.0337  0.3749
 7143TIP3    H121386   4.629   4.873   1.590  1.8001 -2.3662 -1.1305
 7143TIP3    H221387   4.728   4.945   1.679 -1.3216 -0.2611  0.8305
 7144TIP3   OH221388   6.206   2.719   6.249  0.0909  0.0147 -0.3157
 7144TIP3    H121389   6.165   2.803   6.228  1.8707  0.5041 -2.1519
 7144TIP3    H221390   6.171   2.696   6.335 -2.0615  1.5771 -0.6927
 7145TIP3   OH221391   3.654   4.748   3.600  0.6866  0.0168 -0.0562
 7145TIP3    H121392   3.666   4.821   3.661  0.7694  0.0967 -0.1674
 7145TIP3    H221393   3.674   4.670   3.652 -0.9420 -0.0524  0.5028
 7146TIP3   OH221394   0.739   7.473   0.682  0.1578  0.1740 -0.7016
 7146TIP3    H121395   0.681   7.400   0.662  0.7438 -0.8826  1.2051
 7146TIP3    H221396   0.808   7.468   0.617 -1.8071  1.4899 -3.0542
 7147TIP3   OH221397   0.801   6.826   0.763  0.3067  0.2240  0.0522
 7147TIP3    H121398   0.888   6.796   0.735  0.7076  0.8339  0.6386
 7147TIP3    H221399   0.768   6.876   0.689 -0.1508 -1.1782 -0.7366
 7148TIP3   OH221400   3.773   3.389   4.387  0.4425 -0.2235 -0.2234
 7148TIP3    H121401   3.734   3.433   4.463  1.5756  1.9442 -0.8140
 7148TIP3    H221402   3.716   3.414   4.314  0.1934 -1.0918 -0.3370
 7149TIP3   OH221403   0.382   5.901   2.990  0.1209  0.0788 -0.0313
 7149TIP3    H121404   0.289   5.916   2.973 -0.0075  0.5568  0.9884
 7149TIP3    H221405   0.427   5.931   2.912 -0.5719 -0.0369 -0.4822
 7150TIP3   OH221406   6.067   3.170   3.408 -0.1662  0.1054 -0.4544
 7150TIP3    H121407   6.112   3.217   3.338  2.8604  0.4120  1.5319
 7150TIP3    H221408   6.115   3.087   3.415 -2.7604 -1.5545 -1.0994
 7151TIP3   OH221409   6.771   7.182   2.391  0.3474 -0.1516  0.5147
 7151TIP3    H121410   6.726   7.131   2.459 -1.0581 -0.5914 -0.6798
 7151TIP3    H221411   6.704   7.194   2.323  1.0551  2.0862  0.1231
 7152TIP3   OH221412   0.853   0.739   1.050  0.3993  0.1576 -0.2982
 7152TIP3    H121413   0.813   0.713   1.133  1.8006 -0.4393  0.2082
 7152TIP3    H221414   0.852   0.835   1.053  0.5516  0.1435  0.4606
 7153TIP3   OH221415   1.885   7.086   1.292 -0.0672  0.5508 -0.2127
 7153TIP3    H121416   1.977   7.076   1.269 -0.5407  0.9976 -2.4957
 7153TIP3    H221417   1.882   7.164   1.347  1.1053 -0.4877  1.4156
 7154TIP3   OH221418   3.679   5.104   2.607  0.2622 -0.0228 -0.3764
 7154TIP3    H121419   3.752   5.073   2.553  0.2430  1.0350 -1.0491
 7154TIP3    H221420   3.623   5.150   2.545 -0.6885 -0.3214  0.2443
 7155TIP3   OH221421   0.022   5.020   5.170 -0.3824 -0.6285 -0.1327
 7155TIP3    H121422   0.105   4.998   5.127  0.3562  0.4882  0.6885
 7155TIP3    H221423   0.031   4.985   5.258 -0.8585 -0.6357 -0.0855
 7156TIP3   OH221424   7.541   4.830   3.473  0.4100 -0.0266 -0.3276
 7156TIP3    H121425   7.537   4.744   3.515 -1.0152  0.6248  0.9533
 7156TIP3    H221426   7.540   4.811   3.379 -1.4182 -1.3961 -0.0893
 7157TIP3   OH221427   0.966   5.031   1.485 -0.5110 -0.5369 -0.4846
 7157TIP3    H121428   0.990   4.970   1.555 -0.7340 -0.6416 -0.5000
 7157TIP3    H221429   1.007   5.114   1.510 -0.2258 -0.6879 -0.4525
 7158TIP3   OH221430   1.325   1.628   3.786  0.1318 -0.3435 -0.0233
 7158TIP3    H121431   1.370   1.626   3.701  1.4337  1.1213  0.5775
 7158TIP3    H221432   1.387   1.588   3.846 -0.5431 -0.8460  0.3461
 7159TIP3   OH221433   4.808   7.355   3.996 -0.0126 -0.6211  0.3794
 7159TIP3    H121434   4.745   7.375   4.065 -0.7349 -0.9066 -0.1829
 7159TIP3    H221435   4.863   7.433   3.989 -0.0647 -0.5153  1.1356
 7160TIP3   OH221436   2.069   0.965   4.486 -0.1659 -0.5760 -0.1862
 7160TIP3    H121437   2.015   1.023   4.540  1.0908  0.9860 -0.5450
 7160TIP3    H221438   2.128   1.024   4.438  1.9375 -2.1911  0.2642
 7161TIP3   OH221439   4.460   2.757   6.292  0.2812 -0.2224  0.5334
 7161TIP3    H121440   4.391   2.767   6.226 -0.4463 -1.5177  1.0588
 7161TIP3    H221441   4.424   2.694   6.354  0.9415  0.9808  2.1913
 7162TIP3   OH221442   1.578   1.179   3.152 -0.3301  0.3454 -0.4145
 7162TIP3    H121443   1.560   1.271   3.173 -2.3640 -0.0430 -0.2345
 7162TIP3    H221444   1.587   1.178   3.056 -2.9679  0.4192 -0.7538
 7163TIP3   OH221445   4.461   4.346   2.449 -0.5755  0.3638  0.3131
 7163TIP3    H121446   4.428   4.413   2.509 -0.9208 -0.5838  1.2123
 7163TIP3    H221447   4.524   4.296   2.501  0.2330  0.4446 -0.5647
 7164TIP3   OH221448   2.356   6.510   3.872 -0.3178 -0.6317  0.5135
 7164TIP3    H121449   2.270   6.516   3.914  0.1508 -1.4427  1.6197
 7164TIP3    H221450   2.341   6.544   3.783 -1.3248  1.1523  1.3134
 7165TIP3   OH221451   1.480   7.620   3.908  0.6787  0.0725  0.3315
 7165TIP3    H121452   1.559   7.572   3.883  1.3522  1.3700 -0.1047
 7165TIP3    H221453   1.491   7.637   4.002  0.7616 -0.0140  0.3376
 7166TIP3   OH221454   5.343   1.083   5.737  0.0341  0.1141 -0.3662
 7166TIP3    H121455   5.408   1.114   5.800  0.8028  1.6737 -1.8715
 7166TIP3    H221456   5.261   1.078   5.787  1.2578 -2.1303  1.6422
 7167TIP3   OH221457   7.805   4.281   1.777  0.1945  0.5344 -0.1328
 7167TIP3    H121458   7.759   4.362   1.799  0.9866  1.0429 -0.3163
 7167TIP3    H221459   7.801   4.276   1.682 -1.8604 -0.8557 -0.0274
 7168TIP3   OH221460   1.391   0.040   0.536 -0.6061  0.0050 -0.5822
 7168TIP3    H121461   1.421   0.131   0.539 -1.2843  0.2059  0.4823
 7168TIP3    H221462   1.454  -0.004   0.478  1.9456  0.3379  1.7596
 7169TIP3   OH221463   1.164   1.401   6.572  0.1429  0.3868 -0.5431
 7169TIP3    H121464   1.259   1.402   6.572  0.1546  0.9532 -1.6712
 7169TIP3    H221465   1.139   1.478   6.622  0.2708  0.2376 -0.2467
 7170TIP3   OH221466   7.140   5.415   5.995  0.3759 -0.1172  0.2062
 7170TIP3    H121467   7.170   5.389   6.082 -0.8859 -0.9697  0.4207
 7170TIP3    H221468   7.125   5.332   5.950 -1.1879  0.2646 -0.0253
 7171TIP3   OH221469   3.172   1.401   1.689 -0.4832 -0.0616 -0.4533
 7171TIP3    H121470   3.102   1.376   1.629 -0.7168 -1.3601  0.3196
 7171TIP3    H221471   3.230   1.457   1.637 -2.2377  1.3200 -1.0121
 7172TIP3   OH221472   2.543   5.930   3.836  0.5927 -0.3632 -0.1845
 7172TIP3    H121473   2.516   5.869   3.766  1.5742  0.0201 -0.9337
 7172TIP3    H221474   2.505   6.014   3.811 -0.8399 -0.6669  0.9010
 7173TIP3   OH221475   4.426   3.564   4.653 -0.5633  0.5879 -0.2368
 7173TIP3    H121476   4.357   3.500   4.667 -0.9924  1.0931  0.0191
 7173TIP3    H221477   4.427   3.616   4.733  1.0869 -0.2990  0.3602
 7174TIP3   OH221478   6.250   4.594   2.856  0.2826 -0.4733 -0.1453
 7174TIP3    H121479   6.269   4.533   2.927  2.7783 -1.5199 -1.5803
 7174TIP3    H221480   6.269   4.680   2.893 -2.8271 -0.4459  1.7565
 7175TIP3   OH221481   7.975   1.506   5.655 -0.1488  0.2574 -0.1005
 7175TIP3    H121482   8.036   1.436   5.632  1.2235  1.3215  0.1657
 7175TIP3    H221483   7.910   1.463   5.711 -0.5131 -1.2111 -1.5621
 7176TIP3   OH221484   6.656   1.950   2.197  0.1255 -0.2099 -0.0686
 7176TIP3    H121485   6.658   2.021   2.262 -1.8087  0.0973 -0.3109
 7176TIP3    H221486   6.626   1.874   2.245  1.1345 -0.6261 -0.0662
 7177TIP3   OH221487   3.427   4.455   1.294  0.0504  0.1962 -0.2775
 7177TIP3    H121488   3.416   4.548   1.275  0.1223  0.2426 -0.0976
 7177TIP3    H221489   3.445   4.452   1.388  2.1717  0.1748 -0.6454
 7178TIP3   OH221490   1.661   6.400   3.752 -0.1617 -0.6611 -0.0638
 7178TIP3    H121491   1.571   6.401   3.719 -0.0671 -1.2832 -0.3500
 7178TIP3    H221492   1.714   6.374   3.677  0.3670  0.5296 -0.1263
 7179TIP3   OH221493   2.590   1.865   4.974 -0.4259 -0.3633 -0.6049
 7179TIP3    H121494   2.656   1.934   4.970 -1.7826  1.3569  2.7063
 7179TIP3    H221495   2.506   1.912   4.974 -1.5857 -2.2816 -1.6979
 7180TIP3   OH221496   2.876   6.110   3.106 -0.3043  0.6685  0.2997
 7180TIP3    H121497   2.782   6.115   3.127 -0.5056 -0.4813 -0.2493
 7180TIP3    H221498   2.887   6.171   3.033 -0.7334  0.4198  0.0229
 7181TIP3   OH221499   6.622   2.539   4.023 -0.4655 -0.7973 -0.2152
 7181TIP3    H121500   6.711   2.515   4.049 -0.8583 -2.1001 -0.0008
 7181TIP3    H221501   6.593   2.468   3.967 -1.3753 -0.3790 -0.2963
 7182TIP3   OH221502   1.298   2.345   0.481 -0.3426 -0.1692  0.0654
 7182TIP3    H121503   1.317   2.404   0.408 -1.0194 -3.0965 -2.7249
 7182TIP3    H221504   1.378   2.293   0.492 -1.0321 -1.3329 -0.2544
 7183TIP3   OH221505   1.932   1.875   1.833 -0.3029  0.2767  0.2387
 7183TIP3    H121506   1.945   1.954   1.886 -0.3400 -0.3393  1.1835
 7183TIP3    H221507   1.837   1.869   1.820 -0.2073  1.2175 -1.1612
 7184TIP3   OH221508   1.327   1.136   4.019 -0.6765 -0.1969  0.2445
 7184TIP3    H121509   1.421   1.118   4.025 -0.4757  1.0040  1.2941
 7184TIP3    H221510   1.315   1.174   3.932 -0.4863 -1.7742 -0.5046
 7185TIP3   OH221511   0.430   6.288   6.449  0.1371  0.0592  0.0187
 7185TIP3    H121512   0.381   6.350   6.395  2.2901  1.3762 -0.5550
 7185TIP3    H221513   0.446   6.335   6.531 -0.6799 -0.8587  0.7203
 7186TIP3   OH221514   3.081   5.047   1.458 -0.2259 -0.4040  0.0941
 7186TIP3    H121515   3.148   5.111   1.482 -0.0649 -0.2221 -0.8120
 7186TIP3    H221516   2.999   5.097   1.463 -0.0834 -0.0656 -0.7819
 7187TIP3   OH221517   5.763   7.704   5.964 -0.0650  0.6830  0.6301
 7187TIP3    H121518   5.753   7.793   5.929 -1.3506  0.0612 -0.6755
 7187TIP3    H221519   5.858   7.690   5.965  0.1232  1.7437 -0.0176
 7188TIP3   OH221520   0.411   4.646   6.134  0.3686  0.1518  0.1225
 7188TIP3    H121521   0.394   4.563   6.178  0.5718  0.1844  0.2629
 7188TIP3    H221522   0.477   4.626   6.068 -0.3578 -0.0186 -0.5709
 7189TIP3   OH221523   3.474   5.889   1.229  0.6280 -0.1140 -0.6651
 7189TIP3    H121524   3.446   5.939   1.152  1.5633  1.7121  0.1261
 7189TIP3    H221525   3.567   5.875   1.215  0.9743  0.8982  0.4434
 7190TIP3   OH221526   7.511   6.350   6.392  0.4550  0.5867  0.2512
 7190TIP3    H121527   7.440   6.368   6.453  0.2585  0.5219  0.0441
 7190TIP3    H221528   7.588   6.339   6.447  0.3992  1.1226  0.4483
 7191TIP3   OH221529   7.732   1.420   3.540  0.1032  0.1040 -0.5957
 7191TIP3    H121530   7.826   1.422   3.559  0.2422  1.5077 -1.3425
 7191TIP3    H221531   7.728   1.405   3.445 -0.4714 -0.9447 -0.4252
 7192TIP3   OH221532   5.146   7.093   3.646  0.0793 -0.0051  0.0156
 7192TIP3    H121533   5.069   7.047   3.611 -0.4800  0.8141  0.1467
 7192TIP3    H221534   5.197   7.115   3.568  0.8499 -1.6678  0.0074
 7193TIP3   OH221535   4.997   3.619   6.659  0.2601  0.1279 -0.7257
 7193TIP3    H121536   4.981   3.681   6.730  0.3871 -0.6063 -0.0357
 7193TIP3    H221537   4.938   3.647   6.589  0.0762  0.8201 -0.3064
 7194TIP3   OH221538   4.312   6.192   1.855 -0.1600  0.0698 -0.2902
 7194TIP3    H121539   4.371   6.224   1.923 -0.9711 -0.3002  0.6101
 7194TIP3    H221540   4.332   6.246   1.778  1.5321 -0.2373 -0.1054
 7195TIP3   OH221541   1.192   6.435   0.224  0.5049 -0.2054 -0.1170
 7195TIP3    H121542   1.118   6.374   0.224  0.4506 -0.1490  0.7453
 7195TIP3    H221543   1.206   6.455   0.131 -0.5969 -0.1746 -0.2929
 7196TIP3   OH221544   4.976   5.079   5.472  0.8471 -0.2275  0.9331
 7196TIP3    H121545   5.021   5.162   5.482  1.9230 -0.5548 -0.7674
 7196TIP3    H221546   5.040   5.022   5.427 -0.7840 -1.0949 -0.4231
 7197TIP3   OH221547   7.175   3.821   0.062  0.5207 -0.0007  0.1395
 7197TIP3    H121548   7.176   3.903   0.112  1.5076  0.3553 -0.4310
 7197TIP3    H221549   7.089   3.783   0.080 -0.0759  1.3144  0.1808
 7198TIP3   OH221550   3.805   0.796   5.192 -0.4216 -0.0710 -0.3247
 7198TIP3    H121551   3.795   0.768   5.283  0.9151 -2.6392 -0.8649
 7198TIP3    H221552   3.727   0.764   5.148  0.2511 -1.4312 -0.5830
 7199TIP3   OH221553   5.362   5.639   2.842 -0.2604  0.3658 -0.4969
 7199TIP3    H121554   5.414   5.692   2.902  1.9531 -0.7743 -1.2832
 7199TIP3    H221555   5.289   5.606   2.896  1.2885 -0.1029  1.4240
 7200TIP3   OH221556   1.067   3.754   5.056 -0.5331 -0.5779 -0.7251
 7200TIP3    H121557   1.002   3.691   5.087 -2.8422  1.0476 -1.9392
 7200TIP3    H221558   1.045   3.767   4.964  1.6945 -0.0680 -1.2472
 7201TIP3   OH221559   7.126   4.766   5.216 -0.3897 -0.1077  0.0358
 7201TIP3    H121560   7.217   4.752   5.241 -0.2937  1.9221  1.0023
 7201TIP3    H221561   7.101   4.847   5.259 -2.8432 -0.8635  0.2054
 7202TIP3   OH221562   5.575   4.717   3.617 -0.3307 -0.2007 -0.0279
 7202TIP3    H121563   5.615   4.801   3.639 -1.1267  0.0652  0.4612
 7202TIP3    H221564   5.485   4.725   3.647 -0.4515 -1.1907 -0.0876
 7203TIP3   OH221565   5.100   7.465   0.960  0.1636 -0.4708  0.8279
 7203TIP3    H121566   5.015   7.499   0.988 -0.5333  0.1651 -1.8040
 7203TIP3    H221567   5.080   7.403   0.890  1.8452 -0.4297  0.2525
 7204TIP3   OH221568   1.206   5.536   1.276  0.4346  0.0810 -0.6832
 7204TIP3    H121569   1.251   5.454   1.255 -1.3909 -0.6491 -2.0689
 7204TIP3    H221570   1.271   5.588   1.324  2.9958 -0.5605 -3.1927
 7205TIP3   OH221571   3.977   2.576   6.015  0.0346 -0.1344  0.8496
 7205TIP3    H121572   3.967   2.565   5.921  0.9085 -1.3004  0.8699
 7205TIP3    H221573   3.894   2.543   6.052 -0.4309  0.6124  0.4875
 7206TIP3   OH221574   6.496   5.249   1.064 -0.0708  0.1081 -0.3509
 7206TIP3    H121575   6.529   5.170   1.020 -0.4937 -0.5553  0.4945
 7206TIP3    H221576   6.419   5.274   1.013 -0.8505 -0.9427  0.2677
 7207TIP3   OH221577   4.473   6.669   3.957 -0.3688 -0.7132  0.5678
 7207TIP3    H121578   4.470   6.589   4.009  0.0875 -0.7578  0.5283
 7207TIP3    H221579   4.414   6.729   4.003 -1.5708 -1.4127 -0.0076
 7208TIP3   OH221580   6.428   6.098   0.145  0.1896  0.3071  0.4578
 7208TIP3    H121581   6.378   6.117   0.224  0.0466 -0.0298  0.4472
 7208TIP3    H221582   6.471   6.014   0.163  0.5511  0.4695  0.3704
 7209TIP3   OH221583   7.667   7.201   4.321 -0.1649  0.3233 -0.1666
 7209TIP3    H121584   7.748   7.193   4.271 -0.0930 -0.0635  0.0096
 7209TIP3    H221585   7.693   7.245   4.402 -0.6464  2.9701 -1.3482
 7210TIP3   OH221586   3.626   7.449   0.589  0.1653  0.1651  0.0586
 7210TIP3    H121587   3.668   7.401   0.661 -0.1402 -0.1119  0.0579
 7210TIP3    H221588   3.603   7.381   0.525 -0.4995  0.2730  0.1689
 7211TIP3   OH221589   6.605   1.010   3.272  0.1503  0.3862  0.2112
 7211TIP3    H121590   6.601   0.914   3.272 -3.1946  0.4125 -0.1851
 7211TIP3    H221591   6.660   1.032   3.196  1.8607 -1.1444  0.9211
 7212TIP3   OH221592   7.889   0.666   3.871  0.3376 -0.5813 -0.4527
 7212TIP3    H121593   7.969   0.719   3.877 -0.4661  0.6465 -0.1869
 7212TIP3    H221594   7.876   0.633   3.960  0.5765 -0.8489 -0.5133
 7213TIP3   OH221595   3.058   2.929   2.912  0.0046 -0.4116 -0.0980
 7213TIP3    H121596   3.054   2.893   2.823  0.1302  0.6465 -0.5449
 7213TIP3    H221597   3.133   2.988   2.911 -1.0435  0.9697  0.1784
 7214TIP3   OH221598   8.044   6.119   4.302 -0.5863 -0.2991 -0.2759
 7214TIP3    H121599   8.112   6.134   4.368  0.3717  1.6052 -1.6108
 7214TIP3    H221600   8.071   6.038   4.259  0.4307  0.0135 -0.2711
 7215TIP3   OH221601   2.628   4.345   4.498 -0.4136  0.4690 -0.0038
 7215TIP3    H121602   2.593   4.374   4.414  2.0625 -1.2432 -1.7641
 7215TIP3    H221603   2.710   4.393   4.508 -0.6492  0.6086  1.4244
 7216TIP3   OH221604   1.095   1.075   1.843  0.3161  0.2168  0.0544
 7216TIP3    H121605   1.108   1.166   1.870 -0.0514  0.1965  0.3051
 7216TIP3    H221606   1.026   1.080   1.776 -0.5549  0.0102  0.9022
 7217TIP3   OH221607   1.540   0.661   4.868 -0.2385 -0.2375  0.2243
 7217TIP3    H121608   1.535   0.627   4.958 -1.4373 -0.9983 -0.0912
 7217TIP3    H221609   1.547   0.582   4.814  0.8146  0.2347 -0.3450
 7218TIP3   OH221610   3.318   6.698   0.931 -0.1238 -0.1548  0.7133
 7218TIP3    H121611   3.311   6.786   0.893  0.3032 -0.0847  0.7869
 7218TIP3    H221612   3.231   6.679   0.965 -0.8601 -0.7063 -1.3498
 7219TIP3   OH221613   0.024   5.878   4.025  0.2669  0.5570 -1.0313
 7219TIP3    H121614   0.043   5.789   4.052  3.0122  0.7632 -1.9433
 7219TIP3    H221615   0.025   5.875   3.929  3.1882  1.9560 -1.1418
 7220TIP3   OH221616   6.888   6.877   1.610  0.3487 -0.3448  0.2939
 7220TIP3    H121617   6.945   6.841   1.542  0.2642 -0.6633  0.3885
 7220TIP3    H221618   6.934   6.954   1.642 -1.1616  1.9219 -2.5263
 7221TIP3   OH221619   0.452   1.926   6.513  0.1279 -0.0655 -0.3216
 7221TIP3    H121620   0.439   1.889   6.426 -1.3849  0.8987 -0.5477
 7221TIP3    H221621   0.364   1.928   6.552  0.9240 -1.6160  1.7333
 7222TIP3   OH221622   7.496   2.877   4.663  0.1025  0.2077 -0.1661
 7222TIP3    H121623   7.534   2.817   4.598 -1.1670 -0.6087 -0.1948
 7222TIP3    H221624   7.571   2.912   4.711  0.9973  0.0725 -1.4226
 7223TIP3   OH221625   0.309   2.082   1.267  0.1964  0.2354 -0.2024
 7223TIP3    H121626   0.256   2.047   1.194 -3.5608  2.7010  1.0375
 7223TIP3    H221627   0.368   2.145   1.225  0.5538 -0.8689 -1.4336
 7224TIP3   OH221628   3.064   5.710   4.160  0.5230 -0.4935  0.1684
 7224TIP3    H121629   3.126   5.641   4.135  0.8160 -0.4272  0.6804
 7224TIP3    H221630   2.984   5.664   4.183  0.4665 -0.6018 -0.2401
 7225TIP3   OH221631   8.003   5.993   5.132 -0.0255 -0.4334 -0.2783
 7225TIP3    H121632   7.929   5.986   5.192  0.5895  1.5707  0.8181
 7225TIP3    H221633   8.067   6.046   5.180  1.3662 -0.5538 -1.9138
 7226TIP3   OH221634   5.064   4.243   3.051  0.3339  0.1522 -0.1943
 7226TIP3    H121635   5.142   4.209   3.009  2.6175  2.7689  1.5927
 7226TIP3    H221636   5.064   4.202   3.138  1.5746  2.3618  0.9465
 7227TIP3   OH221637   0.483   2.309   3.329  0.6325 -0.1026  0.1171
 7227TIP3    H121638   0.463   2.257   3.406 -2.6405 -0.7011 -0.9923
 7227TIP3    H221639   0.416   2.377   3.327  0.8673  0.1415 -1.9567
 7228TIP3   OH221640   0.658   4.095   3.166 -0.0334  0.2654 -0.5412
 7228TIP3    H121641   0.622   4.086   3.078  1.5851  0.8050 -1.3038
 7228TIP3    H221642   0.673   4.004   3.195 -1.4049  0.0589 -0.4395
 7229TIP3   OH221643   2.853   1.733   3.192 -0.3756  0.0267  0.0747
 7229TIP3    H121644   2.813   1.815   3.164  0.7399  0.5541 -0.0194
 7229TIP3    H221645   2.889   1.696   3.111 -0.5054 -0.3471  0.1865
 7230TIP3   OH221646   5.322   6.308   0.225  0.2101 -0.1243 -0.2368
 7230TIP3    H121647   5.239   6.350   0.248  0.3871 -0.0254  0.2407
 7230TIP3    H221648   5.303   6.259   0.145 -0.7925 -1.5796  0.8385
 7231TIP3   OH221649   0.929   4.688   0.436  0.4717 -0.1255 -0.0142
 7231TIP3    H121650   1.004   4.633   0.458  2.1665  1.0310 -2.3516
 7231TIP3    H221651   0.949   4.773   0.474  0.4727  0.2349 -0.7874
 7232TIP3   OH221652   1.660   1.838   1.825  0.3183  0.3247  0.0165
 7232TIP3    H121653   1.587   1.777   1.812 -0.1103  0.3453  2.0383
 7232TIP3    H221654   1.619   1.917   1.860  1.0672  1.2375 -1.0805
 7233TIP3   OH221655   1.472   0.172   1.312 -0.0891 -0.1703  0.7600
 7233TIP3    H121656   1.381   0.201   1.311 -0.9324 -2.5661  0.8057
 7233TIP3    H221657   1.475   0.100   1.249  1.9602  0.2749  0.2535
 7234TIP3   OH221658   2.199   1.903   2.329  0.0113 -0.1004 -0.3820
 7234TIP3    H121659   2.214   1.997   2.325 -1.6199  0.2138  0.2975
 7234TIP3    H221660   2.216   1.880   2.420 -2.6335  0.1397  0.2384
 7235TIP3   OH221661   1.624   5.498   4.835  0.2018  0.0977 -0.5762
 7235TIP3    H121662   1.592   5.578   4.876  0.9397  0.0471  0.1336
 7235TIP3    H221663   1.590   5.501   4.745 -0.1621  0.9700 -0.4161
 7236TIP3   OH221664   5.968   5.935   2.232  0.1641 -0.0438 -0.7533
 7236TIP3    H121665   5.931   5.854   2.267  1.2881 -0.5119 -0.5862
 7236TIP3    H221666   6.049   5.908   2.188  1.6780  1.1857  1.0673
 7237TIP3   OH221667   4.402   3.769   3.591 -0.3633 -0.5287  0.6929
 7237TIP3    H121668   4.349   3.746   3.667  0.1279 -4.6235  0.0579
 7237TIP3    H221669   4.492   3.769   3.624 -0.3659  1.6480  0.8173
 7238TIP3   OH221670   6.873   5.714   0.917 -0.2428 -0.3337 -0.1694
 7238TIP3    H121671   6.909   5.801   0.930 -1.6327  0.0349  1.5948
 7238TIP3    H221672   6.804   5.726   0.853 -1.1956  0.1220  0.9068
 7239TIP3   OH221673   5.064   3.814   3.801 -0.4164  0.2966  0.0523
 7239TIP3    H121674   5.017   3.898   3.802  0.8678  1.0670  2.5423
 7239TIP3    H221675   5.029   3.766   3.876  1.4569  0.1600  0.8769
 7240TIP3   OH221676   3.095   4.633   5.588 -0.3069 -0.0528  0.3430
 7240TIP3    H121677   3.011   4.678   5.578 -0.2192  0.1011  0.2898
 7240TIP3    H221678   3.132   4.670   5.668  0.9779  1.9608 -1.0793
 7241TIP3   OH221679   7.596   2.344   0.743  0.2893  0.1530 -0.1901
 7241TIP3    H121680   7.537   2.344   0.818  0.7663  1.0372  0.2000
 7241TIP3    H221681   7.677   2.304   0.775  0.3277  0.0825 -0.3706
 7242TIP3   OH221682   6.902   2.340   6.230 -0.4677 -0.2133 -0.3535
 7242TIP3    H121683   6.885   2.352   6.324 -1.5272 -1.1321 -0.4093
 7242TIP3    H221684   6.855   2.412   6.188  0.2738  0.3888 -0.1702
 7243TIP3   OH221685   7.045   6.872   0.091  0.0863  0.1538 -0.1274
 7243TIP3    H121686   7.079   6.875   0.001 -0.8525 -0.7357 -0.5447
 7243TIP3    H221687   6.973   6.809   0.086  0.0800  0.0260  1.2797
 7244TIP3   OH221688   0.983   4.386   0.771  0.7510  0.0853  0.9045
 7244TIP3    H121689   0.919   4.331   0.725  2.4881 -0.0029 -1.5970
 7244TIP3    H221690   0.938   4.413   0.851 -1.7572 -1.3677  0.0975
 7245TIP3   OH221691   7.108   3.087   6.429 -0.2923  0.3175  0.3255
 7245TIP3    H121692   7.127   2.993   6.437  1.9760  0.7052  0.2016
 7245TIP3    H221693   7.037   3.102   6.491 -0.4750 -1.4254  0.5928
 7246TIP3   OH221694   6.238   0.733   5.963  0.0096 -0.4278 -0.2104
 7246TIP3    H121695   6.262   0.823   5.939  2.1207 -0.7748  0.4315
 7246TIP3    H221696   6.192   0.700   5.885  0.2794  0.7952 -0.9251
 7247TIP3   OH221697   3.956   0.758   3.069  0.7840 -0.9551 -0.4815
 7247TIP3    H121698   4.018   0.730   3.136  0.5645  0.7541  0.4769
 7247TIP3    H221699   3.945   0.852   3.083 -3.1706 -1.3840  0.4311
 7248TIP3   OH221700   6.744   5.283   1.218  0.6756  0.2316  0.2826
 7248TIP3    H121701   6.683   5.279   1.144  0.2441  2.6275  0.3940
 7248TIP3    H221702   6.708   5.223   1.283  0.5318 -1.1807 -1.0647
 7249TIP3   OH221703   1.880   5.740   1.951  0.0544  0.6348 -0.0846
 7249TIP3    H121704   1.933   5.819   1.964 -0.0809  0.8264 -0.6647
 7249TIP3    H221705   1.920   5.675   2.009 -0.5679  1.4583  1.3229
 7250TIP3   OH221706   4.213   5.071   2.890  0.3293  0.5783  0.2577
 7250TIP3    H121707   4.198   4.977   2.881  0.0407  0.5289  1.0951
 7250TIP3    H221708   4.187   5.090   2.981 -1.3087  1.7845 -0.4176
 7251TIP3   OH221709   3.562   0.410   2.361 -0.4446  0.2118 -0.0556
 7251TIP3    H121710   3.652   0.443   2.353 -0.3246  0.1349  0.8723
 7251TIP3    H221711   3.541   0.376   2.274  0.1079  1.0268 -0.5215
 7252TIP3   OH221712   2.046   0.157   6.084 -0.4986 -0.1269 -0.3334
 7252TIP3    H121713   2.024   0.245   6.115 -0.1357  0.2786 -1.1823
 7252TIP3    H221714   2.066   0.108   6.163 -1.6597  0.2805  0.2246
 7253TIP3   OH221715   4.940   1.065   2.303 -0.1461 -0.6018 -0.2481
 7253TIP3    H121716   4.908   1.071   2.213 -1.3992  0.5246  0.2441
 7253TIP3    H221717   4.990   1.146   2.315  3.0134 -2.2808 -0.9804
 7254TIP3   OH221718   4.556   6.436   3.553 -0.1870 -0.2939  0.5666
 7254TIP3    H121719   4.594   6.351   3.579  0.9114  0.3035  0.9906
 7254TIP3    H221720   4.493   6.456   3.622  0.6977 -0.0316  1.3147
 7255TIP3   OH221721   6.536   4.884   6.094  0.5059  0.0807  0.4556
 7255TIP3    H121722   6.482   4.904   6.018 -0.4774 -0.4150  1.0101
 7255TIP3    H221723   6.551   4.969   6.136  1.5609  0.4362 -0.6069
 7256TIP3   OH221724   0.431   7.246   2.716 -0.1769 -0.4305 -0.4146
 7256TIP3    H121725   0.511   7.247   2.663  0.1146 -1.9209 -0.0361
 7256TIP3    H221726   0.375   7.180   2.676 -0.2974 -0.9796  0.6251
 7257TIP3   OH221727   3.573   7.228   0.431 -0.0269  0.2110  0.1707
 7257TIP3    H121728   3.510   7.183   0.375  0.6375  1.5979 -1.8018
 7257TIP3    H221729   3.653   7.233   0.379  0.7362  1.2677  1.3708
 7258TIP3   OH221730   5.036   1.747   2.227  0.2374 -0.1561  0.3453
 7258TIP3    H121731   5.099   1.810   2.192 -0.0201  0.5059  1.0640
 7258TIP3    H221732   4.951   1.788   2.215  0.0826 -0.2753  1.0139
 7259TIP3   OH221733   0.507   7.685   5.043  0.1035 -0.2620  0.9186
 7259TIP3    H121734   0.418   7.704   5.015  0.1487  0.2779  1.1319
 7259TIP3    H221735   0.499   7.672   5.138 -0.0543 -2.0933  0.6980
 7260TIP3   OH221736   2.923   3.497   1.844 -0.7667  0.7453  0.0777
 7260TIP3    H121737   2.997   3.548   1.878 -0.7427  0.9471 -0.2642
 7260TIP3    H221738   2.921   3.418   1.897  1.1770 -0.3915 -1.4325
 7261TIP3   OH221739   8.168   1.125   1.936  1.1401 -0.0162 -0.4330
 7261TIP3    H121740   8.257   1.098   1.915  1.3420 -1.5019  1.9253
 7261TIP3    H221741   8.178   1.202   1.992  0.9571 -0.2138 -0.1242
 7262TIP3   OH221742   5.803   7.034   2.772  0.0848  0.4838 -0.0372
 7262TIP3    H121743   5.767   7.122   2.759 -1.1802  0.0474  0.3969
 7262TIP3    H221744   5.730   6.975   2.754  1.0971 -0.5245 -0.9631
 7263TIP3   OH221745   1.613   7.183   2.346  1.0385 -0.0451 -0.6377
 7263TIP3    H121746   1.600   7.108   2.288  0.4758 -1.2712  0.9750
 7263TIP3    H221747   1.542   7.243   2.325 -1.4617 -2.1192  1.1677
 7264TIP3   OH221748   0.465   7.035   3.086 -0.7576  0.3040 -0.4598
 7264TIP3    H121749   0.516   6.986   3.021 -1.5040  0.5572 -1.2500
 7264TIP3    H221750   0.474   6.983   3.167  1.1227  0.5863 -0.4436
 7265TIP3   OH221751   5.624   2.889   2.044  0.0185  0.5357 -0.0223
 7265TIP3    H121752   5.605   2.814   2.100  1.3988 -0.2084 -0.5230
 7265TIP3    H221753   5.572   2.960   2.082  0.0296 -0.2251  1.4971
 7266TIP3   OH221754   1.114   5.164   3.216 -0.1403  0.4594  0.3008
 7266TIP3    H121755   1.024   5.167   3.186 -0.3173  0.4043  0.8138
 7266TIP3    H221756   1.130   5.071   3.235  0.4050  0.2853 -0.9055
 7267TIP3   OH221757   3.779   1.173   1.940 -0.0876 -0.0046  0.6425
 7267TIP3    H121758   3.749   1.160   1.850  0.4723 -1.7647  0.6779
 7267TIP3    H221759   3.848   1.239   1.933 -1.0010  0.9188  0.0017
 7268TIP3   OH221760   8.039   3.478   6.718 -0.0143 -0.0278 -0.4150
 7268TIP3    H121761   8.083   3.420   6.781  1.1821  0.7148 -0.5356
 7268TIP3    H221762   7.993   3.419   6.659 -0.2258 -0.7856  0.4783
 7269TIP3   OH221763   6.348   5.212   0.728  0.8338  0.1072  0.3568
 7269TIP3    H121764   6.298   5.160   0.791  1.7823 -2.1332 -0.6568
 7269TIP3    H221765   6.283   5.270   0.688 -0.2189 -0.1121  1.6765
 7270TIP3   OH221766   8.217   7.774   4.185 -0.0172  0.0911  0.2205
 7270TIP3    H121767   8.297   7.822   4.166  0.3978  0.9349  3.4287
 7270TIP3    H221768   8.150   7.817   4.133  1.1360  1.1994 -0.4108
 7271TIP3   OH221769   8.241   2.931   0.131  0.3537  0.4694 -0.6172
 7271TIP3    H121770   8.236   2.836   0.123 -0.2507  0.2814  1.3094
 7271TIP3    H221771   8.322   2.947   0.178 -0.0022  0.8192 -0.1060
 7272TIP3   OH221772   5.168   4.907   6.488  0.0418 -0.1643  0.1884
 7272TIP3    H121773   5.213   4.989   6.468 -0.8898  0.3960  0.3197
 7272TIP3    H221774   5.150   4.868   6.402 -0.2324  0.1699  0.0928
 7273TIP3   OH221775   7.123   2.869   1.911  0.7777 -0.2690  0.4610
 7273TIP3    H121776   7.095   2.780   1.887 -0.7460 -0.0711  1.3761
 7273TIP3    H221777   7.218   2.863   1.917  0.7462 -1.7009 -0.0326
 7274TIP3   OH221778   3.195   3.556   0.579 -0.8632  0.0210 -0.3726
 7274TIP3    H121779   3.256   3.625   0.552 -0.6659  1.4033  3.0878
 7274TIP3    H221780   3.245   3.475   0.570  1.0185  0.9599  0.8340
 7275TIP3   OH221781   4.312   2.672   0.373  0.0774  0.1685  0.1461
 7275TIP3    H121782   4.289   2.712   0.289  0.4654  0.7491  0.3052
 7275TIP3    H221783   4.379   2.607   0.351 -0.9902 -0.8525 -0.1937
 7276TIP3   OH221784   3.903   3.472   3.135 -0.1666  0.2952 -0.1260
 7276TIP3    H121785   3.997   3.468   3.149  0.1172  1.8596 -1.2853
 7276TIP3    H221786   3.880   3.388   3.096  0.2575 -1.1225  2.4091
 7277TIP3   OH221787   3.145   6.943   3.609  0.6083  0.2428  0.0858
 7277TIP3    H121788   3.139   6.888   3.687 -0.9467  2.1918  1.4271
 7277TIP3    H221789   3.239   6.947   3.590  0.8297 -2.1399  0.4186
 7278TIP3   OH221790   5.982   2.215   3.344 -0.2429  0.1054 -0.4321
 7278TIP3    H121791   6.036   2.278   3.297 -2.8131  1.8690 -1.2044
 7278TIP3    H221792   5.944   2.160   3.275  0.8386 -1.4515  0.1361
 7279TIP3   OH221793   4.841   0.845   2.072 -0.0339 -0.0844 -0.1944
 7279TIP3    H121794   4.761   0.815   2.030 -1.2703 -0.0842  2.0643
 7279TIP3    H221795   4.862   0.778   2.136  0.9759  0.6174  0.2354
 7280TIP3   OH221796   4.784   0.124   1.806 -0.4088 -0.0270 -0.2961
 7280TIP3    H121797   4.765   0.078   1.724  1.3708  0.0263 -0.7801
 7280TIP3    H221798   4.864   0.173   1.787  0.3301 -0.4224  1.6211
 7281TIP3   OH221799   3.653   0.473   5.903 -0.5158 -0.0455 -0.6818
 7281TIP3    H121800   3.704   0.528   5.962 -0.7950  0.3468 -0.8041
 7281TIP3    H221801   3.563   0.507   5.911 -0.6783 -0.4393 -0.8063
 7282TIP3   OH221802   5.284   6.274   0.640  0.9195  0.4523  0.4912
 7282TIP3    H121803   5.202   6.280   0.591  1.8800  0.1827 -1.2055
 7282TIP3    H221804   5.281   6.187   0.680  0.3582  0.4634  0.4803
 7283TIP3   OH221805   7.686   5.279   3.279 -0.4497  0.0225  0.1475
 7283TIP3    H121806   7.646   5.213   3.335 -0.4388  1.0735  1.4656
 7283TIP3    H221807   7.618   5.346   3.269 -0.4309 -0.1286 -1.0765
 7284TIP3   OH221808   2.013   7.724   0.241 -0.2068 -0.0373 -0.4608
 7284TIP3    H121809   1.927   7.718   0.199  0.7351 -0.0147 -2.5260
 7284TIP3    H221810   2.065   7.777   0.181  2.0679 -2.4658 -0.8067
 7285TIP3   OH221811   6.008   5.344   3.344 -0.1702 -0.4549 -0.5275
 7285TIP3    H121812   5.982   5.390   3.424 -0.7015 -0.7789 -0.5041
 7285TIP3    H221813   6.080   5.395   3.309  1.3089 -1.3079  1.1245
 7286TIP3   OH221814   2.762   7.789   4.106 -0.1817  0.0522 -0.2003
 7286TIP3    H121815   2.746   7.776   4.200 -0.3228  1.3455 -0.0156
 7286TIP3    H221816   2.731   7.709   4.065  1.1739 -1.1170  0.9774
 7287TIP3   OH221817   3.929   0.823   1.850  0.4383 -0.1618  0.0833
 7287TIP3    H121818   3.948   0.862   1.765  0.7393  0.9987  0.6554
 7287TIP3    H221819   3.991   0.866   1.910  0.7682 -1.5185  0.7550
 7288TIP3   OH221820   1.229   7.174   4.842 -0.3428  0.5573  0.4719
 7288TIP3    H121821   1.257   7.249   4.789 -2.1165  0.4257 -0.7308
 7288TIP3    H221822   1.157   7.207   4.895 -1.7644 -0.4836 -0.7525
 7289TIP3   OH221823   4.123   7.701   5.552 -0.3266 -0.1479 -0.1293
 7289TIP3    H121824   4.178   7.700   5.474  1.3811 -0.2630  1.0245
 7289TIP3    H221825   4.047   7.754   5.527  2.3433  3.9968 -0.5159
 7290TIP3   OH221826   5.014   7.565   3.640 -0.4896 -0.3506 -0.3681
 7290TIP3    H121827   4.952   7.586   3.709 -1.6394 -2.4592 -0.6833
 7290TIP3    H221828   5.035   7.472   3.653  1.0935 -0.1947 -1.4570
 7291TIP3   OH221829   0.366   2.643   5.523 -0.6039 -0.0663 -0.2474
 7291TIP3    H121830   0.392   2.711   5.585 -2.1182 -0.2087  0.6179
 7291TIP3    H221831   0.317   2.690   5.455 -2.0053 -0.2828  0.5644
 7292TIP3   OH221832   2.475   1.756   3.969  0.1617 -0.2135  0.1254
 7292TIP3    H121833   2.550   1.789   4.019 -0.4541  0.2125  0.8015
 7292TIP3    H221834   2.405   1.817   3.990 -0.1428 -0.0957 -1.2065
 7293TIP3   OH221835   0.477   3.413   0.120  0.0877 -0.3892 -0.6206
 7293TIP3    H121836   0.427   3.377   0.047  0.4396 -0.5692 -0.7752
 7293TIP3    H221837   0.568   3.395   0.098  0.2328  0.0721 -0.4138
 7294TIP3   OH221838   2.033   1.235   3.390  0.2601  0.1142 -0.8340
 7294TIP3    H121839   2.007   1.322   3.359  1.9679  0.7980 -0.4094
 7294TIP3    H221840   2.127   1.240   3.403  0.3248 -1.6555 -0.2696
 7295TIP3   OH221841   1.669   1.580   0.121 -0.3439  0.2633 -0.2125
 7295TIP3    H121842   1.736   1.514   0.105  0.1620  1.1149 -1.8296
 7295TIP3    H221843   1.714   1.664   0.109 -1.2130  0.8977  0.7432
 7296TIP3   OH221844   0.395   5.485   2.511 -0.4249 -0.3215  0.0539
 7296TIP3    H121845   0.372   5.412   2.454 -0.3821  0.8302 -1.4865
 7296TIP3    H221846   0.319   5.543   2.509 -1.0691 -0.9535  2.4382
 7297TIP3   OH221847   4.487   1.080   5.326 -0.1431 -0.4471  0.3869
 7297TIP3    H121848   4.506   1.047   5.238 -1.5693 -0.4845  0.0753
 7297TIP3    H221849   4.511   1.008   5.384  0.9081 -0.3836  0.0485
 7298TIP3   OH221850   5.718   3.504   2.883  0.0732  0.3165  0.1271
 7298TIP3    H121851   5.626   3.516   2.862  0.4334  2.0373 -0.6737
 7298TIP3    H221852   5.718   3.454   2.964 -1.5736  0.4909  0.2689
 7299TIP3   OH221853   6.241   3.669   2.867 -0.5595  0.3354 -0.0251
 7299TIP3    H121854   6.286   3.693   2.786 -1.1253 -0.4049 -0.5568
 7299TIP3    H221855   6.156   3.636   2.840 -1.0209  0.6964  0.9163
 7300TIP3   OH221856   0.456   5.330   0.751  0.0382 -0.0597 -0.2069
 7300TIP3    H121857   0.476   5.242   0.718 -0.6998 -0.9177  1.5026
 7300TIP3    H221858   0.387   5.362   0.693  0.0731 -0.7593 -0.6443
 7301TIP3   OH221859   5.380   2.974   6.310 -0.0183  0.6676  0.0104
 7301TIP3    H121860   5.330   3.031   6.370 -0.6932  0.0093  0.0947
 7301TIP3    H221861   5.421   3.034   6.248  1.8643  1.5019  1.9381
 7302TIP3   OH221862   4.225   3.235   3.896  0.0723 -0.7731 -0.4022
 7302TIP3    H121863   4.240   3.163   3.957  0.4974  0.1420  0.6095
 7302TIP3    H221864   4.295   3.228   3.832  0.7899 -0.6164  0.3426
 7303TIP3   OH221865   1.137   0.333   5.678  0.4275  0.5876  0.1138
 7303TIP3    H121866   1.066   0.273   5.654 -0.8712  2.4572 -0.9959
 7303TIP3    H221867   1.205   0.318   5.613 -0.5893  1.4371 -1.1808
 7304TIP3   OH221868   1.935   0.280   5.589  0.0468  0.7242  0.6278
 7304TIP3    H121869   1.863   0.335   5.619  0.3064  1.5776 -0.2309
 7304TIP3    H221870   1.948   0.306   5.498  0.5444 -0.3926  0.3614
 7305TIP3   OH221871   3.955   5.803   0.637  0.2008  0.1290 -0.7161
 7305TIP3    H121872   4.013   5.845   0.573  0.5534 -1.7192 -1.6890
 7305TIP3    H221873   3.874   5.787   0.588  0.2867 -0.8368 -0.5580
 7306TIP3   OH221874   6.038   6.892   3.259  0.0645 -0.3133  0.0845
 7306TIP3    H121875   6.052   6.807   3.302 -0.2546 -0.2048  0.4047
 7306TIP3    H221876   6.007   6.869   3.171  0.2099 -0.5273  0.0870
 7307TIP3   OH221877   7.586   0.404   6.172  0.1593 -0.2252 -0.1402
 7307TIP3    H121878   7.544   0.318   6.177 -1.3373  0.5345  0.8567
 7307TIP3    H221879   7.636   0.411   6.254 -0.1775  0.0893  0.0381
 7308TIP3   OH221880   6.469   6.538   0.697  0.0778 -0.3749 -0.4771
 7308TIP3    H121881   6.430   6.611   0.745  1.4001  0.2682 -0.3212
 7308TIP3    H221882   6.431   6.460   0.737  0.0525  0.1865  0.6531
 7309TIP3   OH221883   7.639   1.273   0.425 -0.0380 -0.6860 -0.2594
 7309TIP3    H121884   7.562   1.265   0.482  0.6372 -0.4156  0.6985
 7309TIP3    H221885   7.603   1.265   0.336 -1.1355 -0.8511  0.1825
 7310TIP3   OH221886   7.273   1.182   6.554 -0.6513  0.4909  0.0868
 7310TIP3    H121887   7.356   1.151   6.589 -0.7715 -0.0380 -0.0923
 7310TIP3    H221888   7.262   1.135   6.472 -1.3875  0.1516  0.3721
 7311TIP3   OH221889   2.756   3.756   4.418  0.2701  0.6143  0.6004
 7311TIP3    H121890   2.850   3.738   4.414  0.1305  0.0130 -0.0794
 7311TIP3    H221891   2.742   3.792   4.505  1.4359  2.3879  0.1111
 7312TIP3   OH221892   4.723   3.003   4.731 -0.1999  0.4156 -0.7357
 7312TIP3    H121893   4.748   2.974   4.819  1.3290  1.7252 -0.6835
 7312TIP3    H221894   4.714   3.098   4.738 -0.8441  0.4560 -1.8278
 7313TIP3   OH221895   1.381   1.019   2.764  0.7821  0.0561  0.2086
 7313TIP3    H121896   1.419   0.980   2.686 -1.6418 -3.3761  0.5108
 7313TIP3    H221897   1.455   1.040   2.820  2.4303 -0.2018 -1.7770
 7314TIP3   OH221898   7.323   5.223   5.679 -0.2410  0.4027  0.3285
 7314TIP3    H121899   7.331   5.202   5.586  1.0513 -0.0868  0.5397
 7314TIP3    H221900   7.248   5.171   5.708  0.2189 -0.5432 -0.1338
 7315TIP3   OH221901   6.516   4.339   0.104  0.2095 -0.1432  0.2899
 7315TIP3    H121902   6.440   4.396   0.116  0.0899 -0.0051 -0.9629
 7315TIP3    H221903   6.589   4.387   0.143 -0.1083  0.3309  0.3081
 7316TIP3   OH221904   2.735   6.694   3.861  0.6657 -0.0921  0.2297
 7316TIP3    H121905   2.764   6.644   3.784 -1.0092 -0.2101 -0.3570
 7316TIP3    H221906   2.722   6.783   3.828 -0.6170 -0.2692  0.2047
 7317TIP3   OH221907   2.243   7.525   3.627 -0.2920 -0.6145  0.0410
 7317TIP3    H121908   2.308   7.504   3.693 -0.0204 -1.8383 -0.5831
 7317TIP3    H221909   2.282   7.596   3.576  0.4955 -1.2322 -0.2337
 7318TIP3   OH221910   7.460   4.495   4.812  1.1004  0.1075 -0.0012
 7318TIP3    H121911   7.553   4.490   4.790  0.8463  2.0532 -1.9008
 7318TIP3    H221912   7.422   4.417   4.772  1.7160  0.0969 -0.5867
 7319TIP3   OH221913   1.765   2.029   1.369  0.2120  0.6644  0.1948
 7319TIP3    H121914   1.850   1.985   1.357  0.5680  0.6155  2.4741
 7319TIP3    H221915   1.716   1.969   1.426 -0.7437  1.4573  0.2170
 7320TIP3   OH221916   7.259   1.325   2.329  0.1766  0.4041  0.1484
 7320TIP3    H121917   7.272   1.402   2.385 -0.2675  0.9871 -0.5348
 7320TIP3    H221918   7.252   1.361   2.241  0.4990 -0.4788 -0.2418
 7321TIP3   OH221919   3.984   4.543   6.284 -0.4631  0.4026 -0.3133
 7321TIP3    H121920   3.911   4.572   6.229 -0.9832  1.2009  0.7493
 7321TIP3    H221921   3.942   4.496   6.356  0.0809  0.6648  0.1835
 7322TIP3   OH221922   7.670   6.203   5.629  0.2037  0.0384 -0.2384
 7322TIP3    H121923   7.635   6.143   5.564  0.1976  0.7939 -0.9569
 7322TIP3    H221924   7.713   6.147   5.694 -0.1026 -0.7471 -0.7067
 7323TIP3   OH221925   0.070   4.437   5.720 -0.5167  0.2287  0.0211
 7323TIP3    H121926   0.081   4.437   5.815 -0.2193 -2.3888  0.0556
 7323TIP3    H221927   0.156   4.417   5.685 -1.1888 -1.9529 -0.5814
 7324TIP3   OH221928   4.714   4.838   2.927  0.2861 -0.3486  0.1143
 7324TIP3    H121929   4.626   4.867   2.951 -0.2012 -0.7911 -1.0418
 7324TIP3    H221930   4.773   4.903   2.965 -0.6312  0.7697 -0.3222
 7325TIP3   OH221931   7.209   6.609   5.588  0.3870 -0.1108 -0.1181
 7325TIP3    H121932   7.148   6.542   5.557  0.3996  0.4506 -1.4356
 7325TIP3    H221933   7.291   6.561   5.603 -0.0971 -0.6929  0.6877
 7326TIP3   OH221934   3.064   4.791   1.562 -0.1476 -0.0281  0.5505
 7326TIP3    H121935   3.132   4.724   1.570  0.3114  0.2705 -0.5644
 7326TIP3    H221936   3.108   4.864   1.518 -1.3255 -0.0839 -0.8171
 7327TIP3   OH221937   0.729   1.765   4.543  0.3921  0.2764 -0.1021
 7327TIP3    H121938   0.715   1.671   4.540 -0.1967  0.2155  2.3818
 7327TIP3    H221939   0.740   1.791   4.451 -2.3751 -1.7609 -1.1369
 7328TIP3   OH221940   0.265   7.041   5.437  0.2468  0.3559 -0.0530
 7328TIP3    H121941   0.346   6.999   5.409 -0.4150 -0.3465 -0.9857
 7328TIP3    H221942   0.200   7.016   5.371 -0.9341  0.2234  1.0928
 7329TIP3   OH221943   4.774   6.588   5.538 -0.2593  0.7111  0.3579
 7329TIP3    H121944   4.820   6.527   5.481  0.3574  0.0342  1.5496
 7329TIP3    H221945   4.842   6.624   5.595 -1.1148 -0.1739  2.0365
 7330TIP3   OH221946   0.813   4.994   0.986 -0.5333  0.2603  0.2083
 7330TIP3    H121947   0.770   5.043   1.057 -2.4008  0.4445 -0.9709
 7330TIP3    H221948   0.865   5.060   0.940  0.6472  0.1511  1.3334
 7331TIP3   OH221949   1.637   5.944   4.452  0.2744 -0.3038  0.7966
 7331TIP3    H121950   1.692   5.898   4.388  0.7050 -0.5822  1.3595
 7331TIP3    H221951   1.594   6.012   4.401 -0.0191 -1.0302  0.0397
 7332TIP3   OH221952   4.136   1.029   4.097 -0.0150 -0.1153 -0.3164
 7332TIP3    H121953   4.125   1.121   4.124 -0.4837 -0.0141 -0.8452
 7332TIP3    H221954   4.055   0.987   4.123  0.7242 -0.7082  1.1802
 7333TIP3   OH221955   3.714   0.162   5.057  0.7280  0.1621  0.2314
 7333TIP3    H121956   3.667   0.185   5.138  0.2507 -0.3061  0.0868
 7333TIP3    H221957   3.798   0.128   5.087 -0.2156 -1.9628  0.6567
 7334TIP3   OH221958   4.329   4.297   3.811 -0.1195 -0.1386  0.2733
 7334TIP3    H121959   4.236   4.313   3.828 -0.2264 -0.1216 -0.2962
 7334TIP3    H221960   4.355   4.234   3.878 -0.5510 -0.1724  0.4129
 7335TIP3   OH221961   5.057   3.807   6.164 -0.3308 -0.2723  0.1568
 7335TIP3    H121962   5.077   3.893   6.199 -1.2736 -0.4645  1.2291
 7335TIP3    H221963   5.075   3.814   6.070  0.1529  0.9068  0.3305
 7336TIP3   OH221964   5.936   1.551   3.362 -0.2542  0.2834  0.6267
 7336TIP3    H121965   6.031   1.552   3.376  0.5609 -1.4509 -3.3692
 7336TIP3    H221966   5.914   1.642   3.344  0.5625  0.7354  1.7477
 7337TIP3   OH221967   4.686   4.316   5.946 -0.2173  0.7344  0.2531
 7337TIP3    H121968   4.625   4.296   6.016 -1.1160  1.4814 -0.2953
 7337TIP3    H221969   4.658   4.260   5.873 -0.4297  1.2722 -0.0860
 7338TIP3   OH221970   7.167   2.258   6.637 -0.2698 -0.2600  0.1703
 7338TIP3    H121971   7.184   2.276   6.730 -0.7707  0.4974  0.1291
 7338TIP3    H221972   7.243   2.294   6.591  0.7653 -2.0771  0.3800
 7339TIP3   OH221973   0.543   3.743   4.685  1.0772  0.3458  0.3939
 7339TIP3    H121974   0.632   3.710   4.673  0.3273 -1.8932  0.5510
 7339TIP3    H221975   0.488   3.682   4.636 -0.7424 -0.7623  3.5182
 7340TIP3   OH221976   2.067   2.634   2.793 -0.2755 -0.1441 -0.0749
 7340TIP3    H121977   2.094   2.663   2.880  2.2441 -1.9464 -0.1581
 7340TIP3    H221978   1.994   2.574   2.809  0.0783 -0.3579  0.7668
 7341TIP3   OH221979   5.539   5.398   3.815 -0.0330 -0.0121  0.2908
 7341TIP3    H121980   5.634   5.393   3.810 -0.0006  1.1571 -0.7840
 7341TIP3    H221981   5.514   5.328   3.876  1.4310 -0.9238 -0.1157
 7342TIP3   OH221982   2.004   0.446   0.362  0.1223  0.3656 -0.2945
 7342TIP3    H121983   1.987   0.524   0.309  1.1550 -0.1808 -1.4908
 7342TIP3    H221984   1.917   0.411   0.382 -0.4929  2.8291  1.9451
 7343TIP3   OH221985   2.741   1.270   3.513  0.0792  0.0405  0.7531
 7343TIP3    H121986   2.720   1.190   3.465 -0.2789  1.0432 -0.8704
 7343TIP3    H221987   2.721   1.341   3.451 -0.2858  1.4274  2.3644
 7344TIP3   OH221988   5.574   1.695   0.519  0.5163  0.1921 -0.1740
 7344TIP3    H121989   5.570   1.600   0.505 -1.0810  0.1930  0.0442
 7344TIP3    H221990   5.592   1.732   0.433 -0.4074 -0.2494 -0.5679
 7345TIP3   OH221991   7.972   0.059   2.389 -0.1040  0.2412 -0.3057
 7345TIP3    H121992   7.970   0.154   2.382  1.3349  0.2034 -2.0302
 7345TIP3    H221993   7.928   0.040   2.471  0.0921  2.4314  0.3682
 7346TIP3   OH221994   6.520   5.057   6.338  0.0011 -0.0018  0.7998
 7346TIP3    H121995   6.540   5.150   6.350  0.1423 -0.1727  1.9491
 7346TIP3    H221996   6.588   5.011   6.386  0.8839 -0.7670 -1.0800
 7347TIP3   OH221997   1.035   7.330   2.128  0.8905  0.2998 -0.4154
 7347TIP3    H121998   0.970   7.392   2.094  1.0741  0.9716  0.4165
 7347TIP3    H221999   1.052   7.270   2.055  0.2899  0.8900 -1.0539
 7348TIP3   OH222000   4.897   3.362   2.368  0.7431 -0.0192  0.0595
 7348TIP3    H122001   4.802   3.361   2.384  1.0724  1.3772  2.7437
 7348TIP3    H222002   4.926   3.274   2.390  0.1248 -0.3948 -0.5671
 7349TIP3   OH222003   1.032   3.627   3.235  0.0285  0.1273  0.6027
 7349TIP3    H122004   1.096   3.692   3.207  0.4075 -0.3270  0.4012
 7349TIP3    H222005   0.996   3.591   3.154 -1.3316  1.1772  0.6951
 7350TIP3   OH222006   7.764   1.649   0.843  0.4399 -0.4447  0.7378
 7350TIP3    H122007   7.681   1.635   0.889  0.5027 -0.2174  0.9232
 7350TIP3    H222008   7.752   1.606   0.758  0.3935 -1.0327  1.0403
 7351TIP3   OH222009   4.044   5.461   2.363  0.1477  0.3364  0.3831
 7351TIP3    H122010   4.131   5.437   2.332 -0.4484 -0.6788 -0.6250
 7351TIP3    H222011   4.032   5.552   2.336 -0.1557 -0.3597 -2.0532
 7352TIP3   OH222012   5.486   7.007   6.099 -0.0122 -0.2978  0.1715
 7352TIP3    H122013   5.406   6.959   6.119 -0.7974  1.3360  1.1705
 7352TIP3    H222014   5.499   6.994   6.005  0.2330 -3.0005  0.5127
 7353TIP3   OH222015   7.354   7.602   4.745 -0.3678  0.1608  0.5870
 7353TIP3    H122016   7.295   7.632   4.675  0.0452  1.3642  0.7255
 7353TIP3    H222017   7.343   7.507   4.747 -2.4594  0.3465  0.7310
 7354TIP3   OH222018   3.091   6.180   2.516  0.0385  0.3527 -0.3813
 7354TIP3    H122019   3.059   6.270   2.525 -0.1877  0.3124 -0.7458
 7354TIP3    H222020   3.181   6.190   2.484  0.5955  0.4791  1.1436
 7355TIP3   OH222021   1.429   7.709   0.584 -0.1025  0.2077  0.1092
 7355TIP3    H122022   1.422   7.802   0.562 -2.2737  0.0714  0.0413
 7355TIP3    H222023   1.523   7.694   0.594  0.3111  2.3501 -0.0880
 7356TIP3   OH222024   0.584   0.346   4.126 -0.0031 -0.2870  0.1079
 7356TIP3    H122025   0.649   0.417   4.128 -0.3986  0.1083 -0.6337
 7356TIP3    H222026   0.579   0.320   4.035 -1.5566  0.3286 -0.0201
 7357TIP3   OH222027   1.692   3.068   1.992  0.4105 -0.5506 -0.1457
 7357TIP3    H122028   1.752   3.108   2.056  0.2448 -0.9906  0.2867
 7357TIP3    H222029   1.737   3.078   1.908 -0.2322  1.7901 -0.2746
 7358TIP3   OH222030   0.873   1.784   2.782 -0.0264 -0.2729  0.2821
 7358TIP3    H122031   0.821   1.706   2.803 -0.1763 -0.0631  0.7089
 7358TIP3    H222032   0.906   1.768   2.694  1.2594 -1.5261  0.9496
 7359TIP3   OH222033   4.178   7.012   0.992  0.1020 -0.2395  0.6829
 7359TIP3    H122034   4.095   6.974   0.964 -1.9577  5.3855 -2.3143
 7359TIP3    H222035   4.230   7.018   0.912  0.6120  2.1516  1.1155
 7360TIP3   OH222036   3.510   4.421   3.958 -0.0670  0.2206 -0.5753
 7360TIP3    H122037   3.542   4.509   3.976 -0.4718 -0.2591  3.3961
 7360TIP3    H222038   3.463   4.395   4.038 -0.7139 -3.2931 -1.8820
 7361TIP3   OH222039   3.463   3.909   0.214  0.3636 -0.1527 -0.0438
 7361TIP3    H122040   3.449   3.893   0.121  2.4525 -1.8942 -0.1566
 7361TIP3    H222041   3.559   3.915   0.224  0.3279 -1.7573  2.1765
 7362TIP3   OH222042   1.157   3.258   2.803 -0.3382 -0.5258  0.0354
 7362TIP3    H122043   1.246   3.224   2.801 -0.3910 -0.6803 -2.7475
 7362TIP3    H222044   1.101   3.180   2.805 -0.4033 -0.5000 -0.5187
 7363TIP3   OH222045   5.143   3.998   2.562 -0.1414  0.1751 -0.3778
 7363TIP3    H122046   5.189   3.933   2.615 -3.8677 -2.1905  0.3254
 7363TIP3    H222047   5.138   4.076   2.618  1.7278  0.0765 -0.0148
 7364TIP3   OH222048   0.380   7.295   0.400  0.1370  0.3590  0.5919
 7364TIP3    H122049   0.456   7.340   0.366  0.5488 -0.6425  0.1521
 7364TIP3    H222050   0.325   7.278   0.324 -0.8897  1.7180  1.0010
 7365TIP3   OH222051   2.415   4.081   5.333  0.0347  0.4603 -0.0503
 7365TIP3    H122052   2.397   4.173   5.350 -1.5815  0.1283  0.1430
 7365TIP3    H222053   2.460   4.050   5.412 -0.7048  0.7488  0.4972
 7366TIP3   OH222054   3.297   6.374   1.697 -0.2907 -0.1151 -0.6439
 7366TIP3    H122055   3.304   6.329   1.613  0.1424  0.2281 -0.7995
 7366TIP3    H222056   3.357   6.327   1.755  1.2906  1.1030 -1.2005
 7367TIP3   OH222057   3.036   2.752   4.747 -0.4866 -0.1877  0.5188
 7367TIP3    H122058   3.016   2.817   4.813 -0.2805  0.7012 -0.2722
 7367TIP3    H222059   2.952   2.711   4.726 -0.4959 -0.7660  1.5963
 7368TIP3   OH222060   2.185   4.385   6.158 -0.3187 -0.3984  0.1162
 7368TIP3    H122061   2.141   4.453   6.106 -0.1375  0.8746  1.5458
 7368TIP3    H222062   2.266   4.368   6.109  1.6538  3.3972  1.5761
 7369TIP3   OH222063   6.498   5.720   6.026  0.0117  0.0558  0.2261
 7369TIP3    H122064   6.536   5.633   6.027 -1.5756 -0.7969 -2.2799
 7369TIP3    H222065   6.407   5.707   5.998 -0.0757  2.5130 -1.0149
 7370TIP3   OH222066   6.008   2.458   4.993  0.4852  0.0655 -0.2604
 7370TIP3    H122067   5.934   2.483   5.048  0.7865 -3.6837  2.2535
 7370TIP3    H222068   6.077   2.521   5.015 -1.5898  3.2232 -2.1778
 7371TIP3   OH222069   2.086   2.646   4.984  0.6106  0.1155  0.2444
 7371TIP3    H122070   2.048   2.560   5.000  1.2803 -0.2240  0.0629
 7371TIP3    H222071   2.101   2.682   5.071  1.8891 -0.6674  0.3781
 7372TIP3   OH222072   6.425   3.531   0.111 -0.1213 -0.4463  0.2189
 7372TIP3    H122073   6.397   3.537   0.019  0.7668 -1.0398 -0.1006
 7372TIP3    H222074   6.492   3.599   0.120  1.1533 -1.6254 -0.0994
 7373TIP3   OH222075   4.161   0.342   0.733 -0.2777  0.2422  0.8061
 7373TIP3    H122076   4.192   0.408   0.795  3.1320 -0.0526 -0.3992
 7373TIP3    H222077   4.153   0.389   0.650  2.8340 -0.8093 -0.2218
 7374TIP3   OH222078   8.301   5.669   2.151  0.4013  0.7199 -0.0495
 7374TIP3    H122079   8.212   5.646   2.123  0.2293  1.5765 -0.2317
 7374TIP3    H222080   8.309   5.763   2.133  1.1129  0.7954  0.5884
 7375TIP3   OH222081   1.451   5.378   0.231  1.0455 -0.7462  0.7845
 7375TIP3    H122082   1.499   5.413   0.156 -0.2208 -0.4542  0.0718
 7375TIP3    H222083   1.498   5.299   0.256  0.6325 -1.7143 -1.3198
 7376TIP3   OH222084   7.647   5.721   0.649 -0.0706  0.0676  0.2426
 7376TIP3    H122085   7.634   5.700   0.742 -0.1012 -0.0887  0.2046
 7376TIP3    H222086   7.742   5.715   0.637 -0.2068 -2.4287 -0.2911
 7377TIP3   OH222087   6.453   6.395   4.296 -0.4567 -0.2913  0.2008
 7377TIP3    H122088   6.508   6.333   4.248 -2.7152 -0.9781 -1.7071
 7377TIP3    H222089   6.490   6.396   4.384  3.8966  0.9462 -1.3481
 7378TIP3   OH222090   5.013   0.792   0.525  0.2574  0.4263  0.1734
 7378TIP3    H122091   4.953   0.824   0.458 -1.3646  0.0054  1.3576
 7378TIP3    H222092   5.033   0.870   0.578 -0.8243  0.2151  0.9228
 7379TIP3   OH222093   7.546   2.074   3.986 -0.2540 -0.1362  0.2611
 7379TIP3    H122094   7.587   2.143   4.040 -0.8187 -0.5272  1.2102
 7379TIP3    H222095   7.486   2.121   3.929  0.4902  0.3060 -0.1854
 7380TIP3   OH222096   2.826   0.456   0.585 -0.3699  0.2105  0.4701
 7380TIP3    H122097   2.762   0.388   0.608 -0.9566  0.5905 -0.0055
 7380TIP3    H222098   2.773   0.535   0.575  0.3326  0.8035  1.2597
 7381TIP3   OH222099   6.777   6.733   3.489 -0.0494 -0.7277  0.0551
 7381TIP3    H122100   6.682   6.736   3.499  0.1607  1.6432  2.2691
 7381TIP3    H222101   6.807   6.676   3.560  0.2202 -0.5924  0.0532
 7382TIP3   OH222102   8.206   4.830   2.619 -0.2976  0.0456 -0.5903
 7382TIP3    H122103   8.225   4.919   2.588  0.4761 -0.0740 -0.4870
 7382TIP3    H222104   8.181   4.782   2.540  1.9773 -0.3369 -1.1652
 7383TIP3   OH222105   0.700   1.864   3.339 -0.0127  0.4847  0.0332
 7383TIP3    H122106   0.782   1.907   3.317  1.2322 -1.6488  0.2221
 7383TIP3    H222107   0.641   1.887   3.268  1.6810 -0.3392 -1.7185
 7384TIP3   OH222108   3.395   4.113   4.027  0.3447  0.0262  0.6453
 7384TIP3    H122109   3.345   4.174   4.082  1.7488  1.2057  0.6560
 7384TIP3    H222110   3.448   4.062   4.089 -1.2587 -1.7313  0.6991
 7385TIP3   OH222111   7.131   4.790   5.659 -0.3953 -0.4380  0.2393
 7385TIP3    H122112   7.086   4.733   5.597  1.5923 -0.8299 -0.9200
 7385TIP3    H222113   7.122   4.745   5.743 -2.8598 -0.0580  0.2280
 7386TIP3   OH222114   4.570   2.322   6.438  0.0306  0.0866 -0.5852
 7386TIP3    H122115   4.532   2.309   6.351 -0.0955  0.1580 -0.5422
 7386TIP3    H222116   4.551   2.414   6.459 -0.6068 -0.1327 -0.1632
 7387TIP3   OH222117   2.171   1.381   4.092  0.3173 -0.0310 -0.9908
 7387TIP3    H122118   2.216   1.434   4.158  0.8406 -2.8998  1.1954
 7387TIP3    H222119   2.225   1.389   4.013  0.8079  1.9321 -0.4981
 7388TIP3   OH222120   7.979   6.230   1.840 -0.0636 -0.7081  0.4041
 7388TIP3    H122121   7.976   6.263   1.930  0.0430  1.4893 -0.3332
 7388TIP3    H222122   8.060   6.266   1.804 -0.4420 -0.9713 -0.7602
 7389TIP3   OH222123   7.005   5.122   6.309  0.2580  0.5269  0.3427
 7389TIP3    H122124   6.962   5.051   6.357 -1.0393  0.5859 -0.6834
 7389TIP3    H222125   7.048   5.080   6.235 -3.7082  1.0051 -2.5568
 7390TIP3   OH222126   5.936   7.421   3.590  0.3100 -0.0407  0.9090
 7390TIP3    H122127   6.002   7.354   3.605  1.1639  0.5552 -0.0655
 7390TIP3    H222128   5.870   7.378   3.535  1.0735  0.0190 -0.0866
 7391TIP3   OH222129   4.287   4.732   5.167  0.4300  0.6514 -0.5467
 7391TIP3    H122130   4.322   4.695   5.086  0.7151 -1.4757  0.4765
 7391TIP3    H222131   4.196   4.703   5.169  0.5908  0.1704  0.1611
 7392TIP3   OH222132   3.986   6.950   2.388  0.7627  0.2383  0.5657
 7392TIP3    H122133   3.916   7.015   2.390  0.8441  0.3304  0.4426
 7392TIP3    H222134   3.942   6.867   2.409  0.7222  0.3845  1.0820
 7393TIP3   OH222135   6.688   0.389   5.927 -0.0814  0.5865  0.2285
 7393TIP3    H122136   6.734   0.366   5.847 -0.3375  0.4539  0.1167
 7393TIP3    H222137   6.596   0.398   5.900  0.1203  2.5502  0.1115
 7394TIP3   OH222138   6.450   4.050   0.950 -0.4060 -0.6847  0.1943
 7394TIP3    H122139   6.522   4.047   1.013  1.9421  0.6739 -2.1752
 7394TIP3    H222140   6.403   4.131   0.970  0.9215  0.2494 -0.2843
 7395TIP3   OH222141   6.713   5.378   3.213  0.4817  0.0656 -0.2719
 7395TIP3    H122142   6.629   5.333   3.201  0.4971  0.1346 -0.6673
 7395TIP3    H222143   6.746   5.346   3.297 -0.2401  0.5190  0.1978
 7396TIP3   OH222144   4.255   3.011   0.070 -0.6305  0.2360 -0.2612
 7396TIP3    H122145   4.188   3.049   0.127  1.2727  3.3988  0.1157
 7396TIP3    H222146   4.238   3.050  -0.015 -0.2748 -0.2925 -0.5751
 7397TIP3   OH222147   4.810   5.868   0.294 -0.8067  0.1138 -0.2576
 7397TIP3    H122148   4.868   5.868   0.218  0.7419  1.1330  0.8710
 7397TIP3    H222149   4.819   5.780   0.331 -0.8565 -0.0934 -0.7399
 7398TIP3   OH222150   5.151   3.549   1.376  0.4122 -0.5546 -0.7031
 7398TIP3    H122151   5.152   3.644   1.388  0.0377 -0.6188 -0.1529
 7398TIP3    H222152   5.184   3.514   1.459 -3.0610 -1.0388  0.6221
 7399TIP3   OH222153   1.728   0.240   1.245  0.1383  0.5723 -0.6264
 7399TIP3    H122154   1.646   0.200   1.273  0.5837 -0.5782 -0.9197
 7399TIP3    H222155   1.760   0.286   1.322  0.7709 -1.5714  0.4787
 7400TIP3   OH222156   0.070   1.722   3.737 -0.0973  0.7407  0.0854
 7400TIP3    H122157   0.118   1.805   3.732 -1.3325  1.5100  0.6476
 7400TIP3    H222158   0.048   1.702   3.646  1.3937  0.2782 -0.2126
 7401TIP3   OH222159   4.799   1.893   2.686  0.3066  0.3556  1.2734
 7401TIP3    H122160   4.714   1.922   2.653 -0.6427 -2.3737  1.0775
 7401TIP3    H222161   4.841   1.849   2.612 -1.3170 -4.7158  2.9255
 7402TIP3   OH222162   2.467   7.602   6.606  0.5343  0.3274 -0.2192
 7402TIP3    H122163   2.380   7.629   6.635  1.3625  2.8705  0.0859
 7402TIP3    H222164   2.468   7.621   6.512  1.0059  1.0482 -0.0736
 7403TIP3   OH222165   5.480   3.502   5.401 -0.8195 -0.1603  0.4230
 7403TIP3    H122166   5.517   3.568   5.460 -1.7967 -0.0849  0.9881
 7403TIP3    H222167   5.536   3.503   5.324 -0.1263  0.4848  0.9256
 7404TIP3   OH222168   0.677   1.553   6.228 -0.2396  0.0374 -0.2297
 7404TIP3    H122169   0.663   1.587   6.140  1.7232 -1.0621 -1.0262
 7404TIP3    H222170   0.593   1.514   6.252 -1.3135  1.8013 -0.8902
 7405TIP3   OH222171   5.223   6.428   1.464  0.1506 -0.2960  0.5509
 7405TIP3    H122172   5.281   6.471   1.527  0.0044  0.3803  0.2429
 7405TIP3    H222173   5.166   6.499   1.433  1.3424 -0.1990 -1.6297
 7406TIP3   OH222174   3.675   2.724   1.038 -0.5977  0.5881 -0.3707
 7406TIP3    H122175   3.704   2.786   0.971 -0.4044  1.1128  0.1926
 7406TIP3    H222176   3.623   2.776   1.099  0.1152  0.3466  0.4622
 7407TIP3   OH222177   4.961   5.804   2.671  0.3327 -0.0266  0.3731
 7407TIP3    H122178   4.933   5.730   2.726  0.7488  0.5321  1.3489
 7407TIP3    H222179   4.883   5.858   2.662  0.5988  0.5858  1.5720
 7408TIP3   OH222180   2.162   0.631   0.028 -0.2179  0.2386  0.4840
 7408TIP3    H122181   2.073   0.625   0.063 -0.9868  0.0830 -1.3313
 7408TIP3    H222182   2.172   0.723   0.003 -0.3704  0.0078 -0.4695
 7409TIP3   OH222183   5.117   0.326   3.907  0.0901  0.0991 -0.4342
 7409TIP3    H122184   5.147   0.334   3.817 -2.8319 -0.4090 -1.5679
 7409TIP3    H222185   5.184   0.273   3.950  1.2208 -0.2242 -2.4726
 7410TIP3   OH222186   6.957   2.176   0.649  0.6922  0.2195 -0.6382
 7410TIP3    H122187   7.001   2.143   0.727 -0.5632  2.9334  1.3889
 7410TIP3    H222188   6.989   2.266   0.640 -2.3021  1.3894 -0.6640
 7411TIP3   OH222189   0.997   6.106   3.815 -0.3907 -0.2182  0.3891
 7411TIP3    H122190   1.012   6.103   3.720  0.0979 -1.9875  0.4873
 7411TIP3    H222191   0.902   6.113   3.824 -0.6454 -2.1429 -0.2732
 7412TIP3   OH222192   2.452   5.585   4.686 -0.2719  0.4414  0.1474
 7412TIP3    H122193   2.510   5.637   4.742 -1.0879 -0.4936  1.9338
 7412TIP3    H222194   2.511   5.525   4.639  0.2506 -0.4882  1.9173
 7413TIP3   OH222195   3.952   7.473   1.122  0.2889  1.0778  0.1677
 7413TIP3    H122196   3.930   7.386   1.154  1.6572  0.3051 -0.8975
 7413TIP3    H222197   3.938   7.531   1.198  2.6917 -0.5524  1.9740
 7414TIP3   OH222198   2.439   6.381   6.333 -0.4118 -0.2433  0.9048
 7414TIP3    H122199   2.368   6.406   6.274  0.7592 -1.2265 -1.0472
 7414TIP3    H222200   2.433   6.286   6.339  0.7343 -0.3579  0.6290
 7415TIP3   OH222201   7.192   4.416   5.011 -0.2448  0.0504 -0.2711
 7415TIP3    H122202   7.271   4.370   4.984  0.0111  0.5829 -0.4430
 7415TIP3    H222203   7.183   4.487   4.948 -0.9537 -0.1017 -0.3500
 7416TIP3   OH222204   6.207   3.922   2.271 -0.2392  0.7096 -0.3358
 7416TIP3    H122205   6.219   3.828   2.266 -1.5920  0.4890  0.1440
 7416TIP3    H222206   6.292   3.959   2.248 -0.0368 -0.5889 -1.8378
 7417TIP3   OH222207   2.305   3.682   2.404 -0.5555  0.1924  0.3463
 7417TIP3    H122208   2.241   3.632   2.454 -0.5287  0.4136  0.6053
 7417TIP3    H222209   2.336   3.749   2.465  1.3831 -1.1209  0.8943
 7418TIP3   OH222210   4.617   3.937   3.692  0.0479  0.5213  0.5640
 7418TIP3    H122211   4.533   3.982   3.697 -0.2604 -0.1412  1.9824
 7418TIP3    H222212   4.644   3.927   3.783  0.7809 -0.8858  0.2221
 7419TIP3   OH222213   5.929   4.588   1.431  0.0356  0.0248 -0.2754
 7419TIP3    H122214   5.839   4.599   1.461  0.1472  0.6879 -0.1651
 7419TIP3    H222215   5.979   4.652   1.483  0.3791  0.5396 -1.2188
 7420TIP3   OH222216   5.095   5.048   5.033  0.4070  0.2926  0.1900
 7420TIP3    H122217   5.018   5.071   4.982  1.6336  0.4161 -1.7159
 7420TIP3    H222218   5.078   4.959   5.064 -0.4222  0.2733 -0.3016
 7421TIP3   OH222219   4.247   4.068   0.945 -0.1076  0.2657  0.3945
 7421TIP3    H122220   4.296   4.093   1.023  2.9618 -1.0931 -0.9340
 7421TIP3    H222221   4.306   4.089   0.872 -1.8146 -0.8272 -1.3845
 7422TIP3   OH222222   1.603   3.243   5.492 -0.0239  0.2413 -0.2220
 7422TIP3    H122223   1.601   3.334   5.521 -0.9150  0.5537 -1.2282
 7422TIP3    H222224   1.525   3.203   5.532  0.3027 -0.0576  0.1259
 7423TIP3   OH222225   3.126   5.482   0.328 -0.4092  0.5877 -0.4515
 7423TIP3    H122226   3.205   5.440   0.294  1.2043  3.3142 -0.3451
 7423TIP3    H222227   3.064   5.410   0.340  1.6419 -1.5086 -1.6277
 7424TIP3   OH222228   4.295   3.925   5.616 -0.0312  0.5141 -0.5404
 7424TIP3    H122229   4.264   3.842   5.579  3.3199 -1.3999  0.5537
 7424TIP3    H222230   4.256   3.928   5.704  0.5549 -0.3826 -0.2445
 7425TIP3   OH222231   7.360   4.131   3.974  0.3607  0.2865  0.0807
 7425TIP3    H122232   7.301   4.162   4.043 -1.5982 -1.6065 -0.6288
 7425TIP3    H222233   7.401   4.052   4.010  0.8089  0.3679 -0.2380
 7426TIP3   OH222234   0.611   6.633   1.682 -0.0587 -1.0180 -0.1469
 7426TIP3    H122235   0.680   6.695   1.657  0.6288 -1.3381  0.8871
 7426TIP3    H222236   0.642   6.549   1.648 -0.7029 -0.9131 -1.0270
 7427TIP3   OH222237   2.472   3.846   4.114  0.8628  0.5885  0.3583
 7427TIP3    H122238   2.454   3.929   4.072 -1.7171  0.5296  1.1853
 7427TIP3    H222239   2.536   3.867   4.182  1.6374  1.5076 -0.6174
 7428TIP3   OH222240   7.479   4.656   4.044  0.6010 -0.7336 -0.4138
 7428TIP3    H122241   7.556   4.688   3.998 -0.1917  0.3067 -1.0508
 7428TIP3    H222242   7.479   4.702   4.128  0.3681 -0.3031 -0.6479
 7429TIP3   OH222243   0.717   2.642   0.799  0.1533  0.2418  0.9618
 7429TIP3    H122244   0.651   2.676   0.859  0.4358 -1.2256  2.1551
 7429TIP3    H222245   0.680   2.561   0.764 -0.0580  1.1171 -0.9923
 7430TIP3   OH222246   3.453   0.637   2.204  1.3331 -0.0746 -0.0793
 7430TIP3    H122247   3.474   0.619   2.296  1.1966 -0.4896 -0.1258
 7430TIP3    H222248   3.442   0.550   2.165  1.3639  0.1005 -0.4821
 7431TIP3   OH222249   6.406   5.793   3.001  0.3646  0.8068  0.1374
 7431TIP3    H122250   6.414   5.817   2.909  0.6907  3.0196  0.6680
 7431TIP3    H222251   6.439   5.703   3.006 -0.2153  0.4293 -1.9707
 7432TIP3   OH222252   0.711   4.729   3.872 -0.6631 -0.3119 -0.3750
 7432TIP3    H122253   0.773   4.667   3.911  0.4864  0.2548 -1.2545
 7432TIP3    H222254   0.685   4.689   3.790 -0.7071 -0.0893 -0.4696
 7433TIP3   OH222255   0.193   3.678   6.615  0.4085 -0.3085 -0.1462
 7433TIP3    H122256   0.175   3.584   6.623  0.7052 -0.3044  0.6870
 7433TIP3    H222257   0.116   3.720   6.654  0.3641 -0.2082 -0.3421
 7434TIP3   OH222258   5.380   5.183   1.853  0.1677 -0.2943  0.0427
 7434TIP3    H122259   5.461   5.148   1.891  0.6122 -1.1019 -1.5830
 7434TIP3    H222260   5.334   5.105   1.820 -1.8952 -0.0105  1.9890
 7435TIP3   OH222261   0.905   5.246   5.543 -0.4390 -0.1219 -0.7494
 7435TIP3    H122262   0.960   5.198   5.481  0.7333  2.9648 -2.2945
 7435TIP3    H222263   0.817   5.211   5.528  0.4547 -2.5974 -0.8372
 7436TIP3   OH222264   6.033   2.036   5.970  0.0024 -0.3629 -0.4451
 7436TIP3    H122265   6.109   2.069   5.921  1.2698 -1.9200  0.3725
 7436TIP3    H222266   6.067   2.021   6.058 -1.6361  0.1660  0.3043
 7437TIP3   OH222267   1.761   1.635   4.158  0.1386 -0.0696 -0.5938
 7437TIP3    H122268   1.827   1.672   4.101  0.3872  1.7056  0.7584
 7437TIP3    H222269   1.791   1.545   4.175  0.0206 -0.6593 -3.1941
 7438TIP3   OH222270   7.880   3.511   3.541  0.3071 -0.5484  0.0371
 7438TIP3    H122271   7.903   3.495   3.450  0.9982 -2.1648  0.4553
 7438TIP3    H222272   7.786   3.489   3.547  0.3921 -0.9848 -0.1806
 7439TIP3   OH222273   5.731   0.840   1.056 -0.1209 -0.0756  0.3232
 7439TIP3    H122274   5.719   0.753   1.017 -0.7861 -0.2715  0.9443
 7439TIP3    H222275   5.648   0.885   1.039  0.4834  0.7239 -0.6590
 7440TIP3   OH222276   2.375   5.022   5.542  0.0022  0.1905 -0.5755
 7440TIP3    H122277   2.414   5.074   5.471  1.9536  0.4068  0.5670
 7440TIP3    H222278   2.396   5.072   5.622 -0.6417 -0.9093  0.3072
 7441TIP3   OH222279   0.971   6.078   3.015  0.2582 -0.9153 -0.4381
 7441TIP3    H122280   0.987   6.148   3.077 -1.3205 -1.3138  0.4482
 7441TIP3    H222281   1.055   6.031   3.010  0.5582 -0.5728  1.0057
 7442TIP3   OH222282   0.380   3.201   2.371  0.6005  0.2485  0.3165
 7442TIP3    H122283   0.413   3.280   2.329 -0.1572  0.3830 -0.0313
 7442TIP3    H222284   0.342   3.232   2.454 -0.8442  0.4359 -0.3973
 7443TIP3   OH222285   7.614   7.799   4.357 -0.1058 -1.1252  0.0945
 7443TIP3    H122286   7.526   7.831   4.334  0.5439 -0.0388 -1.0330
 7443TIP3    H222287   7.613   7.793   4.452 -2.0138 -3.0481  0.0334
 7444TIP3   OH222288   7.299   4.051   3.540  0.3598 -0.2133  0.2584
 7444TIP3    H122289   7.336   4.044   3.628 -1.1501 -0.3966  0.9012
 7444TIP3    H222290   7.301   3.962   3.505 -0.6565 -0.4618  0.8023
 7445TIP3   OH222291   2.893   7.855   6.342  0.4741  0.2741 -0.0523
 7445TIP3    H122292   2.977   7.867   6.297  0.2375  0.6811 -0.3937
 7445TIP3    H222293   2.866   7.766   6.321  0.1260  0.6266 -1.1276
 7446TIP3   OH222294   6.890   2.419   3.916 -0.2478  0.0601 -0.0744
 7446TIP3    H122295   6.874   2.366   3.994 -1.3222  0.9345  0.3185
 7446TIP3    H222296   6.827   2.387   3.852  1.4551 -1.5209 -1.0772
 7447TIP3   OH222297   6.340   3.126   4.104  0.6038 -0.1072  0.1587
 7447TIP3    H122298   6.260   3.173   4.082  1.5730  1.2834 -0.5319
 7447TIP3    H222299   6.371   3.090   4.021  0.5078 -0.9542  0.4834
 7448TIP3   OH222300   2.320   0.122   4.728 -0.1137 -0.2237 -0.2428
 7448TIP3    H122301   2.338   0.040   4.774 -0.1067 -0.2540 -0.3000
 7448TIP3    H222302   2.229   0.114   4.699  0.0428 -0.4146 -0.6752
 7449TIP3   OH222303   4.111   6.353   5.195 -0.2997 -0.4638  0.1071
 7449TIP3    H122304   4.045   6.366   5.263 -0.5098  0.5364 -0.2743
 7449TIP3    H222305   4.193   6.380   5.237 -0.0314 -2.0569  0.7039
 7450TIP3   OH222306   1.172   5.299   0.082 -0.6716 -0.0741  0.5539
 7450TIP3    H122307   1.092   5.331   0.125 -0.5710 -1.1708  1.6203
 7450TIP3    H222308   1.165   5.331  -0.007 -1.9912  0.4108  0.8029
 7451TIP3   OH222309   3.380   6.093   4.499 -0.2808 -0.4244 -0.0893
 7451TIP3    H122310   3.464   6.130   4.471 -0.1067 -1.3909 -0.9259
 7451TIP3    H222311   3.403   6.031   4.568 -0.2476 -0.9607 -0.5713
 7452TIP3   OH222312   6.893   7.720   2.606 -0.8778 -0.6375 -0.2911
 7452TIP3    H122313   6.866   7.633   2.577  1.4710 -1.2533 -0.8191
 7452TIP3    H222314   6.864   7.778   2.536 -1.6522 -1.0960 -0.3685
 7453TIP3   OH222315   0.552   5.480   0.974  0.0442  0.3971 -0.2724
 7453TIP3    H122316   0.515   5.561   0.938  2.2595  1.2125 -0.9378
 7453TIP3    H222317   0.531   5.413   0.910  1.4539  1.2658 -1.7399
 7454TIP3   OH222318   8.040   4.935   6.391 -0.1645  0.0062 -0.3051
 7454TIP3    H122319   7.994   4.890   6.461 -1.5408 -0.4532 -1.4662
 7454TIP3    H222320   8.103   4.871   6.358 -0.5876 -0.3064 -0.5035
 7455TIP3   OH222321   4.063   5.378   6.528 -0.3302 -0.2410 -0.3729
 7455TIP3    H122322   4.007   5.392   6.604 -1.3427 -1.2051 -0.9096
 7455TIP3    H222323   4.006   5.338   6.463  0.6996 -0.1269 -1.3825
 7456TIP3   OH222324   0.299   6.737   0.790 -0.6641  0.2428  0.2577
 7456TIP3    H122325   0.294   6.643   0.771  0.9918  0.4534 -1.4817
 7456TIP3    H222326   0.209   6.768   0.777 -0.7423 -0.6751 -1.8887
 7457TIP3   OH222327   6.725   5.622   3.929  0.7483 -0.3682 -0.1517
 7457TIP3    H122328   6.808   5.642   3.886  0.3849  1.3605 -0.1505
 7457TIP3    H222329   6.741   5.639   4.022  0.4039 -0.0240 -0.1524
 7458TIP3   OH222330   2.950   2.101   1.558 -0.6007 -0.2984  0.1953
 7458TIP3    H122331   2.886   2.093   1.488  0.5120  0.4408 -0.9295
 7458TIP3    H222332   3.020   2.039   1.534  0.9005  1.6275 -0.6352
 7459TIP3   OH222333   6.921   0.643   2.779 -0.2104 -0.2266 -0.2140
 7459TIP3    H122334   6.997   0.650   2.721  0.7976 -1.3058  0.9204
 7459TIP3    H222335   6.943   0.573   2.840 -1.8431 -0.1057  0.5895
 7460TIP3   OH222336   3.942   3.885   2.933 -0.1837  0.4679  0.6915
 7460TIP3    H122337   3.873   3.819   2.933  0.0529  0.2162  1.0593
 7460TIP3    H222338   3.897   3.966   2.959 -0.3992  0.3681  0.6306
 7461TIP3   OH222339   4.806   5.346   2.347  0.2244 -0.3034  0.3906
 7461TIP3    H122340   4.787   5.289   2.272  1.6535  0.6167 -0.7393
 7461TIP3    H222341   4.822   5.286   2.419 -0.6141 -1.2376 -0.1675
 7462TIP3   OH222342   6.955   4.995   1.128  0.0654 -0.2285  0.4461
 7462TIP3    H122343   6.978   5.066   1.187 -2.3957 -0.6201  2.0353
 7462TIP3    H222344   6.918   5.039   1.051  2.0528  0.2481 -0.2853
 7463TIP3   OH222345   5.573   1.202   3.761  0.2453 -0.3720  0.1808
 7463TIP3    H122346   5.514   1.275   3.744  0.2290 -0.4389 -0.0473
 7463TIP3    H222347   5.657   1.229   3.724  0.0669 -0.7467 -0.4971
 7464TIP3   OH222348   2.991   4.075   4.932 -0.0130 -0.1813  0.2042
 7464TIP3    H122349   3.031   4.157   4.961  0.8066 -0.2301 -0.7494
 7464TIP3    H222350   2.911   4.068   4.985  0.4521  0.6780  1.0645
 7465TIP3   OH222351   6.568   2.382   1.070  0.6846  0.7379 -0.6930
 7465TIP3    H122352   6.541   2.474   1.080  0.9936  1.0157 -2.1474
 7465TIP3    H222353   6.591   2.374   0.977  0.9513 -0.7429 -0.5221
 7466TIP3   OH222354   0.725   5.863   3.895  0.1226  0.0474 -0.0916
 7466TIP3    H122355   0.795   5.813   3.936  0.0790 -0.2446 -0.3666
 7466TIP3    H222356   0.668   5.888   3.967  0.9505  1.0165  0.2465
 7467TIP3   OH222357   5.893   5.598   1.919 -0.8152  0.0677 -0.6710
 7467TIP3    H122358   5.798   5.587   1.929 -0.6332 -0.1950  1.1807
 7467TIP3    H222359   5.929   5.514   1.949  0.0799  1.0854  1.2980
 7468TIP3   OH222360   5.982   0.400   4.605  0.2917  0.2583 -0.3399
 7468TIP3    H122361   5.935   0.422   4.685  0.0026  0.7050 -0.6291
 7468TIP3    H222362   6.007   0.484   4.568  0.5597  0.0502 -0.6380
 7469TIP3   OH222363   5.889   2.340   1.609 -0.0182  0.0326  0.2219
 7469TIP3    H122364   5.856   2.422   1.573  0.6240 -0.1498 -0.7980
 7469TIP3    H222365   5.983   2.344   1.597  0.1463 -0.3544  1.2457
 7470TIP3   OH222366   6.855   7.697   4.007  0.0775 -0.2156  0.1206
 7470TIP3    H122367   6.949   7.697   4.021  0.4561 -0.7881 -2.0542
 7470TIP3    H222368   6.818   7.723   4.091  2.1128 -1.0796  1.3561
 7471TIP3   OH222369   0.611   3.477   0.337  0.2613 -0.9228 -0.1084
 7471TIP3    H122370   0.578   3.440   0.256  0.0423 -2.2116  0.5450
 7471TIP3    H222371   0.551   3.549   0.358  0.2117 -0.7083 -0.9672
 7472TIP3   OH222372   3.325   6.989   0.090 -0.1614 -0.0626 -0.1539
 7472TIP3    H122373   3.344   6.906   0.132 -1.1684 -0.1615  0.1278
 7472TIP3    H222374   3.371   6.985   0.006 -0.3185 -0.9609 -0.2010
 7473TIP3   OH222375   3.596   7.737   1.364  0.0120  0.1338  0.0139
 7473TIP3    H122376   3.643   7.680   1.424 -0.3004 -0.4688 -0.3085
 7473TIP3    H222377   3.649   7.817   1.360  0.3157 -0.0308  0.6618
 7474TIP3   OH222378   1.644   6.722   0.422 -0.0446 -0.4422 -0.0281
 7474TIP3    H122379   1.575   6.692   0.481  0.1633 -2.3650 -0.7117
 7474TIP3    H222380   1.613   6.698   0.334  1.1905 -0.7550 -0.3967
 7475TIP3   OH222381   4.173   5.077   5.314 -0.3778  0.0493  0.1219
 7475TIP3    H122382   4.100   5.025   5.350 -0.7216 -0.3507 -1.0978
 7475TIP3    H222383   4.189   5.144   5.380 -0.4196 -1.1471  1.4045
 7476TIP3   OH222384   7.900   1.698   4.799 -0.0931  0.5228 -0.1624
 7476TIP3    H122385   7.868   1.714   4.888 -1.3720  1.0082 -0.6839
 7476TIP3    H222386   7.850   1.758   4.745 -0.6051 -0.9794 -1.4346
 7477TIP3   OH222387   5.524   6.273   5.880 -0.4573  0.1721  0.4215
 7477TIP3    H122388   5.602   6.328   5.877 -0.3203  0.0025  0.8913
 7477TIP3    H222389   5.498   6.273   5.972  1.4315 -3.1708  1.0959
 7478TIP3   OH222390   1.439   2.795   3.017 -0.0156 -0.0721 -0.7201
 7478TIP3    H122391   1.511   2.733   3.029 -0.9411 -0.8570  1.4324
 7478TIP3    H222392   1.456   2.836   2.932  2.7933 -0.3933 -0.4127
 7479TIP3   OH222393   4.506   1.398   3.382 -1.0162 -0.2159  0.0302
 7479TIP3    H122394   4.448   1.465   3.417 -2.7537 -0.6918 -1.7425
 7479TIP3    H222395   4.524   1.340   3.456 -1.3530  0.9197  1.0342
 7480TIP3   OH222396   7.212   2.225   4.260  0.1923 -0.0199 -0.1442
 7480TIP3    H122397   7.151   2.293   4.287  0.2804  0.4490 -1.0940
 7480TIP3    H222398   7.197   2.215   4.166  1.1882 -0.2817 -0.2897
 7481TIP3   OH222399   6.009   0.201   0.959  0.3134  0.0343  0.1788
 7481TIP3    H122400   5.979   0.111   0.969  0.2105  0.0872  0.3543
 7481TIP3    H222401   6.098   0.193   0.925  1.0596 -0.1954  2.0135
 7482TIP3   OH222402   4.589   0.765   0.128 -0.0706 -0.4147  0.6216
 7482TIP3    H122403   4.534   0.693   0.096 -1.5997  0.5964  0.8920
 7482TIP3    H222404   4.636   0.795   0.051 -1.4113 -0.0091 -0.0742
 7483TIP3   OH222405   1.799   7.137   2.029 -0.3269  0.5575  0.7103
 7483TIP3    H122406   1.824   7.049   2.057  0.2690  0.3037 -0.5394
 7483TIP3    H222407   1.704   7.136   2.030 -0.3705 -0.6786 -0.8957
 7484TIP3   OH222408   2.810   0.946   4.276 -0.4164  0.1291 -0.3351
 7484TIP3    H122409   2.800   1.018   4.339 -0.9634  1.0306 -1.4199
 7484TIP3    H222410   2.903   0.928   4.275 -0.3799  0.2242  0.6034
 7485TIP3   OH222411   3.739   0.557   0.813  0.4943  0.3263 -0.4026
 7485TIP3    H122412   3.672   0.495   0.784  0.6252  0.3532 -0.7643
 7485TIP3    H222413   3.763   0.527   0.901  0.8993 -0.4187 -0.7574
 7486TIP3   OH222414   8.296   3.661   3.967  0.4220  0.1837 -0.3446
 7486TIP3    H122415   8.353   3.709   4.027  2.0944 -0.8595 -1.0169
 7486TIP3    H222416   8.241   3.607   4.024 -0.4138  1.6933  0.3455
 7487TIP3   OH222417   7.995   7.286   3.146  0.1757  0.1926  0.1643
 7487TIP3    H122418   7.950   7.368   3.126 -0.3797  0.1976  1.3608
 7487TIP3    H222419   7.985   7.275   3.241  1.3484 -0.6099  0.2171
 7488TIP3   OH222420   4.617   5.860   0.656 -0.0514 -0.2865 -0.0679
 7488TIP3    H122421   4.618   5.836   0.748  1.2424 -2.1079 -0.4937
 7488TIP3    H222422   4.524   5.872   0.635 -0.3404  0.5701  1.5274
 7489TIP3   OH222423   4.975   7.363   2.213 -0.1041  0.4029 -0.0252
 7489TIP3    H122424   4.999   7.422   2.284 -1.4490 -0.3834  1.1424
 7489TIP3    H222425   4.988   7.415   2.133  1.2450  1.3695  0.7846
 7490TIP3   OH222426   3.353   7.470   3.986 -0.0384  0.0913  0.8543
 7490TIP3    H122427   3.300   7.396   4.015 -0.3955  0.1748  0.4202
 7490TIP3    H222428   3.430   7.430   3.947  2.0145 -0.0486  4.6004
 7491TIP3   OH222429   7.320   3.518   0.971  0.1930 -0.1165 -0.5176
 7491TIP3    H122430   7.415   3.507   0.970  0.1278 -0.7232 -1.0759
 7491TIP3    H222431   7.287   3.448   0.915 -0.7460 -1.3628  1.4657
 7492TIP3   OH222432   0.755   6.588   1.146 -0.3006 -0.2357  0.2454
 7492TIP3    H122433   0.691   6.528   1.185 -0.8199  0.0735 -0.1088
 7492TIP3    H222434   0.829   6.587   1.207  0.0844 -1.9215 -0.2082
 7493TIP3   OH222435   6.743   6.721   5.675  0.2856  0.1367 -0.1683
 7493TIP3    H122436   6.738   6.735   5.580 -1.4400  2.4483  0.1547
 7493TIP3    H222437   6.836   6.732   5.696  0.7203 -0.6107 -1.5948
 7494TIP3   OH222438   1.505   4.540   5.797  0.1599 -0.7754 -0.1869
 7494TIP3    H122439   1.423   4.585   5.817  0.8702  1.0231 -1.1010
 7494TIP3    H222440   1.572   4.609   5.800  1.6356 -2.1566  0.3611
 7495TIP3   OH222441   5.390   5.932   2.138  0.3252 -0.1776 -0.0274
 7495TIP3    H122442   5.404   5.848   2.093  1.4811 -0.2057  0.3325
 7495TIP3    H222443   5.312   5.919   2.191  0.0618 -0.7771 -0.5490
 7496TIP3   OH222444   2.136   0.816   3.484  0.3931  0.5388 -0.1331
 7496TIP3    H122445   2.107   0.740   3.534 -0.3277  1.2494  0.5570
 7496TIP3    H222446   2.128   0.788   3.392 -0.3415 -0.0510  0.0984
 7497TIP3   OH222447   2.698   4.509   0.411 -0.1327 -0.0398 -0.3810
 7497TIP3    H122448   2.665   4.592   0.378 -0.2407  0.4655  0.9313
 7497TIP3    H222449   2.729   4.529   0.500  0.8038 -1.1771 -0.4286
 7498TIP3   OH222450   4.479   5.091   2.249  0.1719 -0.0833 -0.4913
 7498TIP3    H122451   4.491   5.118   2.340  0.0920  0.2500 -0.5780
 7498TIP3    H222452   4.560   5.117   2.205  0.2258 -0.2787 -0.5059
 7499TIP3   OH222453   1.370   3.628   0.689  0.1948  0.3307 -0.3073
 7499TIP3    H122454   1.337   3.641   0.600  0.6841  2.4670 -0.2382
 7499TIP3    H222455   1.301   3.579   0.734 -1.7950  2.4343 -0.8769
 7500TIP3   OH222456   7.730   2.477   3.490 -0.0830  0.0052 -0.0962
 7500TIP3    H122457   7.752   2.569   3.501 -0.7409 -0.0035  1.5012
 7500TIP3    H222458   7.814   2.433   3.475  0.1851  0.9081 -1.3803
 7501TIP3   OH222459   1.667   4.942   4.446 -0.2882 -0.1978  0.0565
 7501TIP3    H122460   1.640   5.019   4.496 -2.5023 -0.6069 -0.3891
 7501TIP3    H222461   1.748   4.913   4.488 -0.2477  1.4410  1.2118
 7502TIP3   OH222462   7.410   7.684   5.030  0.1396  0.5550 -0.1402
 7502TIP3    H122463   7.441   7.599   5.062 -0.1989  0.5717  0.2398
 7502TIP3    H222464   7.399   7.672   4.936 -1.4505 -0.3134  0.1255
 7503TIP3   OH222465   2.489   2.266   2.450 -0.1410  1.0143  0.1817
 7503TIP3    H122466   2.518   2.357   2.458  1.3718  0.4000  3.1221
 7503TIP3    H222467   2.555   2.216   2.499 -1.7912 -1.4889  0.0099
 7504TIP3   OH222468   1.182   6.410   1.209  0.4680  0.4652  0.1189
 7504TIP3    H122469   1.233   6.491   1.197  0.2816  0.6354  0.4383
 7504TIP3    H222470   1.166   6.378   1.120  0.8612  0.5822  0.0043
 7505TIP3   OH222471   5.587   5.055   5.491  0.2744  0.0561 -0.1604
 7505TIP3    H122472   5.630   5.087   5.570  1.5675  1.9219 -1.5231
 7505TIP3    H222473   5.579   4.960   5.504 -0.1527  0.3810  2.4351
 7506TIP3   OH222474   2.344   0.875   3.743 -0.1273  0.4067  0.1922
 7506TIP3    H122475   2.386   0.827   3.672  0.3031 -1.2264  1.4837
 7506TIP3    H222476   2.406   0.943   3.767  0.3186  0.1080 -0.1037
 7507TIP3   OH222477   6.899   3.116   4.570 -0.4430  0.3184  0.3993
 7507TIP3    H122478   6.870   3.044   4.626 -0.1214  0.3740  0.6409
 7507TIP3    H222479   6.887   3.194   4.624  0.7494  0.2821  0.7494
 7508TIP3   OH222480   2.995   0.710   4.868 -0.6585 -0.8961  0.2489
 7508TIP3    H122481   3.041   0.662   4.799 -1.5140 -0.2719 -0.7913
 7508TIP3    H222482   2.981   0.797   4.831 -0.5129 -0.3184  1.5029
 7509TIP3   OH222483   3.149   5.600   0.601  0.3254 -0.4866  0.0438
 7509TIP3    H122484   3.189   5.685   0.581  4.2311 -2.0404  0.4716
 7509TIP3    H222485   3.166   5.546   0.524 -0.6459 -1.4063  0.4403
 7510TIP3   OH222486   5.565   3.842   5.900 -0.0600 -0.4011 -0.3653
 7510TIP3    H122487   5.513   3.849   5.980  1.1542  0.7980  0.3692
 7510TIP3    H222488   5.575   3.932   5.870  0.9391 -0.6793 -0.9083
 7511TIP3   OH222489   2.421   6.138   5.974 -0.2408  0.6188  0.0377
 7511TIP3    H122490   2.383   6.095   5.898  0.7894 -0.3561  0.0428
 7511TIP3    H222491   2.514   6.146   5.953 -0.1524  1.4645  0.6899
 7512TIP3   OH222492   7.672   2.175   0.169  0.0564 -0.0827  0.4279
 7512TIP3    H122493   7.754   2.216   0.140  0.5981  0.7654  2.8892
 7512TIP3    H222494   7.614   2.249   0.188 -1.6211 -0.6767 -1.9171
 7513TIP3   OH222495   3.062   0.639   0.230 -0.4025  0.3058  0.6167
 7513TIP3    H122496   3.148   0.604   0.209 -0.2065  1.0806  0.0866
 7513TIP3    H222497   3.079   0.704   0.298 -0.4624  1.0046 -0.0246
 7514TIP3   OH222498   4.398   4.217   3.057 -0.4845 -0.3002  0.2534
 7514TIP3    H122499   4.447   4.297   3.076 -0.3938 -0.3413  0.1956
 7514TIP3    H222500   4.322   4.247   3.008  0.1057 -0.3543 -0.7287
 7515TIP3   OH222501   5.633   2.311   0.056  0.7470 -0.2499  0.5219
 7515TIP3    H122502   5.690   2.271  -0.010 -0.1592  3.5300 -2.9584
 7515TIP3    H222503   5.694   2.350   0.118  1.7742 -0.9944  0.0149
 7516TIP3   OH222504   1.367   2.312   6.333 -0.0234 -0.1915  0.3004
 7516TIP3    H122505   1.286   2.274   6.301 -0.0262 -1.7127  1.9883
 7516TIP3    H222506   1.436   2.256   6.297  0.0422 -1.0875  1.7309
 7517TIP3   OH222507   4.217   2.925   2.772  0.3756 -0.2276 -0.2305
 7517TIP3    H122508   4.166   2.855   2.812  0.7275  0.0580  0.7498
 7517TIP3    H222509   4.287   2.881   2.724 -1.2066 -0.6640 -2.2559
 7518TIP3   OH222510   7.731   2.874   3.255  0.1777  0.6096  0.0310
 7518TIP3    H122511   7.678   2.953   3.253  0.0972  0.5507 -0.2371
 7518TIP3    H222512   7.741   2.849   3.163 -0.1922  0.0474  0.1347
 7519TIP3   OH222513   7.196   5.408   4.068  0.3733  0.1705 -0.5557
 7519TIP3    H122514   7.291   5.419   4.066  0.6654 -0.9295  2.3263
 7519TIP3    H222515   7.183   5.316   4.044  0.5043 -0.8242  2.6079
 7520TIP3   OH222516   5.060   7.533   3.373  0.4473 -0.3402 -0.2826
 7520TIP3    H122517   5.026   7.598   3.312 -0.0953 -1.2777 -1.0163
 7520TIP3    H222518   5.042   7.569   3.459  1.1919  0.9955 -0.6633
 7521TIP3   OH222519   3.564   2.213   0.693 -0.1247 -0.0562  0.1907
 7521TIP3    H122520   3.656   2.203   0.718  0.9735 -1.6316 -3.7529
 7521TIP3    H222521   3.566   2.265   0.613 -3.0265  2.2557  1.4318
 7522TIP3   OH222522   4.016   3.252   3.415  0.2591  0.3124  0.0399
 7522TIP3    H122523   4.042   3.241   3.507 -0.5604 -1.9711  0.0597
 7522TIP3    H222524   3.949   3.321   3.418  0.2575  0.2834  1.1413
 7523TIP3   OH222525   0.860   7.202   2.948  0.0728 -0.0514  0.1747
 7523TIP3    H122526   0.883   7.215   3.040  2.2434  0.5982 -0.4029
 7523TIP3    H222527   0.893   7.280   2.904 -0.2439 -0.7013 -1.2656
 7524TIP3   OH222528   0.378   6.585   3.980 -0.6558  0.3676 -0.0643
 7524TIP3    H122529   0.400   6.526   3.907  0.0831 -0.0915  0.5164
 7524TIP3    H222530   0.450   6.648   3.982  0.7062 -1.1199  1.8300
 7525TIP3   OH222531   3.710   5.653   5.072  0.0576 -0.2132  0.0418
 7525TIP3    H122532   3.717   5.602   4.991 -1.1010 -0.3275  0.0057
 7525TIP3    H222533   3.795   5.640   5.115  0.3260 -0.9542 -0.6789
 7526TIP3   OH222534   5.595   7.583   6.708 -0.3175  0.0763 -0.4583
 7526TIP3    H122535   5.646   7.511   6.673 -0.4853 -0.3862  0.2389
 7526TIP3    H222536   5.520   7.590   6.649 -0.4801 -0.5430 -0.3262
 7527TIP3   OH222537   7.504   7.561   6.666  0.1171  0.0661  0.3269
 7527TIP3    H122538   7.452   7.619   6.610  0.4110 -1.8635 -2.0903
 7527TIP3    H222539   7.589   7.555   6.622  0.3974 -1.4702  1.0025
 7528TIP3   OH222540   4.985   3.021   3.907  0.6055 -0.1650 -0.2447
 7528TIP3    H122541   5.004   3.083   3.977 -0.4979 -1.7365  1.5435
 7528TIP3    H222542   4.889   3.017   3.903  0.6445 -1.8343 -0.2072
 7529TIP3   OH222543   6.799   7.695   6.312  0.7514 -0.3498 -0.1002
 7529TIP3    H122544   6.762   7.683   6.224  0.6400 -1.1379  0.0499
 7529TIP3    H222545   6.894   7.692   6.299  0.7764  1.0359 -0.3958
 7530TIP3   OH222546   1.827   2.306   5.601  0.4030  0.1708  0.6939
 7530TIP3    H122547   1.909   2.256   5.595  0.6298  0.6087  0.0611
 7530TIP3    H222548   1.764   2.243   5.637  0.4905 -0.8096 -0.7640
 7531TIP3   OH222549   0.087   4.338   4.911 -0.1336  0.8598  0.5966
 7531TIP3    H122550   0.021   4.281   4.949 -0.5958  0.1585 -1.1838
 7531TIP3    H222551   0.117   4.292   4.833  0.5104  2.4037 -0.1138
 7532TIP3   OH222552   3.917   1.811   1.422 -0.3935 -0.3694  0.7817
 7532TIP3    H122553   3.996   1.770   1.457  0.6260  1.3667  0.6631
 7532TIP3    H222554   3.909   1.893   1.473 -0.5724  0.7603 -0.9870
 7533TIP3   OH222555   3.842   1.894   2.482 -0.2322  0.2774 -0.2982
 7533TIP3    H122556   3.760   1.944   2.473 -0.6426  0.0123  1.5345
 7533TIP3    H222557   3.817   1.816   2.531  0.9417 -0.3483 -0.6599
 7534TIP3   OH222558   7.983   6.673   1.251  0.1677 -0.0568  0.5580
 7534TIP3    H122559   8.000   6.614   1.177  0.6066 -0.0207  0.6277
 7534TIP3    H222560   7.894   6.705   1.237  0.4634  0.4115 -0.2725
 7535TIP3   OH222561   6.100   6.389   4.807  0.8049  0.0891  0.3876
 7535TIP3    H122562   6.089   6.294   4.806 -1.4093  0.2239  2.7697
 7535TIP3    H222563   6.090   6.415   4.715 -1.8047 -1.7039  0.0639
 7536TIP3   OH222564   5.013   2.019   6.520 -0.0592 -0.1469  0.4137
 7536TIP3    H122565   5.086   2.008   6.582 -0.2016  1.5201  0.9175
 7536TIP3    H222566   5.055   2.016   6.434  0.8258  1.9131  0.7145
 7537TIP3   OH222567   2.470   7.401   2.896 -0.2543 -0.3341  0.7211
 7537TIP3    H122568   2.477   7.306   2.906  0.3834 -0.3299  0.4097
 7537TIP3    H222569   2.400   7.413   2.831  0.9280 -0.6907 -0.6796
 7538TIP3   OH222570   4.298   5.471   2.687 -0.6500 -0.0005  0.0629
 7538TIP3    H122571   4.378   5.421   2.672 -1.0525 -0.9299  0.8991
 7538TIP3    H222572   4.290   5.528   2.611  1.3366  0.8440  0.4209
 7539TIP3   OH222573   0.375   6.031   1.651 -0.3150  0.3408  0.0716
 7539TIP3    H122574   0.380   6.075   1.567 -0.4252 -0.1771 -0.2105
 7539TIP3    H222575   0.372   5.938   1.630  1.2951  0.1095  0.7019
 7540TIP3   OH222576   0.320   2.298   2.504  1.3512  0.4266 -0.5898
 7540TIP3    H122577   0.289   2.225   2.557  3.1863  1.1361  1.6153
 7540TIP3    H222578   0.252   2.365   2.513  1.9448  0.8201  1.6354
 7541TIP3   OH222579   6.769   5.689   6.630  0.8281  0.7351  0.0974
 7541TIP3    H122580   6.796   5.711   6.541  0.4959  1.0698  0.0782
 7541TIP3    H222581   6.714   5.612   6.620  1.0629  0.5701  0.0500
 7542TIP3   OH222582   1.632   1.832   3.341 -0.6216 -0.2601 -0.3138
 7542TIP3    H122583   1.657   1.903   3.400 -0.5511 -1.9317  1.7677
 7542TIP3    H222584   1.714   1.807   3.298 -0.0568 -1.0079  1.1558
 7543TIP3   OH222585   2.837   1.126   2.129  0.2097 -0.2738 -0.2439
 7543TIP3    H122586   2.800   1.088   2.208  1.1885 -0.8536 -0.0438
 7543TIP3    H222587   2.786   1.205   2.114 -0.5598 -0.6273  0.4661
 7544TIP3   OH222588   1.805   6.475   0.443  0.0808 -0.6499  0.3991
 7544TIP3    H122589   1.724   6.525   0.453 -1.9400 -3.5593 -0.2877
 7544TIP3    H222590   1.840   6.503   0.359 -0.3924  0.3753  0.5223
 7545TIP3   OH222591   2.589   3.067   0.241  0.0752  0.1090 -0.2669
 7545TIP3    H122592   2.553   3.093   0.156 -1.0939  0.6416  0.3555
 7545TIP3    H222593   2.626   2.980   0.226 -1.3701 -0.4193 -1.0149
 7546TIP3   OH222594   5.844   4.811   0.396  0.3815  0.2028 -0.3479
 7546TIP3    H122595   5.892   4.893   0.380  0.9881  0.0375  0.5627
 7546TIP3    H222596   5.765   4.838   0.443 -0.3565  0.4541 -1.6788
 7547TIP3   OH222597   7.649   1.466   2.234  0.2268  0.0005 -0.0518
 7547TIP3    H122598   7.727   1.454   2.288 -0.1793  1.3031  0.8651
 7547TIP3    H222599   7.587   1.401   2.267  0.5952 -0.4169 -0.1663
 7548TIP3   OH222600   5.220   7.151   6.430 -0.5580  0.3245  0.8334
 7548TIP3    H122601   5.281   7.094   6.476 -0.5817 -0.2043  0.2246
 7548TIP3    H222602   5.139   7.146   6.479 -0.3963  0.2738  1.0954
 7549TIP3   OH222603   8.061   1.279   3.871 -0.2838  0.6799 -0.0556
 7549TIP3    H122604   8.150   1.244   3.872 -0.1600  0.9808 -0.2322
 7549TIP3    H222605   8.005   1.202   3.861  0.0228  0.5952 -1.3182
 7550TIP3   OH222606   0.333   5.251   2.377 -1.2201  0.4880 -0.2121
 7550TIP3    H122607   0.363   5.284   2.293  1.8409  0.2595  0.6664
 7550TIP3    H222608   0.377   5.166   2.387 -0.7089  0.9331  1.9887
 7551TIP3   OH222609   1.346   4.863   2.005 -0.4473 -0.2094 -0.2988
 7551TIP3    H122610   1.272   4.803   2.000 -0.0664 -0.6907 -0.2971
 7551TIP3    H222611   1.418   4.809   2.041  0.5776 -0.4312 -2.5070
 7552TIP3   OH222612   4.634   3.651   4.477 -0.3075  0.3020  0.4902
 7552TIP3    H122613   4.595   3.680   4.394  0.3140 -0.9344 -0.2777
 7552TIP3    H222614   4.562   3.607   4.522 -0.1219 -1.0346 -0.4456
 7553TIP3   OH222615   4.425   3.774   6.016  0.2448  0.8392 -0.2668
 7553TIP3    H122616   4.430   3.870   6.024  0.2448  0.7495  1.0959
 7553TIP3    H222617   4.511   3.748   5.983  0.2845  1.2997 -0.5408
 7554TIP3   OH222618   3.689   6.100   5.278 -0.2896  0.0934  0.6333
 7554TIP3    H122619   3.664   6.020   5.232 -1.4635  0.2059  1.0408
 7554TIP3    H222620   3.740   6.070   5.353 -0.3122 -0.2399  0.5162
 7555TIP3   OH222621   4.448   3.104   1.401 -0.3870 -0.2808  0.7289
 7555TIP3    H122622   4.533   3.059   1.406  0.1900  0.3570 -1.7449
 7555TIP3    H222623   4.384   3.034   1.390  0.1878 -0.6551 -0.3455
 7556TIP3   OH222624   5.886   6.915   1.923  0.4759 -0.2220  0.8536
 7556TIP3    H122625   5.952   6.857   1.886 -2.0668 -1.3475 -2.5335
 7556TIP3    H222626   5.806   6.861   1.925 -0.8054  1.6057  2.8807
 7557TIP3   OH222627   2.366   7.346   1.096  0.1511 -0.1273  0.7293
 7557TIP3    H122628   2.400   7.420   1.147 -0.7655 -0.9060  2.5486
 7557TIP3    H222629   2.293   7.383   1.046  0.2887  0.3963  0.9023
 7558TIP3   OH222630   0.885   1.486   4.820 -0.0467  0.1717  0.3044
 7558TIP3    H122631   0.938   1.411   4.847  0.0076  0.1134  0.0387
 7558TIP3    H222632   0.882   1.480   4.724  1.0191  1.2167  0.1841
 7559TIP3   OH222633   5.588   5.381   4.581 -0.5978  0.2288  0.2320
 7559TIP3    H122634   5.529   5.313   4.615 -1.1989  0.9668  0.6900
 7559TIP3    H222635   5.628   5.419   4.659  0.8291 -0.5337 -0.0904
 7560TIP3   OH222636   6.399   7.255   3.552 -0.3679 -0.1774  0.0972
 7560TIP3    H122637   6.307   7.276   3.538 -0.4193 -0.9611 -0.8215
 7560TIP3    H222638   6.402   7.159   3.552  0.3203 -0.1746  1.0209
 7561TIP3   OH222639   1.836   0.775   4.931  0.0541 -0.2702  0.2072
 7561TIP3    H122640   1.902   0.784   4.863 -1.1145 -0.5443 -1.0057
 7561TIP3    H222641   1.823   0.680   4.940 -0.0128 -0.2275  0.6000
 7562TIP3   OH222642   4.080   2.244   4.357  0.0175 -0.5607  0.1717
 7562TIP3    H122643   4.080   2.315   4.293  1.7324  0.6833  1.4661
 7562TIP3    H222644   3.990   2.238   4.387 -0.5498 -0.3162 -1.4104
 7563TIP3   OH222645   7.855   3.495   2.498  0.1529  0.3127  0.1715
 7563TIP3    H122646   7.822   3.516   2.585  0.7406  0.5431  0.3438
 7563TIP3    H222647   7.876   3.402   2.502  0.3172  0.3555  0.3234
 7564TIP3   OH222648   1.630   7.137   0.587  0.7942  0.1976  0.7817
 7564TIP3    H122649   1.675   7.053   0.599 -0.7557 -0.6103  1.2278
 7564TIP3    H222650   1.652   7.163   0.498  2.3647 -0.0124  1.0835
 7565TIP3   OH222651   5.296   5.363   0.608  0.1409 -0.0449 -0.1996
 7565TIP3    H122652   5.205   5.348   0.633  0.3394 -2.0780 -0.5036
 7565TIP3    H222653   5.347   5.321   0.678  0.9314  2.4039  0.7843
 7566TIP3   OH222654   7.933   1.805   2.650  0.1760 -0.0536 -0.5134
 7566TIP3    H122655   7.954   1.827   2.741  2.3567  0.3978 -1.0510
 7566TIP3    H222656   7.949   1.711   2.643 -0.2372 -0.1332 -0.3629
 7567TIP3   OH222657   4.991   4.361   3.462  0.5131  0.1402  0.1040
 7567TIP3    H122658   5.021   4.329   3.377  1.1593 -0.0976  0.4168
 7567TIP3    H222659   5.068   4.357   3.518  0.2181  0.7633  0.5750
 7568TIP3   OH222660   7.884   2.050   5.823 -0.3915  0.5177 -0.1472
 7568TIP3    H122661   7.837   2.009   5.751 -1.5291  1.4524  0.0453
 7568TIP3    H222662   7.966   2.000   5.829 -0.8595 -0.4225 -1.2035
 7569TIP3   OH222663   4.486   5.073   0.655 -0.0532 -0.7612  0.0276
 7569TIP3    H122664   4.467   5.047   0.565  1.4186 -2.9429  0.2649
 7569TIP3    H222665   4.553   5.141   0.646 -1.7649  0.9326 -0.5355
 7570TIP3   OH222666   5.202   1.380   6.463  0.1121  0.2131  0.1465
 7570TIP3    H122667   5.126   1.323   6.452  1.5608 -2.4725  2.7406
 7570TIP3    H222668   5.172   1.466   6.434 -2.4847 -1.5833 -3.1598
 7571TIP3   OH222669   2.876   1.187   4.478 -0.3318  0.1531  0.3035
 7571TIP3    H122670   2.944   1.189   4.410  0.2058  1.4708  0.8329
 7571TIP3    H222671   2.921   1.218   4.556 -1.3724  0.3304  0.8394
 7572TIP3   OH222672   6.328   4.339   3.344  0.0039  0.0413 -0.2222
 7572TIP3    H122673   6.355   4.352   3.435 -0.7654 -2.6262  0.4857
 7572TIP3    H222674   6.235   4.318   3.349  0.4696 -2.6806 -1.2793
 7573TIP3   OH222675   2.387   3.371   3.040 -0.0504  0.3010  0.0645
 7573TIP3    H122676   2.466   3.411   3.002  0.8428 -2.8980 -1.7782
 7573TIP3    H222677   2.323   3.375   2.969 -0.5543  0.1266  0.5110
 7574TIP3   OH222678   5.929   7.272  -0.005 -0.1261  0.2757 -0.4116
 7574TIP3    H122679   6.017   7.248   0.023 -0.5041  0.7289  1.3129
 7574TIP3    H222680   5.872   7.242   0.066 -0.8037  4.4542  1.1427
 7575TIP3   OH222681   8.090   3.896   1.190 -0.0178  0.4706  0.2132
 7575TIP3    H122682   8.044   3.869   1.269 -1.2772  0.2391 -0.5777
 7575TIP3    H222683   8.160   3.831   1.180 -1.0092 -0.6100  0.1181
 7576TIP3   OH222684   4.659   5.237   5.042 -0.3637  0.1155 -0.1628
 7576TIP3    H122685   4.694   5.189   5.117  0.8386  1.3284  0.0926
 7576TIP3    H222686   4.646   5.170   4.975  3.2069 -0.3865 -0.5486
 7577TIP3   OH222687   6.244   4.341   2.167 -0.7301  0.2641  0.0070
 7577TIP3    H122688   6.265   4.251   2.141  1.7474  0.7966 -0.1126
 7577TIP3    H222689   6.196   4.331   2.248  0.5531 -1.1876  0.6559
 7578TIP3   OH222690   5.087   4.982   6.750  0.1330  0.6044 -0.3941
 7578TIP3    H122691   5.100   4.976   6.656  2.1798  0.4402 -0.1390
 7578TIP3    H222692   5.154   4.925   6.788 -0.6804  0.6230  1.1684
 7579TIP3   OH222693   4.636   0.824   4.890 -0.1124  0.2888  0.3468
 7579TIP3    H122694   4.675   0.836   4.804 -3.0201  0.8825 -1.0309
 7579TIP3    H222695   4.656   0.733   4.913  0.7076  0.1082 -0.9745
 7580TIP3   OH222696   2.184   5.222   4.077  0.0197 -0.2273 -0.2657
 7580TIP3    H122697   2.207   5.231   4.169  0.2005 -0.8150 -0.2480
 7580TIP3    H222698   2.095   5.257   4.071  0.6691  1.5126 -0.2262
 7581TIP3   OH222699   5.360   2.827   2.952  0.4263 -0.1281 -0.4274
 7581TIP3    H122700   5.385   2.811   3.043  1.7789 -1.7411 -1.0404
 7581TIP3    H222701   5.273   2.788   2.944  1.6899 -3.2306 -0.6233
 7582TIP3   OH222702   3.495   1.553   3.264  0.4911  0.2341 -0.2159
 7582TIP3    H122703   3.425   1.500   3.302  1.2203 -0.7831 -0.2450
 7582TIP3    H222704   3.507   1.625   3.326 -2.6337  2.2374 -1.7073
 7583TIP3   OH222705   8.035   7.415   1.944 -0.1227  0.2243 -0.1419
 7583TIP3    H122706   8.064   7.362   1.869 -0.6371 -0.1576 -0.0701
 7583TIP3    H222707   8.116   7.454   1.977  0.0143  1.1144 -1.4384
 7584TIP3   OH222708   4.120   7.111   6.059 -0.1737 -0.5214 -0.4855
 7584TIP3    H122709   4.099   7.054   5.986  1.4057 -1.4856 -0.2383
 7584TIP3    H222710   4.210   7.140   6.042 -0.4558  0.8014  0.1034
 7585TIP3   OH222711   3.988   3.954   3.518 -0.1191 -0.1631 -0.0773
 7585TIP3    H122712   4.048   3.975   3.590 -0.7727 -1.7070  0.9871
 7585TIP3    H222713   4.038   3.895   3.461 -0.4425 -1.1323  0.6011
 7586TIP3   OH222714   6.749   6.459   0.721 -0.3228  0.1482  0.2521
 7586TIP3    H122715   6.654   6.457   0.719 -0.3203 -0.6324  0.6051
 7586TIP3    H222716   6.773   6.415   0.803  0.3290  0.7173  0.3768
 7587TIP3   OH222717   0.460   6.463   5.177 -0.2292 -0.5845 -0.2612
 7587TIP3    H122718   0.523   6.533   5.199  0.0522 -1.0313  0.4028
 7587TIP3    H222719   0.456   6.464   5.082 -0.7084  0.7562 -0.2530
 7588TIP3   OH222720   1.712   0.979   5.514  0.5914  0.1224  0.1369
 7588TIP3    H122721   1.756   0.898   5.489  0.1786  0.4811 -1.9201
 7588TIP3    H222722   1.761   1.011   5.589  0.4006 -2.3173  1.4130
 7589TIP3   OH222723   7.350   1.766   2.279  0.0761  0.4875 -0.2957
 7589TIP3    H122724   7.260   1.794   2.264 -0.1031  0.0198 -0.1069
 7589TIP3    H222725   7.355   1.749   2.373  0.2152  0.0265 -0.3803
 7590TIP3   OH222726   6.829   0.549   5.300  0.1828 -0.2956 -0.1993
 7590TIP3    H122727   6.840   0.639   5.331 -1.1779 -0.5851  1.3219
 7590TIP3    H222728   6.893   0.538   5.230  2.0368  1.1005  1.1999
 7591TIP3   OH222729   7.303   2.823   0.571 -0.2377  0.2311 -0.0806
 7591TIP3    H122730   7.338   2.755   0.629 -0.7688 -1.8079 -2.0074
 7591TIP3    H222731   7.215   2.840   0.605  0.2589  0.7380  1.0084
 7592TIP3   OH222732   1.264   6.191   5.916  0.0529 -0.3170 -0.8427
 7592TIP3    H122733   1.213   6.148   5.985  0.2299 -0.8711 -1.0461
 7592TIP3    H222734   1.210   6.183   5.838 -0.1533  0.3219 -0.7684
 7593TIP3   OH222735   1.337   5.301   1.239 -0.3910 -0.1080 -0.1660
 7593TIP3    H122736   1.316   5.252   1.319  0.2978 -1.2072 -0.6344
 7593TIP3    H222737   1.429   5.280   1.222 -0.4307  0.4137 -1.0366
 7594TIP3   OH222738   4.573   5.327   5.407  0.3044  0.0550 -0.5910
 7594TIP3    H122739   4.654   5.376   5.420  0.7072 -1.0030  1.4247
 7594TIP3    H222740   4.595   5.260   5.342  0.8921  0.1269 -0.4686
 7595TIP3   OH222741   5.709   3.628   5.812 -0.5936 -0.2966 -0.1149
 7595TIP3    H122742   5.660   3.696   5.859  2.0540  0.6712  1.4958
 7595TIP3    H222743   5.784   3.675   5.775  1.9163 -2.3879  1.9440
 7596TIP3   OH222744   7.355   7.408   2.621  0.0314 -0.4753  0.1065
 7596TIP3    H122745   7.419   7.479   2.632 -1.3955  0.7227  1.0090
 7596TIP3    H222746   7.372   7.375   2.533  0.7039  1.0392 -0.3792
 7597TIP3   OH222747   4.098   1.428   2.746 -0.3400  0.5984 -0.0414
 7597TIP3    H122748   4.019   1.466   2.708 -1.5733 -0.4366  1.3562
 7597TIP3    H222749   4.113   1.480   2.825  1.2729  1.7204 -1.0211
 7598TIP3   OH222750   3.515   2.863   3.755 -0.1749 -0.0581 -0.8962
 7598TIP3    H122751   3.609   2.875   3.770 -0.3582  0.6890 -0.2702
 7598TIP3    H222752   3.476   2.945   3.785 -1.0876 -0.5954 -0.5942
 7599TIP3   OH222753   3.413   7.615   0.925 -0.4773  0.3383  0.5444
 7599TIP3    H122754   3.471   7.680   0.885  1.4187 -2.1126 -0.9282
 7599TIP3    H222755   3.437   7.615   1.018  2.0723 -0.6727 -0.0358
 7600TIP3   OH222756   0.960   2.321   5.609 -0.1000  0.2089  0.5347
 7600TIP3    H122757   0.944   2.241   5.558  1.5734 -0.4049  0.9058
 7600TIP3    H222758   0.988   2.385   5.544 -2.0127  0.7323  0.1485
 7601TIP3   OH222759   7.654   4.262   2.209 -0.2887 -0.4296 -0.1344
 7601TIP3    H122760   7.570   4.271   2.165 -0.3203 -1.1559 -0.2244
 7601TIP3    H222761   7.632   4.239   2.299 -0.1868 -0.4805 -0.1224
 7602TIP3   OH222762   0.352   6.722   1.074  0.2135 -0.0951 -0.4103
 7602TIP3    H122763   0.280   6.727   1.012  1.5761  0.1134 -2.0474
 7602TIP3    H222764   0.429   6.749   1.024  1.0193  2.6701  2.0244
 7603TIP3   OH222765   7.431   2.375   4.227 -0.1001 -0.1873  0.0581
 7603TIP3    H122766   7.358   2.313   4.235 -0.5807  0.3071 -0.3672
 7603TIP3    H222767   7.459   2.366   4.136 -0.5177  0.5807 -0.1580
 7604TIP3   OH222768   6.664   0.981   6.117  0.3359  0.1123 -0.7653
 7604TIP3    H122769   6.597   1.003   6.052 -0.4465  0.0028 -0.0109
 7604TIP3    H222770   6.628   1.010   6.200  0.1625 -2.0889 -0.0095
 7605TIP3   OH222771   7.223   1.895   6.347  0.0921 -0.2647 -0.0193
 7605TIP3    H122772   7.176   1.917   6.427 -0.7381  0.5280 -0.6986
 7605TIP3    H222773   7.209   1.801   6.336  1.0737 -0.5877  1.2842
 7606TIP3   OH222774   2.070   0.192   1.018 -0.6337 -0.1875  0.2476
 7606TIP3    H122775   2.053   0.276   1.061  0.0577  0.3449 -0.4770
 7606TIP3    H222776   2.076   0.214   0.925 -0.9559 -1.1278  0.0013
 7607TIP3   OH222777   1.712   5.517   5.831 -0.2200  0.1532 -0.6650
 7607TIP3    H122778   1.772   5.486   5.764  1.2733  1.1526  0.1580
 7607TIP3    H222779   1.636   5.460   5.823  1.3310 -2.0094 -0.9214
 7608TIP3   OH222780   0.099   3.673   3.593 -0.1060 -0.3235 -0.2903
 7608TIP3    H122781   0.114   3.720   3.511  0.8045  0.1620  0.1267
 7608TIP3    H222782   0.178   3.691   3.645  0.1418 -2.0818  0.0042
 7609TIP3   OH222783   6.089   4.476   5.682  0.1769  0.7474 -1.2246
 7609TIP3    H122784   6.131   4.562   5.681  0.0201  0.8254 -1.0505
 7609TIP3    H222785   6.034   4.476   5.760 -1.1935  1.1498 -2.1554
 7610TIP3   OH222786   5.200   0.600   0.043  0.0000 -0.4343 -0.4812
 7610TIP3    H122787   5.128   0.572   0.099  0.0776 -0.8050 -0.5643
 7610TIP3    H222788   5.168   0.680   0.001  0.1407  0.1579  0.5013
 7611TIP3   OH222789   5.287   6.309   2.423  0.1949  0.0467 -0.2400
 7611TIP3    H122790   5.285   6.241   2.490 -0.7824 -1.5199 -1.7755
 7611TIP3    H222791   5.198   6.344   2.422  0.2280  0.1222 -0.6640
 7612TIP3   OH222792   4.977   1.034   5.851 -0.4088 -0.5673 -0.4580
 7612TIP3    H122793   4.964   1.027   5.946  0.4416 -2.0090 -0.3998
 7612TIP3    H222794   4.965   0.944   5.819 -0.1435 -0.2015 -1.6302
 7613TIP3   OH222795   5.410   0.268   4.701  0.0135  0.1188 -0.8487
 7613TIP3    H122796   5.348   0.238   4.635 -1.6148  3.8424 -1.2492
 7613TIP3    H222797   5.490   0.288   4.653  0.2712 -1.0808 -0.9503
 7614TIP3   OH222798   1.579   4.738   2.114 -0.0706 -0.0684  0.1540
 7614TIP3    H122799   1.670   4.718   2.134  0.7589  1.4811 -1.7558
 7614TIP3    H222800   1.553   4.669   2.052 -0.5479 -1.0476  1.3911
 7615TIP3   OH222801   7.587   0.959   1.207 -0.4884 -0.4917  0.0127
 7615TIP3    H122802   7.496   0.934   1.190 -1.0395  0.9160  0.7290
 7615TIP3    H222803   7.617   0.898   1.275 -0.9599 -0.8115 -0.0650
 7616TIP3   OH222804   5.895   2.483   6.151 -0.6861 -0.0004 -0.3714
 7616TIP3    H122805   5.892   2.577   6.132 -2.3443  0.2058  0.6314
 7616TIP3    H222806   5.891   2.478   6.247  3.6096 -1.0578 -0.0382
 7617TIP3   OH222807   8.160   0.767   4.921  0.1072 -0.3247  0.6138
 7617TIP3    H122808   8.196   0.752   4.833 -0.6348 -1.2708  0.4554
 7617TIP3    H222809   8.229   0.813   4.968  0.0488  1.3585 -0.8453
 7618TIP3   OH222810   4.925   1.020   1.243  0.1839  0.1487  0.1261
 7618TIP3    H122811   4.977   1.099   1.228  1.5892 -0.5335  1.2672
 7618TIP3    H222812   4.984   0.948   1.223 -0.6659 -0.6450  0.4301
 7619TIP3   OH222813   7.072   4.276   2.777  1.0055 -0.1799  0.1548
 7619TIP3    H122814   7.088   4.186   2.750  1.2001  0.1982 -1.0957
 7619TIP3    H222815   7.071   4.326   2.694  2.0685  1.1389  0.8979
 7620TIP3   OH222816   7.157   0.888   3.364  0.1900  0.0267  0.4753
 7620TIP3    H122817   7.168   0.983   3.373 -0.3822  0.3332 -1.5489
 7620TIP3    H222818   7.069   0.870   3.397  0.3301  0.1753  0.9385
 7621TIP3   OH222819   6.114   0.093   3.878  0.4378  0.1536 -0.2469
 7621TIP3    H122820   6.091   0.186   3.882 -1.4666 -0.3004  0.7100
 7621TIP3    H222821   6.132   0.069   3.970 -1.6945 -0.9758 -0.0722
 7622TIP3   OH222822   2.635   7.727   2.013 -0.0452  0.6251 -0.0438
 7622TIP3    H122823   2.696   7.775   2.069 -0.8566  1.3210  0.2835
 7622TIP3    H222824   2.629   7.781   1.934 -1.0805  1.1868  0.3876
 7623TIP3   OH222825   5.593   1.256   2.368 -0.0124 -0.3148  0.5707
 7623TIP3    H122826   5.522   1.200   2.337 -0.7997  1.5065 -1.1871
 7623TIP3    H222827   5.657   1.254   2.297  0.8471 -0.5208  1.3432
 7624TIP3   OH222828   6.587   1.034   6.538  0.1275  0.2577  0.0018
 7624TIP3    H122829   6.613   1.088   6.463  0.8941  0.6563  0.5441
 7624TIP3    H222830   6.643   0.956   6.531  0.1657  0.2737  0.1403
 7625TIP3   OH222831   1.639   3.895   4.763 -0.3841  0.4897 -0.2427
 7625TIP3    H122832   1.705   3.917   4.828 -1.7638 -0.4044  1.5308
 7625TIP3    H222833   1.622   3.802   4.776 -0.0760  0.0531 -2.5224
 7626TIP3   OH222834   5.178   2.299   5.796 -0.3405  0.4689  0.0370
 7626TIP3    H122835   5.175   2.354   5.717 -1.1006  0.8062  0.2888
 7626TIP3    H222836   5.271   2.293   5.818 -0.0329 -0.3183 -1.3538
 7627TIP3   OH222837   7.161   1.286   4.333 -0.3059  0.1859  0.8478
 7627TIP3    H122838   7.109   1.229   4.277  0.5318 -1.0194  1.2516
 7627TIP3    H222839   7.252   1.267   4.309 -0.0022  1.3840  0.9817
 7628TIP3   OH222840   6.849   0.617   1.864 -0.0245  0.5326  0.1671
 7628TIP3    H122841   6.770   0.661   1.832 -0.2896 -0.7879 -1.1018
 7628TIP3    H222842   6.862   0.544   1.803  0.3562 -1.1947  2.2108
 7629TIP3   OH222843   2.933   1.507   6.612  0.0709  0.0078  0.2554
 7629TIP3    H122844   2.916   1.601   6.622 -0.9702 -0.1950  0.5324
 7629TIP3    H222845   2.884   1.467   6.684 -2.4224 -1.0118 -1.8482
 7630TIP3   OH222846   6.485   6.275   5.310  0.2051  0.0843 -0.1677
 7630TIP3    H122847   6.450   6.206   5.367  1.5610 -1.5709 -1.2616
 7630TIP3    H222848   6.485   6.353   5.365 -0.2118 -1.0605  1.5364
 7631TIP3   OH222849   8.173   3.152   1.608  0.6113  0.1280  0.5133
 7631TIP3    H122850   8.230   3.224   1.637  0.1499  1.5333 -1.8110
 7631TIP3    H222851   8.228   3.101   1.548 -0.4056  1.3665 -1.5711
 7632TIP3   OH222852   2.673   5.260   4.956 -0.2207 -0.1897  0.7705
 7632TIP3    H122853   2.728   5.299   4.888 -0.8208  0.1001  0.4372
 7632TIP3    H222854   2.729   5.196   4.999  0.1781 -0.3719  0.0042
 7633TIP3   OH222855   1.780   6.255   4.589 -0.3102 -0.4772 -0.4558
 7633TIP3    H122856   1.706   6.291   4.638 -0.2317  0.7235 -1.1731
 7633TIP3    H222857   1.799   6.171   4.631 -0.7732  0.1320  1.0298
 7634TIP3   OH222858   0.768   2.293   2.616  0.1259  0.3617 -0.2575
 7634TIP3    H122859   0.710   2.265   2.687  0.5028  1.5836  0.5577
 7634TIP3    H222860   0.851   2.251   2.634  0.2185  0.6649  0.0228
 7635TIP3   OH222861   8.163   1.892   1.357  0.1200  0.0690 -0.1594
 7635TIP3    H122862   8.202   1.963   1.407  0.9459  0.0678 -0.7818
 7635TIP3    H222863   8.146   1.930   1.270  1.2808 -0.6947 -0.7415
 7636TIP3   OH222864   1.214   6.085   0.262 -0.7316 -0.1246  0.1606
 7636TIP3    H122865   1.226   6.116   0.352  4.7307 -2.3626  0.6210
 7636TIP3    H222866   1.181   5.996   0.271  0.8363 -0.7473  0.1750
 7637TIP3   OH222867   2.481   0.073   5.483  0.0333 -0.3764  0.5570
 7637TIP3    H122868   2.569   0.095   5.452 -0.4752 -0.3351 -0.9406
 7637TIP3    H222869   2.484  -0.021   5.501  0.4726 -0.3075  0.8524
 7638TIP3   OH222870   6.097   3.309   3.669  0.4547 -0.3619  0.2507
 7638TIP3    H122871   6.097   3.261   3.586  2.2038 -1.5505  0.8598
 7638TIP3    H222872   6.053   3.391   3.650  2.7169  0.3770 -2.4835
 7639TIP3   OH222873   0.440   5.736   0.957 -0.3448  0.4713 -0.0168
 7639TIP3    H122874   0.353   5.754   0.992 -0.1034  0.0796  0.8129
 7639TIP3    H222875   0.499   5.751   1.031  0.1255 -0.9733 -0.0809
 7640TIP3   OH222876   6.168   5.729   1.193 -0.1825  0.3671 -0.0920
 7640TIP3    H122877   6.162   5.667   1.267 -0.7401  0.3358 -0.1623
 7640TIP3    H222878   6.179   5.673   1.116 -0.0139  0.3843 -0.0808
 7641TIP3   OH222879   3.777   3.317   6.137  0.6373  0.0319  0.2138
 7641TIP3    H122880   3.768   3.281   6.048  0.5781  0.2509  0.1297
 7641TIP3    H222881   3.844   3.263   6.178  0.5400 -0.1827  0.0934
 7642TIP3   OH222882   8.210   5.252   5.628 -0.4127 -0.2548  0.3078
 7642TIP3    H122883   8.122   5.288   5.639 -0.9151 -1.0061 -1.1011
 7642TIP3    H222884   8.258   5.319   5.580  0.1955  0.6920  2.1283
 7643TIP3   OH222885   3.756   0.473   4.496  0.3627  0.3718 -0.5590
 7643TIP3    H122886   3.667   0.466   4.461  1.2532 -1.5460 -2.6294
 7643TIP3    H222887   3.745   0.469   4.591 -1.7914  0.9587 -0.7335
 7644TIP3   OH222888   2.163   2.984   1.116 -0.2469 -0.1454 -0.5267
 7644TIP3    H122889   2.134   3.034   1.193  0.8653 -0.7364  0.3120
 7644TIP3    H222890   2.232   2.927   1.150  0.2448 -0.4394 -1.9771
 7645TIP3   OH222891   4.335   7.376   3.354 -0.0956  0.0388  0.0008
 7645TIP3    H122892   4.295   7.432   3.288  1.1974  2.1051  0.8883
 7645TIP3    H222893   4.307   7.413   3.437 -0.0345 -1.2852  0.6373
 7646TIP3   OH222894   6.851   5.131   2.987 -0.0304  0.4366 -0.0112
 7646TIP3    H122895   6.815   5.190   2.922  1.0131 -0.4076 -1.4280
 7646TIP3    H222896   6.864   5.185   3.065 -0.1547  1.7728 -0.8901
 7647TIP3   OH222897   5.621   3.526   3.754  0.1480  0.0574 -0.4571
 7647TIP3    H122898   5.658   3.456   3.808  3.4530  1.0095 -1.2415
 7647TIP3    H222899   5.569   3.578   3.814  2.4499  0.2034  1.5580
 7648TIP3   OH222900   4.001   4.372   3.740 -0.5901 -0.1254  0.4841
 7648TIP3    H122901   3.990   4.460   3.705 -1.8654 -0.1916  0.6890
 7648TIP3    H222902   4.031   4.320   3.665 -1.5499  0.1186 -0.0924
 7649TIP3   OH222903   4.102   2.891   0.563  0.0895  0.5557  0.1952
 7649TIP3    H122904   4.191   2.864   0.587 -0.0025  1.0509  1.1205
 7649TIP3    H222905   4.047   2.854   0.632 -0.0267  3.1996  1.6252
 7650TIP3   OH222906   6.348   3.419   1.951  0.1370 -0.5593  0.8874
 7650TIP3    H122907   6.302   3.367   2.017 -0.2553 -1.0382  0.2467
 7650TIP3    H222908   6.280   3.478   1.916  0.2930 -0.4495  0.7681
 7651TIP3   OH222909   0.780   6.027   5.806 -0.4818 -0.1088 -1.2255
 7651TIP3    H122910   0.867   6.031   5.766 -0.3614 -0.9704 -1.0522
 7651TIP3    H222911   0.730   6.094   5.760  0.6434  1.3577 -0.4105
 7652TIP3   OH222912   0.603   3.005   2.649  0.2248 -0.5467  0.1346
 7652TIP3    H122913   0.533   2.968   2.596  1.7299  0.2873 -2.6531
 7652TIP3    H222914   0.671   2.937   2.651  0.4975 -0.2745  0.3645
 7653TIP3   OH222915  -0.008   7.480   4.384  0.6102  0.4743  0.1573
 7653TIP3    H122916   0.011   7.391   4.411  0.2751 -0.3805 -2.2231
 7653TIP3    H222917   0.042   7.535   4.444  2.9096 -1.3976  0.0630
 7654TIP3   OH222918   2.071   7.453   1.473 -0.1318  0.6032 -0.3475
 7654TIP3    H122919   2.079   7.467   1.379  0.5928  0.1911 -0.3535
 7654TIP3    H222920   2.148   7.402   1.497 -0.1724  0.9227  0.5199
 7655TIP3   OH222921   7.287   4.508   3.450  0.3103 -0.0161 -0.2882
 7655TIP3    H122922   7.326   4.437   3.398  0.3093 -0.6836  0.6091
 7655TIP3    H222923   7.353   4.578   3.448  0.9070 -0.5590 -0.0502
 7656TIP3   OH222924   3.940   0.187   4.500 -0.4801  0.1124  0.0214
 7656TIP3    H122925   4.007   0.147   4.555 -0.1323  1.9318  0.9929
 7656TIP3    H222926   3.862   0.189   4.555 -0.4472  0.9089  0.0401
 7657TIP3   OH222927   7.616   5.040   5.910  0.2386  0.0463 -0.0608
 7657TIP3    H122928   7.637   4.967   5.851  0.9603  1.1372 -1.2116
 7657TIP3    H222929   7.700   5.061   5.952 -0.4304 -1.2703  2.0784
 7658TIP3   OH222930   0.765   6.257   5.607  0.7481  0.2172 -0.2896
 7658TIP3    H122931   0.830   6.321   5.575  2.9693 -0.6641  2.1100
 7658TIP3    H222932   0.726   6.299   5.683 -0.0562 -0.0940 -0.5234
 7659TIP3   OH222933   3.994   1.710   1.162  0.2681  0.1695 -0.4206
 7659TIP3    H122934   3.971   1.617   1.169  0.8891  0.0316 -0.1645
 7659TIP3    H222935   3.992   1.741   1.253 -1.8266  0.8828 -0.6575
 7660TIP3   OH222936   3.895   3.102   6.513  0.0206  0.4369  0.6012
 7660TIP3    H122937   3.913   3.027   6.456  0.5384  2.1867 -1.6498
 7660TIP3    H222938   3.980   3.142   6.528 -0.3966  1.2789  0.7674
 7661TIP3   OH222939   5.650   3.547   5.143  0.6183 -0.3119  0.6954
 7661TIP3    H122940   5.683   3.479   5.084  1.2181 -0.4918  1.2239
 7661TIP3    H222941   5.579   3.588   5.094  0.2999 -1.2556  0.3277
 7662TIP3   OH222942   4.361   6.828   4.401  0.8622  0.3396  0.1091
 7662TIP3    H122943   4.405   6.744   4.387 -0.0279 -0.9006  3.6114
 7662TIP3    H222944   4.305   6.813   4.478  0.8389  4.2120  1.0626
 7663TIP3   OH222945   7.433   4.701   6.119 -0.1808 -0.0191 -0.1010
 7663TIP3    H122946   7.528   4.700   6.125 -0.1502  0.6031 -0.3611
 7663TIP3    H222947   7.405   4.618   6.155  0.4963 -0.4387 -0.5244
 7664TIP3   OH222948   1.336   0.385   1.926 -0.2385  0.3613  0.0933
 7664TIP3    H122949   1.350   0.316   1.861  0.4620  0.9553 -0.3939
 7664TIP3    H222950   1.348   0.467   1.877 -0.0011  0.8164  0.9057
 7665TIP3   OH222951   3.540   4.708   3.986 -0.4743  0.2294 -0.2898
 7665TIP3    H122952   3.479   4.738   4.054 -1.6826 -0.7840 -0.8867
 7665TIP3    H222953   3.580   4.788   3.954 -2.6676  1.1425 -0.9608
 7666TIP3   OH222954   1.498   4.161   4.050  0.2266  0.2067 -0.1357
 7666TIP3    H122955   1.415   4.136   4.088 -0.7701 -0.0367 -2.3027
 7666TIP3    H222956   1.554   4.083   4.059  0.7169  0.7871  2.4552
 7667TIP3   OH222957   8.120   5.856   4.215  0.0692 -0.0711 -0.0910
 7667TIP3    H122958   8.081   5.822   4.135  1.3019  1.8732 -1.6095
 7667TIP3    H222959   8.213   5.864   4.195  0.2475  1.4453  1.1611
 7668TIP3   OH222960   5.992   0.101   0.627 -0.6140 -0.3721  0.1604
 7668TIP3    H122961   5.987   0.050   0.708  0.0573 -0.4707  0.1432
 7668TIP3    H222962   6.008   0.037   0.558 -1.2181 -0.2913 -0.0625
 7669TIP3   OH222963   0.694   1.650   0.878 -0.1476  0.3494 -0.1741
 7669TIP3    H122964   0.684   1.665   0.784 -0.8138 -0.3336 -0.2308
 7669TIP3    H222965   0.620   1.593   0.900 -0.2207  0.8195  0.8386
 7670TIP3   OH222966   6.389   5.729   2.068  0.1273 -0.2414  0.4892
 7670TIP3    H122967   6.304   5.732   2.024  0.1282  0.3337  0.5173
 7670TIP3    H222968   6.367   5.722   2.161  0.1255 -1.4245  0.4137
 7671TIP3   OH222969   0.325   0.339   4.222 -0.1100  0.0865 -0.1486
 7671TIP3    H122970   0.321   0.379   4.308 -0.3964 -0.2203 -0.0168
 7671TIP3    H222971   0.419   0.337   4.201  0.0925 -1.0850  0.7580
 7672TIP3   OH222972   2.624   4.093   2.063  0.7701 -0.1961 -0.0268
 7672TIP3    H122973   2.661   4.033   2.127  1.4480  0.0944 -0.1325
 7672TIP3    H222974   2.698   4.118   2.008  0.2141 -0.3922 -0.8876
 7673TIP3   OH222975   3.146   5.949   1.157  0.5091  0.0908  0.0248
 7673TIP3    H122976   3.217   5.976   1.099  0.5474 -1.0629 -0.4998
 7673TIP3    H222977   3.190   5.904   1.229  0.3152 -1.3113 -0.6839
 7674TIP3   OH222978   3.552   6.156   5.578 -0.1075 -0.1728 -0.5090
 7674TIP3    H122979   3.502   6.217   5.524 -0.6654  0.3812  0.6091
 7674TIP3    H222980   3.557   6.076   5.525  0.4432  0.7358 -1.9022
 7675TIP3   OH222981   0.106   6.027   3.186  0.0999  0.2207 -0.0331
 7675TIP3    H122982   0.013   6.014   3.204 -0.1195  0.4662 -0.9219
 7675TIP3    H222983   0.116   6.002   3.094  1.1235 -0.7971  0.3313
 7676TIP3   OH222984   3.277   6.158   1.994 -0.5791 -0.3368 -0.3623
 7676TIP3    H122985   3.366   6.191   1.985 -0.7206  0.3401  0.5660
 7676TIP3    H222986   3.226   6.232   2.027 -0.7865 -1.5341  2.3446
 7677TIP3   OH222987   1.735   7.568   4.296 -0.6337 -0.8233 -0.2248
 7677TIP3    H122988   1.800   7.556   4.227 -0.9240 -2.6087 -0.2376
 7677TIP3    H222989   1.784   7.604   4.370 -0.1581  0.3148 -1.0561
 7678TIP3   OH222990  -0.019   0.509   4.441 -0.3383 -0.2390 -0.3612
 7678TIP3    H122991  -0.052   0.533   4.528 -0.0490  0.9399 -0.5538
 7678TIP3    H222992   0.076   0.515   4.449 -0.3143  0.0076 -0.7824
 7679TIP3   OH222993   4.647   4.301   5.190 -0.6729  0.6703  0.6257
 7679TIP3    H122994   4.688   4.263   5.113 -0.9966  1.2551  0.1506
 7679TIP3    H222995   4.688   4.257   5.264 -0.1160  0.3388  0.1266
 7680TIP3   OH222996   3.556   4.232   2.389  1.0782  0.1580  0.0552
 7680TIP3    H122997   3.520   4.305   2.439 -0.5321 -1.5355  1.5378
 7680TIP3    H222998   3.484   4.169   2.384  2.5815 -1.5866 -0.6267
 7681TIP3   OH222999   1.280   3.463   3.246  0.1764 -0.1838 -0.0705
 7681TIP3    H123000   1.208   3.518   3.216  1.6019  1.0620 -1.4009
 7681TIP3    H223001   1.313   3.420   3.167  1.2047 -0.3395  0.4204
 7682TIP3   OH223002   1.177   4.219   1.698  0.4286 -0.1201  0.7454
 7682TIP3    H123003   1.201   4.141   1.748 -0.7757 -0.3654  0.9810
 7682TIP3    H223004   1.231   4.215   1.619  1.9104 -0.0612  1.7124
 7683TIP3   OH223005   3.960   7.758   6.046  0.8128 -0.2646  0.1201
 7683TIP3    H123006   3.908   7.758   6.127  0.6737  0.6605  0.0460
 7683TIP3    H223007   3.917   7.694   5.990 -1.2591  1.5569 -0.5365
 7684TIP3   OH223008   0.200   5.859   3.750 -0.2595  0.1597  0.6862
 7684TIP3    H123009   0.239   5.896   3.829 -1.0143  1.7290  0.3479
 7684TIP3    H223010   0.193   5.932   3.689 -2.8302 -0.2368  0.3869
 7685TIP3   OH223011   4.219   4.771   1.767  0.3369 -0.0136 -0.2664
 7685TIP3    H123012   4.260   4.702   1.820  0.8077 -0.9972 -1.8309
 7685TIP3    H223013   4.125   4.754   1.775  0.3678  0.2845  0.8025
 7686TIP3   OH223014   5.128   7.106   5.770 -0.7601  0.8396  0.2120
 7686TIP3    H123015   5.136   7.159   5.850 -1.1666 -0.7477  1.3724
 7686TIP3    H223016   5.154   7.018   5.797  1.0518  0.6322 -1.9445
 7687TIP3   OH223017   5.952   5.652   0.280  0.6227 -0.1644 -0.4746
 7687TIP3    H123018   5.936   5.575   0.335  0.4438  0.2715  0.0780
 7687TIP3    H223019   6.047   5.660   0.278  0.6383 -0.3191 -0.4244
 7688TIP3   OH223020   2.866   6.456   3.157 -0.0086  0.0950 -0.0739
 7688TIP3    H123021   2.775   6.446   3.128 -0.6424 -0.0699  1.8019
 7688TIP3    H223022   2.918   6.452   3.077 -1.4763 -2.0145 -1.0089
 7689TIP3   OH223023   3.977   4.220   4.617  0.0482  0.0080 -0.6863
 7689TIP3    H123024   3.934   4.291   4.570  0.3710  0.1498 -0.7674
 7689TIP3    H223025   4.067   4.219   4.584  0.5656  0.7223  0.5906
 7690TIP3   OH223026   5.381   0.317   1.905 -0.5859 -0.1602 -0.1275
 7690TIP3    H123027   5.345   0.287   1.988 -0.2144 -0.4361 -0.0611
 7690TIP3    H223028   5.331   0.270   1.838  0.7761 -1.8702 -0.0043
 7691TIP3   OH223029   7.050   2.381   2.749 -0.5034 -0.1574 -0.2190
 7691TIP3    H123030   7.049   2.477   2.747  0.2575  0.0444  3.1027
 7691TIP3    H223031   6.990   2.358   2.820  3.1609 -1.7343  2.6969
 7692TIP3   OH223032   2.100   3.230   0.508 -0.6304  0.5715  0.1056
 7692TIP3    H123033   2.029   3.291   0.526 -0.9269  0.5245 -0.8300
 7692TIP3    H223034   2.175   3.265   0.554 -1.1199  0.9272  0.6481
 7693TIP3   OH223035   2.753   5.433   0.867  0.3111  0.1205 -1.0044
 7693TIP3    H123036   2.843   5.446   0.838  0.1010 -0.9829 -2.2356
 7693TIP3    H223037   2.702   5.500   0.822  0.2460 -0.4673 -1.8156
 7694TIP3   OH223038   2.737   7.441   2.835  0.0879  0.4986 -0.8274
 7694TIP3    H123039   2.726   7.405   2.747  0.9173  1.7055 -1.4518
 7694TIP3    H223040   2.658   7.415   2.882 -1.7863  2.2433 -2.7901
 7695TIP3   OH223041   6.411   7.166   4.109 -0.6036  0.0135  0.6174
 7695TIP3    H123042   6.366   7.128   4.184 -1.2603 -1.3592 -0.4243
 7695TIP3    H223043   6.448   7.248   4.142  0.5868 -1.3535  2.8721
 7696TIP3   OH223044   6.604   5.195   0.796 -0.2922 -0.0584  0.1954
 7696TIP3    H123045   6.648   5.179   0.713 -0.2740 -3.9609  0.7403
 7696TIP3    H223046   6.519   5.233   0.771 -0.7113 -2.0523 -1.7820
 7697TIP3   OH223047   8.140   2.957   0.392 -0.6273 -0.3632  0.0884
 7697TIP3    H123048   8.162   2.915   0.308  0.7940 -0.5193  0.5173
 7697TIP3    H223049   8.210   3.021   0.405  0.1161 -1.4907  1.9470
 7698TIP3   OH223050   5.405   7.349   5.884  0.6317  0.7247  0.0480
 7698TIP3    H123051   5.355   7.284   5.933 -1.3570  0.9537 -1.5445
 7698TIP3    H223052   5.485   7.361   5.935  0.9089 -2.6267  0.6158
 7699TIP3   OH223053   0.714   4.505   5.309 -0.0010  0.2250  0.1850
 7699TIP3    H123054   0.757   4.453   5.241 -1.1889  1.7025 -1.7846
 7699TIP3    H223055   0.625   4.520   5.275 -0.8370  0.5179  2.3555
 7700TIP3   OH223056   2.672   5.731   3.637 -0.7556 -0.2740  0.5784
 7700TIP3    H123057   2.599   5.762   3.585  0.3191  0.0417 -0.8182
 7700TIP3    H223058   2.748   5.778   3.603  0.5266 -2.4674  0.1744
 7701TIP3   OH223059   6.741   4.740   5.772 -0.0242  0.7891  0.1513
 7701TIP3    H123060   6.766   4.651   5.746  1.4304  2.0934 -3.5635
 7701TIP3    H223061   6.823   4.782   5.796 -0.0730  2.0878 -1.7331
 7702TIP3   OH223062   7.489   4.606   2.236 -0.1576 -0.1650 -0.7912
 7702TIP3    H123063   7.432   4.664   2.287 -0.6295  0.9722 -2.5244
 7702TIP3    H223064   7.572   4.606   2.283 -1.2631 -1.1323  1.2945
 7703TIP3   OH223065   5.046   7.327   3.778 -0.2694 -0.5787  0.1879
 7703TIP3    H123066   5.099   7.261   3.735 -0.4731 -0.4628 -0.2486
 7703TIP3    H223067   5.093   7.347   3.859 -0.8687 -2.1989  0.9817
 7704TIP3   OH223068   3.080   4.970   0.234  0.5763  0.5083 -0.2028
 7704TIP3    H123069   3.115   5.022   0.162  0.4028  1.0442  0.0878
 7704TIP3    H223070   3.087   4.879   0.205  1.3196  0.6676 -0.5318
 7705TIP3   OH223071   1.501   3.125   1.143 -0.1101  0.7128 -0.5489
 7705TIP3    H123072   1.453   3.046   1.116  1.2089 -0.7795  1.2254
 7705TIP3    H223073   1.445   3.166   1.208  0.8844 -1.0264  1.5211
 7706TIP3   OH223074   0.394   5.178   4.437  0.3643  0.0994 -0.4049
 7706TIP3    H123075   0.463   5.211   4.494 -1.0305  0.9076  0.9148
 7706TIP3    H223076   0.410   5.220   4.353  3.3795 -2.3061 -1.2185
 7707TIP3   OH223077   6.163   2.011   0.174  0.1031  0.4776  0.6951
 7707TIP3    H123078   6.103   2.040   0.105 -0.6467  0.4212  1.3086
 7707TIP3    H223079   6.235   2.074   0.173 -1.7732  2.7913  2.4070
 7708TIP3   OH223080   7.371   1.383   3.765 -0.3859  0.4427 -0.2016
 7708TIP3    H123081   7.405   1.470   3.745 -0.7512  0.4743 -0.6834
 7708TIP3    H223082   7.435   1.323   3.724 -1.2791  0.5071 -1.7734
 7709TIP3   OH223083   5.586   4.954   4.160  0.4733 -0.1846  0.3630
 7709TIP3    H123084   5.588   4.858   4.163 -3.7642 -0.4220  3.2393
 7709TIP3    H223085   5.669   4.980   4.201  0.8728 -2.6406  1.3193
 7710TIP3   OH223086   3.137   6.721   4.373 -0.1097  0.0773  0.5796
 7710TIP3    H123087   3.134   6.744   4.281 -0.8921 -1.1474  0.2751
 7710TIP3    H223088   3.088   6.790   4.417 -3.0667 -1.2463 -0.3956
 7711TIP3   OH223089   6.576   5.366   5.244 -0.4131  0.1439  0.4291
 7711TIP3    H123090   6.547   5.380   5.154 -0.9839 -0.4525  0.5158
 7711TIP3    H223091   6.597   5.454   5.276 -2.3472  0.6569  0.4230
 7712TIP3   OH223092   6.637   2.762   2.573 -0.1145 -0.6531  0.6664
 7712TIP3    H123093   6.603   2.745   2.661  1.0038 -1.8106  0.9180
 7712TIP3    H223094   6.656   2.675   2.538 -2.0639 -0.3181 -1.3863
 7713TIP3   OH223095   5.503   5.912   3.311  0.8864  0.4979 -0.8182
 7713TIP3    H123096   5.596   5.909   3.331  0.7613  1.4383 -0.0631
 7713TIP3    H223097   5.460   5.884   3.392  0.4672  1.6944 -0.6076
 7714TIP3   OH223098   0.168   7.273   6.573 -0.5901  0.1043  0.2920
 7714TIP3    H123099   0.223   7.347   6.547 -1.0286  0.2876 -0.1284
 7714TIP3    H223100   0.208   7.198   6.530 -0.1277  0.0891  0.7413
 7715TIP3   OH223101   5.506   2.639   0.189 -0.2687 -0.3440 -0.2216
 7715TIP3    H123102   5.412   2.631   0.198 -0.2684 -1.5723 -1.1396
 7715TIP3    H223103   5.542   2.567   0.241  0.1573 -0.0527 -0.1050
 7716TIP3   OH223104   6.627   6.513   4.942  0.0383 -0.4764  0.9909
 7716TIP3    H123105   6.634   6.602   4.976 -0.2621 -0.1199  0.1650
 7716TIP3    H223106   6.537   6.509   4.907  0.7726 -0.3255 -1.0454
 7717TIP3   OH223107   7.025   4.405   2.531 -0.2301  0.3161  0.3428
 7717TIP3    H123108   7.011   4.474   2.466 -0.7870  0.4890  0.6325
 7717TIP3    H223109   6.937   4.373   2.551  0.0296 -0.5241  0.1705
 7718TIP3   OH223110   1.574   2.076   4.114 -0.0132 -0.2807  0.0548
 7718TIP3    H123111   1.618   2.041   4.192  0.8160  0.5862 -0.0071
 7718TIP3    H223112   1.635   2.142   4.080 -1.2768  0.8432 -0.1259
 7719TIP3   OH223113   3.206   4.905   0.479  0.0367  0.3397 -0.5062
 7719TIP3    H123114   3.191   4.940   0.567 -2.6639 -1.3776 -0.1457
 7719TIP3    H223115   3.145   4.953   0.423  1.1104  0.8129 -1.2892
 7720TIP3   OH223116   1.911   2.598   3.730  0.0655  0.1255 -0.3116
 7720TIP3    H123117   1.816   2.602   3.739 -0.0863 -0.9477 -1.1954
 7720TIP3    H223118   1.927   2.616   3.637  0.6010 -1.2322 -0.4967
 7721TIP3   OH223119   5.867   1.831   2.803  0.0896  0.8489  0.0678
 7721TIP3    H123120   5.859   1.909   2.748  1.5469  2.8653  2.5108
 7721TIP3    H223121   5.960   1.808   2.800 -0.5064 -1.7646 -1.7105
 7722TIP3   OH223122   0.321   1.443   2.263 -0.0223 -0.3553 -0.5535
 7722TIP3    H123123   0.243   1.466   2.314  0.3694 -1.0626  0.4000
 7722TIP3    H223124   0.341   1.522   2.213 -1.3088 -0.1418 -0.7585
 7723TIP3   OH223125   4.919   3.968   2.057  0.7682 -0.0080 -0.2521
 7723TIP3    H123126   4.943   3.944   2.146 -0.8441  1.2667  0.5932
 7723TIP3    H223127   4.931   4.063   2.053 -1.8019  0.3955 -0.4370
 7724TIP3   OH223128   5.348   2.254   2.002 -0.6032  0.4586  0.6072
 7724TIP3    H123129   5.430   2.252   2.051 -0.5179  2.0765  0.5647
 7724TIP3    H223130   5.304   2.334   2.030 -1.2653  0.6375 -0.8171
 7725TIP3   OH223131   3.393   1.792   1.497 -0.3024  0.9787  0.2489
 7725TIP3    H123132   3.475   1.808   1.451  0.2445 -1.4498  0.2589
 7725TIP3    H223133   3.419   1.766   1.586 -1.1017  0.5834  0.3793
 7726TIP3   OH223134   7.108   0.390   4.836 -0.5811  0.4117 -0.0435
 7726TIP3    H123135   7.050   0.444   4.890  0.8793 -0.0560  2.0788
 7726TIP3    H223136   7.138   0.320   4.893  2.0219  0.5735 -1.0428
 7727TIP3   OH223137   1.833   6.474   2.682  0.5972 -0.3052  0.3030
 7727TIP3    H123138   1.787   6.499   2.763  0.7158 -0.1661  0.3266
 7727TIP3    H223139   1.809   6.382   2.670 -0.8316  0.1326 -0.4519
 7728TIP3   OH223140   7.350   3.782   3.453 -0.1262 -0.1596  0.1426
 7728TIP3    H123141   7.306   3.716   3.506 -2.6357  0.3200 -1.1900
 7728TIP3    H223142   7.319   3.765   3.364 -0.0660  2.1803 -0.3759
 7729TIP3   OH223143   1.857   2.911   5.242  0.3258  0.4879  0.2795
 7729TIP3    H123144   1.856   2.985   5.303 -1.0982  1.7084 -1.1336
 7729TIP3    H223145   1.845   2.834   5.297 -0.8665  1.5351  1.5591
 7730TIP3   OH223146   7.985   7.415   3.843 -0.7801  0.6746  0.2202
 7730TIP3    H123147   7.992   7.325   3.875 -0.0890  0.7434  0.2855
 7730TIP3    H223148   8.014   7.409   3.752 -1.9573  0.6203 -0.1707
 7731TIP3   OH223149   1.568   0.076   2.945  0.0726  0.1771 -0.0066
 7731TIP3    H123150   1.584   0.161   2.905  0.2449  1.1644  2.0287
 7731TIP3    H223151   1.655   0.038   2.959  0.3213  1.4974  2.6975
 7732TIP3   OH223152   6.415   1.194   3.670  0.0451 -0.3087 -0.7063
 7732TIP3    H123153   6.387   1.140   3.596 -0.0350 -1.4887  0.1578
 7732TIP3    H223154   6.338   1.199   3.726 -0.1528  1.2901 -1.0741
 7733TIP3   OH223155   6.288   0.114   4.755  0.2890  0.2105  0.0577
 7733TIP3    H123156   6.262   0.205   4.768  0.1374  0.1353  0.2895
 7733TIP3    H223157   6.338   0.115   4.673 -0.0122  0.4460 -0.1292
 7734TIP3   OH223158   5.677   7.281   0.498 -0.0526 -0.4573 -0.1705
 7734TIP3    H123159   5.671   7.376   0.490 -3.4825 -0.4762  0.3625
 7734TIP3    H223160   5.643   7.262   0.586 -0.3347 -2.1996 -0.6172
 7735TIP3   OH223161   4.271   6.635   0.454 -0.1778  0.5581 -0.0423
 7735TIP3    H123162   4.231   6.572   0.393  2.1663 -0.9063 -0.2195
 7735TIP3    H223163   4.277   6.716   0.403 -0.8699  0.1760 -0.7618
 7736TIP3   OH223164   4.489   6.622   6.310 -0.1925  0.1862 -0.7623
 7736TIP3    H123165   4.403   6.580   6.303  0.6442 -1.4739 -1.7665
 7736TIP3    H223166   4.514   6.640   6.219  0.4519  0.8135 -0.4685
 7737TIP3   OH223167   1.657   3.576   3.484 -0.0577  0.2267  0.1980
 7737TIP3    H123168   1.608   3.496   3.502 -0.3736  0.6068  1.0684
 7737TIP3    H223169   1.609   3.644   3.531 -0.6618  1.2006 -1.7558
 7738TIP3   OH223170   0.187   1.545   3.077  0.0054  0.0604  0.2176
 7738TIP3    H123171   0.249   1.592   3.131 -0.2624  0.6875 -0.0066
 7738TIP3    H223172   0.116   1.520   3.136  1.3356 -2.3776  0.9066
 7739TIP3   OH223173   0.155   6.037   3.494  0.0055  0.0131 -0.2279
 7739TIP3    H123174   0.131   6.071   3.408  1.7207 -0.4333 -0.9329
 7739TIP3    H223175   0.225   6.095   3.524  0.3278 -0.6243  0.2709
 7740TIP3   OH223176   7.365   5.290   5.170  0.5423 -0.0707 -0.0189
 7740TIP3    H123177   7.273   5.273   5.153  0.3511  0.6449  0.2905
 7740TIP3    H223178   7.372   5.287   5.266  0.5658  1.2635  0.0274
 7741TIP3   OH223179   6.560   1.345   6.635 -0.7931 -0.2923  0.4367
 7741TIP3    H123180   6.582   1.253   6.627 -2.4570 -0.8476  1.8180
 7741TIP3    H223181   6.498   1.361   6.563  0.5371  0.1435 -0.6612
 7742TIP3   OH223182   8.222   6.058   5.843  0.4216 -0.3378 -0.3172
 7742TIP3    H123183   8.305   6.016   5.823  1.2769  1.3468 -0.5091
 7742TIP3    H223184   8.158   6.010   5.792  0.8775 -3.0481  1.4601
 7743TIP3   OH223185   7.802   6.917   5.320 -0.0489 -0.6349  0.7459
 7743TIP3    H123186   7.866   6.902   5.389 -1.5651  0.4107  2.4607
 7743TIP3    H223187   7.720   6.881   5.354 -0.9672  0.4227 -0.2446
 7744TIP3   OH223188   3.340   3.828   5.603  0.0712  0.3426 -0.0172
 7744TIP3    H123189   3.426   3.800   5.569 -0.2247  0.1108 -0.5874
 7744TIP3    H223190   3.277   3.793   5.540 -0.5650 -0.8873  1.2625
 7745TIP3   OH223191   7.468   5.136   4.975  0.0025 -0.4548 -0.2623
 7745TIP3    H123192   7.430   5.191   5.043  0.3129 -0.3915 -0.1358
 7745TIP3    H223193   7.482   5.051   5.017  3.0307  0.4074  0.7321
 7746TIP3   OH223194   5.769   2.564   4.566 -0.0525 -0.1194  0.4598
 7746TIP3    H123195   5.856   2.594   4.591 -0.2788  0.1944  0.8950
 7746TIP3    H223196   5.732   2.529   4.647 -0.7398  0.7694  0.5538
 7747TIP3   OH223197   3.840   0.566   0.168 -0.2090  0.5734 -0.0471
 7747TIP3    H123198   3.919   0.592   0.120 -0.0003  0.6887  0.3583
 7747TIP3    H223199   3.857   0.476   0.196 -0.6703  0.2078 -0.8974
 7748TIP3   OH223200   1.462   6.342   5.246  1.0142  0.4211  0.3662
 7748TIP3    H123201   1.547   6.306   5.272  1.2032 -0.6378 -1.5055
 7748TIP3    H223202   1.398   6.284   5.288  1.0991  1.9088  2.7485
 7749TIP3   OH223203   1.852   3.095   5.446  0.2748  0.5697 -0.5772
 7749TIP3    H123204   1.892   3.103   5.532  0.4522  2.6968 -0.8145
 7749TIP3    H223205   1.761   3.120   5.459 -0.1035 -0.6596 -0.7352
 7750TIP3   OH223206   3.371   2.953   3.496  0.1783  0.4721 -0.4853
 7750TIP3    H123207   3.401   2.892   3.563  1.2713  0.4476 -0.9766
 7750TIP3    H223208   3.441   2.954   3.432  0.0568  2.0428 -0.6248
 7751TIP3   OH223209   3.082   2.019   4.290  0.3071  0.5457 -0.0151
 7751TIP3    H123210   3.134   1.952   4.334  0.7123 -0.0504 -1.3572
 7751TIP3    H223211   3.131   2.039   4.210 -1.7125 -0.3880 -1.5678
 7752TIP3   OH223212   5.283   6.040   0.786 -0.2177 -0.1564 -0.0081
 7752TIP3    H123213   5.263   5.946   0.784 -0.2301 -0.1845  0.7960
 7752TIP3    H223214   5.252   6.068   0.873 -1.4462  0.8679 -0.7379
 7753TIP3   OH223215   4.460   3.795   1.038  0.1041  0.4379  0.1896
 7753TIP3    H123216   4.547   3.768   1.010  0.0594 -0.6737  1.0729
 7753TIP3    H223217   4.412   3.809   0.956  0.1508 -2.1538 -0.3516
 7754TIP3   OH223218   5.171   3.302   0.464 -0.6582  0.3393  0.1686
 7754TIP3    H123219   5.163   3.299   0.369 -0.1212 -0.7076  0.1493
 7754TIP3    H223220   5.080   3.299   0.496 -0.8443  0.8342 -0.3004
 7755TIP3   OH223221   2.801   4.453   3.908  0.2611 -0.1311  0.8128
 7755TIP3    H123222   2.861   4.379   3.917  0.5920  0.0583  0.1662
 7755TIP3    H223223   2.824   4.494   3.825 -0.4794  0.2019  0.7614
 7756TIP3   OH223224   6.457   5.809   2.711  0.8798 -0.1469  0.4462
 7756TIP3    H123225   6.494   5.897   2.701 -0.4068  0.5689  1.5708
 7756TIP3    H223226   6.403   5.797   2.633 -0.8541  1.1056  1.3676
 7757TIP3   OH223227   6.907   1.884   5.197 -0.0894 -0.5320  0.0063
 7757TIP3    H123228   6.874   1.804   5.156 -1.4739  0.4780 -0.9552
 7757TIP3    H223229   6.962   1.854   5.269 -0.3417 -2.3383 -0.5172
 7758TIP3   OH223230   1.143   7.249   6.647 -0.5191 -0.1291 -0.1500
 7758TIP3    H123231   1.117   7.175   6.592 -0.6662  0.2742 -0.6270
 7758TIP3    H223232   1.167   7.318   6.585 -0.3846  0.2270  0.2921
 7759TIP3   OH223233   1.784   1.886   4.977 -0.4814  0.2022 -0.0270
 7759TIP3    H123234   1.708   1.914   5.028 -1.6820 -2.1246 -0.4085
 7759TIP3    H223235   1.749   1.822   4.915  1.8525 -1.3642  0.1472
 7760TIP3   OH223236   7.027   5.360   5.381  0.3008  0.6366 -0.4290
 7760TIP3    H123237   6.983   5.324   5.458  2.1335  1.6761  1.2018
 7760TIP3    H223238   7.107   5.399   5.415  0.9019  1.6866 -2.8058
 7761TIP3   OH223239   1.723   2.854   6.349  0.7827  0.1997 -0.2443
 7761TIP3    H123240   1.783   2.893   6.285  0.7419  1.7082  0.5990
 7761TIP3    H223241   1.701   2.925   6.409  0.3319 -1.0151  1.1037
 7762TIP3   OH223242   5.346   3.410   1.528 -0.0127  0.3727  0.0969
 7762TIP3    H123243   5.326   3.398   1.621 -0.1622  1.3355  0.2004
 7762TIP3    H223244   5.440   3.423   1.524  0.0401 -0.0178  0.0746
 7763TIP3   OH223245   7.169   0.526   6.739 -0.0138 -0.5605 -0.1508
 7763TIP3    H123246   7.264   0.530   6.744  0.1129 -0.5878 -1.8887
 7763TIP3    H223247   7.148   0.557   6.651 -1.5112 -2.0191 -0.3656
 7764TIP3   OH223248   1.143   6.965   5.563 -0.0668  0.0139  0.2436
 7764TIP3    H123249   1.117   7.010   5.483 -0.7405  0.4197  0.6785
 7764TIP3    H223250   1.067   6.974   5.621  1.1621  1.6237  1.7194
 7765TIP3   OH223251   7.180   5.286   1.143  0.6315 -0.3366 -0.0382
 7765TIP3    H123252   7.173   5.222   1.073 -1.0427 -0.4652  0.2047
 7765TIP3    H223253   7.138   5.365   1.108  0.6200 -0.1040  0.4850
 7766TIP3   OH223254   0.826   6.334   2.084  0.4911 -0.3274  0.3216
 7766TIP3    H123255   0.753   6.315   2.026 -0.4063 -1.1567  1.6651
 7766TIP3    H223256   0.806   6.420   2.121  0.3549 -0.4255  0.4725
 7767TIP3   OH223257   3.534   7.018   2.911 -0.0109 -0.1160  0.0016
 7767TIP3    H123258   3.604   7.083   2.906 -0.1530 -0.0042 -0.5836
 7767TIP3    H223259   3.458   7.068   2.943  0.0116 -0.1001  0.0299
 7768TIP3   OH223260   1.855   1.948   4.161  0.1555 -0.5892  0.4038
 7768TIP3    H123261   1.911   1.995   4.099  1.9020 -2.2381  0.6195
 7768TIP3    H223262   1.851   2.004   4.238  1.6171 -0.4519  0.4033
 7769TIP3   OH223263   3.262   3.056   0.260  0.3546  0.3595 -0.2061
 7769TIP3    H123264   3.206   2.989   0.300  1.1319 -0.7468 -0.9040
 7769TIP3    H223265   3.316   3.088   0.332 -1.2525  1.5863  0.5263
 7770TIP3   OH223266   0.107   6.214   1.606 -0.5049  0.0439  0.2880
 7770TIP3    H123267   0.110   6.209   1.511 -1.9758 -1.2497  0.2791
 7770TIP3    H223268   0.172   6.282   1.628 -0.8235  1.0616 -1.6635
 7771TIP3   OH223269   4.498   3.151   0.078 -0.5063 -0.0669 -0.1105
 7771TIP3    H123270   4.422   3.104   0.045 -0.0323  0.2271 -1.7460
 7771TIP3    H223271   4.573   3.095   0.056 -0.2767 -0.8476  2.4021
 7772TIP3   OH223272   6.227   6.433   3.052 -0.0825  0.4201  0.1812
 7772TIP3    H123273   6.218   6.347   3.011  0.8060 -0.0354  0.9172
 7772TIP3    H223274   6.137   6.464   3.062 -0.4330 -0.5897  0.2486
 7773TIP3   OH223275   6.894   6.646   1.432 -0.2865 -0.1998 -0.5036
 7773TIP3    H123276   6.833   6.616   1.499 -0.4726  0.8794 -0.1766
 7773TIP3    H223277   6.858   6.729   1.401  0.6402  0.1083 -0.8134
 7774TIP3   OH223278   4.513   4.724   1.007 -0.4490 -0.1187 -0.2069
 7774TIP3    H123279   4.574   4.743   0.937  1.4719  0.8219  1.6058
 7774TIP3    H223280   4.445   4.792   0.999 -1.7171 -1.5355 -2.6001
 7775TIP3   OH223281   0.454   3.649   6.382 -0.2680  0.2669 -0.1139
 7775TIP3    H123282   0.368   3.668   6.419  0.5273 -0.5859  2.3638
 7775TIP3    H223283   0.453   3.555   6.366  0.6652 -0.0400  1.3988
 7776TIP3   OH223284   4.267   7.152   2.435 -0.1357  0.5730  0.2168
 7776TIP3    H123285   4.196   7.139   2.372  0.6695 -1.4095 -0.3358
 7776TIP3    H223286   4.232   7.120   2.518 -0.5896  1.5839  0.4379
 7777TIP3   OH223287   0.841   3.253   2.892 -0.5074 -0.2787  0.6386
 7777TIP3    H123288   0.883   3.170   2.869  1.4405  0.2750  1.9787
 7777TIP3    H223289   0.849   3.259   2.987 -0.6902  1.4075  0.5850
 7778TIP3   OH223290   5.228   0.716   0.918  0.6332  0.2737  0.5289
 7778TIP3    H123291   5.155   0.778   0.909  0.0097 -0.5736 -0.5105
 7778TIP3    H223292   5.187   0.630   0.916  1.7723 -0.3128 -2.1752
 7779TIP3   OH223293   1.152   3.182   3.208 -0.3419 -0.2309  0.0744
 7779TIP3    H123294   1.186   3.096   3.184  0.1326  0.0837 -0.4066
 7779TIP3    H223295   1.222   3.243   3.184 -0.3094  0.2113  1.2247
 7780TIP3   OH223296   4.000   4.512   0.028 -0.5351  0.4439  0.1930
 7780TIP3    H123297   4.083   4.470   0.049  0.3878  2.6984  1.4145
 7780TIP3    H223298   3.948   4.502   0.108 -0.2667  1.6199  0.5374
 7781TIP3   OH223299   0.960   2.960   1.339 -0.1096 -0.4778 -0.4217
 7781TIP3    H123300   0.881   2.909   1.324 -0.1128 -0.9876  1.1057
 7781TIP3    H223301   1.018   2.900   1.387  1.7907 -0.5856 -2.7141
 7782TIP3   OH223302   1.613   7.118   4.834 -0.7217  0.4995 -0.4738
 7782TIP3    H123303   1.630   7.206   4.867  0.1833  0.2214 -0.1926
 7782TIP3    H223304   1.671   7.108   4.759  0.2910 -0.3915  0.3890
 7783TIP3   OH223305   4.300   0.553   6.669 -0.0814 -0.0393  0.1409
 7783TIP3    H123306   4.250   0.575   6.747  0.9931  2.0276  0.3269
 7783TIP3    H223307   4.298   0.633   6.616  0.9872 -0.7071 -0.9629
 7784TIP3   OH223308   6.577   7.010   0.565  0.1947 -0.7977  0.2931
 7784TIP3    H123309   6.607   7.052   0.645  1.1706 -0.2016 -0.3671
 7784TIP3    H223310   6.604   7.068   0.495 -0.6609 -1.3000 -0.4856
 7785TIP3   OH223311   2.058   5.151   4.863 -0.0301 -0.2016  0.7089
 7785TIP3    H123312   2.049   5.090   4.936 -1.2184 -1.6560 -0.5748
 7785TIP3    H223313   1.973   5.195   4.858  1.0496  2.2491  2.1078
 7786TIP3   OH223314   4.107   6.892   5.844 -0.2060  0.5020 -0.2151
 7786TIP3    H123315   4.117   6.881   5.750 -0.8129  1.5153 -0.4174
 7786TIP3    H223316   4.070   6.810   5.875  1.7053 -0.5496 -0.5486
 7787TIP3   OH223317   7.649   3.116   1.401 -0.2520  0.6519 -0.4883
 7787TIP3    H123318   7.700   3.038   1.421 -0.1468  1.2604  1.8859
 7787TIP3    H223319   7.625   3.106   1.309 -1.0922 -2.6485 -0.0370
 7788TIP3   OH223320   3.435   5.404   3.327  0.5985 -0.4833 -0.9010
 7788TIP3    H123321   3.407   5.323   3.369 -0.3453  0.1822 -0.2172
 7788TIP3    H223322   3.449   5.380   3.235 -2.5755 -0.8269 -1.4131
 7789TIP3   OH223323   2.115   7.636   3.152 -0.1964  0.1462 -0.4042
 7789TIP3    H123324   2.209   7.619   3.143 -0.1368  0.2708 -0.0256
 7789TIP3    H223325   2.083   7.562   3.204 -0.7225 -1.1257 -2.4424
 7790TIP3   OH223326   5.072   0.428   1.733  0.2805  0.0920  1.2009
 7790TIP3    H123327   5.129   0.496   1.768  0.0595 -0.1692  2.0800
 7790TIP3    H223328   4.992   0.474   1.708  0.4216  0.2694  1.0732
 7791TIP3   OH223329   3.622   3.129   3.289 -0.0842  0.3257  0.0518
 7791TIP3    H123330   3.628   3.137   3.385  0.6003  0.8140 -0.0285
 7791TIP3    H223331   3.572   3.205   3.261 -1.7041 -0.6456  0.1506
 7792TIP3   OH223332   4.140   1.398   4.737 -0.2103 -0.1139  0.0422
 7792TIP3    H123333   4.044   1.393   4.745 -0.2747 -0.5248 -0.8109
 7792TIP3    H223334   4.155   1.472   4.678 -0.1421 -1.3626 -1.6058
 7793TIP3   OH223335   5.933   0.304   3.653  0.1217  0.0715  0.4180
 7793TIP3    H123336   5.845   0.279   3.680  0.6153 -1.7087  0.5278
 7793TIP3    H223337   5.969   0.353   3.727 -0.3917 -0.1507  0.8142
 7794TIP3   OH223338   4.756   4.577   5.806  0.5691  0.4527 -0.1797
 7794TIP3    H123339   4.737   4.493   5.848 -0.3308 -0.8576 -2.9689
 7794TIP3    H223340   4.810   4.554   5.731  1.1033  2.5374 -0.4970
 7795TIP3   OH223341   7.468   7.013   5.633 -0.1210 -0.3492 -0.6440
 7795TIP3    H123342   7.534   6.949   5.660  1.5017  0.6597 -1.9678
 7795TIP3    H223343   7.391   6.992   5.685  0.7492 -2.5603 -0.1243
 7796TIP3   OH223344   8.119   5.949   1.448  0.3007 -0.8520  0.5692
 7796TIP3    H123345   8.080   5.953   1.361  0.9706  0.6462  0.3179
 7796TIP3    H223346   8.213   5.951   1.433  0.4191  0.5476  1.3554
 7797TIP3   OH223347   5.694   3.669   3.124 -0.0762 -0.1545 -0.4323
 7797TIP3    H123348   5.742   3.718   3.191 -0.0551  0.3002 -0.7759
 7797TIP3    H223349   5.718   3.577   3.140  3.5519  0.2139 -2.5495
 7798TIP3   OH223350   5.547   1.520   2.290  0.5349 -0.7759  0.7301
 7798TIP3    H123351   5.524   1.427   2.293  0.6850 -0.8056  1.1723
 7798TIP3    H223352   5.642   1.521   2.297  0.7692 -0.6840 -1.8319
 7799TIP3   OH223353   2.085   2.747   0.530 -0.2213  0.0739 -0.1595
 7799TIP3    H123354   2.179   2.766   0.539 -0.3382  0.8781 -0.4985
 7799TIP3    H223355   2.042   2.818   0.579 -0.6454 -0.8884  0.9239
 7800TIP3   OH223356   4.150   6.249   6.358 -0.1202  0.3122  0.2768
 7800TIP3    H123357   4.205   6.171   6.346  0.7472  0.5772  2.1982
 7800TIP3    H223358   4.113   6.240   6.446 -2.4142  0.6546 -0.5698
 7801TIP3   OH223359   6.265   2.161   6.209  0.4535 -0.6346 -1.1197
 7801TIP3    H123360   6.220   2.195   6.286 -0.6353  0.9834 -2.3839
 7801TIP3    H223361   6.334   2.105   6.243 -0.4570 -0.5434  0.9852
 7802TIP3   OH223362   1.424   1.319   4.822  0.5184  0.4203 -0.1925
 7802TIP3    H123363   1.445   1.261   4.895  1.0905 -0.1719 -0.8205
 7802TIP3    H223364   1.393   1.260   4.753 -0.0609  0.9811 -0.4188
 7803TIP3   OH223365   2.858   5.106   2.790  0.6215  0.1283 -0.5932
 7803TIP3    H123366   2.941   5.106   2.838 -0.5193  0.6465  1.5026
 7803TIP3    H223367   2.836   5.198   2.779  1.3217  0.0647 -3.1022
 7804TIP3   OH223368   0.968   7.623   1.108 -0.4988 -0.1696 -0.6835
 7804TIP3    H123369   0.901   7.566   1.071 -1.1624  0.0438  0.1398
 7804TIP3    H223370   0.946   7.710   1.074  1.0377 -0.5035 -2.6518
 7805TIP3   OH223371   6.164   1.364   3.746  0.0897  0.1415 -0.0400
 7805TIP3    H123372   6.160   1.459   3.743  0.6179  0.1825  0.3567
 7805TIP3    H223373   6.131   1.335   3.661 -1.6598  0.6145  0.4334
 7806TIP3   OH223374   1.863   4.504   1.439  0.0625 -0.7912 -0.2526
 7806TIP3    H123375   1.841   4.427   1.490  0.2384 -1.4278 -1.1148
 7806TIP3    H223376   1.929   4.550   1.491 -0.9493 -0.5420  0.8485
 7807TIP3   OH223377   0.991   6.274   3.258  0.1664  0.4769 -0.5317
 7807TIP3    H123378   0.918   6.328   3.288  0.1035  0.8779 -1.3858
 7807TIP3    H223379   1.069   6.324   3.282  0.1380  0.4262 -0.3344
 7808TIP3   OH223380   2.394   1.531   5.155 -0.4254 -0.3976 -0.3891
 7808TIP3    H123381   2.408   1.621   5.186  1.9386 -1.0995  0.8389
 7808TIP3    H223382   2.366   1.483   5.232 -2.2230 -0.6517 -1.1662
 7809TIP3   OH223383   7.021   6.215   1.148  0.0103  0.0995  0.0912
 7809TIP3    H123384   7.008   6.282   1.215  0.7475  0.9913 -0.6250
 7809TIP3    H223385   7.032   6.134   1.196 -0.9400  0.4730  0.9871
 7810TIP3   OH223386   4.932   6.624   1.726 -0.3308 -0.0347  0.2984
 7810TIP3    H123387   4.941   6.579   1.642 -1.2769 -1.7334  1.0587
 7810TIP3    H223388   4.838   6.640   1.735 -0.2917 -0.2532  1.2109
 7811TIP3   OH223389   8.177   3.888   2.271 -0.2353  0.0417 -0.2340
 7811TIP3    H123390   8.157   3.927   2.186 -2.4503  2.0946  1.0986
 7811TIP3    H223391   8.093   3.856   2.304  0.7067 -1.4659  0.8710
 7812TIP3   OH223392   7.147   1.966   6.072  0.8008  0.2757  0.1545
 7812TIP3    H123393   7.194   1.949   6.154  1.2952  0.0190 -0.1758
 7812TIP3    H223394   7.086   1.893   6.064  0.5650  0.4385  0.4210
 7813TIP3   OH223395   3.972   7.741   6.734  0.2153 -0.9324 -0.2167
 7813TIP3    H123396   4.043   7.721   6.672 -1.9682  0.3194 -3.4283
 7813TIP3    H223397   4.016   7.763   6.816  3.4367 -1.3559 -1.6867
 7814TIP3   OH223398   2.063   4.351   3.510 -0.2816  0.2094 -0.1696
 7814TIP3    H123399   2.093   4.287   3.446  0.7268 -0.8373  1.2729
 7814TIP3    H223400   2.135   4.414   3.517 -0.8256  0.9250 -0.7966
 7815TIP3   OH223401   1.478   6.528   6.053  0.1642 -0.1129 -0.3140
 7815TIP3    H123402   1.457   6.465   6.122  0.1750 -0.6951 -0.8314
 7815TIP3    H223403   1.425   6.500   5.978 -1.4676  1.7581  0.0750
 7816TIP3   OH223404   0.667   2.069   0.285  0.1908 -0.3982 -0.8725
 7816TIP3    H123405   0.679   1.997   0.347 -1.1747  0.2279  0.1723
 7816TIP3    H223406   0.631   2.027   0.207  0.6493 -1.0228 -0.7552
 7817TIP3   OH223407   1.841   1.423   5.800 -0.1501 -0.7036 -0.3296
 7817TIP3    H123408   1.928   1.426   5.841 -0.0059  0.9921 -0.6681
 7817TIP3    H223409   1.784   1.389   5.869  0.4368  0.1502  0.6164
 7818TIP3   OH223410   4.902   5.922   1.277  0.2018 -0.1397  0.3205
 7818TIP3    H123411   4.992   5.923   1.244  0.6185  0.0441  1.4165
 7818TIP3    H223412   4.864   5.842   1.242  0.8266 -0.2773 -0.0589
 7819TIP3   OH223413   0.088   7.459   3.111  0.0242  0.0074 -0.7057
 7819TIP3    H123414   0.105   7.381   3.163  0.8557  0.8376  0.3058
 7819TIP3    H223415   0.041   7.427   3.034  1.3894 -1.6528 -0.8958
 7820TIP3   OH223416   2.498   2.072   0.281  0.4401 -0.0707  0.2328
 7820TIP3    H123417   2.550   2.043   0.207  0.2094 -0.1952  0.1204
 7820TIP3    H223418   2.413   2.095   0.244  0.2164 -0.4521  0.5060
 7821TIP3   OH223419   0.620   7.765   5.645 -0.0566  0.2192  0.0556
 7821TIP3    H123420   0.664   7.686   5.614  1.5418  1.1208 -0.0696
 7821TIP3    H223421   0.590   7.743   5.733 -0.7143 -0.9106 -0.4371
 7822TIP3   OH223422   0.843   3.862   0.834  0.0038 -0.4866  0.0781
 7822TIP3    H123423   0.816   3.770   0.838  0.8574 -0.7452  0.0407
 7822TIP3    H223424   0.939   3.859   0.830 -0.0051  0.3409 -2.1005
 7823TIP3   OH223425   2.602   5.393   2.917  0.5239 -0.0495 -0.1693
 7823TIP3    H123426   2.518   5.436   2.900  1.2316  1.5059  0.0724
 7823TIP3    H223427   2.579   5.305   2.945 -1.0564  0.5220  0.4229
 7824TIP3   OH223428   4.264   3.393   4.788 -0.7895 -0.7554 -0.2076
 7824TIP3    H123429   4.279   3.305   4.822 -2.2446 -0.7411  0.5431
 7824TIP3    H223430   4.268   3.450   4.865 -2.2766 -0.4900 -0.3083
 7825TIP3   OH223431   5.058   4.859   3.189 -0.3901  0.2532  0.3900
 7825TIP3    H123432   4.993   4.929   3.201 -0.8573  0.0341 -0.8033
 7825TIP3    H223433   5.135   4.890   3.238 -0.4939  1.7350 -0.3424
 7826TIP3   OH223434   6.954   7.044   4.375  0.9782  0.1986  0.8117
 7826TIP3    H123435   7.048   7.034   4.358  1.2577 -0.1304  2.4451
 7826TIP3    H223436   6.920   7.081   4.294  2.4853  0.1842  0.1244
 7827TIP3   OH223437   8.103   4.396   1.077 -0.1402 -0.4715  0.5764
 7827TIP3    H123438   8.130   4.305   1.093 -2.7225 -1.2498  1.0039
 7827TIP3    H223439   8.130   4.443   1.155  1.2922 -0.8045  0.3218
 7828TIP3   OH223440   3.165   4.830   5.137 -0.2336 -0.0502 -0.2195
 7828TIP3    H123441   3.144   4.909   5.186 -0.6043 -0.0599 -0.3590
 7828TIP3    H223442   3.217   4.777   5.198  1.1630  0.8656 -0.5709
 7829TIP3   OH223443   6.752   2.404   1.568  0.1029  0.2175 -0.4072
 7829TIP3    H123444   6.733   2.378   1.478  0.4287 -1.0976 -0.1235
 7829TIP3    H223445   6.829   2.353   1.592  0.5056  1.1562  0.3611
 7830TIP3   OH223446   5.436   2.828   0.650 -0.6077 -0.3345  0.4805
 7830TIP3    H123447   5.403   2.907   0.693 -0.3076  0.1655 -0.2040
 7830TIP3    H223448   5.422   2.842   0.557 -1.3237 -1.4514  0.3896
 7831TIP3   OH223449   0.426   4.744   3.351 -0.4455 -0.1727 -0.6420
 7831TIP3    H123450   0.465   4.659   3.331  0.1034 -0.0731 -0.0321
 7831TIP3    H223451   0.333   4.733   3.331 -0.9906 -1.8807  2.2144
 7832TIP3   OH223452   7.415   6.683   6.064 -0.1384  0.5331 -0.2134
 7832TIP3    H123453   7.503   6.662   6.095 -0.1444  1.0316  0.1533
 7832TIP3    H223454   7.416   6.660   5.972 -0.0931 -0.9018  0.1283
 7833TIP3   OH223455   7.042   3.534   1.720  0.0275 -0.0154 -0.1477
 7833TIP3    H123456   7.117   3.513   1.665  1.0758 -0.0021  1.2295
 7833TIP3    H223457   7.033   3.459   1.779  0.3905  0.9390  1.1747
 7834TIP3   OH223458   7.644   3.275   5.442 -0.4231 -0.1297 -0.1971
 7834TIP3    H123459   7.610   3.212   5.506 -0.8348  0.3588  0.0699
 7834TIP3    H223460   7.687   3.342   5.494 -0.9344  0.3772 -0.4162
 7835TIP3   OH223461   4.522   4.665   4.047 -0.2582  0.6515 -0.3400
 7835TIP3    H123462   4.463   4.622   4.109  0.1996 -0.5202 -0.6815
 7835TIP3    H223463   4.503   4.623   3.963 -0.2440  1.5920 -0.8287
 7836TIP3   OH223464   6.213   6.107   2.472 -0.7116 -0.1008 -0.1612
 7836TIP3    H123465   6.122   6.077   2.465 -0.6334 -0.1802 -0.9668
 7836TIP3    H223466   6.213   6.167   2.546 -1.1424 -1.1183  0.6783
 7837TIP3   OH223467   0.282   1.535   3.808 -0.2161 -0.1086  1.0045
 7837TIP3    H123468   0.218   1.599   3.779  0.1295  0.4565  1.4469
 7837TIP3    H223469   0.231   1.466   3.851 -0.5290  0.3416  1.3614
 7838TIP3   OH223470   1.326   4.879   0.013  0.0652 -0.0347 -0.0752
 7838TIP3    H123471   1.318   4.975   0.017 -1.1153 -0.0881 -0.7446
 7838TIP3    H223472   1.240   4.846   0.036 -0.1113 -0.8734 -1.7777
 7839TIP3   OH223473   2.324   5.641   0.020 -0.1496  0.2530  0.1867
 7839TIP3    H123474   2.420   5.638   0.017 -0.1625  0.6070 -1.6083
 7839TIP3    H223475   2.305   5.717   0.076  0.5742 -0.4950  1.5081
 7840TIP3   OH223476   3.185   3.337   0.249 -0.3746  0.7057 -0.0455
 7840TIP3    H123477   3.217   3.255   0.288  0.3790  0.6846 -0.6920
 7840TIP3    H223478   3.104   3.356   0.297  0.2677  0.4204  1.1975
 7841TIP3   OH223479   3.023   1.179   0.360 -0.5644 -0.2850  0.7786
 7841TIP3    H123480   2.955   1.219   0.413 -0.6293  1.4769 -0.5244
 7841TIP3    H223481   2.976   1.120   0.301 -0.7458 -0.5119  1.1493
 7842TIP3   OH223482   0.147   3.360   1.948 -0.5095 -0.3522  0.5455
 7842TIP3    H123483   0.142   3.271   1.911 -1.3379  0.1781 -0.6893
 7842TIP3    H223484   0.065   3.370   1.996 -0.8959  0.1061 -0.1953
 7843TIP3   OH223485   2.285   2.164   2.295  0.1278 -0.0597 -0.7973
 7843TIP3    H123486   2.369   2.188   2.333 -0.2086 -0.2654  0.1129
 7843TIP3    H223487   2.281   2.211   2.212  0.9334  0.3197 -0.6253
 7844TIP3   OH223488   6.634   2.266   3.203 -0.1663  0.1094  0.0255
 7844TIP3    H123489   6.553   2.287   3.249  0.2173  1.8885 -0.0464
 7844TIP3    H223490   6.610   2.266   3.110 -0.0735  0.7907 -0.0056
 7845TIP3   OH223491   0.740   1.483   4.497 -0.7250 -0.0943  0.6414
 7845TIP3    H123492   0.769   1.412   4.555 -0.7376 -0.6042  0.0325
 7845TIP3    H223493   0.771   1.458   4.410 -0.5203  0.7704  0.4535
 7846TIP3   OH223494   5.815   0.314   0.597  0.1336  0.8833  0.8381
 7846TIP3    H123495   5.786   0.325   0.688  1.4988  0.8347  1.3014
 7846TIP3    H223496   5.874   0.239   0.600 -1.0613 -0.1501 -0.4053
 7847TIP3   OH223497   0.603   0.279   0.444 -0.3688 -0.0967  0.1523
 7847TIP3    H123498   0.695   0.257   0.427  0.0751  2.0399 -0.5156
 7847TIP3    H223499   0.563   0.285   0.358 -0.8916 -0.0600  0.3954
 7848TIP3   OH223500   4.483   7.320   3.883 -0.3211 -0.2994  0.0463
 7848TIP3    H123501   4.538   7.257   3.930 -0.0370  0.5618  0.9027
 7848TIP3    H223502   4.416   7.345   3.947  0.3234  1.2107  0.1826
 7849TIP3   OH223503   4.335   0.466   2.140  0.5333  0.2936  0.1396
 7849TIP3    H123504   4.292   0.420   2.212 -0.2286  0.7699  0.0033
 7849TIP3    H223505   4.322   0.559   2.160  0.7138  0.4339 -0.3723
 7850TIP3   OH223506   8.162   3.592   1.822 -0.4668  0.1176  0.2308
 7850TIP3    H123507   8.086   3.647   1.803 -1.0697 -0.1540  1.7742
 7850TIP3    H223508   8.233   3.654   1.838 -0.7377  0.4016  0.3365
 7851TIP3   OH223509   6.059   5.919   5.479  0.5421 -0.2207  0.0608
 7851TIP3    H123510   6.087   5.907   5.570 -0.0495 -0.2213  0.2527
 7851TIP3    H223511   5.979   5.866   5.472 -0.6943  1.5364  0.1893
 7852TIP3   OH223512   4.095   0.388   3.822 -0.4339 -0.3524 -0.5373
 7852TIP3    H123513   4.184   0.374   3.857 -0.7581 -0.8348  0.1086
 7852TIP3    H223514   4.053   0.303   3.829 -0.6120 -0.3843 -1.8598
 7853TIP3   OH223515   4.917   5.712   6.804 -0.0209  0.1233 -0.3052
 7853TIP3    H123516   4.960   5.795   6.784 -1.2988  0.4379 -1.9166
 7853TIP3    H223517   4.978   5.645   6.772  0.2002  0.4901 -0.6585
 7854TIP3   OH223518   7.736   0.222   0.967  0.3636 -0.0083  0.0337
 7854TIP3    H123519   7.730   0.222   1.063 -0.0518 -2.4227  0.0734
 7854TIP3    H223520   7.687   0.300   0.940  1.1617  1.1771  1.7681
 7855TIP3   OH223521   7.496   0.501   1.103  0.5405  0.0875 -0.4533
 7855TIP3    H123522   7.492   0.597   1.105  0.2223  0.0625  0.1997
 7855TIP3    H223523   7.433   0.473   1.169  1.2974 -0.5615  0.0117
 7856TIP3   OH223524   2.261   3.197   5.791 -0.3873 -0.3808  0.5857
 7856TIP3    H123525   2.202   3.268   5.765  1.0758  1.0973  1.1798
 7856TIP3    H223526   2.227   3.168   5.875 -0.1881  0.5841  1.0149
 7857TIP3   OH223527   4.322   7.300   0.152 -0.2061 -0.0048  0.2676
 7857TIP3    H123528   4.414   7.325   0.160 -0.2586 -0.3483  2.3597
 7857TIP3    H223529   4.324   7.206   0.132 -0.0871 -0.2439  1.3454
 7858TIP3   OH223530   7.410   4.205   4.864  0.4102 -0.8755  0.3346
 7858TIP3    H123531   7.501   4.185   4.839  0.6805 -0.1664  0.7363
 7858TIP3    H223532   7.366   4.120   4.861  1.5736 -1.6236  2.1957
 7859TIP3   OH223533   7.120   6.920   2.100 -0.3498 -0.4003 -0.3721
 7859TIP3    H123534   7.085   6.995   2.052 -0.8628 -1.2609 -1.3703
 7859TIP3    H223535   7.083   6.843   2.057  0.7915 -1.2711  0.1219
 7860TIP3   OH223536   5.079   5.950   5.300 -0.1416  0.0916  0.0154
 7860TIP3    H123537   5.130   5.943   5.381 -0.9211 -0.6892  0.4609
 7860TIP3    H223538   5.047   5.861   5.285 -0.6383  0.3905 -0.7376
 7861TIP3   OH223539   4.565   2.290   2.051 -0.2612 -0.3647  0.1235
 7861TIP3    H123540   4.644   2.252   2.088  0.0929  0.1473 -0.1073
 7861TIP3    H223541   4.496   2.228   2.074  0.1864 -0.7585  0.4163
 7862TIP3   OH223542   5.472   5.181   0.493  0.8105 -0.1422  0.6251
 7862TIP3    H123543   5.556   5.218   0.519  1.0208  1.0527 -1.5071
 7862TIP3    H223544   5.407   5.234   0.539  1.2001 -0.9376  2.1235
 7863TIP3   OH223545   6.558   0.742   4.668 -0.1975 -0.1186 -0.1624
 7863TIP3    H123546   6.590   0.678   4.605 -1.2438 -3.0340  2.0441
 7863TIP3    H223547   6.463   0.732   4.667 -0.3852  1.2825  0.4219
 7864TIP3   OH223548   0.832   5.668   2.336 -0.0216 -0.0006  0.1519
 7864TIP3    H123549   0.854   5.578   2.361 -0.1857 -0.1678 -0.2866
 7864TIP3    H223550   0.883   5.723   2.395 -0.3478 -0.3804  0.7981
 7865TIP3   OH223551   0.936   3.236   0.659  0.0578 -0.8170 -0.6817
 7865TIP3    H123552   0.981   3.172   0.605  0.7292 -1.5476  0.6869
 7865TIP3    H223553   0.844   3.229   0.634  0.1438 -2.2077 -0.6512
 7866TIP3   OH223554   1.976   1.303   3.738  0.0176  0.2456 -0.5478
 7866TIP3    H123555   2.006   1.212   3.741  0.5111  0.4149 -0.0694
 7866TIP3    H223556   1.981   1.327   3.645  0.5140 -0.0144 -0.5908
 7867TIP3   OH223557   0.075   1.834   4.550  0.2465  0.2398  0.2470
 7867TIP3    H123558   0.019   1.823   4.626 -0.7130  1.3515 -0.2742
 7867TIP3    H223559   0.161   1.805   4.580 -0.3703 -0.4979  1.3756
 7868TIP3   OH223560   3.645   1.917   1.692 -0.3214  0.4792 -0.6440
 7868TIP3    H123561   3.680   1.834   1.724 -1.1652 -0.1809 -1.3729
 7868TIP3    H223562   3.638   1.905   1.598 -0.8561  1.2288 -0.7086
 7869TIP3   OH223563   5.968   7.681   0.098 -0.6739  0.0402 -0.2416
 7869TIP3    H123564   6.009   7.596   0.081 -1.6542 -0.8411  1.5639
 7869TIP3    H223565   5.888   7.681   0.045 -0.5191 -0.0148 -0.4785
 7870TIP3   OH223566   2.068   1.237   2.686 -0.0398 -0.2342 -0.1465
 7870TIP3    H123567   2.138   1.297   2.662 -0.3351 -0.0092 -0.4641
 7870TIP3    H223568   2.090   1.207   2.774  0.8375 -0.7346 -0.5237
 7871TIP3   OH223569   7.027   0.882   1.358  0.4848  0.1098  0.2002
 7871TIP3    H123570   6.948   0.917   1.398  1.1710  0.4724  1.2839
 7871TIP3    H223571   7.097   0.941   1.387  1.2901 -0.7328  0.0183
 7872TIP3   OH223572   6.335   0.613   4.299  0.0856  0.3204  0.1940
 7872TIP3    H123573   6.371   0.700   4.282 -1.5117  1.1616  0.8327
 7872TIP3    H223574   6.411   0.559   4.320  1.1281  1.5311 -0.3286
 7873TIP3   OH223575   2.070   6.111   3.196  0.0598 -0.0748 -0.1555
 7873TIP3    H123576   2.126   6.083   3.125 -0.2298  0.8367 -0.7595
 7873TIP3    H223577   1.982   6.088   3.168  0.0995 -1.4039  0.7423
 7874TIP3   OH223578   6.828   0.945   6.346 -0.6847  0.6683  0.0807
 7874TIP3    H123579   6.893   0.882   6.374 -0.4467  1.1032  0.5201
 7874TIP3    H223580   6.786   0.904   6.270 -0.0224  0.3154 -0.1023
 7875TIP3   OH223581   1.391   6.984   1.615 -0.3456  0.4365  0.2222
 7875TIP3    H123582   1.323   7.049   1.631 -1.2251 -0.2800 -0.5262
 7875TIP3    H223583   1.470   7.036   1.596  0.0030  1.3087  3.4900
 7876TIP3   OH223584   1.889   3.100   1.076  0.1015  0.4515  0.0546
 7876TIP3    H123585   1.905   3.080   0.983 -0.1863  0.8036 -0.0731
 7876TIP3    H223586   1.828   3.174   1.074 -0.2710  0.1621  0.5242
 7877TIP3   OH223587   2.710   0.032   4.689  0.1739  0.3375 -0.5424
 7877TIP3    H123588   2.659   0.048   4.769  0.8553  0.5547 -0.1430
 7877TIP3    H223589   2.650   0.051   4.618 -0.0989  1.2433 -0.0798
 7878TIP3   OH223590   5.111   5.435   2.823 -0.4309  0.1142 -0.0229
 7878TIP3    H123591   5.165   5.388   2.887  1.2387  1.1104 -0.6466
 7878TIP3    H223592   5.152   5.415   2.738 -0.0050  2.2106 -0.3540
 7879TIP3   OH223593   2.549   0.783   4.921  0.0779  0.0446  0.0997
 7879TIP3    H123594   2.581   0.734   4.846  0.8336  0.3341  0.2331
 7879TIP3    H223595   2.607   0.858   4.929  0.5303 -0.4042  1.4574
 7880TIP3   OH223596   3.156   0.293   3.501 -0.5038  0.3535  0.3727
 7880TIP3    H123597   3.201   0.294   3.585 -0.4313  1.2516  0.3288
 7880TIP3    H223598   3.063   0.298   3.524 -0.5375 -0.3819  0.4240
 7881TIP3   OH223599   6.057   2.271   2.062  0.1123 -0.9185  0.0109
 7881TIP3    H123600   6.093   2.337   2.003  1.3037 -2.0076 -0.5099
 7881TIP3    H223601   5.987   2.230   2.013  0.0250 -0.7275 -0.0275
 7882TIP3   OH223602   4.954   0.104   0.517 -0.7411 -0.1567 -0.0222
 7882TIP3    H123603   4.900   0.026   0.529  0.6062 -0.9512  1.3522
 7882TIP3    H223604   5.001   0.089   0.436  0.8254 -1.6725  1.0974
 7883TIP3   OH223605   4.936   3.246   5.671 -0.1236 -0.4843  0.4211
 7883TIP3    H123606   4.916   3.334   5.706  1.7372 -0.7228  2.3370
 7883TIP3    H223607   4.956   3.261   5.579 -0.2802  1.0507  0.5996
 7884TIP3   OH223608   6.549   3.339   1.614  0.4738  0.0974 -0.1496
 7884TIP3    H123609   6.570   3.416   1.667 -0.7091 -1.1950  2.3711
 7884TIP3    H223610   6.618   3.276   1.634  0.8565  0.1036 -1.3750
 7885TIP3   OH223611   6.393   5.257   3.922 -0.0341  0.3750 -0.2672
 7885TIP3    H123612   6.459   5.236   3.987  2.1202 -0.4263 -2.5862
 7885TIP3    H223613   6.387   5.353   3.924  2.1676  0.5651 -0.8491
 7886TIP3   OH223614   5.049   1.134   3.458  0.1748 -0.4179 -0.3462
 7886TIP3    H123615   5.107   1.117   3.384  2.3376  1.3663  0.8391
 7886TIP3    H223616   5.019   1.224   3.446  2.8019  0.9951  2.1939
 7887TIP3   OH223617   4.412   3.842   2.017  0.0136  0.0034 -0.0332
 7887TIP3    H123618   4.368   3.902   2.077 -1.7463 -0.4232 -0.8416
 7887TIP3    H223619   4.505   3.850   2.039 -0.2480  2.3664  0.4623
 7888TIP3   OH223620   0.324   3.401   6.595 -0.4680 -0.4016  0.4669
 7888TIP3    H123621   0.411   3.363   6.580 -0.5145 -0.8669  1.3030
 7888TIP3    H223622   0.289   3.416   6.507 -0.5077 -2.4599  0.0811
 7889TIP3   OH223623   0.758   6.434   4.978  0.6113 -0.0578 -1.3327
 7889TIP3    H123624   0.719   6.349   4.998  1.3345 -0.1211 -0.0759
 7889TIP3    H223625   0.839   6.413   4.932  0.7238 -0.0561 -1.1389
 7890TIP3   OH223626   8.199   1.772   0.075  0.1086  0.7796  0.2849
 7890TIP3    H123627   8.134   1.735   0.016  0.3746  0.9890 -0.1448
 7890TIP3    H223628   8.222   1.701   0.135  0.7544  0.1809 -0.6524
 7891TIP3   OH223629   0.645   5.176   3.659  0.2946  0.1103  0.1658
 7891TIP3    H123630   0.716   5.116   3.681  1.8066  1.0572 -1.7639
 7891TIP3    H223631   0.597   5.131   3.589  0.8933  0.7577 -0.6697
 7892TIP3   OH223632   1.223   5.287   5.195  0.2919 -0.2001  0.0006
 7892TIP3    H123633   1.310   5.323   5.209 -0.8429  2.0515  2.1140
 7892TIP3    H223634   1.196   5.254   5.281 -1.5625  0.8132 -0.1278
 7893TIP3   OH223635   6.837   2.003   1.978  0.7818 -0.3483  0.1977
 7893TIP3    H123636   6.844   1.961   1.892  0.5094  0.4497 -0.2211
 7893TIP3    H223637   6.765   1.957   2.020 -0.8383  0.9610 -1.0183
 7894TIP3   OH223638   7.576   1.844   4.166 -0.1432 -0.6528 -0.0828
 7894TIP3    H123639   7.517   1.803   4.229 -0.3073  0.3164  0.4101
 7894TIP3    H223640   7.517   1.894   4.108  0.2509  2.2324  1.7956
 7895TIP3   OH223641   5.389   5.653   4.717 -0.0993  0.1063 -0.1912
 7895TIP3    H123642   5.369   5.747   4.721 -0.3829  0.0097  1.8335
 7895TIP3    H223643   5.393   5.634   4.624 -0.5942  2.0158 -0.6647
 7896TIP3   OH223644   5.431   1.715   5.336  0.2229 -0.1638 -0.2031
 7896TIP3    H123645   5.523   1.687   5.343 -0.3916 -2.8966 -1.7437
 7896TIP3    H223646   5.392   1.654   5.274 -2.4831  1.4630 -0.2568
 7897TIP3   OH223647   7.870   0.365   3.522  0.2567 -0.1529  0.1544
 7897TIP3    H123648   7.901   0.339   3.609 -0.0113 -1.0462 -0.0100
 7897TIP3    H223649   7.948   0.361   3.467  0.2063 -0.6833  0.1174
 7898TIP3   OH223650   2.841   0.755   5.113 -0.0284  0.1694 -1.0444
 7898TIP3    H123651   2.767   0.701   5.087 -0.3748 -0.3702  0.8951
 7898TIP3    H223652   2.905   0.743   5.043 -0.8747 -1.1755 -1.6280
 7899TIP3   OH223653   0.630   1.781   6.685 -0.4444  0.0209  0.0117
 7899TIP3    H123654   0.576   1.804   6.609 -0.1179  3.9067  0.7672
 7899TIP3    H223655   0.590   1.828   6.758  1.0046 -1.1858  1.6595
 7900TIP3   OH223656   2.547   0.587   2.550  0.0470  0.0184 -0.4599
 7900TIP3    H123657   2.491   0.661   2.574 -2.1467 -1.7804  0.2711
 7900TIP3    H223658   2.598   0.570   2.629 -0.0897  0.1697 -0.3371
 7901TIP3   OH223659   1.727   3.780   2.139  0.0438 -0.0691 -0.4291
 7901TIP3    H123660   1.729   3.746   2.229 -1.9436 -1.0833 -0.7192
 7901TIP3    H223661   1.804   3.741   2.097  0.8910  0.2679  0.7651
 7902TIP3   OH223662   3.480   3.207   2.950 -0.4297  0.0603 -0.0901
 7902TIP3    H123663   3.495   3.279   3.012 -0.8193  0.8027 -0.8321
 7902TIP3    H223664   3.567   3.171   2.934  0.0920  1.7159 -1.2678
 7903TIP3   OH223665   3.131   2.271   4.417  0.3625  0.0539 -0.1191
 7903TIP3    H123666   3.044   2.244   4.389  0.2288 -1.4432  1.5657
 7903TIP3    H223667   3.188   2.246   4.345 -0.4564  0.0258 -0.7682
 7904TIP3   OH223668   3.656   4.030   0.522 -0.0394  0.1781  0.0467
 7904TIP3    H123669   3.665   4.075   0.438  0.6770  0.7482  0.4237
 7904TIP3    H223670   3.561   4.025   0.536 -0.1579  0.2672 -0.6905
 7905TIP3   OH223671   4.024   3.606   6.659  0.0497  0.0370 -0.1756
 7905TIP3    H123672   4.038   3.589   6.566  0.8296  0.6999 -0.1907
 7905TIP3    H223673   3.941   3.655   6.662  0.1436  0.2221 -0.5460
 7906TIP3   OH223674   1.513   3.042   4.984  0.3037 -0.7460  0.4025
 7906TIP3    H123675   1.602   3.078   4.982 -0.2922  0.8337 -1.0569
 7906TIP3    H223676   1.486   3.049   5.075  0.8213  1.1307  0.4633
 7907TIP3   OH223677   8.027   1.613   0.982 -0.1765  0.0417  0.1491
 7907TIP3    H123678   7.984   1.614   0.896 -0.9504  0.1371  0.5283
 7907TIP3    H223679   7.956   1.597   1.044  0.5712 -1.4309  0.6722
 7908TIP3   OH223680   7.266   1.393   0.532 -0.4118 -0.4841 -0.0254
 7908TIP3    H123681   7.277   1.338   0.454 -1.9938  0.7088 -1.1642
 7908TIP3    H223682   7.175   1.379   0.558 -0.4649  0.6215  0.4328
 7909TIP3   OH223683   6.259   3.791   6.027 -0.3767 -0.1787  0.5701
 7909TIP3    H123684   6.342   3.748   6.049 -0.2301  0.3979  1.1867
 7909TIP3    H223685   6.284   3.883   6.013 -0.6582 -0.2960 -0.8551
 7910TIP3   OH223686   7.941   3.139   0.487 -0.5856 -0.7005 -0.2492
 7910TIP3    H123687   7.980   3.061   0.449 -0.7956  0.0781 -2.1940
 7910TIP3    H223688   7.850   3.138   0.457 -0.8277 -0.1464  0.4305
 7911TIP3   OH223689   3.793   5.279   1.294 -0.2090 -0.3477  0.0796
 7911TIP3    H123690   3.888   5.280   1.283 -0.3617  1.6653 -1.6150
 7911TIP3    H223691   3.761   5.341   1.229 -2.6960 -0.8693  0.7209
 7912TIP3   OH223692   2.249   3.713   0.970 -0.6012  0.3811 -0.6863
 7912TIP3    H123693   2.314   3.644   0.977 -1.2697 -0.0937  1.7519
 7912TIP3    H223694   2.168   3.668   0.948 -0.5596  0.7181 -1.5801
 7913TIP3   OH223695   5.866   4.698   4.298  1.0827  0.4192  0.0695
 7913TIP3    H123696   5.876   4.603   4.287  0.7345  0.4442 -0.4686
 7913TIP3    H223697   5.956   4.731   4.300  1.1988  0.1203 -0.0924
 7914TIP3   OH223698   1.018   7.125   6.183 -0.3068  0.4746 -0.0292
 7914TIP3    H123699   1.107   7.141   6.152 -0.7473 -0.7708 -2.1151
 7914TIP3    H223700   1.017   7.032   6.207 -0.7789  0.7313  1.0095
 7915TIP3   OH223701   7.927   5.286   5.604 -0.0479 -0.1426  0.1081
 7915TIP3    H123702   7.857   5.246   5.657  0.5452 -2.0278 -0.4521
 7915TIP3    H223703   7.891   5.292   5.516  0.1958 -0.3392 -0.0070
 7916TIP3   OH223704   1.909   7.841   1.589  0.4419 -0.3592  0.0191
 7916TIP3    H123705   1.869   7.909   1.536 -0.5103 -0.9613 -0.0605
 7916TIP3    H223706   1.899   7.761   1.537 -1.2541 -1.1193  1.3899
 7917TIP3   OH223707   5.058   4.528   5.197  0.4584  0.2225 -0.0229
 7917TIP3    H123708   4.981   4.505   5.144 -0.4331 -0.3172  1.4534
 7917TIP3    H223709   5.105   4.446   5.209 -0.8624 -0.2840  2.3185
 7918TIP3   OH223710   1.191   1.400   0.006  0.5799 -0.8162 -0.4321
 7918TIP3    H123711   1.169   1.311   0.033 -2.2581  0.3289  1.4401
 7918TIP3    H223712   1.263   1.426   0.064  1.0434 -1.6860 -0.6106
 7919TIP3   OH223713   3.469   1.969   1.891  0.4359 -0.0407 -0.0354
 7919TIP3    H123714   3.521   1.922   1.956  1.3058  2.0119  0.8276
 7919TIP3    H223715   3.521   1.964   1.811  0.1534 -1.1582 -0.1646
 7920TIP3   OH223716   3.674   5.420   3.110  0.1689  0.3625 -0.2101
 7920TIP3    H123717   3.753   5.472   3.121  1.9394 -2.0478 -0.6267
 7920TIP3    H223718   3.683   5.348   3.172 -2.7424  1.0380  1.1784
 7921TIP3   OH223719   6.330   1.826   2.676  0.2016  0.0635  0.2741
 7921TIP3    H123720   6.268   1.756   2.654  1.1493 -0.6948 -0.0801
 7921TIP3    H223721   6.350   1.811   2.768  0.3654 -0.0989  0.2120
 7922TIP3   OH223722   1.356   4.575   6.391  0.3638 -0.6983  0.5064
 7922TIP3    H123723   1.342   4.668   6.406 -2.0445 -0.9976  0.4817
 7922TIP3    H223724   1.408   4.571   6.311  1.2108  0.6188  0.9694
 7923TIP3   OH223725   3.671   0.766   1.071 -0.2143  0.4533  0.1119
 7923TIP3    H123726   3.740   0.819   1.032 -0.1568  0.7377  0.5985
 7923TIP3    H223727   3.665   0.796   1.161 -0.9435  0.3977  0.0908
 7924TIP3   OH223728   0.856   7.092   4.832  0.2578  0.4071 -0.5130
 7924TIP3    H123729   0.875   7.043   4.752  0.7115  1.7375 -1.2361
 7924TIP3    H223730   0.796   7.161   4.804  0.2286  0.7424  0.3508
 7925TIP3   OH223731   4.761   2.699   2.628 -0.0608  0.4060  0.2136
 7925TIP3    H123732   4.776   2.619   2.679  0.0404 -1.0368 -1.9591
 7925TIP3    H223733   4.675   2.686   2.587  0.6374  0.7137 -1.3938
 7926TIP3   OH223734   0.637   2.084   4.251 -0.5848 -0.2671 -0.2603
 7926TIP3    H123735   0.561   2.063   4.305 -1.3315  1.2258 -0.6527
 7926TIP3    H223736   0.626   2.177   4.231  1.2814 -0.0640 -0.4608
 7927TIP3   OH223737   7.114   0.037   6.193 -0.0453  0.3949 -0.3228
 7927TIP3    H123738   7.127   0.047   6.287 -1.3297 -2.0376  0.1947
 7927TIP3    H223739   7.021   0.053   6.179  0.4614  2.6761 -1.5542
 7928TIP3   OH223740   6.081   2.631   4.463 -0.4252  0.1743  0.0511
 7928TIP3    H123741   6.150   2.689   4.430 -0.3976  0.8646  1.2673
 7928TIP3    H223742   6.001   2.663   4.422 -0.3294  0.7389  0.2959
 7929TIP3   OH223743   2.281   4.096   4.159  0.5053  0.1842 -0.9690
 7929TIP3    H123744   2.364   4.119   4.117  1.6329  1.3743  1.6850
 7929TIP3    H223745   2.242   4.180   4.183 -0.6288 -0.4182 -0.6011
 7930TIP3   OH223746   4.709   5.156   2.889 -0.1651  0.5726 -0.2314
 7930TIP3    H123747   4.675   5.237   2.925 -0.3222  1.2739 -1.8590
 7930TIP3    H223748   4.636   5.120   2.838 -0.4417 -1.1514  1.2536
 7931TIP3   OH223749   0.557   6.348   2.217  0.3406 -0.0301 -0.0990
 7931TIP3    H123750   0.542   6.388   2.132 -0.5741  0.9366  0.4803
 7931TIP3    H223751   0.482   6.377   2.270  1.1626 -0.1626  1.1761
 7932TIP3   OH223752   0.893   2.561  -0.037 -0.1346 -0.3172 -0.9347
 7932TIP3    H123753   0.840   2.590   0.037 -1.4454  0.5437 -2.1624
 7932TIP3    H223754   0.981   2.550  -0.000 -1.2181 -2.3866  1.3103
 7933TIP3   OH223755   5.408   3.439  -0.004  0.8870  0.3673 -0.0779
 7933TIP3    H123756   5.370   3.509   0.048 -0.3582 -0.9187  0.8266
 7933TIP3    H223757   5.502   3.444   0.014  0.6919  1.1314  0.7988
 7934TIP3   OH223758   3.388   0.977   6.228 -0.7483 -0.6521  0.3878
 7934TIP3    H123759   3.413   0.948   6.316  1.1008  0.7665  0.3942
 7934TIP3    H223760   3.440   1.057   6.213 -1.5558 -0.4488 -1.7113
 7935TIP3   OH223761   2.054   5.401   4.291 -0.1236 -0.0485  0.2659
 7935TIP3    H123762   1.964   5.431   4.303 -0.5706 -0.8930 -0.9013
 7935TIP3    H223763   2.107   5.476   4.319 -1.0792 -0.4279  3.6382
 7936TIP3   OH223764   4.713   1.656   0.077 -0.1933  0.2951 -0.3261
 7936TIP3    H123765   4.675   1.627   0.161  1.6582 -2.4066 -0.2849
 7936TIP3    H223766   4.700   1.751   0.076 -0.4094  0.4104  2.9501
 7937TIP3   OH223767   0.141   2.839   6.171 -0.4081  0.2657  0.0162
 7937TIP3    H123768   0.169   2.782   6.099 -1.0489  0.3530 -0.3032
 7937TIP3    H223769   0.059   2.800   6.201  0.2433 -0.2427  1.2343
 7938TIP3   OH223770   3.795   0.446   0.531 -0.3426  0.2061  0.4611
 7938TIP3    H123771   3.718   0.495   0.500 -0.8452 -0.4170  0.7076
 7938TIP3    H223772   3.782   0.437   0.625  0.2583  0.4724  0.5778
 7939TIP3   OH223773   4.921   6.169   5.105 -0.1363 -0.6043 -0.8299
 7939TIP3    H123774   4.978   6.111   5.155 -0.1175  0.0315 -0.0877
 7939TIP3    H223775   4.976   6.245   5.086  0.0835 -1.1376 -2.4702
 7940TIP3   OH223776   2.437   4.330   6.065  0.4192  0.0718 -0.5803
 7940TIP3    H123777   2.448   4.266   6.135 -0.0646  0.8040  0.1762
 7940TIP3    H223778   2.448   4.279   5.985 -0.5340 -1.0786 -0.0120
 7941TIP3   OH223779   2.714   2.241   3.440 -0.0382  0.2123 -0.3916
 7941TIP3    H123780   2.777   2.294   3.490 -0.4837  1.3142 -0.9626
 7941TIP3    H223781   2.676   2.303   3.377  0.9426 -1.2430 -2.5372
 7942TIP3   OH223782   6.951   5.013   4.246 -0.1402  0.5007  0.1423
 7942TIP3    H123783   6.984   5.034   4.333  2.1105  1.4681 -0.8455
 7942TIP3    H223784   6.857   5.031   4.250  0.2020  2.2379  1.8723
 7943TIP3   OH223785   2.827   5.911   4.566  0.3001  0.0251 -0.3230
 7943TIP3    H123786   2.735   5.886   4.571  0.3034  0.1944  0.9436
 7943TIP3    H223787   2.827   5.993   4.516  0.0005 -0.9540 -2.0148
 7944TIP3   OH223788   2.643   2.828   3.458  0.2103  0.2538  0.0527
 7944TIP3    H123789   2.552   2.855   3.448 -0.2276 -0.8844  0.7135
 7944TIP3    H223790   2.685   2.853   3.376 -0.7729  0.5289 -0.3801
 7945TIP3   OH223791   5.174   4.262   0.654  0.5762  0.3260 -0.5931
 7945TIP3    H123792   5.251   4.206   0.658  0.4341  0.0933 -0.9682
 7945TIP3    H223793   5.205   4.344   0.617  0.9629  0.8233  0.8000
 7946TIP3   OH223794   0.074   5.168   2.304  0.6098 -0.0529  0.2615
 7946TIP3    H123795   0.125   5.243   2.334 -0.1694  0.0441  1.3977
 7946TIP3    H223796   0.026   5.200   2.228  0.2332  0.6274  0.7759
 7947TIP3   OH223797   1.527   3.711   4.165 -0.0597  0.3015  0.2398
 7947TIP3    H123798   1.575   3.793   4.169 -0.3544  0.4459  0.9566
 7947TIP3    H223799   1.578   3.656   4.104  0.7305  0.6276  0.5953
 7948TIP3   OH223800   4.618   3.496   6.720 -0.3660 -0.0599  0.5267
 7948TIP3    H123801   4.629   3.580   6.676  0.1837  0.7075  2.0277
 7948TIP3    H223802   4.539   3.458   6.681 -1.3368  1.7179  0.6512
 7949TIP3   OH223803   6.394   5.164   2.442 -0.4198  0.3106  0.1220
 7949TIP3    H123804   6.442   5.081   2.456 -0.3521  0.5386  1.3957
 7949TIP3    H223805   6.345   5.176   2.523  1.3126  2.6490  0.9329
 7950TIP3   OH223806   0.201   4.920   3.167 -0.0758  0.6121 -0.0468
 7950TIP3    H123807   0.273   4.976   3.198  0.7439  1.2598 -2.8446
 7950TIP3    H223808   0.141   4.981   3.125 -0.3904 -0.3519 -1.0115
 7951TIP3   OH223809   4.511   1.918   0.071 -0.5201 -0.2799  0.4936
 7951TIP3    H123810   4.495   1.897   0.163 -0.9765 -2.1388  0.0293
 7951TIP3    H223811   4.597   1.961   0.071 -1.1780  1.1220  1.9245
 7952TIP3   OH223812   2.283   4.380   5.071 -0.5301 -0.1340  0.4863
 7952TIP3    H123813   2.255   4.288   5.071 -0.1079 -0.2654  0.5717
 7952TIP3    H223814   2.287   4.404   4.979  0.8196 -0.6604  0.3857
 7953TIP3   OH223815   4.269   6.055   4.593 -0.2375  0.2399  0.3260
 7953TIP3    H123816   4.174   6.063   4.584 -0.0076  2.1358 -0.9025
 7953TIP3    H223817   4.282   6.035   4.686 -1.8999 -2.5157  0.0893
 7954TIP3   OH223818   7.509   6.490   3.618 -0.2275 -0.4171 -0.3422
 7954TIP3    H123819   7.455   6.453   3.548 -0.7192  0.3106 -0.3547
 7954TIP3    H223820   7.448   6.539   3.673  0.2528 -0.4714  0.2610
 7955TIP3   OH223821   2.019   4.153   3.123  0.0841 -0.0042  0.1564
 7955TIP3    H123822   2.090   4.146   3.188  1.2986 -0.6413 -1.1740
 7955TIP3    H223823   2.015   4.067   3.083 -1.5974 -0.0228  0.2918
 7956TIP3   OH223824   0.796   6.949   5.248  0.6997 -0.0440  0.0707
 7956TIP3    H123825   0.789   6.973   5.340  1.0607 -1.3326  0.4599
 7956TIP3    H223826   0.870   6.888   5.245 -0.3142 -1.2804 -0.7956
 7957TIP3   OH223827   2.456   3.657   5.957 -0.1521 -0.8048  0.7487
 7957TIP3    H123828   2.541   3.612   5.946  2.2265  3.3339  0.1340
 7957TIP3    H223829   2.452   3.677   6.051  0.7261  0.9022  0.4546
 7958TIP3   OH223830   1.443   5.446   5.266 -0.5974  0.2580  0.2373
 7958TIP3    H123831   1.492   5.449   5.348  1.1175  0.0207 -0.7358
 7958TIP3    H223832   1.509   5.433   5.199 -1.9826  0.2488 -1.1858
 7959TIP3   OH223833   4.088   0.121   2.608  0.1106  0.1735 -0.7279
 7959TIP3    H123834   4.069   0.088   2.696  1.2492  0.2398 -0.4452
 7959TIP3    H223835   4.161   0.068   2.578 -0.0300  0.4066 -1.4955
 7960TIP3   OH223836   1.078   1.025   3.332 -0.5006 -0.1049 -0.3094
 7960TIP3    H123837   1.173   1.013   3.333 -0.4102  0.3909  1.8420
 7960TIP3    H223838   1.062   1.095   3.269  0.4610 -0.7853 -1.3275
 7961TIP3   OH223839   0.170   6.535   4.708 -0.3059  0.0513 -1.0573
 7961TIP3    H123840   0.250   6.548   4.657 -0.0093  0.1705 -0.5669
 7961TIP3    H223841   0.100   6.533   4.642 -0.1684  2.1694 -1.3528
 7962TIP3   OH223842   5.669   3.020   4.258 -0.5466 -0.4740  0.0870
 7962TIP3    H123843   5.719   2.945   4.289  1.0321  0.2335 -0.6842
 7962TIP3    H223844   5.680   3.019   4.163 -2.5333 -0.6389 -0.1975
 7963TIP3   OH223845   3.379   2.616   3.725 -0.2684  0.5112  0.2391
 7963TIP3    H123846   3.412   2.705   3.738  0.5200  0.4069 -0.9656
 7963TIP3    H223847   3.299   2.627   3.673 -1.2075  0.6257  1.6427
 7964TIP3   OH223848   1.808   1.395   4.615 -0.1965 -0.9206 -0.2731
 7964TIP3    H123849   1.896   1.370   4.585 -0.1085 -2.2599  0.9698
 7964TIP3    H223850   1.819   1.415   4.708 -0.6258  2.2723 -0.7922
 7965TIP3   OH223851   6.022   0.685   6.644 -0.0924 -0.2023  0.3332
 7965TIP3    H123852   6.008   0.770   6.603  0.2314  0.4602  1.5496
 7965TIP3    H223853   6.024   0.623   6.570 -0.4908  0.8057 -0.5543
 7966TIP3   OH223854   0.393   7.630   6.592 -0.4345  0.1175 -0.5251
 7966TIP3    H123855   0.402   7.572   6.668  0.2645  1.6807  0.6552
 7966TIP3    H223856   0.459   7.600   6.530 -0.6244 -0.8274 -0.2822
 7967TIP3   OH223857   5.719   6.423   1.447  0.1617  0.7003 -0.3180
 7967TIP3    H123858   5.807   6.442   1.479 -0.0637  0.3648  0.5398
 7967TIP3    H223859   5.662   6.437   1.523 -0.3590 -0.4602 -0.4734
 7968TIP3   OH223860   1.691   6.283   4.349  0.6913  0.4066 -0.1702
 7968TIP3    H123861   1.731   6.254   4.431  0.9244  0.4981 -0.2518
 7968TIP3    H223862   1.755   6.261   4.281  0.7418  0.8406 -0.2656
 7969TIP3   OH223863   6.275   0.345   1.487 -0.5899 -0.1676  0.0928
 7969TIP3    H123864   6.316   0.292   1.555  1.0804  2.2269  1.0646
 7969TIP3    H223865   6.195   0.378   1.528 -0.6123 -0.3325  0.1837
 7970TIP3   OH223866   2.600   5.145   1.190  0.3488  0.1442 -0.6990
 7970TIP3    H123867   2.629   5.155   1.099  1.9576 -0.1223 -0.2450
 7970TIP3    H223868   2.657   5.203   1.240 -0.6879  0.4844  0.1312
 7971TIP3   OH223869   2.710   3.895   1.512  0.1517 -0.2409  0.2447
 7971TIP3    H123870   2.802   3.922   1.512  0.1884 -0.2519 -1.3737
 7971TIP3    H223871   2.711   3.805   1.482 -0.2975 -0.7930  1.7688
 7972TIP3   OH223872   5.637   4.996   1.118 -0.1722  0.2048 -0.6882
 7972TIP3    H123873   5.584   4.991   1.039  0.6220  0.1071 -1.2300
 7972TIP3    H223874   5.686   5.078   1.108 -0.6661  0.6033  0.0966
 7973TIP3   OH223875   1.096   4.429   6.464 -0.0231  0.0991 -0.4908
 7973TIP3    H123876   1.116   4.340   6.492 -0.1634 -0.1805 -1.2535
 7973TIP3    H223877   1.179   4.463   6.431  0.7618  1.2936  2.4105
 7974TIP3   OH223878   7.332   7.873   5.243  0.1573  0.1541  0.0972
 7974TIP3    H123879   7.362   7.811   5.178  1.7043 -0.4638  1.3364
 7974TIP3    H223880   7.305   7.820   5.318 -1.8621  0.8266 -0.0979
 7975TIP3   OH223881   0.472   7.627   2.559 -0.1583 -0.0932 -0.1024
 7975TIP3    H123882   0.518   7.640   2.476  0.6530 -1.1724  0.1548
 7975TIP3    H223883   0.541   7.619   2.624 -0.7840  2.5485  1.0342
 7976TIP3   OH223884   6.442   1.795   5.731 -0.2511  0.0504  0.2527
 7976TIP3    H123885   6.369   1.765   5.786 -1.3068  0.9976 -0.5797
 7976TIP3    H223886   6.408   1.872   5.686  0.5395 -0.7248 -1.8010
 7977TIP3   OH223887   2.991   2.977   4.505  0.1708  0.2485 -0.6726
 7977TIP3    H123888   3.030   2.931   4.579 -0.9110  1.1325  0.4984
 7977TIP3    H223889   3.064   3.021   4.462  0.7382  0.1680  0.1975
 7978TIP3   OH223890   4.951   6.842   5.346  0.1721  0.2095 -0.5808
 7978TIP3    H123891   4.971   6.801   5.430  0.7159  1.6974  0.0457
 7978TIP3    H223892   4.987   6.781   5.281 -1.6910 -1.7801  0.1329
 7979TIP3   OH223893   2.171   3.585   0.640 -0.5092  0.2276 -0.3247
 7979TIP3    H123894   2.156   3.604   0.733  2.3066  0.3130  0.2129
 7979TIP3    H223895   2.155   3.668   0.596  0.2373  0.7668  0.3952
 7980TIP3   OH223896   6.656   1.434   3.056 -0.2683  0.3351 -0.0567
 7980TIP3    H123897   6.703   1.477   2.985 -0.4605  1.1238  0.2825
 7980TIP3    H223898   6.572   1.479   3.061 -0.8560 -0.6901 -0.2881
 7981TIP3   OH223899   3.132   0.594   0.556 -0.0961  0.3721 -0.3618
 7981TIP3    H123900   3.168   0.660   0.496 -0.4885 -1.1409 -2.3546
 7981TIP3    H223901   3.163   0.621   0.642 -0.8174  3.5584 -0.9701
 7982TIP3   OH223902   0.050   5.775   6.387  0.2164 -0.0404  0.1565
 7982TIP3    H123903   0.101   5.705   6.345 -0.3861 -0.6272  0.3825
 7982TIP3    H223904   0.051   5.847   6.324 -0.2232 -0.7176 -0.6377
 7983TIP3   OH223905   1.682   7.673   5.474  0.3576 -0.0349  0.3923
 7983TIP3    H123906   1.728   7.620   5.539  0.3255 -0.5436  0.0091
 7983TIP3    H223907   1.600   7.697   5.516  0.5665  0.0854  0.7338
 7984TIP3   OH223908   1.288   2.513   2.071  0.2076  0.4577  0.0725
 7984TIP3    H123909   1.244   2.505   2.155 -2.2347  2.1945 -0.9539
 7984TIP3    H223910   1.306   2.606   2.061  0.8261  0.2351 -1.1561
 7985TIP3   OH223911   1.850   6.015   4.783 -0.0621 -0.5268 -0.2472
 7985TIP3    H123912   1.766   6.018   4.829  0.3105 -1.7346  0.5565
 7985TIP3    H223913   1.908   5.966   4.842  1.2433  0.3672 -0.7432
 7986TIP3   OH223914   3.717   6.098   4.418 -0.1437 -0.2209  0.2139
 7986TIP3    H123915   3.702   6.173   4.361 -0.1232  0.0884  0.6092
 7986TIP3    H223916   3.737   6.137   4.503 -0.5159 -0.6815  0.5122
 7987TIP3   OH223917   0.602   2.640   5.007  0.0800 -0.2273  0.2225
 7987TIP3    H123918   0.677   2.585   5.030  0.0290 -0.3395  0.1178
 7987TIP3    H223919   0.625   2.726   5.041  0.9727  0.1271 -1.1898
 7988TIP3   OH223920   8.163   4.509   4.264  0.1626 -0.0976 -0.3875
 7988TIP3    H123921   8.165   4.451   4.188 -1.1037 -0.5588 -0.1037
 7988TIP3    H223922   8.082   4.486   4.310  0.9500  0.0733  1.1819
 7989TIP3   OH223923   0.126   1.039   0.158 -0.4522  0.1783 -0.7855
 7989TIP3    H123924   0.097   0.979   0.226  1.4356 -1.1753 -1.0981
 7989TIP3    H223925   0.057   1.034   0.091 -1.3143 -0.0211  0.0877
 7990TIP3   OH223926   6.939   5.703   1.436 -0.3871  0.0659  0.7098
 7990TIP3    H123927   6.886   5.735   1.363 -0.9541 -0.8829  0.6733
 7990TIP3    H223928   6.932   5.607   1.430 -0.0921 -0.0361  1.7515
 7991TIP3   OH223929   0.077   2.303   1.983  0.5001  0.0944 -0.3822
 7991TIP3    H123930   0.155   2.332   1.935  0.4434 -1.1571 -1.2850
 7991TIP3    H223931   0.084   2.208   1.983  0.2033  0.0220  1.6532
 7992TIP3   OH223932   0.895   0.183   2.521  0.4102 -0.0907 -0.4819
 7992TIP3    H123933   0.965   0.221   2.468 -1.6449  2.2215 -1.7838
 7992TIP3    H223934   0.829   0.156   2.456 -1.0471  0.3431  0.7614
 7993TIP3   OH223935   6.067   0.085   3.574 -0.0112 -1.0763  0.1323
 7993TIP3    H123936   6.092   0.078   3.666 -1.0984  0.2227  0.5612
 7993TIP3    H223937   6.021   0.169   3.568 -0.5290 -1.4403 -1.4692
 7994TIP3   OH223938   4.706   3.323   3.750 -0.2206  0.0773 -0.2896
 7994TIP3    H123939   4.784   3.378   3.738  1.4856 -1.7855  1.3233
 7994TIP3    H223940   4.657   3.365   3.820  1.5925 -0.8253  1.6567
 7995TIP3   OH223941   6.087   1.938   5.105 -0.0859 -0.1359  0.0398
 7995TIP3    H123942   6.171   1.938   5.151 -1.0216  1.8426  1.9607
 7995TIP3    H223943   6.030   1.993   5.160 -1.9279  0.6340 -2.4714
 7996TIP3   OH223944   5.610   6.896   4.274  0.1228 -0.2091 -0.1055
 7996TIP3    H123945   5.703   6.916   4.273  0.2594 -0.8288 -0.3915
 7996TIP3    H223946   5.606   6.800   4.273 -0.5062 -0.2075  0.8373
 7997TIP3   OH223947   0.626   5.786   2.890  0.0132 -0.0215  0.5710
 7997TIP3    H123948   0.700   5.847   2.881  0.2740 -0.3234  0.6359
 7997TIP3    H223949   0.667   5.701   2.904 -0.3568  0.0379  2.1464
 7998TIP3   OH223950   2.198   3.868   3.472 -0.2487  0.1235  1.0146
 7998TIP3    H123951   2.115   3.836   3.436  0.0281 -0.2058  0.6702
 7998TIP3    H223952   2.208   3.821   3.555  0.2950 -0.9078  0.3768
 7999TIP3   OH223953   3.629   5.628   1.908 -0.6594  0.0221 -0.5476
 7999TIP3    H123954   3.667   5.621   1.996 -1.1162  0.0910 -0.3448
 7999TIP3    H223955   3.540   5.595   1.918 -0.8333  0.3801 -0.9043
 8000TIP3   OH223956   3.093   1.485   2.629  0.4062 -0.2017 -0.4516
 8000TIP3    H123957   3.182   1.449   2.631  0.0804 -1.0546  1.3618
 8000TIP3    H223958   3.050   1.445   2.705 -1.6647 -0.1271 -1.5271
 8001TIP3   OH223959   7.138   2.868   1.561  0.1512  0.2357 -0.0118
 8001TIP3    H123960   7.188   2.816   1.498 -0.0946 -1.0756  0.8347
 8001TIP3    H223961   7.184   2.856   1.644 -1.7362 -1.3382  0.8864
 8002TIP3   OH223962   6.754   4.595   0.026 -0.2235  0.4225 -0.2125
 8002TIP3    H123963   6.825   4.595   0.090  0.2498  1.6189 -0.6953
 8002TIP3    H223964   6.707   4.677   0.043 -1.7778 -0.5568  0.3882
 8003TIP3   OH223965   8.111   5.051   5.038  0.2087  0.2213  0.7555
 8003TIP3    H123966   8.179   5.013   5.093  0.9569  0.0468 -0.2440
 8003TIP3    H223967   8.144   5.138   5.015 -2.4883  2.6707  4.8797
 8004TIP3   OH223968   2.557   0.804   1.906  0.1946  0.7915 -0.2082
 8004TIP3    H123969   2.633   0.833   1.956  0.5467  0.1295 -0.3437
 8004TIP3    H223970   2.482   0.835   1.956  0.5499  1.6634 -0.2005
 8005TIP3   OH223971   2.474   4.064   3.960 -0.1561 -0.0279 -0.2380
 8005TIP3    H123972   2.500   4.150   3.928 -0.0413  0.1473  0.3218
 8005TIP3    H223973   2.485   4.006   3.885  2.0941 -0.0245  0.0446
 8006TIP3   OH223974   5.096   5.710   1.745  0.2121  0.2354  0.6823
 8006TIP3    H123975   5.089   5.800   1.779  2.1119  1.3401 -1.5471
 8006TIP3    H223976   5.024   5.703   1.683  0.1823  0.2887  0.7099
 8007TIP3   OH223977   2.439   7.491   5.955  0.1466 -0.0718 -0.8863
 8007TIP3    H123978   2.525   7.529   5.977 -0.5383  0.7213  0.5425
 8007TIP3    H223979   2.446   7.399   5.978 -0.2751  0.5521  2.1377
 8008TIP3   OH223980   5.101   6.994   4.297  0.0252  0.2245  0.2346
 8008TIP3    H123981   5.179   7.050   4.298  0.3699 -0.1871 -1.0441
 8008TIP3    H223982   5.048   7.025   4.370  1.7488 -0.0045  1.6535
 8009TIP3   OH223983   7.442   3.406   5.682 -0.2956  0.5488 -0.0159
 8009TIP3    H123984   7.454   3.379   5.591 -1.0466 -1.5955  0.4751
 8009TIP3    H223985   7.493   3.487   5.689 -1.2057  1.4530 -2.6308
 8010TIP3   OH223986   1.613   4.467   0.656 -0.5739  0.1975  0.6512
 8010TIP3    H123987   1.656   4.530   0.599 -0.2241 -0.5393  0.0937
 8010TIP3    H223988   1.650   4.484   0.743  2.9257 -2.1363 -0.2057
 8011TIP3   OH223989   6.359   2.691   0.771  0.4903  0.2201  0.0675
 8011TIP3    H123990   6.374   2.629   0.700  1.7712 -1.5438  1.7810
 8011TIP3    H223991   6.341   2.774   0.727  0.9571 -0.8600 -2.2965
 8012TIP3   OH223992   4.537   0.086   5.116  0.3418 -0.1384 -0.2681
 8012TIP3    H123993   4.500   0.074   5.204 -1.2816 -1.1480 -1.0438
 8012TIP3    H223994   4.564  -0.002   5.090 -1.3680 -0.3021 -1.6694
 8013TIP3   OH223995   0.601   6.891   2.647 -0.5220  0.0482 -0.4191
 8013TIP3    H123996   0.616   6.965   2.705  0.5880 -0.5862  0.1393
 8013TIP3    H223997   0.593   6.816   2.706 -2.9564 -0.1535 -0.8762
 8014TIP3   OH223998   4.945   7.340   6.615  0.0286  0.0004 -0.1460
 8014TIP3    H123999   4.997   7.290   6.678  0.4125 -1.9126 -1.8747
 8014TIP3    H224000   4.855   7.310   6.629 -0.0728  0.4850  0.2813
 8015TIP3   OH224001   7.967   0.508   6.162 -0.1889 -0.2153  0.6566
 8015TIP3    H124002   7.938   0.420   6.139  0.7630 -0.2297 -0.5855
 8015TIP3    H224003   7.988   0.549   6.078  1.2982  0.5002  1.3416
 8016TIP3   OH224004   3.609   3.949   3.369 -0.6640  0.0340 -0.1370
 8016TIP3    H124005   3.520   3.943   3.334 -0.3467 -1.8332 -0.7116
 8016TIP3    H224006   3.613   4.036   3.409 -2.6525  0.2535 -0.3214
 8017TIP3   OH224007   2.383   7.176   0.713 -0.3599 -0.4942  0.6469
 8017TIP3    H124008   2.319   7.221   0.769 -0.9687 -0.9859  0.3594
 8017TIP3    H224009   2.330   7.122   0.655  0.3439 -1.2761  0.7182
 8018TIP3   OH224010   0.000   2.451   4.758  0.4149  0.3777 -0.2504
 8018TIP3    H124011   0.064   2.514   4.792 -0.6631 -0.3263  3.5610
 8018TIP3    H224012  -0.030   2.404   4.835 -3.9261 -0.0819 -1.9551
 8019TIP3   OH224013   3.175   0.625   3.680 -0.2107 -0.5195 -0.1743
 8019TIP3    H124014   3.178   0.535   3.646  0.7918  0.1213 -1.8857
 8019TIP3    H224015   3.264   0.658   3.669 -1.0065  1.3327 -1.4322
 8020TIP3   OH224016   2.987   5.229   2.065  0.3552  0.0210  0.7242
 8020TIP3    H124017   2.932   5.158   2.031 -1.1481  1.1504  0.7237
 8020TIP3    H224018   3.006   5.283   1.989  1.3617 -0.2640  0.7578
 8021TIP3   OH224019   0.039   0.649   1.055  0.8984  0.9587  0.8901
 8021TIP3    H124020   0.008   0.737   1.036  0.4505  0.5180 -0.5869
 8021TIP3    H224021  -0.029   0.611   1.111  0.8561  1.3750  1.1262
 8022TIP3   OH224022   5.900   4.919   6.685 -0.4723 -0.7508  0.3877
 8022TIP3    H124023   5.925   4.917   6.593  0.2284  0.1026  0.5544
 8022TIP3    H224024   5.940   4.841   6.723 -0.5038 -0.9352  0.0465
 8023TIP3   OH224025   2.789   1.137   5.526  0.4515 -0.3702  0.7459
 8023TIP3    H124026   2.884   1.145   5.528  0.4672 -0.1074 -0.6440
 8023TIP3    H224027   2.766   1.134   5.434 -0.7468 -2.3832  1.0632
 8024TIP3   OH224028   1.125   6.397   3.573  0.4449  0.3667  0.3862
 8024TIP3    H124029   1.116   6.303   3.586 -1.3711  0.4458 -0.0595
 8024TIP3    H224030   1.171   6.406   3.489  0.3731 -0.1103  0.2974
 8025TIP3   OH224031   1.871   3.937   1.417 -0.6663 -0.4227 -0.1383
 8025TIP3    H124032   1.840   3.915   1.329  0.1402 -1.5197 -0.1678
 8025TIP3    H224033   1.921   4.018   1.404 -0.3204 -0.7231 -0.7496
 8026TIP3   OH224034   0.564   2.309   0.239 -0.0765 -0.4574  0.3944
 8026TIP3    H124035   0.607   2.343   0.160 -1.2117  0.3431  0.1068
 8026TIP3    H224036   0.611   2.228   0.258  0.7671 -0.2294 -0.6132
 8027TIP3   OH224037   1.335   0.839   4.777  0.0891  0.1131  0.2239
 8027TIP3    H124038   1.387   0.870   4.703 -1.6190 -0.8088 -1.4597
 8027TIP3    H224039   1.394   0.782   4.826  1.4902  1.3486  0.0491
 8028TIP3   OH224040   2.419   3.875   3.290 -0.2042  0.0493  0.1581
 8028TIP3    H124041   2.433   3.787   3.253  0.1055  0.0918  0.1712
 8028TIP3    H224042   2.367   3.860   3.369  2.2545 -0.4406  1.7971
 8029TIP3   OH224043   5.502   0.214   4.951  0.1507  0.4090  0.9938
 8029TIP3    H124044   5.513   0.119   4.955 -0.7632  0.2580  0.1843
 8029TIP3    H224045   5.493   0.234   4.858 -1.3712  1.0743  1.2495
 8030TIP3   OH224046   4.552   5.355   2.605 -0.1651 -0.0023 -0.6259
 8030TIP3    H124047   4.569   5.270   2.565 -1.0416 -1.5669  2.0802
 8030TIP3    H224048   4.636   5.401   2.602  0.8496 -1.7819 -0.3119
 8031TIP3   OH224049   2.459   4.879   6.292  0.1315 -0.2730 -0.0612
 8031TIP3    H124050   2.461   4.955   6.349 -1.7061 -0.7997  0.7753
 8031TIP3    H224051   2.369   4.848   6.296 -0.7147  0.7902 -4.7984
 8032TIP3   OH224052   3.101   6.674   2.323  0.0624  0.0734  0.5798
 8032TIP3    H124053   3.021   6.726   2.328  1.0890  1.6105  2.3261
 8032TIP3    H224054   3.071   6.584   2.310 -1.8596  0.7793 -0.2967
 8033TIP3   OH224055   5.638   4.581   5.977  0.0010  0.7654 -0.0120
 8033TIP3    H124056   5.642   4.540   5.890  0.2434 -0.8150  0.7183
 8033TIP3    H224057   5.728   4.576   6.010 -0.2062  0.8181  0.5677
 8034TIP3   OH224058   0.623   0.710   4.382 -0.0246 -0.9166  0.0633
 8034TIP3    H124059   0.533   0.689   4.358 -0.3135  1.4047 -1.2686
 8034TIP3    H224060   0.674   0.695   4.302  0.6256 -1.4716  0.5768
 8035TIP3   OH224061   1.322   6.862   1.055 -0.3334  0.3598  0.7826
 8035TIP3    H124062   1.285   6.926   0.994  0.4253  0.2853  0.2228
 8035TIP3    H224063   1.261   6.789   1.053  0.1624 -0.0473 -0.6489
 8036TIP3   OH224064   7.373   0.070   2.281 -0.1051 -0.3071  0.3331
 8036TIP3    H124065   7.354  -0.020   2.309 -1.7839 -0.1548 -0.2316
 8036TIP3    H224066   7.315   0.124   2.335  0.3543  0.3798  0.1459
 8037TIP3   OH224067   0.959   5.293   2.890  0.7057  0.3378  0.1987
 8037TIP3    H124068   0.947   5.288   2.796  0.1702  0.6821  0.2449
 8037TIP3    H224069   0.896   5.230   2.926 -0.9028  2.0068  0.4336
 8038TIP3   OH224070   2.828   1.953   4.722  0.2870 -0.1620  0.1978
 8038TIP3    H124071   2.750   1.979   4.673  0.4789 -2.0258 -1.2294
 8038TIP3    H224072   2.901   1.986   4.670  0.4890  0.8745  1.1050
 8039TIP3   OH224073   2.566   1.190   1.501  0.5573 -0.0953 -0.0354
 8039TIP3    H124074   2.584   1.201   1.594  0.1615 -0.1065  0.0463
 8039TIP3    H224075   2.475   1.160   1.498  0.5284  0.0273 -0.4305
 8040TIP3   OH224076   7.986   3.951   2.776  0.1703 -0.1992  0.7872
 8040TIP3    H124077   7.914   3.974   2.718  1.8105 -1.9772 -2.1790
 8040TIP3    H224078   8.057   4.010   2.752  2.4024 -3.8051 -2.6379
 8041TIP3   OH224079   4.741   2.815   4.976  0.3503  0.3332 -0.4882
 8041TIP3    H124080   4.672   2.749   4.978 -0.3775  1.0963  0.7969
 8041TIP3    H224081   4.807   2.782   5.037  1.3623 -0.6022 -2.0275
 8042TIP3   OH224082   4.852   4.634   2.100  0.4902 -0.1454  0.3946
 8042TIP3    H124083   4.861   4.561   2.162 -1.0174 -0.7468 -0.0565
 8042TIP3    H224084   4.902   4.705   2.140  0.3610 -0.8196  1.8222
 8043TIP3   OH224085   5.944   4.841   3.461 -0.0693  0.5194  0.2733
 8043TIP3    H124086   6.020   4.899   3.462  1.5496 -1.4535  1.2504
 8043TIP3    H224087   5.920   4.834   3.368  1.0221  1.0976 -0.0694
 8044TIP3   OH224088   6.223   1.511   1.849  0.0070  0.0288 -0.8172
 8044TIP3    H124089   6.167   1.440   1.881  0.1077 -0.1763 -1.0916
 8044TIP3    H224090   6.162   1.583   1.828 -0.0160  0.3383  0.2797
 8045TIP3   OH224091   4.180   5.028   6.707 -0.0260 -0.1183  0.6169
 8045TIP3    H124092   4.121   4.977   6.763 -1.8106  0.0060 -1.0633
 8045TIP3    H224093   4.129   5.046   6.629  1.7437  1.3706 -0.2559
 8046TIP3   OH224094   5.281   0.834   3.130  0.2967 -0.2892  0.0401
 8046TIP3    H124095   5.193   0.797   3.122 -0.6714  1.4478  1.9168
 8046TIP3    H224096   5.319   0.788   3.204 -0.1014  0.8789  0.9950
 8047TIP3   OH224097   1.817   5.939   0.888 -0.8752  0.2409  0.7415
 8047TIP3    H124098   1.851   5.864   0.937  0.1197  0.0689 -0.1818
 8047TIP3    H224099   1.726   5.916   0.868 -0.2917 -1.1949 -0.4179
 8048TIP3   OH224100   2.695   4.496   1.525 -0.1846 -0.2891 -0.4242
 8048TIP3    H124101   2.785   4.465   1.516  0.0239 -0.3064  1.3254
 8048TIP3    H224102   2.690   4.529   1.615 -2.2609 -1.4409 -0.0567
 8049TIP3   OH224103   0.390   7.788   4.022  0.2374 -0.7546  0.0819
 8049TIP3    H124104   0.473   7.835   4.020  0.2496 -0.6599  1.6415
 8049TIP3    H224105   0.403   7.718   4.086 -0.3464 -1.8197 -0.9223
 8050TIP3   OH224106   5.431   5.543   5.441 -0.7580 -0.0505  0.3737
 8050TIP3    H124107   5.432   5.454   5.406 -1.1226  0.1164 -0.0601
 8050TIP3    H224108   5.350   5.581   5.408 -0.2094  0.7121 -0.1111
 8051TIP3   OH224109   6.337   1.442   0.644  0.2052 -0.5210  0.4880
 8051TIP3    H124110   6.352   1.350   0.668 -0.1137 -0.5123  0.7328
 8051TIP3    H224111   6.287   1.478   0.718 -0.6924 -0.4559 -0.1244
 8052TIP3   OH224112   6.428   2.220   5.077 -0.9033 -0.5878  0.3500
 8052TIP3    H124113   6.401   2.178   4.996 -2.2851 -0.4297  0.6945
 8052TIP3    H224114   6.511   2.263   5.056 -0.4305 -1.8887 -0.5111
 8053TIP3   OH224115   7.325   5.712   5.835  0.4506 -0.2517 -0.1756
 8053TIP3    H124116   7.232   5.720   5.855  0.9473  0.7299  1.9683
 8053TIP3    H224117   7.362   5.667   5.911  1.8262 -0.1375 -0.7540
 8054TIP3   OH224118   3.397   0.443   5.795 -0.3180 -0.3277 -0.1203
 8054TIP3    H124119   3.336   0.516   5.784 -0.1144 -0.1250  0.0589
 8054TIP3    H224120   3.363   0.373   5.740 -0.9176 -0.3469  0.2705
 8055TIP3   OH224121   3.109   3.788   6.549 -0.4459 -0.0912 -0.2477
 8055TIP3    H124122   3.142   3.698   6.557  0.5974  0.2710 -0.3412
 8055TIP3    H224123   3.088   3.798   6.456 -1.0321 -0.3808 -0.1561
 8056TIP3   OH224124   2.857   1.285   0.748  0.2078  0.4890 -0.4231
 8056TIP3    H124125   2.815   1.227   0.684  0.1422 -0.0277  0.0796
 8056TIP3    H224126   2.785   1.338   0.783  0.1232  0.2591 -0.2455
 8057TIP3   OH224127   1.909   6.629   6.241 -0.4933  0.0645 -0.2447
 8057TIP3    H124128   1.989   6.645   6.290 -0.4916 -0.3234 -0.1168
 8057TIP3    H224129   1.862   6.712   6.243  0.3748  0.6042 -1.2055
 8058TIP3   OH224130   6.091   1.394   2.236 -0.4018 -0.1741  0.3925
 8058TIP3    H124131   6.058   1.333   2.169 -0.0866 -1.4493  1.3721
 8058TIP3    H224132   6.186   1.381   2.236 -0.2237  0.9599  0.0324
 8059TIP3   OH224133   6.739   7.251   1.171 -1.0411  0.3079 -0.5625
 8059TIP3    H124134   6.741   7.249   1.075 -1.1608 -0.4947 -0.5502
 8059TIP3    H224135   6.669   7.190   1.195 -2.2757  1.8608 -0.0135
 8060TIP3   OH224136   3.128   5.387   3.553  0.4999 -0.7262 -0.0068
 8060TIP3    H124137   3.095   5.359   3.467  0.8278 -1.3437  0.0674
 8060TIP3    H224138   3.052   5.429   3.594  0.4411 -0.0702 -0.7439
 8061TIP3   OH224139   4.350   4.511   1.007 -0.3181  0.2434 -0.0040
 8061TIP3    H124140   4.415   4.579   0.993  1.0828 -1.2869 -1.3801
 8061TIP3    H224141   4.308   4.498   0.922 -1.2558  0.0456  0.4662
 8062TIP3   OH224142   6.232   7.022   0.348  0.3430  0.1787 -0.3450
 8062TIP3    H124143   6.237   7.090   0.415  0.4171 -2.5792  2.7118
 8062TIP3    H224144   6.139   6.999   0.345  0.3069  0.4125 -1.4097
 8063TIP3   OH224145   2.276   5.195   1.600 -0.8066 -0.1960 -0.7597
 8063TIP3    H124146   2.302   5.274   1.647  1.2705 -1.1544 -0.1607
 8063TIP3    H224147   2.296   5.215   1.508  0.4904 -0.2613 -0.5181
 8064TIP3   OH224148   0.144   6.775   3.366  0.5084 -0.4130 -0.1134
 8064TIP3    H124149   0.145   6.751   3.458  2.1414  0.6130  0.1655
 8064TIP3    H224150   0.154   6.870   3.365  1.5478 -0.4963 -1.3557
 8065TIP3   OH224151   5.654   1.754   5.579  0.0050 -0.4195 -0.4976
 8065TIP3    H124152   5.724   1.692   5.560 -0.7391 -1.4998  0.1514
 8065TIP3    H224153   5.649   1.756   5.675  0.0546  0.7046 -0.5042
 8066TIP3   OH224154   4.058   1.771   2.738 -0.3497 -0.6397 -0.0054
 8066TIP3    H124155   4.083   1.741   2.826 -1.2373 -1.5376 -0.0480
 8066TIP3    H224156   4.117   1.845   2.721  0.7596 -1.3103  0.7832
 8067TIP3   OH224157   6.025   4.041   1.971 -0.3039  0.0488 -0.3546
 8067TIP3    H124158   6.068   4.012   1.891  0.4450 -0.6577  0.2864
 8067TIP3    H224159   6.081   4.009   2.042 -2.5700 -2.0883  0.5895
 8068TIP3   OH224160   3.063   5.636   2.020 -0.0534 -0.0889  0.3110
 8068TIP3    H124161   2.982   5.681   2.042 -0.1343 -1.0647  2.1947
 8068TIP3    H224162   3.102   5.690   1.950 -0.9456  1.9394  1.2939
 8069TIP3   OH224163   2.964   2.253   1.000 -0.2253  0.5916 -0.4008
 8069TIP3    H124164   3.001   2.306   0.929  0.9113 -0.9200 -0.9744
 8069TIP3    H224165   3.037   2.200   1.032 -0.8630  0.7499  1.4870
 8070TIP3   OH224166   1.133   0.039   0.713 -0.4857  0.4216 -0.5496
 8070TIP3    H124167   1.192   0.010   0.644  0.4288  1.2386 -0.1331
 8070TIP3    H224168   1.076  -0.036   0.729  0.8184 -0.6155 -0.5650
 8071TIP3   OH224169   6.127   2.198   1.253 -0.3364 -0.8229 -0.1823
 8071TIP3    H124170   6.197   2.184   1.317 -0.2957  0.5305  0.0998
 8071TIP3    H224171   6.129   2.120   1.198 -0.1082 -1.8351  1.2169
 8072TIP3   OH224172   4.261   2.048   3.426 -0.0061 -0.4149  0.2033
 8072TIP3    H124173   4.286   2.139   3.413  1.0449 -0.3616  2.2367
 8072TIP3    H224174   4.223   2.046   3.514 -0.6024 -1.8242 -0.0593
 8073TIP3   OH224175   0.504   3.102   0.807 -0.0075  0.5358 -0.7453
 8073TIP3    H124176   0.555   3.049   0.868 -1.6307  0.7163  0.8632
 8073TIP3    H224177   0.427   3.050   0.788 -1.2686  1.9307  0.2694
 8074TIP3   OH224178   7.385   2.319   3.554 -0.2429 -0.4574  0.3836
 8074TIP3    H124179   7.480   2.310   3.566  0.0959  1.8400 -0.1145
 8074TIP3    H224180   7.371   2.413   3.547 -2.5837 -0.7544  0.3881
 8075TIP3   OH224181   0.592   4.299   2.860  0.3542  0.7767 -0.7092
 8075TIP3    H124182   0.610   4.205   2.856 -0.0867  0.7115 -1.4462
 8075TIP3    H224183   0.645   4.331   2.933  1.0961  0.0909 -0.9339
 8076TIP3   OH224184   2.536   7.204   3.579 -0.0021  0.4863 -0.0075
 8076TIP3    H124185   2.558   7.280   3.525  0.6736  0.6622  0.5063
 8076TIP3    H224186   2.444   7.188   3.561  0.4878 -0.2480 -2.2021
 8077TIP3   OH224187   1.349   4.475   2.591 -0.1375  0.1420 -0.0641
 8077TIP3    H124188   1.272   4.418   2.584 -0.9756  1.1467  0.5481
 8077TIP3    H224189   1.400   4.439   2.663 -0.0683 -0.4823 -0.4160
 8078TIP3   OH224190   3.428   6.589   0.605  0.0654 -0.4821 -0.3475
 8078TIP3    H124191   3.422   6.670   0.554  0.6393 -1.0062 -1.2648
 8078TIP3    H224192   3.501   6.603   0.665 -1.4289  0.6510  1.3318
 8079TIP3   OH224193   5.379   5.830   6.003  0.3576 -0.1468  0.0351
 8079TIP3    H124194   5.417   5.898   5.949 -1.0485  0.0816 -0.7243
 8079TIP3    H224195   5.440   5.819   6.076  1.0308  1.3104 -0.2874
 8080TIP3   OH224196   4.682   3.693   1.751  0.3299 -0.7699 -0.0074
 8080TIP3    H124197   4.658   3.786   1.743  0.9018 -0.3042  2.6777
 8080TIP3    H224198   4.603   3.651   1.784  0.4465 -0.9911 -0.0135
 8081TIP3   OH224199   3.906   1.126   4.488 -0.2066  0.3769 -0.0998
 8081TIP3    H124200   3.978   1.064   4.489 -1.7554 -1.5019  0.8876
 8081TIP3    H224201   3.881   1.135   4.580  0.9268  3.7342  0.0199
 8082TIP3   OH224202   6.172   5.397   1.606  0.1316  0.0969  0.0730
 8082TIP3    H124203   6.216   5.316   1.580 -1.0005 -0.2971 -0.6890
 8082TIP3    H224204   6.086   5.368   1.637 -0.1082  0.9741  0.2573
 8083TIP3   OH224205   6.550   3.267   0.116  0.1710 -0.5873  0.2475
 8083TIP3    H124206   6.535   3.358   0.090 -1.3670 -1.2633 -1.4610
 8083TIP3    H224207   6.619   3.236   0.057  0.2443 -0.7048  0.3945
 8084TIP3   OH224208   8.137   7.791   1.931 -0.5318 -0.2169  0.6260
 8084TIP3    H124209   8.189   7.759   2.004 -0.3475  1.1675  1.1268
 8084TIP3    H224210   8.084   7.862   1.968 -1.3507 -0.3177 -0.3085
 8085TIP3   OH224211   6.524   5.741   3.595 -0.1980  0.6003 -0.0506
 8085TIP3    H124212   6.499   5.650   3.604  3.6802 -0.8485 -1.7000
 8085TIP3    H224213   6.562   5.765   3.679  1.8927 -0.5449 -0.6008
 8086TIP3   OH224214   1.043   5.242   3.753  0.0095  0.3401 -0.2612
 8086TIP3    H124215   1.028   5.178   3.823  0.2741  0.5332 -0.0209
 8086TIP3    H224216   1.083   5.317   3.798  0.9244  0.1536 -0.7463
 8087TIP3   OH224217   4.386   3.691   1.746 -0.2959 -0.8108  0.3019
 8087TIP3    H124218   4.374   3.702   1.840  1.3619 -0.4044  0.5022
 8087TIP3    H224219   4.387   3.779   1.710  0.9761 -0.8465  0.1966
 8088TIP3   OH224220   0.104   4.389   0.034 -0.0117 -0.2980  0.0399
 8088TIP3    H124221   0.009   4.396   0.045  0.0797  2.1443 -0.1816
 8088TIP3    H224222   0.138   4.394   0.123 -0.0643 -0.1391  0.0524
 8089TIP3   OH224223   3.188   4.035   6.671  0.0972 -0.4579  0.0557
 8089TIP3    H124224   3.164   3.950   6.636 -1.8085 -0.2560  0.7648
 8089TIP3    H224225   3.280   4.025   6.699  0.2977 -1.8679 -1.0223
 8090TIP3   OH224226   2.955   3.978   1.427 -0.5658  0.1597  0.2897
 8090TIP3    H124227   3.011   3.903   1.408 -1.2197 -0.3882  0.4950
 8090TIP3    H224228   3.008   4.033   1.485 -0.5315 -0.7725  1.1771
 8091TIP3   OH224229   7.357   1.378   5.284  0.3311  0.1955 -0.2921
 8091TIP3    H124230   7.324   1.324   5.212 -1.2963 -1.4815  1.6088
 8091TIP3    H224231   7.281   1.428   5.314  1.0410  1.0548  0.1489
 8092TIP3   OH224232   7.832   7.525   1.455  0.1485 -0.5910  0.3112
 8092TIP3    H124233   7.787   7.596   1.410  0.4132 -0.9080 -0.4590
 8092TIP3    H224234   7.921   7.559   1.470  0.3167 -0.8147 -0.1839
 8093TIP3   OH224235   1.860   0.235   3.331 -0.3209 -0.3572 -0.2112
 8093TIP3    H124236   1.902   0.210   3.413 -2.1383  2.2577  1.7019
 8093TIP3    H224237   1.805   0.160   3.308 -0.7427 -0.6764  1.7126
 8094TIP3   OH224238   1.773   5.612   1.349  0.2681  0.3130  0.7128
 8094TIP3    H124239   1.803   5.558   1.422  1.2741  0.5743  0.5146
 8094TIP3    H224240   1.854   5.643   1.308 -0.2867  1.4331  0.4264
 8095TIP3   OH224241   5.944   2.282   4.768  0.3280  0.9893  0.7399
 8095TIP3    H124242   5.951   2.351   4.835  0.7346  0.5896  1.1101
 8095TIP3    H224243   6.024   2.231   4.778  0.5468  1.1214 -0.2788
 8096TIP3   OH224244   7.564   6.807   5.455 -0.1184 -0.0897  0.5445
 8096TIP3    H124245   7.560   6.711   5.447 -0.9294  0.0804 -1.7037
 8096TIP3    H224246   7.473   6.833   5.472  0.2840  0.2385  2.3937
 8097TIP3   OH224247   5.735   4.342   5.851  0.3057  0.2370 -0.0129
 8097TIP3    H124248   5.814   4.351   5.905 -0.2387 -1.8846  1.2772
 8097TIP3    H224249   5.737   4.418   5.792  2.9139  0.6220  0.4445
 8098TIP3   OH224250   8.197   2.241   3.382  0.4102  0.1338  0.3596
 8098TIP3    H124251   8.274   2.284   3.342 -2.1272  3.2163 -1.7435
 8098TIP3    H224252   8.198   2.270   3.473  2.3212 -0.8907  0.7194
 8099TIP3   OH224253   5.561   4.672   2.353 -0.3691 -0.2660 -0.4420
 8099TIP3    H124254   5.628   4.625   2.403 -0.3663 -0.5239 -0.6846
 8099TIP3    H224255   5.515   4.604   2.304 -1.0633 -0.1422  0.0110
 8100TIP3   OH224256   3.725   7.421   5.045  0.1383 -0.4931 -0.2822
 8100TIP3    H124257   3.684   7.479   4.981  0.8821 -1.0546 -1.2970
 8100TIP3    H224258   3.666   7.345   5.051  0.3106 -0.6574 -0.6669
 8101TIP3   OH224259   6.634   1.440   6.235 -0.3126  0.5752  0.6432
 8101TIP3    H124260   6.720   1.464   6.272 -0.2189 -0.0078  0.8096
 8101TIP3    H224261   6.631   1.487   6.152  0.6726 -0.3086  0.0849
 8102TIP3   OH224262   4.252   3.755   2.253  0.0297 -0.5044  0.1369
 8102TIP3    H124263   4.213   3.840   2.270 -0.3943 -0.9686  1.6336
 8102TIP3    H224264   4.329   3.752   2.310  2.0926  0.2009 -2.3958
 8103TIP3   OH224265   1.046   4.432   1.630  0.2683  0.0174  0.7213
 8103TIP3    H124266   1.089   4.358   1.672  2.0922  0.2821 -0.5517
 8103TIP3    H224267   1.006   4.481   1.702  1.8110 -0.4457  1.9451
 8104TIP3   OH224268   0.080   1.038   2.162 -0.0059 -0.3704 -0.1671
 8104TIP3    H124269   0.109   0.975   2.228  2.1755  1.7652  1.0259
 8104TIP3    H224270   0.149   1.037   2.096  0.3926  1.2084  0.1932
 8105TIP3   OH224271   1.765   5.136   5.250 -0.1906 -0.5249  0.0992
 8105TIP3    H124272   1.705   5.129   5.175  1.8377  0.7371 -1.7928
 8105TIP3    H224273   1.776   5.046   5.280  1.0979 -1.5864 -3.0560
 8106TIP3   OH224274   3.660   3.674   2.383 -0.0317  0.5376  0.6722
 8106TIP3    H124275   3.678   3.596   2.436  0.8190 -0.7126 -1.3248
 8106TIP3    H224276   3.582   3.712   2.423 -2.1230 -2.8351  0.2548
 8107TIP3   OH224277   5.156   4.749   6.285  0.6239 -0.5702 -0.2348
 8107TIP3    H124278   5.069   4.741   6.248  0.2782  0.0199  0.4222
 8107TIP3    H224279   5.215   4.717   6.217  0.0971  1.5031 -1.7217
 8108TIP3   OH224280   7.403   4.693   3.704 -0.2441 -0.1032  0.0585
 8108TIP3    H124281   7.387   4.665   3.794  0.3783 -0.6897 -0.0046
 8108TIP3    H224282   7.459   4.770   3.713 -1.6495  0.9459  0.2194
 8109TIP3   OH224283   2.083   7.005   4.409  0.0375 -0.8052  0.5221
 8109TIP3    H124284   2.033   6.969   4.335 -0.7334 -1.1226  1.1862
 8109TIP3    H224285   2.174   7.004   4.379 -0.3166 -0.3614 -0.6536
 8110TIP3   OH224286   2.053   4.630   0.926 -0.3619  0.2212 -0.0454
 8110TIP3    H124287   2.050   4.595   1.015 -0.4585 -0.0677 -0.1616
 8110TIP3    H224288   2.139   4.672   0.920  0.7792 -2.0453 -0.6647
 8111TIP3   OH224289   6.623   6.283   5.105 -0.1068 -0.1084  0.1427
 8111TIP3    H124290   6.565   6.299   5.179 -1.3572 -0.2763 -0.7847
 8111TIP3    H224291   6.623   6.366   5.057  0.0694 -0.2517 -0.1058
 8112TIP3   OH224292   1.035   2.546   5.783  0.6444  0.5745  0.2734
 8112TIP3    H124293   1.129   2.540   5.766  0.5308  0.6813 -0.4151
 8112TIP3    H224294   0.997   2.471   5.736  0.3057  0.9573 -0.0727
 8113TIP3   OH224295   3.162   5.627   3.729  0.1545  0.1411 -0.1832
 8113TIP3    H124296   3.217   5.579   3.667  0.2811  1.4288 -1.0828
 8113TIP3    H224297   3.072   5.610   3.701  0.2349  2.3454 -2.0394
 8114TIP3   OH224298   6.948   3.222   4.135  0.4127  0.2605 -0.4580
 8114TIP3    H124299   7.007   3.179   4.197  2.7447  0.0457 -2.6665
 8114TIP3    H224300   6.938   3.158   4.064 -0.8636  1.1123 -1.0803
 8115TIP3   OH224301   3.415   7.585   1.583  0.3079  0.3152  0.2152
 8115TIP3    H124302   3.389   7.669   1.620 -1.7485 -0.2282  0.1410
 8115TIP3    H224303   3.345   7.564   1.521  0.1768 -1.9939  1.0800
 8116TIP3   OH224304   6.744   0.008   2.961  0.3408  0.0056 -0.0171
 8116TIP3    H124305   6.817   0.064   2.936  0.4016  0.4216  1.0291
 8116TIP3    H224306   6.763  -0.016   3.052 -0.3113 -0.7197 -0.0600
 8117TIP3   OH224307   0.382   3.327   3.765 -0.5146  0.6239 -0.1530
 8117TIP3    H124308   0.349   3.243   3.797  0.3996  0.2571 -0.1266
 8117TIP3    H224309   0.314   3.360   3.707 -2.1628  1.2167  1.9914
 8118TIP3   OH224310   0.123   5.151   5.712  0.1054 -0.4658 -1.0727
 8118TIP3    H124311   0.038   5.186   5.688  1.3623  1.3893 -3.1521
 8118TIP3    H224312   0.148   5.199   5.791  0.2350  0.7390 -1.8296
 8119TIP3   OH224313   7.383   5.582   6.063 -0.4874  0.6017 -0.1489
 8119TIP3    H124314   7.303   5.534   6.045 -1.3408  1.6193  0.8115
 8119TIP3    H224315   7.435   5.523   6.118 -1.0817  0.3843  0.1828
 8120TIP3   OH224316   2.227   1.329   1.732  0.4862  0.2704 -0.1019
 8120TIP3    H124317   2.232   1.424   1.723  0.7783  0.4666  1.7338
 8120TIP3    H224318   2.133   1.311   1.741  0.3815  0.2943 -0.9845
 8121TIP3   OH224319   4.097   1.308   5.242 -0.8106  0.0469  0.3754
 8121TIP3    H124320   4.146   1.247   5.298  1.4594  2.2592  0.9970
 8121TIP3    H224321   4.147   1.312   5.161 -2.9318 -1.5444 -1.0981
 8122TIP3   OH224322   7.876   5.172   6.042 -0.0770  0.5860 -0.0762
 8122TIP3    H124323   7.911   5.176   6.131  1.0900  0.1096 -0.5073
 8122TIP3    H224324   7.924   5.239   5.994 -0.3756  0.5267 -0.4636
 8123TIP3   OH224325   7.137   4.741   3.287  0.4101  0.1591  0.1057
 8123TIP3    H124326   7.227   4.730   3.259  0.7967 -0.1175  1.3801
 8123TIP3    H224327   7.141   4.743   3.383 -0.9060  0.3870  0.1896
 8124TIP3   OH224328   7.402   4.726   5.269  0.4592 -0.5303  0.0864
 8124TIP3    H124329   7.460   4.681   5.207 -1.1924 -1.4327 -0.8965
 8124TIP3    H224330   7.415   4.819   5.250 -0.2093 -0.7808 -1.9057
 8125TIP3   OH224331   2.819   3.808   3.674  0.5319 -0.3149  0.4418
 8125TIP3    H124332   2.804   3.769   3.761  1.4272  0.4892  0.9706
 8125TIP3    H224333   2.753   3.766   3.618 -1.1928  0.3551  1.8524
 8126TIP3   OH224334   5.641   7.757   0.844 -0.0253  0.2726 -0.2965
 8126TIP3    H124335   5.671   7.697   0.912  0.0160  1.4750  0.7912
 8126TIP3    H224336   5.625   7.839   0.890  0.1692  1.1803 -1.7754
 8127TIP3   OH224337   7.901   3.121   1.692  0.0275  0.0123 -1.0364
 8127TIP3    H124338   7.869   3.206   1.725 -0.1802 -1.0795  1.9409
 8127TIP3    H224339   7.991   3.138   1.664  0.1483  1.1472 -0.0499
 8128TIP3   OH224340   7.384   7.321   4.699  0.0663 -0.4753 -0.2224
 8128TIP3    H124341   7.299   7.277   4.690  0.5450 -2.0008  1.9888
 8128TIP3    H224342   7.449   7.252   4.684  0.8844  0.0578  0.7572
 8129TIP3   OH224343   4.880   1.778   4.017 -0.2453  0.1043  0.3963
 8129TIP3    H124344   4.940   1.779   4.092 -0.6297  0.3144  0.7013
 8129TIP3    H224345   4.804   1.729   4.047  0.9002 -2.6619 -0.8800
 8130TIP3   OH224346   3.366   2.708   4.095  0.6803  0.4023 -0.4567
 8130TIP3    H124347   3.446   2.757   4.079  0.8778  0.5845  0.9887
 8130TIP3    H224348   3.302   2.744   4.033  1.5882  0.5098 -1.3557
 8131TIP3   OH224349   7.679   7.560   1.056 -0.5601  0.2670 -0.1142
 8131TIP3    H124350   7.767   7.528   1.074 -0.4507  0.6249 -0.0123
 8131TIP3    H224351   7.691   7.631   0.993 -0.7417  0.5771  0.1999
 8132TIP3   OH224352   1.396   0.589   3.128 -0.3591 -0.3458  0.4567
 8132TIP3    H124353   1.418   0.622   3.041 -0.4295  0.7829  0.8496
 8132TIP3    H224354   1.461   0.628   3.187 -1.1406  0.0314  1.0969
 8133TIP3   OH224355   7.475   1.227   4.385 -0.2930 -0.3500 -0.2252
 8133TIP3    H124356   7.517   1.295   4.331  1.1935 -1.3100 -0.3666
 8133TIP3    H224357   7.460   1.269   4.470  1.0187  0.0443 -0.1645
 8134TIP3   OH224358   7.272   5.451   2.710  0.0001 -0.3479  0.4210
 8134TIP3    H124359   7.248   5.360   2.692  1.5612 -0.2923 -2.6153
 8134TIP3    H224360   7.190   5.492   2.737 -1.3673 -2.0567 -0.8514
 8135TIP3   OH224361   4.538   7.540   5.652  0.0920  0.9772  0.3791
 8135TIP3    H124362   4.560   7.514   5.563 -1.0192  0.1767  0.3209
 8135TIP3    H224363   4.458   7.593   5.643  0.1977  1.2259  0.8587
 8136TIP3   OH224364   7.455   5.103   3.130  0.0213 -0.0156  0.0808
 8136TIP3    H124365   7.517   5.154   3.077 -0.9584  0.7998 -0.3155
 8136TIP3    H224366   7.372   5.150   3.121 -0.4112 -0.4682  1.4848
 8137TIP3   OH224367   2.413   7.796   3.815 -0.4757 -0.3707 -0.6590
 8137TIP3    H124368   2.379   7.878   3.779 -1.3476 -0.1185  0.6607
 8137TIP3    H224369   2.393   7.730   3.748 -0.5679  0.3401 -1.3451
 8138TIP3   OH224370   5.576   0.401   3.401 -0.0685 -0.4301  0.4833
 8138TIP3    H124371   5.628   0.368   3.328 -0.9022 -0.8951  0.0778
 8138TIP3    H224372   5.623   0.373   3.479 -0.1029 -1.5217  0.1285
 8139TIP3   OH224373   7.770   5.595   4.207 -0.0887 -0.1208 -0.0756
 8139TIP3    H124374   7.822   5.532   4.157  0.3601  1.2526 -1.4220
 8139TIP3    H224375   7.746   5.662   4.143 -0.5193  1.0972  1.3079
 8140TIP3   OH224376   0.397   0.841   3.757  0.0090  0.1532  0.4681
 8140TIP3    H124377   0.382   0.761   3.706  2.2938 -0.3174  0.4163
 8140TIP3    H224378   0.406   0.910   3.691  0.2582  0.0409  0.3845
 8141TIP3   OH224379   2.382   3.628   4.592  0.5480  0.1429  0.8805
 8141TIP3    H124380   2.428   3.553   4.630  2.5591  1.0112  0.2606
 8141TIP3    H224381   2.417   3.704   4.638  1.2942  1.0027 -1.0032
 8142TIP3   OH224382   5.481   4.749   2.722  0.2968  0.3065  0.0563
 8142TIP3    H124383   5.490   4.828   2.775 -0.0891 -0.5098  1.3820
 8142TIP3    H224384   5.570   4.733   2.689  0.5761  0.7489  0.5737
 8143TIP3   OH224385   5.766   4.418   5.061  0.2996 -0.3538 -0.1124
 8143TIP3    H124386   5.742   4.432   4.969  2.1004  1.0525 -0.4330
 8143TIP3    H224387   5.698   4.359   5.094 -0.3636 -0.9823 -2.3501
 8144TIP3   OH224388   8.306   3.504   6.640  0.2512 -0.3542  0.4662
 8144TIP3    H124389   8.216   3.472   6.637 -0.1338  0.7297 -0.2695
 8144TIP3    H224390   8.318   3.534   6.730  0.6671 -2.6040  1.2111
 8145TIP3   OH224391   5.159   3.239   0.195  0.2165 -0.1956 -0.2738
 8145TIP3    H124392   5.146   3.310   0.132 -0.5155 -0.1791 -0.1128
 8145TIP3    H224393   5.076   3.191   0.195  0.7961 -1.2228 -0.5779
 8146TIP3   OH224394   0.011   6.202   5.564 -0.4342  0.0702  0.0222
 8146TIP3    H124395  -0.027   6.115   5.576  0.5544 -0.2097  1.2606
 8146TIP3    H224396   0.094   6.199   5.611 -0.5804  1.8247  0.4514
 8147TIP3   OH224397   8.271   6.919   6.755  0.0178 -0.5185 -0.5757
 8147TIP3    H124398   8.316   7.003   6.769 -1.8144  0.4388 -0.1473
 8147TIP3    H224399   8.316   6.859   6.814  0.8348  0.3646 -0.2619
 8148TIP3   OH224400   2.412   5.204   4.867  0.3448  0.3059  0.6059
 8148TIP3    H124401   2.460   5.284   4.890 -0.7351  0.9282  0.7536
 8148TIP3    H224402   2.480   5.142   4.840  1.1865  1.3138  0.3634
 8149TIP3   OH224403   6.268   5.111   6.123 -0.1804 -0.2001  0.0860
 8149TIP3    H124404   6.228   5.095   6.209  0.3329 -1.5437  0.0959
 8149TIP3    H224405   6.361   5.095   6.136 -0.0853 -0.3147 -0.7001
 8150TIP3   OH224406   4.827   6.284   2.240 -0.0432 -0.4390 -0.2407
 8150TIP3    H124407   4.799   6.356   2.184 -0.2987 -1.5109 -1.5396
 8150TIP3    H224408   4.907   6.317   2.282 -0.7716  1.0009  0.0844
 8151TIP3   OH224409   1.195   5.754   6.464 -0.0415 -0.4241  0.3273
 8151TIP3    H124410   1.224   5.664   6.479 -0.1548 -1.2065 -3.2596
 8151TIP3    H224411   1.114   5.763   6.514  0.6995 -1.8096  1.8430
 8152TIP3   OH224412   0.713   4.778   1.094  0.2537  0.0811 -0.1766
 8152TIP3    H124413   0.742   4.796   1.183  0.2151 -1.5213  0.2006
 8152TIP3    H224414   0.753   4.846   1.040  1.8646 -0.0444  0.8073
 8153TIP3   OH224415   4.506   2.621   0.120  0.7470  0.2160 -0.0568
 8153TIP3    H124416   4.435   2.685   0.109 -0.6945 -1.1523  0.9465
 8153TIP3    H224417   4.553   2.623   0.036 -1.1566  0.3585 -1.1653
 8154TIP3   OH224418   6.034   3.196   0.554 -0.7409 -0.4568  0.1956
 8154TIP3    H124419   6.030   3.217   0.648 -0.6113 -2.3699  0.6713
 8154TIP3    H224420   6.119   3.229   0.526 -0.7996  0.1736  0.7412
 8155TIP3   OH224421   5.092   6.619   3.180 -0.6915 -0.1023 -0.2350
 8155TIP3    H124422   5.128   6.689   3.126 -1.4715  0.9268  0.5234
 8155TIP3    H224423   5.157   6.550   3.176 -0.3615  0.2524 -1.8296
 8156TIP3   OH224424   6.024   5.770   0.577  0.6826 -0.4273 -0.0854
 8156TIP3    H124425   6.022   5.861   0.549  1.0343  0.2441  1.9188
 8156TIP3    H224426   6.096   5.766   0.640  0.1261 -1.8828  0.5018
 8157TIP3   OH224427   1.206   1.617   2.741 -0.3581 -0.7493 -0.3594
 8157TIP3    H124428   1.237   1.527   2.730 -0.3881 -0.7265 -0.6549
 8157TIP3    H224429   1.124   1.620   2.692 -0.7760 -0.7789  0.3329
 8158TIP3   OH224430   2.013   4.635   3.895  0.1574  0.7275  0.5549
 8158TIP3    H124431   2.104   4.664   3.886  0.2835  0.2388  0.1457
 8158TIP3    H224432   1.980   4.631   3.805  0.4530 -1.2710  0.4697
 8159TIP3   OH224433   3.037   4.451   4.784  0.0523  0.0682 -0.5778
 8159TIP3    H124434   2.971   4.402   4.833 -0.6810  0.7767 -0.8254
 8159TIP3    H224435   2.990   4.528   4.752  1.1080  0.7975 -0.4189
 8160TIP3   OH224436   0.543   7.810   3.650 -0.2972  0.4854 -0.1046
 8160TIP3    H124437   0.475   7.744   3.636  0.2073 -0.1120  0.2673
 8160TIP3    H224438   0.576   7.829   3.562  0.9981 -1.2982 -0.0364
 8161TIP3   OH224439   8.090   0.219   4.103  0.2482 -0.0940 -0.2459
 8161TIP3    H124440   8.173   0.172   4.112 -0.6351 -1.3198  3.4693
 8161TIP3    H224441   8.114   0.311   4.113  1.3812 -0.1220 -2.0820
 8162TIP3   OH224442   4.470   3.825   5.089 -0.2489  0.4375 -0.0672
 8162TIP3    H124443   4.560   3.858   5.084 -0.2279  0.3584 -0.1995
 8162TIP3    H224444   4.416   3.904   5.098 -0.1205  0.4525  0.6465
 8163TIP3   OH224445   7.814   1.149   1.588  0.0038  0.0134 -0.2996
 8163TIP3    H124446   7.898   1.124   1.626 -0.2397 -0.3078  0.0399
 8163TIP3    H224447   7.752   1.140   1.660 -0.5142 -0.8987 -0.8315
 8164TIP3   OH224448   3.347   0.724   2.833 -0.1239 -0.3296 -0.0619
 8164TIP3    H124449   3.362   0.811   2.868  1.7225 -0.7146  0.2251
 8164TIP3    H224450   3.430   0.701   2.790 -0.5095 -1.9821  0.0047
 8165TIP3   OH224451   4.839   1.517   3.702 -0.2885  0.1459 -0.8403
 8165TIP3    H124452   4.910   1.579   3.717 -0.5496  0.2508 -0.0016
 8165TIP3    H224453   4.760   1.571   3.699 -0.4077 -0.0389 -1.1448
 8166TIP3   OH224454   3.080   3.435   2.878  0.6790  0.4282 -0.6679
 8166TIP3    H124455   2.987   3.449   2.859  0.5224 -0.1510 -0.3364
 8166TIP3    H224456   3.126   3.488   2.812  0.1319 -0.3037 -1.6643
 8167TIP3   OH224457   0.959   1.602   2.228  0.4526 -0.0309  0.3834
 8167TIP3    H124458   0.994   1.593   2.140  1.0027  1.5844  0.3930
 8167TIP3    H224459   0.865   1.616   2.216  0.2595 -1.3893  0.1752
 8168TIP3   OH224460   3.325   2.309   3.347  0.0853  0.2599  0.0409
 8168TIP3    H124461   3.266   2.384   3.346 -0.1326  0.0969 -0.7297
 8168TIP3    H224462   3.380   2.322   3.424 -1.1449  0.2644  0.9483
 8169TIP3   OH224463   0.681   0.676   5.239  0.2560 -0.2526 -0.1729
 8169TIP3    H124464   0.751   0.728   5.280 -0.1619  0.0686  0.1500
 8169TIP3    H224465   0.615   0.741   5.215  0.5307 -0.4269 -1.4544
 8170TIP3   OH224466   4.939   7.647   2.870 -0.0268 -0.1436  0.0235
 8170TIP3    H124467   4.850   7.670   2.896 -0.1999  0.4949 -1.0724
 8170TIP3    H224468   4.995   7.696   2.930 -0.4100  1.9519 -1.2387
 8171TIP3   OH224469   3.800   4.678   6.097  0.3474 -0.3902 -0.0642
 8171TIP3    H124470   3.718   4.694   6.049  0.7580 -0.8209 -0.9340
 8171TIP3    H224471   3.833   4.765   6.118 -1.1614 -0.1994  1.7809
 8172TIP3   OH224472   6.327   1.086   3.957  0.4347  0.0138  0.3629
 8172TIP3    H124473   6.389   1.122   4.021 -0.4299 -0.1467  1.3087
 8172TIP3    H224474   6.372   1.011   3.920  1.4647  0.8714 -0.1732
 8173TIP3   OH224475   8.095   1.611   0.591  0.1428  0.9039  0.5536
 8173TIP3    H124476   8.080   1.559   0.512  1.5007  0.4607  0.5651
 8173TIP3    H224477   8.023   1.588   0.649  0.0797 -0.0672  0.0978
 8174TIP3   OH224478   2.792   5.140   1.538  0.2764  0.3301 -0.7005
 8174TIP3    H124479   2.766   5.216   1.591 -2.5784 -0.0011 -1.4490
 8174TIP3    H224480   2.782   5.170   1.448  1.2526 -0.3170 -1.0445
 8175TIP3   OH224481   7.364   6.059   1.548  0.7866  0.0453  0.4414
 8175TIP3    H124482   7.455   6.087   1.534  0.2885  1.1805 -0.6957
 8175TIP3    H224483   7.311   6.123   1.500 -0.6686 -0.1819  1.6631
 8176TIP3   OH224484   4.123   0.729   0.543  0.5450  0.1771 -0.5298
 8176TIP3    H124485   4.051   0.771   0.590  2.5265  2.7126  0.5172
 8176TIP3    H224486   4.109   0.635   0.555 -0.5236  0.6544  2.8946
 8177TIP3   OH224487   0.592   5.792   5.070  0.0367  0.0348  0.0249
 8177TIP3    H124488   0.657   5.750   5.014 -0.3696  0.2603 -0.6238
 8177TIP3    H224489   0.577   5.730   5.141  0.8755 -0.0660  0.1214
 8178TIP3   OH224490   7.066   1.413   3.834 -0.0387 -0.0519  0.9752
 8178TIP3    H124491   7.154   1.394   3.868  0.6177  0.3625 -0.4209
 8178TIP3    H224492   7.054   1.507   3.848 -0.5620 -0.2321  1.8004
 8179TIP3   OH224493   8.125   6.062   3.058  0.3083  0.0886 -0.0193
 8179TIP3    H124494   8.141   6.112   3.138 -1.3858  0.0680  0.3739
 8179TIP3    H224495   8.042   6.018   3.074  0.7184 -1.1759 -1.1929
 8180TIP3   OH224496   6.443   1.329   1.811 -0.5855  0.1807 -0.1195
 8180TIP3    H124497   6.356   1.367   1.803 -0.4010  0.7079  0.2759
 8180TIP3    H224498   6.429   1.234   1.812 -1.1217  0.2574 -0.3895
 8181TIP3   OH224499   7.410   2.152   5.337 -0.2283  0.6272  0.0885
 8181TIP3    H124500   7.375   2.074   5.379 -1.7444  0.8434 -0.6867
 8181TIP3    H224501   7.505   2.146   5.350 -0.1887 -1.7987 -0.7030
 8182TIP3   OH224502   5.495   5.612   4.446  0.1358 -0.1922 -0.3226
 8182TIP3    H124503   5.575   5.665   4.447  0.2705 -0.2437 -2.6316
 8182TIP3    H224504   5.523   5.525   4.474  0.7621 -0.0639 -0.5298
 8183TIP3   OH224505   6.743   3.523   2.285  0.2026 -0.1309  0.4873
 8183TIP3    H124506   6.711   3.543   2.197 -0.0667  0.1250  0.6437
 8183TIP3    H224507   6.707   3.436   2.304  0.4540 -0.2904  0.2555
 8184TIP3   OH224508   1.469   6.368   3.552  0.5331  0.0444 -0.0704
 8184TIP3    H124509   1.421   6.293   3.586 -0.0431  0.1785 -0.5834
 8184TIP3    H224510   1.498   6.342   3.465  3.1489 -0.7964  0.9613
 8185TIP3   OH224511   3.276   2.086   5.089 -0.2287 -0.3286  0.7167
 8185TIP3    H124512   3.322   2.013   5.048  0.5012  0.7340 -0.4487
 8185TIP3    H224513   3.281   2.068   5.183  3.2857  0.0710  0.7347
 8186TIP3   OH224514   3.254   6.859   6.045 -0.3564  0.5100  0.0440
 8186TIP3    H124515   3.313   6.800   6.000  1.0891  2.0830 -0.2192
 8186TIP3    H224516   3.271   6.843   6.138  0.3518  0.8038 -0.0286
 8187TIP3   OH224517   4.435   2.884   4.257  0.2040 -0.1940 -0.1518
 8187TIP3    H124518   4.458   2.918   4.343 -0.7785 -0.2424  0.1404
 8187TIP3    H224519   4.370   2.816   4.274  0.8906 -1.0598 -0.8480
 8188TIP3   OH224520   8.033   5.376   1.010 -0.1259  0.6616 -0.3972
 8188TIP3    H124521   7.946   5.416   1.002 -1.1025 -1.3380 -0.4019
 8188TIP3    H224522   8.074   5.423   1.083 -1.9998  0.3392  0.9400
 8189TIP3   OH224523   7.016   4.196   3.097  0.0237  0.0304  0.1354
 8189TIP3    H124524   7.069   4.270   3.126  1.4319 -1.1331  0.6528
 8189TIP3    H224525   6.960   4.176   3.172  1.4047 -0.9663  0.9331
 8190TIP3   OH224526   7.304   3.493   2.028  0.2286  0.1216 -0.3804
 8190TIP3    H124527   7.258   3.500   1.944  1.0813 -0.5601 -0.9216
 8190TIP3    H224528   7.272   3.411   2.066  1.6687 -0.9006 -1.2276
 8191TIP3   OH224529   7.902   3.650   6.555 -0.0791 -0.6834  0.2551
 8191TIP3    H124530   7.957   3.718   6.518 -0.4469 -1.4725 -1.8881
 8191TIP3    H224531   7.957   3.607   6.621  0.2231  1.4801  1.5167
 8192TIP3   OH224532   8.198   6.533   6.418  0.3535  0.2765  0.4097
 8192TIP3    H124533   8.265   6.469   6.392  0.5936  0.8566 -0.4620
 8192TIP3    H224534   8.222   6.559   6.507  1.4881  0.6998  0.0006
 8193TIP3   OH224535   0.070   0.123   3.973  0.3071  0.0379 -0.0798
 8193TIP3    H124536   0.100   0.109   4.063  1.8280 -2.4165 -0.8569
 8193TIP3    H224537   0.127   0.067   3.920 -0.0140  1.9942 -2.6907
 8194TIP3   OH224538   3.306   3.575   2.334  0.1380 -0.0238 -0.1898
 8194TIP3    H124539   3.382   3.524   2.363  1.0092  1.2936 -0.0278
 8194TIP3    H224540   3.231   3.534   2.378  0.5852 -1.9717 -1.1342
 8195TIP3   OH224541   8.026   5.323   3.431  0.4773  0.1018 -0.2528
 8195TIP3    H124542   7.967   5.302   3.504  2.0476  1.3702  1.4947
 8195TIP3    H224543   7.977   5.385   3.377  0.7332  2.7144  2.2272
 8196TIP3   OH224544   7.500   1.047   3.854 -0.5052 -0.0514  0.1404
 8196TIP3    H124545   7.554   1.061   3.932  0.0073  0.1936 -0.2548
 8196TIP3    H224546   7.506   1.130   3.806 -0.9294 -0.1553 -0.0951
 8197TIP3   OH224547   7.009   6.376   0.623  0.3221 -0.2387 -0.4709
 8197TIP3    H124548   6.916   6.398   0.627  0.8316  2.4704 -1.7423
 8197TIP3    H224549   7.041   6.392   0.712  0.2562  2.5833 -0.8726
 8198TIP3   OH224550   7.982   6.220   4.869 -0.3084  0.5931  0.0257
 8198TIP3    H124551   7.975   6.258   4.781 -2.5879 -0.7544 -0.4615
 8198TIP3    H224552   8.045   6.149   4.860  0.3726  1.2034 -0.1883
 8199TIP3   OH224553   7.700   4.609   5.506 -0.0167  0.3909  0.1454
 8199TIP3    H124554   7.766   4.650   5.451  0.5889  0.1520  0.6765
 8199TIP3    H224555   7.616   4.643   5.474  0.3013  0.0739 -1.0652
 8200TIP3   OH224556   2.385   7.177   5.697  0.1414 -0.3268 -0.2619
 8200TIP3    H124557   2.404   7.139   5.611 -2.3354  0.7698 -1.4098
 8200TIP3    H224558   2.435   7.259   5.699  0.0612 -0.2635 -0.7466
 8201TIP3   OH224559   5.881   1.928   5.408 -0.3048 -0.1133  0.1870
 8201TIP3    H124560   5.938   1.998   5.377 -0.7650 -0.5035 -1.6627
 8201TIP3    H224561   5.824   1.908   5.333 -0.6775 -1.9441  0.9023
 8202TIP3   OH224562   2.292   4.643   4.862 -0.1029  0.0879 -0.2756
 8202TIP3    H124563   2.362   4.708   4.866  0.7701 -0.8653  0.5907
 8202TIP3    H224564   2.321   4.581   4.795  0.0883 -0.5296  0.3724
 8203TIP3   OH224565   5.954   7.057   0.920 -0.4329 -0.4326 -0.1654
 8203TIP3    H124566   5.955   6.962   0.908  1.5999 -0.5024  0.3367
 8203TIP3    H224567   6.045   7.084   0.910 -0.7742  1.3072  0.9942
 8204TIP3   OH224568   3.495   3.588   6.517 -0.5059  0.1183  0.3669
 8204TIP3    H124569   3.514   3.537   6.439 -1.1370 -0.9170  0.8643
 8204TIP3    H224570   3.474   3.676   6.484  0.6500  0.0839 -0.4991
 8205TIP3   OH224571   3.864   7.801   4.366 -0.4901 -0.1840 -0.4892
 8205TIP3    H124572   3.884   7.890   4.396  0.9763 -0.5449 -0.3611
 8205TIP3    H224573   3.863   7.809   4.270 -1.1468  0.1138 -0.4691
 8206TIP3   OH224574   4.344   5.854   0.617 -0.2101 -0.3816  0.4204
 8206TIP3    H124575   4.291   5.889   0.545  0.4667 -1.4864 -0.6710
 8206TIP3    H224576   4.318   5.762   0.622  0.7251 -0.6427  0.6695
 8207TIP3   OH224577   5.749   3.076   6.591  0.1268 -0.5018 -0.0761
 8207TIP3    H124578   5.685   3.111   6.653  1.3523 -1.0081  1.5502
 8207TIP3    H224579   5.813   3.031   6.646  1.9756  0.1093 -1.6129
 8208TIP3   OH224580   1.681   3.256   1.450 -0.3951  0.1564 -0.3440
 8208TIP3    H124581   1.755   3.317   1.452  0.4570 -0.6416  4.2204
 8208TIP3    H224582   1.604   3.311   1.463  0.1144  0.5624  1.1928
 8209TIP3   OH224583   3.663   7.754   2.552 -0.5255  0.2272  0.0383
 8209TIP3    H124584   3.625   7.809   2.484 -0.6042 -0.4088 -0.4472
 8209TIP3    H224585   3.587   7.721   2.601 -0.4996  0.2709  0.1082
 8210TIP3   OH224586   7.036   2.753   5.287  0.0582 -0.3736 -0.1877
 8210TIP3    H124587   7.023   2.825   5.349  2.3212  0.3207 -0.4458
 8210TIP3    H224588   7.118   2.713   5.314  0.2839 -1.0553 -1.7958
 8211TIP3   OH224589   2.725   2.526   6.680  0.1323  0.0585 -0.5635
 8211TIP3    H124590   2.651   2.471   6.705  1.7471 -1.5656  0.9068
 8211TIP3    H224591   2.788   2.466   6.640  1.5365  0.9892  0.1850
 8212TIP3   OH224592   2.514   2.339   6.682  0.5769 -0.3360 -0.2108
 8212TIP3    H124593   2.440   2.396   6.697  0.2597 -0.8914  0.3859
 8212TIP3    H224594   2.476   2.252   6.669  1.1670 -0.8982  1.5061
 8213TIP3   OH224595   3.540   2.818   1.934 -0.3995  0.3448  0.3170
 8213TIP3    H124596   3.535   2.749   1.868 -0.8868  0.9170 -0.2578
 8213TIP3    H224597   3.453   2.819   1.975 -0.4607  0.7305  0.1906
 8214TIP3   OH224598   6.646   1.254   4.149 -0.0635  0.4409 -0.0092
 8214TIP3    H124599   6.712   1.267   4.080  0.8756  0.9379  0.9439
 8214TIP3    H224600   6.680   1.182   4.202 -0.8666 -0.0543 -0.1478
 8215TIP3   OH224601   2.853   5.501   3.651 -0.1101 -0.6575  0.0038
 8215TIP3    H124602   2.811   5.576   3.692  2.2862 -0.9631  3.3828
 8215TIP3    H224603   2.814   5.425   3.694  0.8903 -1.0920  0.1814
 8216TIP3   OH224604   4.342   0.184   0.858  0.2464  0.7962  0.1154
 8216TIP3    H124605   4.395   0.259   0.886  1.0779 -0.0333  0.8701
 8216TIP3    H224606   4.284   0.219   0.791  0.5331  2.1367  0.5327
 8217TIP3   OH224607   0.090   7.798   5.607 -0.1382 -0.0368 -0.2621
 8217TIP3    H124608   0.164   7.758   5.561 -0.5622  0.1746 -1.1564
 8217TIP3    H224609   0.066   7.735   5.675  0.9786 -0.0129  0.1654
 8218TIP3   OH224610   4.252   2.442   2.822  0.3690 -0.0165  0.0110
 8218TIP3    H124611   4.239   2.392   2.903 -2.0568  0.2371 -0.1313
 8218TIP3    H224612   4.229   2.380   2.752 -1.0607  0.7584 -0.2525
 8219TIP3   OH224613   1.907   4.066   5.641 -0.1933  0.1930  0.0311
 8219TIP3    H124614   1.983   4.009   5.649 -0.7199 -0.4668  0.4087
 8219TIP3    H224615   1.832   4.006   5.639 -0.7017  0.8279 -0.3925
 8220TIP3   OH224616   4.531   7.609   4.780 -0.3641  0.2326  0.8985
 8220TIP3    H124617   4.615   7.568   4.798 -0.3566  0.1191  0.6154
 8220TIP3    H224618   4.495   7.558   4.707 -0.7536  0.1684  1.1342
 8221TIP3   OH224619   6.100   2.367   4.572  0.3222  0.1393 -0.6048
 8221TIP3    H124620   6.026   2.342   4.627  0.8152 -2.2902 -0.9307
 8221TIP3    H224621   6.076   2.453   4.537 -1.0625  0.6730  1.4790
 8222TIP3   OH224622   2.886   7.388   4.022  0.2768  0.1233  0.1743
 8222TIP3    H124623   2.909   7.464   4.076 -0.3706  0.9526 -0.6940
 8222TIP3    H224624   2.950   7.388   3.952  0.8165 -0.6686  0.6523
 8223TIP3   OH224625   5.429   4.892   5.184 -0.8392 -0.0976  0.3219
 8223TIP3    H124626   5.496   4.913   5.250 -1.4287  2.5512  0.1845
 8223TIP3    H224627   5.479   4.875   5.104 -0.2120 -1.5218  0.9820
 8224TIP3   OH224628   0.220   0.124   0.105  0.7185 -0.0928  0.3046
 8224TIP3    H124629   0.177   0.043   0.078  0.1804 -0.1338  1.2166
 8224TIP3    H224630   0.297   0.130   0.050 -0.6149  0.1591 -1.6152
 8225TIP3   OH224631   2.164   3.844   5.065 -0.3510 -0.1508  0.2257
 8225TIP3    H124632   2.102   3.794   5.117 -0.6410 -0.6183 -0.5526
 8225TIP3    H224633   2.242   3.789   5.061 -0.6253 -0.5011 -0.5235
 8226TIP3   OH224634   7.278   7.094   3.550 -0.2707 -0.1122 -0.0437
 8226TIP3    H124635   7.236   7.176   3.523  0.6140  0.1861 -0.5394
 8226TIP3    H224636   7.290   7.045   3.469  3.4756  1.2827 -0.5478
 8227TIP3   OH224637   2.775   3.588   1.482  0.1065  0.2851 -0.1603
 8227TIP3    H124638   2.683   3.568   1.468  0.0432 -0.5657  1.2394
 8227TIP3    H224639   2.822   3.508   1.455  0.2188 -0.1670  1.2737
 8228TIP3   OH224640   5.310   7.163   5.546  0.3600 -0.5101  0.2821
 8228TIP3    H124641   5.273   7.127   5.627  1.3504 -0.2042  0.8954
 8228TIP3    H224642   5.287   7.099   5.479  1.0566 -1.6880  1.1281
 8229TIP3   OH224643   5.040   7.042   2.563 -0.6751  0.1320  0.3364
 8229TIP3    H124644   5.122   7.092   2.568 -0.0797 -0.8154  0.3502
 8229TIP3    H224645   4.989   7.086   2.495  1.1138 -1.0031 -1.8790
 8230TIP3   OH224646   4.175   2.005   5.482  0.1729 -0.2464 -0.2885
 8230TIP3    H124647   4.224   1.925   5.462 -0.4832 -0.4663 -1.0421
 8230TIP3    H224648   4.088   1.975   5.506 -0.4630  0.2915 -1.8007
 8231TIP3   OH224649   7.832   0.485   1.103 -0.1310  0.2373  0.7208
 8231TIP3    H124650   7.843   0.562   1.159 -2.2935  0.9612  0.2452
 8231TIP3    H224651   7.765   0.433   1.147 -1.8017  0.7700 -1.0690
 8232TIP3   OH224652   8.270   2.935   1.380 -0.1035  0.4726 -0.2206
 8232TIP3    H124653   8.219   2.988   1.319 -0.7698 -0.8641 -0.8855
 8232TIP3    H224654   8.361   2.949   1.355 -0.3753 -0.2204 -1.6891
 8233TIP3   OH224655   2.283   0.076   2.058 -0.5576 -0.0034 -0.3926
 8233TIP3    H124656   2.377   0.088   2.046 -0.4781 -0.9145 -0.7407
 8233TIP3    H224657   2.275   0.026   2.139 -0.6891 -0.6691 -0.8071
 8234TIP3   OH224658   3.241   4.062   0.053  0.2645 -0.0073 -0.0916
 8234TIP3    H124659   3.287   4.146   0.049 -0.1578  0.2069 -0.5985
 8234TIP3    H224660   3.301   4.000   0.013  0.1326  0.2632 -0.7157
 8235TIP3   OH224661   2.133   2.078   1.076 -0.1511 -0.3273  0.7884
 8235TIP3    H124662   2.180   2.024   1.139  0.6480  0.1088  0.5807
 8235TIP3    H224663   2.086   2.016   1.021  0.8040 -0.8193  0.5133
 8236TIP3   OH224664   6.108   7.200   3.949 -0.1423 -0.0531 -0.7498
 8236TIP3    H124665   6.185   7.255   3.935  0.6969 -1.0786 -0.2716
 8236TIP3    H224666   6.109   7.137   3.876 -0.0395 -0.6018 -0.2825
 8237TIP3   OH224667   5.342   1.265   4.662 -0.3285 -0.5416  0.3502
 8237TIP3    H124668   5.264   1.304   4.701 -1.2758 -2.0513  0.0295
 8237TIP3    H224669   5.343   1.299   4.572 -0.4334 -0.2593  0.4546
 8238TIP3   OH224670   6.176   4.294   5.446 -0.1314 -0.6397 -0.9244
 8238TIP3    H124671   6.125   4.370   5.473 -1.0381 -1.8857  1.1267
 8238TIP3    H224672   6.237   4.328   5.381 -0.5035  1.8170 -0.0930
 8239TIP3   OH224673   1.460   4.539   6.116  0.3002 -0.3335 -0.0496
 8239TIP3    H124674   1.471   4.626   6.078 -0.6621 -0.9551 -1.8854
 8239TIP3    H224675   1.385   4.502   6.069  0.1363 -1.8281  1.3069
 8240TIP3   OH224676   2.714   4.385   2.782 -0.8225 -0.2023  0.2709
 8240TIP3    H124677   2.764   4.423   2.853  0.3438 -3.5296  1.4203
 8240TIP3    H224678   2.763   4.406   2.703 -0.1647  0.5205  0.8666
 8241TIP3   OH224679   3.148   4.033   1.841  0.3927  0.0852 -0.0940
 8241TIP3    H124680   3.229   3.991   1.867 -0.0018 -0.7517 -0.1867
 8241TIP3    H224681   3.080   3.987   1.890 -0.4407 -1.8553 -2.7973
 8242TIP3   OH224682   5.803   0.665   3.331  0.2259  0.3089 -0.7804
 8242TIP3    H124683   5.751   0.723   3.386 -0.9117  0.0360 -1.5290
 8242TIP3    H224684   5.785   0.694   3.242 -1.0800 -1.7155 -1.2286
 8243TIP3   OH224685   5.886   5.101   1.648  0.8707  0.4466  0.2072
 8243TIP3    H124686   5.950   5.129   1.713  0.7722 -0.1555  0.5702
 8243TIP3    H224687   5.859   5.182   1.605 -0.7596  1.1958  2.4568
 8244TIP3   OH224688   7.111   2.637   2.902 -0.0331 -0.2720 -0.6431
 8244TIP3    H124689   7.083   2.597   2.984 -0.1225 -0.4704 -0.7709
 8244TIP3    H224690   7.088   2.730   2.911 -2.9985 -0.8121 -1.6963
 8245TIP3   OH224691   1.988   3.281   5.298 -0.1586  0.0815  0.2107
 8245TIP3    H124692   2.082   3.271   5.314 -0.2047  1.0721  1.1887
 8245TIP3    H224693   1.948   3.209   5.347  0.0833 -0.3377 -0.1999
 8246TIP3   OH224694   1.055   3.033   3.894  0.1869 -0.2879 -0.3083
 8246TIP3    H124695   1.118   3.062   3.828  0.5577  0.4047  0.3336
 8246TIP3    H224696   1.039   2.941   3.873  2.3170 -0.8267  0.2071
 8247TIP3   OH224697   2.099   1.065   0.148  0.4605 -0.5035  0.1802
 8247TIP3    H124698   2.176   1.053   0.092  0.4466  0.4462 -0.0652
 8247TIP3    H224699   2.039   0.996   0.122  0.2164  0.2695 -1.4127
 8248TIP3   OH224700   5.203   2.796   1.664  0.3866 -0.1373 -0.2222
 8248TIP3    H124701   5.220   2.889   1.649 -1.6249  0.4446  0.7522
 8248TIP3    H224702   5.126   2.795   1.720  1.9206 -2.3349  2.0914
 8249TIP3   OH224703   5.801   1.706   3.145  0.0246 -0.2201  0.5959
 8249TIP3    H124704   5.892   1.737   3.142  0.2994 -0.2880  4.0610
 8249TIP3    H224705   5.751   1.770   3.096  1.8143  0.3306 -0.5896
 8250TIP3   OH224706   3.428   3.382   4.505  0.2083  0.3336 -0.3788
 8250TIP3    H124707   3.427   3.367   4.411 -1.3464  0.3362 -0.4021
 8250TIP3    H224708   3.369   3.456   4.518  0.0649  0.0634  0.6296
 8251TIP3   OH224709   7.422   3.309   0.194 -0.1190  0.3228 -0.3740
 8251TIP3    H124710   7.378   3.380   0.148  1.0107  0.0190 -2.0289
 8251TIP3    H224711   7.373   3.230   0.171  0.3009  0.2030 -0.8789
 8252TIP3   OH224712   5.016   0.571   6.429 -0.0470 -0.2615 -0.3324
 8252TIP3    H124713   4.988   0.544   6.517  0.6205 -1.5268 -0.4984
 8252TIP3    H224714   5.043   0.662   6.441 -0.9537 -0.0782  0.5436
 8253TIP3   OH224715   5.627   1.714   4.270  0.6143 -0.1562 -0.5275
 8253TIP3    H124716   5.680   1.697   4.193  1.0442 -0.7298 -0.1129
 8253TIP3    H224717   5.568   1.639   4.276  2.5783 -1.6586  1.3582
 8254TIP3   OH224718   8.034   1.555   4.544  0.2071 -0.3132  0.3395
 8254TIP3    H124719   8.059   1.502   4.469 -0.7642  1.0350 -0.9933
 8254TIP3    H224720   7.991   1.632   4.507 -0.1812  0.4825  2.2689
 8255TIP3   OH224721   4.471   7.299   2.564 -0.2882 -0.1129 -0.0891
 8255TIP3    H124722   4.400   7.263   2.510  0.4470 -2.1911  0.2548
 8255TIP3    H224723   4.538   7.325   2.501  0.2977 -1.9301 -0.2659
 8256TIP3   OH224724   2.076   3.396   5.755  0.3922 -0.2311  0.3490
 8256TIP3    H124725   1.993   3.399   5.707 -0.0545  0.0345  1.1262
 8256TIP3    H224726   2.113   3.483   5.744  0.7013 -0.4292 -0.2182
 8257TIP3   OH224727   3.376   6.013   0.968 -0.4524 -0.0682 -0.4932
 8257TIP3    H124728   3.331   6.083   0.920 -1.4571  0.2276  0.8393
 8257TIP3    H224729   3.393   5.946   0.901 -1.5085  0.4695 -1.3329
 8258TIP3   OH224730   4.403   1.404   2.802 -0.0608  0.4492 -0.1965
 8258TIP3    H124731   4.326   1.393   2.746  1.0329 -0.4957 -1.5752
 8258TIP3    H224732   4.374   1.372   2.888 -1.6286  1.4921 -0.2927
 8259TIP3   OH224733   6.099   5.072   3.180  0.2477 -0.4167 -0.7143
 8259TIP3    H124734   6.163   5.004   3.158 -0.7039 -1.5929  0.0190
 8259TIP3    H224735   6.118   5.095   3.271  1.3226  1.1941 -1.3150
 8260TIP3   OH224736   6.891   3.942   4.794  0.3955  0.8074  0.0559
 8260TIP3    H124737   6.912   4.034   4.778 -0.5576  1.0527  0.1683
 8260TIP3    H224738   6.807   3.928   4.750  0.4731  0.0228  0.1396
 8261TIP3   OH224739   1.640   3.398   4.677  0.6903 -0.3414 -0.1976
 8261TIP3    H124740   1.645   3.349   4.759  1.7326  0.4083  0.2077
 8261TIP3    H224741   1.704   3.356   4.620 -0.6864 -1.4560 -0.9929
 8262TIP3   OH224742   4.885   1.070   1.532  1.1137 -0.4630 -0.7599
 8262TIP3    H124743   4.947   1.122   1.481  0.8225 -1.2653 -1.9826
 8262TIP3    H224744   4.837   1.020   1.466  0.1341 -0.8982  0.2653
 8263TIP3   OH224745   4.812   4.712   1.073 -0.1326 -0.2157 -0.2929
 8263TIP3    H124746   4.815   4.781   1.007 -2.4673  0.1217 -0.1142
 8263TIP3    H224747   4.750   4.744   1.138  1.4380 -0.9259  1.6687
 8264TIP3   OH224748   4.808   3.328   6.585  0.0162  0.1156 -0.3868
 8264TIP3    H124749   4.761   3.329   6.502  0.4338 -2.7579 -0.7681
 8264TIP3    H224750   4.749   3.373   6.646 -2.7070 -2.0973 -1.1636
 8265TIP3   OH224751   4.139   3.550   2.693  0.1649 -0.7959  0.4173
 8265TIP3    H124752   4.065   3.517   2.743  0.1749  0.4027  1.2553
 8265TIP3    H224753   4.135   3.503   2.610  0.1993 -2.8999  1.5388
 8266TIP3   OH224754   5.095   5.218   5.963 -0.4859 -0.2700  0.2432
 8266TIP3    H124755   5.156   5.167   6.017 -1.9011 -2.3724 -0.0353
 8266TIP3    H224756   5.139   5.225   5.878  0.0010 -0.4525  0.4736
 8267TIP3   OH224757   2.382   6.258   4.018 -0.4406 -0.7039 -0.8008
 8267TIP3    H124758   2.296   6.260   4.060  0.0406  0.2418  0.1942
 8267TIP3    H224759   2.371   6.311   3.939 -0.9295 -1.1249 -1.0223
 8268TIP3   OH224760   7.088   0.460   1.657  0.5775 -0.0673 -0.1548
 8268TIP3    H124761   7.121   0.547   1.632  0.5851 -0.1814 -0.5587
 8268TIP3    H224762   7.109   0.452   1.750  0.1021  0.5749  0.0147
 8269TIP3   OH224763   4.587   1.252   0.517 -0.0355 -0.2596  0.4596
 8269TIP3    H124764   4.532   1.289   0.448  2.2391 -0.1906 -1.4114
 8269TIP3    H224765   4.641   1.324   0.547  1.6220 -1.1039 -0.3892
 8270TIP3   OH224766   0.211   1.868   4.014 -0.0530 -0.2903  0.5334
 8270TIP3    H124767   0.225   1.962   4.029  0.4872 -0.4617  1.1611
 8270TIP3    H224768   0.225   1.857   3.920 -1.0002  0.3954  0.2956
 8271TIP3   OH224769   0.372   5.421   6.581  0.3916  0.4273  0.2857
 8271TIP3    H124770   0.282   5.405   6.611  0.1008 -2.1135 -1.7093
 8271TIP3    H224771   0.401   5.495   6.635 -3.7769  3.1813 -0.7730
 8272TIP3   OH224772   5.305   3.114   2.490 -0.1112 -0.1003 -0.2517
 8272TIP3    H124773   5.354   3.096   2.570  2.5747  0.6746 -1.5889
 8272TIP3    H224774   5.296   3.028   2.448  0.5284 -0.2016 -0.1941
 8273TIP3   OH224775   1.623   4.186   3.592  0.2637 -0.4463  0.1634
 8273TIP3    H124776   1.640   4.144   3.508  0.0416  0.9114 -0.5957
 8273TIP3    H224777   1.710   4.198   3.630  0.4792 -0.0008 -0.4368
 8274TIP3   OH224778   6.947   4.765   1.465  0.4296  0.0215 -0.4061
 8274TIP3    H124779   7.012   4.833   1.486 -1.2681  2.3015 -1.9745
 8274TIP3    H224780   6.993   4.682   1.478  2.1834  1.3545  3.1405
 8275TIP3   OH224781   2.311   1.580   2.178  0.1723  0.9264  0.0809
 8275TIP3    H124782   2.343   1.529   2.252  1.5715  0.9854 -0.4426
 8275TIP3    H224783   2.274   1.659   2.217 -0.6870  0.1800  0.8079
 8276TIP3   OH224784   3.432   5.584   0.784  0.5554 -0.0720 -0.2831
 8276TIP3    H124785   3.371   5.648   0.747 -1.7060 -0.3699  2.4957
 8276TIP3    H224786   3.513   5.632   0.797 -0.0444  1.2726 -1.2718
 8277TIP3   OH224787   7.890   7.161   5.154 -0.3393 -0.5641  0.1678
 8277TIP3    H124788   7.856   7.085   5.202  0.6731 -0.1099  1.6722
 8277TIP3    H224789   7.955   7.125   5.094 -0.1850 -0.9503  0.5623
 8278TIP3   OH224790   0.446   3.180   3.382  0.0826  0.0811  0.1926
 8278TIP3    H124791   0.501   3.193   3.459 -0.9058 -0.6223  1.0500
 8278TIP3    H224792   0.488   3.230   3.313  0.1409  2.0501  1.5831
 8279TIP3   OH224793   1.639   3.960   2.586  0.2284 -0.4053 -0.5146
 8279TIP3    H124794   1.707   4.013   2.544  0.6524  0.7283  1.4781
 8279TIP3    H224795   1.565   4.020   2.596 -0.5350 -1.1909 -1.2677
 8280TIP3   OH224796   3.914   7.528   1.398  0.2571  0.0064  0.1963
 8280TIP3    H124797   3.924   7.613   1.441  0.8861 -0.1127  0.2839
 8280TIP3    H224798   3.820   7.512   1.399  0.2145  0.2859  0.9768
 8281TIP3   OH224799   6.390   6.002   5.447  0.0551 -0.4761  0.0985
 8281TIP3    H124800   6.484   6.003   5.431 -0.3552  0.3320 -2.9256
 8281TIP3    H224801   6.354   5.946   5.379 -1.6017 -1.9970  2.0977
 8282TIP3   OH224802   4.812   7.103   6.058  0.6923  0.2933  0.7941
 8282TIP3    H124803   4.813   7.159   5.980  1.2314 -2.9617 -1.8078
 8282TIP3    H224804   4.728   7.058   6.054  0.4748  0.4910  2.5107
 8283TIP3   OH224805   6.896   2.629   0.026 -0.0875  0.1688 -0.4002
 8283TIP3    H124806   6.827   2.657   0.085  0.1084  1.5038 -0.7740
 8283TIP3    H224807   6.962   2.698   0.031  0.3755 -0.1718 -1.4260
 8284TIP3   OH224808   1.762   4.221   6.351  0.1500  0.4971  0.1794
 8284TIP3    H124809   1.854   4.231   6.327  0.4849  0.4577  1.4125
 8284TIP3    H224810   1.727   4.310   6.348 -0.5630  0.2483 -3.1518
 8285TIP3   OH224811   6.647   6.285   5.556 -0.3592  0.3896  0.1449
 8285TIP3    H124812   6.665   6.221   5.625 -0.7058 -1.0500 -1.0611
 8285TIP3    H224813   6.686   6.247   5.477 -0.9203  1.4787 -0.6861
 8286TIP3   OH224814   3.101   4.316   1.352  0.2303  0.3064  0.3441
 8286TIP3    H124815   3.183   4.267   1.357  0.6385  0.9437  0.0434
 8286TIP3    H224816   3.042   4.270   1.411  0.9229  0.0688  0.8692
 8287TIP3   OH224817   5.693   6.052   0.066 -0.1385  0.1518 -0.0064
 8287TIP3    H124818   5.636   6.029   0.140 -0.8080  0.7587 -0.3281
 8287TIP3    H224819   5.713   6.144   0.079  0.7746 -0.0477  0.0889
 8288TIP3   OH224820   0.430   5.536   3.911  0.0394 -0.2502 -0.4019
 8288TIP3    H124821   0.518   5.565   3.887 -0.2166 -0.1372 -1.2339
 8288TIP3    H224822   0.438   5.441   3.918  0.2655 -0.2259 -0.2947
 8289TIP3   OH224823   6.724   4.696   1.925 -0.4906  0.6210  0.1519
 8289TIP3    H124824   6.634   4.663   1.926 -0.5741  0.8366 -0.0544
 8289TIP3    H224825   6.733   4.737   1.839 -0.4325  1.2404  0.4473
 8290TIP3   OH224826   5.873   4.530   4.662 -0.1806 -1.2302 -0.1997
 8290TIP3    H124827   5.778   4.523   4.652 -0.3113 -1.2076  0.8291
 8290TIP3    H224828   5.894   4.468   4.733  0.5163 -0.9699 -0.1676
 8291TIP3   OH224829   4.155   2.791   6.614 -0.4288  0.1916  0.5257
 8291TIP3    H124830   4.138   2.795   6.708  1.0200  1.2073  0.7755
 8291TIP3    H224831   4.187   2.879   6.591 -0.3358 -0.1675 -0.8293
 8292TIP3   OH224832   6.639   1.209   4.509  0.5313  0.0984 -0.3085
 8292TIP3    H124833   6.626   1.117   4.486  0.5372 -0.3113  1.1978
 8292TIP3    H224834   6.558   1.234   4.554  1.0921  0.3743  0.5932
 8293TIP3   OH224835   3.971   6.275   0.630 -0.3965 -0.4480  0.1204
 8293TIP3    H124836   3.889   6.306   0.668  1.3413  3.0517  1.4303
 8293TIP3    H224837   4.009   6.218   0.697 -0.7559 -0.2954  0.4547
 8294TIP3   OH224838   3.157   0.014   6.117 -0.0590 -0.4048 -0.5826
 8294TIP3    H124839   3.200  -0.069   6.135  0.8588  0.2742  0.5081
 8294TIP3    H224840   3.221   0.064   6.067 -0.2609 -0.0294 -0.4710
 8295TIP3   OH224841   6.703   4.495   1.643  0.1713  0.6199  0.3612
 8295TIP3    H124842   6.790   4.468   1.673  0.0345  0.3097  0.4881
 8295TIP3    H224843   6.708   4.590   1.637  0.8315  0.5369 -0.6064
 8296TIP3   OH224844   3.758   3.216   3.977  0.4728  0.7945  0.4378
 8296TIP3    H124845   3.754   3.303   3.938  0.6398  0.9489  0.7660
 8296TIP3    H224846   3.828   3.221   4.042 -1.3604  1.2579  2.5002
 8297TIP3   OH224847   4.653   4.336   2.241 -0.7407 -0.4926  0.0023
 8297TIP3    H124848   4.579   4.346   2.300 -0.2593 -0.0399  0.5482
 8297TIP3    H224849   4.727   4.376   2.288  0.5074 -3.3953  0.7288
 8298TIP3   OH224850   0.681   2.524   6.169  0.3223  0.2093 -0.8058
 8298TIP3    H124851   0.649   2.610   6.140  3.8377  1.9184 -0.1159
 8298TIP3    H224852   0.715   2.483   6.089 -0.1408  0.0223 -0.9103
 8299TIP3   OH224853   0.637   0.685   3.666  0.1804  0.3482  0.0873
 8299TIP3    H124854   0.722   0.708   3.702  0.4690 -0.7656  0.1583
 8299TIP3    H224855   0.596   0.631   3.734  0.1770 -0.6287 -0.6626
 8300TIP3   OH224856   5.246   0.675   0.447  0.3743 -0.1571 -0.1083
 8300TIP3    H124857   5.303   0.711   0.515 -1.0623 -0.1095  1.1136
 8300TIP3    H224858   5.157   0.694   0.477 -0.4003 -2.6895 -0.5445
 8301TIP3   OH224859   6.019   6.553   5.007 -0.0220 -0.1313  0.5677
 8301TIP3    H124860   6.089   6.509   5.054 -0.1221  0.0275  0.8667
 8301TIP3    H224861   6.021   6.514   4.919  1.1616  0.6399  0.2238
 8302TIP3   OH224862   4.265   3.090   3.106  0.0991  0.0245  0.2122
 8302TIP3    H124863   4.294   3.161   3.163 -0.2921 -1.0623  1.8299
 8302TIP3    H224864   4.334   3.082   3.041  0.6440  1.1951  0.6192
 8303TIP3   OH224865   2.734   2.611   2.857  0.3393  0.7246  0.5112
 8303TIP3    H124866   2.669   2.678   2.880  0.1235  0.7233 -0.0902
 8303TIP3    H224867   2.807   2.627   2.917 -0.5587  0.1957  1.7779
 8304TIP3   OH224868   2.733   3.032   1.231 -0.6478 -0.2973  0.5317
 8304TIP3    H124869   2.751   2.946   1.194  1.2380  1.0209 -1.8968
 8304TIP3    H224870   2.659   3.065   1.181  0.9318  0.8692 -1.1607
 8305TIP3   OH224871   7.192   4.257   6.546 -0.4597  0.1042 -0.3086
 8305TIP3    H124872   7.169   4.248   6.454  0.6146 -1.1311 -0.4936
 8305TIP3    H224873   7.112   4.236   6.594 -0.9264  0.3990 -0.9592
 8306TIP3   OH224874   1.920   5.425   5.664  0.5525  0.5197  0.1608
 8306TIP3    H124875   2.007   5.451   5.636  0.1949  0.0522 -1.4678
 8306TIP3    H224876   1.924   5.330   5.668  0.5936  0.5621  1.8033
 8307TIP3   OH224877   4.512   0.350   5.172  0.4010  0.3491  0.1060
 8307TIP3    H124878   4.517   0.265   5.127 -1.0578 -0.1660  0.8447
 8307TIP3    H224879   4.479   0.328   5.259 -2.1876  1.8563 -0.3807
 8308TIP3   OH224880   1.536   0.435   5.863 -0.8723  0.0036  0.0113
 8308TIP3    H124881   1.604   0.476   5.917 -1.4564  1.4187 -0.2859
 8308TIP3    H224882   1.460   0.491   5.873 -1.1095  0.1059 -1.9859
 8309TIP3   OH224883   1.910   7.705   1.875 -0.0795 -0.3755  0.3290
 8309TIP3    H124884   1.947   7.687   1.789 -1.0143  0.3593 -0.2498
 8309TIP3    H224885   1.958   7.783   1.906 -0.5317  0.0536 -0.0387
 8310TIP3   OH224886   6.412   0.270   6.123 -0.1151  0.6296 -0.1209
 8310TIP3    H124887   6.484   0.301   6.178 -0.0931 -1.0489  0.8873
 8310TIP3    H224888   6.333   0.308   6.163 -0.0604 -0.2479  0.8458
 8311TIP3   OH224889   7.760   4.622   6.603  0.4364 -0.0518 -0.1514
 8311TIP3    H124890   7.852   4.599   6.609  0.2923 -1.0094 -1.2695
 8311TIP3    H224891   7.749   4.653   6.513 -0.0617  1.3962  0.3700
 8312TIP3   OH224892   7.044   0.779   0.032  0.2022  0.0019  0.0300
 8312TIP3    H124893   7.073   0.742  -0.051  1.4176  2.0280 -0.5069
 8312TIP3    H224894   6.968   0.725   0.057  0.5540 -1.4054 -1.7482
 8313TIP3   OH224895   3.552   2.506   6.037 -0.7384  0.2306 -0.7239
 8313TIP3    H124896   3.638   2.466   6.051 -1.6352 -2.3003 -1.8769
 8313TIP3    H224897   3.558   2.547   5.951 -1.3316 -2.1015 -1.9606
 8314TIP3   OH224898   6.119   4.899   0.685 -0.2802  0.3036 -0.3310
 8314TIP3    H124899   6.120   4.814   0.729 -1.3538  1.3559  1.9190
 8314TIP3    H224900   6.200   4.941   0.711 -0.6673  0.7226  0.2186
 8315TIP3   OH224901   0.564   2.750   3.321 -0.9341  0.1155 -0.8037
 8315TIP3    H124902   0.587   2.692   3.393 -1.4236  2.9216  1.8228
 8315TIP3    H224903   0.647   2.793   3.299 -0.6858 -1.0582 -2.3624
 8316TIP3   OH224904   2.740   1.641   2.048  0.0736  0.4349 -0.2564
 8316TIP3    H124905   2.665   1.644   1.988 -0.8757 -2.2077  0.6542
 8316TIP3    H224906   2.706   1.679   2.129 -0.6247 -1.5133  0.4147
 8317TIP3   OH224907   6.114   5.590   2.868 -0.6071  0.2595 -0.0195
 8317TIP3    H124908   6.141   5.667   2.918  1.0764  0.3500 -1.0162
 8317TIP3    H224909   6.051   5.624   2.804 -0.8160  0.5753  0.3462
 8318TIP3   OH224910   2.292   4.716   0.877 -0.4431 -0.3758 -0.2374
 8318TIP3    H124911   2.381   4.686   0.891 -1.1716 -1.3358  3.3109
 8318TIP3    H224912   2.302   4.806   0.845  1.7515 -0.5415 -0.1511
 8319TIP3   OH224913   5.431   1.063   2.815  0.2483 -0.0043  1.0302
 8319TIP3    H124914   5.352   1.113   2.830  0.5105  0.5393  0.6271
 8319TIP3    H224915   5.500   1.110   2.862  0.3159 -0.5429  1.4883
 8320TIP3   OH224916   1.079   4.675   4.063 -0.4068  0.4821 -0.0888
 8320TIP3    H124917   1.151   4.686   4.000  1.3518 -0.7450  1.5715
 8320TIP3    H224918   1.011   4.629   4.013 -0.4271  2.3552 -1.9252
 8321TIP3   OH224919   7.052   1.140   6.173 -0.0376 -0.2239  0.3202
 8321TIP3    H124920   7.001   1.065   6.205 -0.7217 -0.2564 -0.7679
 8321TIP3    H224921   7.143   1.117   6.191 -0.1602 -1.7642 -0.8205
 8322TIP3   OH224922   3.858   0.163   1.380  0.0572  0.0820 -0.1890
 8322TIP3    H124923   3.842   0.225   1.451  1.2206 -0.7223  0.8156
 8322TIP3    H224924   3.948   0.181   1.353 -0.3396  0.3110 -1.4111
 8323TIP3   OH224925   4.955   5.992   6.093  0.0431 -0.2267  0.6327
 8323TIP3    H124926   4.863   6.011   6.109 -0.3786  0.4976 -2.1198
 8323TIP3    H224927   4.956   5.903   6.059  0.3576 -0.2335  0.6543
 8324TIP3   OH224928   6.914   2.457   2.062 -0.1518 -0.0335 -0.1518
 8324TIP3    H124929   6.985   2.489   2.118  0.1347  1.7557 -1.4422
 8324TIP3    H224930   6.958   2.411   1.991 -0.3440  0.2235 -0.4374
 8325TIP3   OH224931   2.654   7.167   4.655 -0.0173 -0.3028  0.3407
 8325TIP3    H124932   2.644   7.154   4.561 -0.6547  0.1766  0.3386
 8325TIP3    H224933   2.598   7.241   4.675 -0.0894 -0.5698  1.1474
 8326TIP3   OH224934   7.620   0.797   1.412  0.0517  0.2137 -0.0826
 8326TIP3    H124935   7.553   0.852   1.453 -0.2338  0.1425 -0.4558
 8326TIP3    H224936   7.584   0.708   1.417  0.7084 -0.0159  0.9320
 8327TIP3   OH224937   7.940   2.644   3.713  0.4457  0.6248  0.3286
 8327TIP3    H124938   7.933   2.554   3.744 -0.0944  0.6424  0.2656
 8327TIP3    H224939   7.873   2.651   3.646  0.7113  0.9809  0.0977
 8328TIP3   OH224940   7.179   3.731   1.384  0.0368 -0.7945 -0.4783
 8328TIP3    H124941   7.228   3.651   1.361  0.8680 -0.0901 -1.2475
 8328TIP3    H224942   7.222   3.800   1.333 -1.2779 -0.0131 -0.5608
 8329TIP3   OH224943   0.414   1.350   4.805  0.1661  0.5341 -0.3684
 8329TIP3    H124944   0.485   1.411   4.826  0.4942  1.1538 -2.9678
 8329TIP3    H224945   0.455   1.285   4.747 -0.8181 -0.6437  0.2148
 8330TIP3   OH224946   1.974   5.463   5.259  0.3632  0.2793 -0.0804
 8330TIP3    H124947   1.980   5.382   5.309 -1.4308  0.4971  0.5589
 8330TIP3    H224948   1.971   5.436   5.168  0.7308 -0.3018  0.0777
 8331TIP3   OH224949   7.515   6.024   2.669  0.2770 -0.3764  0.0514
 8331TIP3    H124950   7.422   6.010   2.684  0.1950 -0.4504 -0.5176
 8331TIP3    H224951   7.524   6.118   2.653  0.1455 -0.5176 -0.9274
 8332TIP3   OH224952   4.782   2.376   2.652  0.6580 -0.1105 -0.1016
 8332TIP3    H124953   4.794   2.291   2.610  1.9081 -0.2016  0.3818
 8332TIP3    H224954   4.788   2.357   2.745 -1.3988  0.1930  0.1411
 8333TIP3   OH224955   1.273   6.067   1.416  0.5269 -0.0425 -0.0181
 8333TIP3    H124956   1.274   6.050   1.510  2.2187 -0.0097  0.0031
 8333TIP3    H224957   1.287   6.161   1.408  0.5403 -0.0670 -0.3015
 8334TIP3   OH224958   7.428   7.597   4.170 -0.1840 -0.1753 -0.2331
 8334TIP3    H124959   7.471   7.529   4.118  0.7854  0.6753 -0.5670
 8334TIP3    H224960   7.481   7.604   4.248 -0.3631  0.1138 -0.1367
 8335TIP3   OH224961   6.033   1.084   2.822  0.1394 -0.4224 -0.6281
 8335TIP3    H124962   6.002   1.077   2.912  0.4895  1.3331 -0.3383
 8335TIP3    H224963   6.053   0.994   2.796  0.0279 -0.9518  1.0411
 8336TIP3   OH224964   1.306   2.982   6.689  0.0443 -0.3491 -0.3303
 8336TIP3    H124965   1.318   2.887   6.692 -2.1530 -0.6520  1.0085
 8336TIP3    H224966   1.369   3.012   6.623 -0.2594 -2.8965 -1.9153
 8337TIP3   OH224967   0.938   0.330   4.280 -0.3585 -0.0164 -0.4624
 8337TIP3    H124968   1.018   0.331   4.228 -1.2538 -1.7518 -2.0013
 8337TIP3    H224969   0.892   0.410   4.253  0.8293  1.0193  0.4762
 8338TIP3   OH224970   4.852   0.330   3.486 -0.4390 -0.6241 -0.4080
 8338TIP3    H124971   4.914   0.282   3.541  0.3638 -1.8294 -2.2534
 8338TIP3    H224972   4.774   0.339   3.540  1.3000  0.9744  2.0033
 8339TIP3   OH224973   5.744   2.251   0.697  0.3040  0.5492  0.1727
 8339TIP3    H124974   5.794   2.185   0.746 -1.2870 -0.8346  0.0516
 8339TIP3    H224975   5.785   2.253   0.611  1.2233  0.7501  0.5970
 8340TIP3   OH224976   1.509   6.035   0.397  0.7195 -0.3760  0.7405
 8340TIP3    H124977   1.416   6.018   0.409  0.6065  0.7897  1.7985
 8340TIP3    H224978   1.513   6.121   0.355  1.3117 -1.0157 -0.5584
 8341TIP3   OH224979   0.207   0.686   4.830  0.0412  0.1522  0.1711
 8341TIP3    H124980   0.247   0.603   4.855 -0.4005  0.2077  1.1161
 8341TIP3    H224981   0.277   0.751   4.838 -0.0203  0.1230  1.0407
 8342TIP3   OH224982   3.211   6.900   5.485  0.1380 -0.7228 -0.2436
 8342TIP3    H124983   3.306   6.907   5.491  0.3082 -1.2266 -1.7518
 8342TIP3    H224984   3.185   6.974   5.431 -0.2644 -0.8808 -0.2716
 8343TIP3   OH224985   0.051   5.937   6.162 -0.0905 -0.3661 -0.0175
 8343TIP3    H124986   0.001   5.944   6.081 -0.3933  0.7342  0.2529
 8343TIP3    H224987   0.142   5.954   6.136 -0.0589 -0.8973 -0.2653
 8344TIP3   OH224988   3.172   1.953   0.722 -0.0271 -0.1402  0.5117
 8344TIP3    H124989   3.107   1.942   0.791  0.7534  1.1786  1.5042
 8344TIP3    H224990   3.219   2.033   0.746  0.9023 -0.1844 -1.0382
 8345TIP3   OH224991   1.694   7.276   4.379 -0.2842 -0.1736 -0.0589
 8345TIP3    H124992   1.626   7.223   4.337 -1.0099  0.2202  0.5954
 8345TIP3    H224993   1.693   7.359   4.330 -0.8721  0.1451  0.4679
 8346TIP3   OH224994   6.514   2.248   2.568 -0.3211  0.2071 -0.0887
 8346TIP3    H124995   6.454   2.187   2.610  0.0833  0.2475  0.5617
 8346TIP3    H224996   6.479   2.335   2.588 -0.8809  0.2016 -0.9899
 8347TIP3   OH224997   4.982   1.929   3.166  0.0705  0.1874  0.1945
 8347TIP3    H124998   4.920   1.880   3.220  2.2347 -0.4712  2.2448
 8347TIP3    H224999   4.945   1.926   3.078 -1.5468 -2.2584  0.8741
 8348TIP3   OH225000   5.689   7.307   3.518 -0.1033 -0.8710 -0.4388
 8348TIP3    H125001   5.696   7.275   3.428  1.4860 -0.9989 -0.3000
 8348TIP3    H225002   5.645   7.237   3.566 -0.7519 -0.8966 -1.0588
 8349TIP3   OH225003   0.912   3.779   6.069 -0.3944  0.4152 -0.4685
 8349TIP3    H125004   0.939   3.827   5.990 -0.0990 -0.0086 -0.6330
 8349TIP3    H225005   0.883   3.694   6.036 -0.2405  0.2230 -0.1194
 8350TIP3   OH225006   0.357   1.272   5.180 -0.4626  0.2853  0.2731
 8350TIP3    H125007   0.404   1.354   5.199 -0.4721  0.3245  0.1285
 8350TIP3    H225008   0.298   1.295   5.108 -1.4879  0.5225  1.1565
 8351TIP3   OH225009   2.895   5.277   2.336  0.2959 -0.4409  0.5491
 8351TIP3    H125010   2.960   5.268   2.266  0.2992  0.3441  0.4431
 8351TIP3    H225011   2.947   5.291   2.415  0.2739 -0.7918  0.6306
 8352TIP3   OH225012   2.008   3.251   1.582 -0.1485 -0.1361 -0.3604
 8352TIP3    H125013   2.068   3.297   1.641  0.8757 -1.6661 -0.1566
 8352TIP3    H225014   1.928   3.240   1.633  0.6294 -1.1988  0.6995
 8353TIP3   OH225015   3.738   6.128   1.697  0.4179  0.6587 -0.8324
 8353TIP3    H125016   3.801   6.195   1.670  0.5383  0.6187 -0.6576
 8353TIP3    H225017   3.693   6.103   1.617  2.2611 -1.0326 -1.4023
 8354TIP3   OH225018   4.589   1.240   3.154 -0.7457  0.5859  0.2427
 8354TIP3    H125019   4.576   1.278   3.241 -0.9735 -1.8658  1.3528
 8354TIP3    H225020   4.683   1.249   3.139 -0.3731 -0.6333  1.6076
 8355TIP3   OH225021   4.281   7.452   4.026  0.7751 -0.2913 -0.5327
 8355TIP3    H125022   4.197   7.497   4.018 -0.6281 -2.4108  1.2058
 8355TIP3    H225023   4.346   7.523   4.025 -1.1703  1.6147  0.1250
 8356TIP3   OH225024   7.459   2.141   0.884  0.1339 -0.4039 -0.2341
 8356TIP3    H125025   7.424   2.081   0.950 -0.9588  0.9731  0.5075
 8356TIP3    H225026   7.424   2.109   0.801 -0.4545 -0.7695  0.1497
 8357TIP3   OH225027   1.305   5.493   6.543  0.3084 -0.0246 -0.8409
 8357TIP3    H125028   1.398   5.480   6.562  0.2784 -0.8746 -1.2543
 8357TIP3    H225029   1.259   5.448   6.614  0.1875  1.2968 -0.0316
 8358TIP3   OH225030   5.365   0.230   0.651  0.4951  0.4313 -0.5741
 8358TIP3    H125031   5.422   0.162   0.689  0.6966  1.3470  0.8430
 8358TIP3    H225032   5.329   0.190   0.573  2.1799 -0.6056 -0.8747
 8359TIP3   OH225033   1.347   6.759   2.285 -0.1980  0.2695  0.5088
 8359TIP3    H125034   1.393   6.770   2.369 -3.5064  0.1486  2.5218
 8359TIP3    H225035   1.293   6.838   2.276 -0.6437 -0.1752 -1.0141
 8360TIP3   OH225036   1.634   1.528   5.622  0.3995 -0.0661 -0.1763
 8360TIP3    H125037   1.566   1.577   5.669 -0.8113 -1.3272 -0.5345
 8360TIP3    H225038   1.694   1.499   5.690  0.3441  0.6993  0.2061
 8361TIP3   OH225039   6.714   2.852   5.131  0.2021  0.7416 -0.3273
 8361TIP3    H125040   6.714   2.768   5.177 -1.0343  1.0070  0.1673
 8361TIP3    H225041   6.625   2.862   5.098  0.3752  1.8028 -0.5052
 8362TIP3   OH225042   4.028   0.868   2.625 -0.0923 -0.5495 -0.6135
 8362TIP3    H125043   4.117   0.903   2.613 -0.6346  0.8860 -0.6239
 8362TIP3    H225044   4.038   0.797   2.688  0.6908  1.4381  1.6266
 8363TIP3   OH225045   5.779   2.398   3.218  0.2852 -0.1400  0.3424
 8363TIP3    H125046   5.872   2.381   3.236  0.3177 -0.6019 -0.2256
 8363TIP3    H225047   5.744   2.429   3.302  1.1006  0.7061  0.3859
 8364TIP3   OH225048   1.141   5.996   3.304 -0.5450 -0.2890  0.1258
 8364TIP3    H125049   1.084   6.072   3.318 -0.3660 -0.2623  0.7316
 8364TIP3    H225050   1.120   5.937   3.376  0.8873  0.1438  0.9300
 8365TIP3   OH225051   5.551   0.551   1.944  0.2680  0.7032  0.3911
 8365TIP3    H125052   5.473   0.500   1.926  1.0914 -0.2964 -0.4844
 8365TIP3    H225053   5.519   0.636   1.975 -1.1432  0.3189  0.0161
 8366TIP3   OH225054   3.284   6.809   5.055 -0.3727 -0.2989 -0.4443
 8366TIP3    H125055   3.238   6.751   5.116 -0.1394  0.2122  0.2137
 8366TIP3    H225056   3.215   6.837   4.994 -0.5722 -0.9270 -0.5238
 8367TIP3   OH225057   3.315   3.227   6.268 -0.5775  0.3458 -0.6405
 8367TIP3    H125058   3.280   3.138   6.278 -1.2672  0.4561 -1.9124
 8367TIP3    H225059   3.272   3.278   6.336  0.0351 -0.3293  0.2894
 8368TIP3   OH225060   0.573   4.950   6.657  0.3632 -0.1920  0.2447
 8368TIP3    H125061   0.518   4.954   6.736 -0.7436 -0.8067 -0.4709
 8368TIP3    H225062   0.594   5.042   6.638 -0.1956  0.0348  0.6762
 8369TIP3   OH225063   3.061   0.557   6.439  0.4956 -0.0878  0.4041
 8369TIP3    H125064   3.133   0.620   6.437  0.9580 -0.5743  1.0549
 8369TIP3    H225065   3.039   0.549   6.531 -0.0057 -0.3855  0.2612
 8370TIP3   OH225066   6.059   4.370   1.287  0.1349  0.1630 -0.0894
 8370TIP3    H125067   5.983   4.417   1.321  0.2824  1.8802 -1.9549
 8370TIP3    H225068   6.109   4.345   1.365 -2.0534 -0.5877  1.1444
 8371TIP3   OH225069   6.095   1.887   2.452 -0.5643  0.3519 -0.5081
 8371TIP3    H125070   6.107   1.953   2.384 -0.5593  1.1013  0.2006
 8371TIP3    H225071   6.086   1.805   2.404 -1.0584  0.9230 -1.4333
 8372TIP3   OH225072   4.003   5.656   3.334 -0.0501  0.2883  0.4204
 8372TIP3    H125073   4.079   5.606   3.362  0.5103  0.8330 -0.0953
 8372TIP3    H225074   3.943   5.652   3.408 -0.7779 -2.5665 -0.1724
 8373TIP3   OH225075   0.614   3.242   2.189 -0.2899  0.2544  0.2679
 8373TIP3    H125076   0.643   3.185   2.261 -0.4359  0.4946  0.5186
 8373TIP3    H225077   0.672   3.318   2.194  0.1228 -0.0125 -0.2753
 8374TIP3   OH225078   0.464   0.104   0.689 -0.0228  0.2171  0.4080
 8374TIP3    H125079   0.437   0.017   0.661  1.1507 -0.1626  0.3733
 8374TIP3    H225080   0.425   0.115   0.776 -1.4651  0.3123 -0.2331
 8375TIP3   OH225081   2.945   1.844   0.383  0.2329  0.2675 -0.7062
 8375TIP3    H125082   2.939   1.919   0.442 -1.0322 -0.3609  0.0060
 8375TIP3    H225083   3.034   1.847   0.349  0.4005  1.7098 -0.1850
 8376TIP3   OH225084   5.373   4.415   3.816  0.6086 -0.1848  0.1663
 8376TIP3    H125085   5.440   4.347   3.830  1.5714  0.8969  1.0826
 8376TIP3    H225086   5.401   4.487   3.873 -0.7499  0.7257 -0.2853
 8377TIP3   OH225087   1.632   3.964   6.079 -0.3650  0.4122 -0.4625
 8377TIP3    H125088   1.669   3.915   6.005  0.6159  1.1794 -0.5082
 8377TIP3    H225089   1.663   3.917   6.156  1.8605  1.7419 -0.4575
 8378TIP3   OH225090   2.693   1.396   5.558 -0.4512 -0.0429  1.1939
 8378TIP3    H125091   2.742   1.314   5.561  0.1173  0.1945 -0.4309
 8378TIP3    H225092   2.602   1.369   5.541  0.0969 -0.3430 -1.8746
 8379TIP3   OH225093   1.261   7.471   3.826  0.2422 -0.2592  0.0209
 8379TIP3    H125094   1.333   7.530   3.847  0.0252 -0.1398  0.4439
 8379TIP3    H225095   1.300   7.404   3.770  0.2951  0.7690 -1.1872
 8380TIP3   OH225096   1.811   0.028   4.268  0.3821 -0.1962 -0.1050
 8380TIP3    H125097   1.747   0.057   4.334 -0.1806 -1.1329 -0.2168
 8380TIP3    H225098   1.793  -0.065   4.257  2.5141 -0.7461  0.6645
 8381TIP3   OH225099   0.976   7.588   0.514  0.2947  0.1102  0.2674
 8381TIP3    H125100   0.953   7.550   0.430  0.2346 -1.8989  1.1308
 8381TIP3    H225101   0.919   7.664   0.523  0.9596  0.9350 -1.8778
 8382TIP3   OH225102   1.799   7.337   1.484 -0.4014  0.0776 -0.0706
 8382TIP3    H125103   1.827   7.383   1.563 -0.0336  0.9820 -0.7150
 8382TIP3    H225104   1.847   7.379   1.413 -2.3191  0.7772 -1.0531
 8383TIP3   OH225105   1.173   4.111   0.686  0.2854 -0.6940  1.0336
 8383TIP3    H125106   1.208   4.064   0.762  0.8443  1.5105  2.2566
 8383TIP3    H225107   1.214   4.198   0.691 -1.3313  0.2388 -0.5628
 8384TIP3   OH225108   8.253   2.489   1.471  0.1497  0.2194  0.1997
 8384TIP3    H125109   8.276   2.545   1.545  1.4382 -0.2989  0.2237
 8384TIP3    H225110   8.185   2.430   1.505 -0.7283  1.3064  0.3655
 8385TIP3   OH225111   3.756   6.087   6.188  0.3667 -0.4925  0.1226
 8385TIP3    H125112   3.778   6.179   6.180 -0.7431  0.0571  2.5608
 8385TIP3    H225113   3.835   6.046   6.224  0.8778 -0.5525 -1.0142
 8386TIP3   OH225114   7.454   1.035   1.741 -0.1254  0.3761 -0.0389
 8386TIP3    H125115   7.432   0.961   1.797 -1.5244  0.8975  0.1355
 8386TIP3    H225116   7.449   1.000   1.652 -0.3676  0.1546  0.0613
 8387TIP3   OH225117   1.668   1.311   6.559  0.0213 -0.5693 -0.2152
 8387TIP3    H125118   1.687   1.227   6.601  1.6459 -0.3992 -0.5489
 8387TIP3    H225119   1.730   1.316   6.486  0.6103  1.3237  0.3635
 8388TIP3   OH225120   8.301   7.427   5.279  0.2758 -0.1368 -0.1087
 8388TIP3    H125121   8.217   7.383   5.281 -0.5467  1.3107 -1.0050
 8388TIP3    H225122   8.319   7.449   5.371 -1.0032  0.7174 -0.0341
 8389TIP3   OH225123   1.521   3.647   6.371 -0.2526 -0.4012  0.2851
 8389TIP3    H125124   1.607   3.612   6.349 -0.0930  0.7673 -1.1528
 8389TIP3    H225125   1.521   3.652   6.466  1.4422 -0.0506  0.3048
 8390TIP3   OH225126   3.925   0.501   2.116  0.1874 -0.2572  0.4795
 8390TIP3    H125127   3.918   0.452   2.034 -2.7259  0.4741  0.1960
 8390TIP3    H225128   3.984   0.574   2.096 -0.2786 -0.2383 -0.9129
 8391TIP3   OH225129   4.073   7.201   2.206 -0.6552 -0.4436 -0.1547
 8391TIP3    H125130   4.073   7.179   2.112  0.2200 -0.1784 -0.2175
 8391TIP3    H225131   4.010   7.273   2.213  0.5035  0.6742 -0.8186
 8392TIP3   OH225132   7.499   4.846   1.253 -0.6038  0.4035 -0.2663
 8392TIP3    H125133   7.594   4.836   1.254 -0.6553 -0.1127  0.2455
 8392TIP3    H225134   7.481   4.904   1.178  0.0009 -0.6448 -1.2513
 8393TIP3   OH225135   7.241   3.540   6.515  0.3186 -0.4173  0.5316
 8393TIP3    H125136   7.303   3.576   6.578  0.9721 -0.9486  0.2045
 8393TIP3    H225137   7.283   3.460   6.484 -0.0370 -0.2195 -0.4963
 8394TIP3   OH225138   5.973   5.673   5.622  0.1140  0.4878 -0.8285
 8394TIP3    H125139   5.960   5.578   5.623 -1.1611  0.5961 -2.4769
 8394TIP3    H225140   5.932   5.703   5.703  2.2099 -0.4947  0.6850
 8395TIP3   OH225141   2.290   7.304   4.466  0.0275  0.1130  0.2141
 8395TIP3    H125142   2.218   7.273   4.411 -0.4888 -0.6693  1.2980
 8395TIP3    H225143   2.356   7.335   4.404 -1.2467  0.8717 -0.8080
 8396TIP3   OH225144   4.443   1.794   0.334  0.1058 -0.5548 -0.0370
 8396TIP3    H125145   4.470   1.706   0.308  2.4145 -0.1118  0.6492
 8396TIP3    H225146   4.366   1.780   0.389 -0.5978 -1.9910 -1.3209
 8397TIP3   OH225147   5.535   1.357   1.022 -0.2678  0.7310  0.2655
 8397TIP3    H125148   5.540   1.278   1.075 -1.4443  0.8899  0.6463
 8397TIP3    H225149   5.624   1.370   0.989 -0.6118 -2.6759 -2.6296
 8398TIP3   OH225150   6.322   0.360   6.609  0.0549  0.2341  0.3584
 8398TIP3    H125151   6.379   0.423   6.565 -0.3009  0.9524  0.9088
 8398TIP3    H225152   6.237   0.402   6.612 -0.6804 -1.0692 -0.9745
 8399TIP3   OH225153   7.667   1.000   5.672  0.4005 -0.0735 -0.2857
 8399TIP3    H125154   7.753   1.031   5.643  1.8085 -3.0989  0.2486
 8399TIP3    H225155   7.681   0.907   5.692 -3.1859 -0.8847 -0.9022
 8400TIP3   OH225156   2.082   1.845   1.577 -0.3923  0.3364  0.3236
 8400TIP3    H125157   2.132   1.923   1.555  0.6930 -0.5429 -0.4336
 8400TIP3    H225158   2.058   1.857   1.669  0.3787  1.2241  0.4217
 8401TIP3   OH225159   2.323   2.482   5.145 -0.0880 -0.4167  0.2931
 8401TIP3    H125160   2.262   2.416   5.112  0.0273 -0.9124  1.0369
 8401TIP3    H225161   2.267   2.550   5.182 -0.2038 -0.2601 -0.1653
 8402TIP3   OH225162   0.888   1.614   5.257 -0.0141 -0.0108  0.0053
 8402TIP3    H125163   0.884   1.536   5.202 -2.2492 -1.0269  1.4890
 8402TIP3    H225164   0.960   1.598   5.318 -0.5815 -1.0436  0.4248
 8403TIP3   OH225165   1.799   6.819   6.399  0.2551 -0.1511 -0.4691
 8403TIP3    H125166   1.708   6.849   6.393 -0.6283 -2.2686  1.1382
 8403TIP3    H225167   1.828   6.847   6.485  0.8461 -0.2662 -0.6273
 8404TIP3   OH225168   4.680   0.929   3.569  0.2094  0.3639 -0.5509
 8404TIP3    H125169   4.585   0.926   3.582  0.2557 -0.8554 -0.4471
 8404TIP3    H225170   4.691   0.978   3.487 -0.4119  1.9480  0.2737
 8405TIP3   OH225171   0.888   2.554   4.574 -0.2560  0.3738 -0.5331
 8405TIP3    H125172   0.939   2.489   4.620 -0.4670  0.0440 -0.7584
 8405TIP3    H225173   0.805   2.511   4.555 -0.3332  0.6464 -0.8394
 8406TIP3   OH225174   3.253   4.231   4.598 -0.7559  0.2922  0.3052
 8406TIP3    H125175   3.291   4.225   4.685 -2.1571 -2.8692  0.8233
 8406TIP3    H225176   3.322   4.198   4.540 -0.2746  1.2261  0.3205
 8407TIP3   OH225177   7.170   1.608   0.402 -0.1880 -0.3969  0.0244
 8407TIP3    H125178   7.217   1.565   0.474  2.9233  1.9957 -0.3503
 8407TIP3    H225179   7.155   1.539   0.338  2.6282 -1.4511  0.3667
 8408TIP3   OH225180   6.574   1.881   3.082 -0.0721 -0.6466  0.2574
 8408TIP3    H125181   6.633   1.882   3.158 -0.2865 -1.9909  0.4683
 8408TIP3    H225182   6.631   1.901   3.007  0.5850 -1.4894  0.5174
 8409TIP3   OH225183   7.238   5.494   5.487 -0.3762  0.0710  0.2300
 8409TIP3    H125184   7.206   5.499   5.577 -0.5846 -0.3420  0.1829
 8409TIP3    H225185   7.331   5.474   5.496  0.0058  1.7487  0.3787
 8410TIP3   OH225186   5.520   5.304   2.177  0.2910  0.0481 -0.0291
 8410TIP3    H125187   5.516   5.209   2.185 -0.3079  0.0123 -0.6732
 8410TIP3    H225188   5.498   5.337   2.264 -2.5908 -0.3712 -0.5222
 8411TIP3   OH225189   0.055   4.234   5.289 -0.5536  0.6950 -0.7775
 8411TIP3    H125190   0.106   4.266   5.364 -0.3965  1.0599 -1.0357
 8411TIP3    H225191  -0.034   4.224   5.324 -0.5199  1.0395 -0.5861
 8412TIP3   OH225192   4.912   5.825   3.012 -0.1783  0.2674  0.4871
 8412TIP3    H125193   5.007   5.837   3.008 -0.0711 -0.7081 -0.7289
 8412TIP3    H225194   4.876   5.913   3.009  0.6621  0.5906 -0.7366
 8413TIP3   OH225195   3.715   7.334   0.845  0.0044  0.3361 -0.3192
 8413TIP3    H125196   3.691   7.392   0.917 -2.3645  1.0771 -1.6075
 8413TIP3    H225197   3.727   7.248   0.887 -0.7302  0.8728  1.0620
 8414TIP3   OH225198   6.294   2.248   0.684  0.2536  0.3151 -0.1396
 8414TIP3    H125199   6.307   2.335   0.647  1.4065  0.1570 -0.1182
 8414TIP3    H225200   6.351   2.191   0.632 -2.5731 -0.9747 -2.1076
 8415TIP3   OH225201   7.441   2.791   3.729  0.4702  0.7455  0.0428
 8415TIP3    H125202   7.529   2.811   3.761  1.2550 -0.7490 -1.0565
 8415TIP3    H225203   7.456   2.740   3.650 -1.4038  0.5589 -0.2239
 8416TIP3   OH225204   6.344   2.097   2.709 -0.3903  0.2817 -0.0631
 8416TIP3    H125205   6.250   2.086   2.697 -0.7168  1.0999  1.3998
 8416TIP3    H225206   6.367   2.035   2.778 -0.0559  0.7567  0.2590
 8417TIP3   OH225207   4.711   4.178   5.680  0.1058 -0.1640  0.0330
 8417TIP3    H125208   4.711   4.106   5.744 -1.3453 -1.1249 -0.9651
 8417TIP3    H225209   4.798   4.175   5.641  0.4890 -0.5605  0.8791
 8418TIP3   OH225210   6.822   2.456   3.206 -0.0176 -0.7021 -0.3069
 8418TIP3    H125211   6.785   2.368   3.210 -1.4271 -0.1645 -0.9157
 8418TIP3    H225212   6.775   2.499   3.135 -2.4744  1.9055  2.6229
 8419TIP3   OH225213   2.581   2.659   4.984 -0.2859 -0.5045  0.4134
 8419TIP3    H125214   2.509   2.670   5.047  0.5867 -0.2702  1.3860
 8419TIP3    H225215   2.544   2.602   4.916 -2.5641  2.3118 -0.9495
 8420TIP3   OH225216   6.565   3.053   1.716  0.9761 -0.1036 -0.6314
 8420TIP3    H125217   6.646   3.012   1.746  1.2267  0.3500 -0.6888
 8420TIP3    H225218   6.499   2.984   1.726  1.5200 -0.7575 -1.3728
 8421TIP3   OH225219   7.081   4.850   3.010  0.0003  0.2135 -0.0062
 8421TIP3    H125220   7.100   4.809   3.095  1.8220  1.1285  0.0694
 8421TIP3    H225221   7.053   4.778   2.954  0.9612 -0.7840  0.7527
 8422TIP3   OH225222   0.986   6.182   1.017  0.0281  0.5153 -0.1101
 8422TIP3    H125223   1.080   6.197   1.019  0.0307  0.7619 -1.1398
 8422TIP3    H225224   0.976   6.093   0.983 -0.0866 -0.3841  2.0975
 8423TIP3   OH225225   2.513   1.637   0.896  0.3314  0.0358 -0.4022
 8423TIP3    H125226   2.495   1.655   0.803  0.1502  1.3484 -0.1313
 8423TIP3    H225227   2.507   1.723   0.939  0.5590 -0.5303  0.8055
 8424TIP3   OH225228   6.507   7.112   4.961 -0.2708 -0.0945 -0.2462
 8424TIP3    H125229   6.435   7.173   4.974 -0.1629 -0.1810  0.8555
 8424TIP3    H225230   6.577   7.144   5.018  0.0414 -0.8292 -0.2046
 8425TIP3   OH225231   5.441   0.914   1.007 -0.3930 -0.3447  0.4394
 8425TIP3    H125232   5.451   0.919   0.912  1.1278 -2.1144  0.4486
 8425TIP3    H225233   5.384   0.839   1.021  0.0612 -0.6037  0.9293
 8426TIP3   OH225234   8.190   5.726   2.459 -0.5920  1.0569 -0.3998
 8426TIP3    H125235   8.142   5.718   2.376 -3.0862  1.2600  0.9217
 8426TIP3    H225236   8.252   5.798   2.444 -1.1211  1.2103 -2.0236
 8427TIP3   OH225237   0.965   5.649   3.014  1.1651 -0.4366 -0.6628
 8427TIP3    H125238   1.053   5.671   3.045  0.6851  0.0695  0.4002
 8427TIP3    H225239   0.907   5.707   3.064  0.2231 -0.7896 -1.3198
 8428TIP3   OH225240   3.351   5.863   2.020  0.7244  0.3845  0.3858
 8428TIP3    H125241   3.440   5.892   2.039  0.6004 -0.5025  2.6196
 8428TIP3    H225242   3.298   5.943   2.025  1.1991  0.6956  0.4632
 8429TIP3   OH225243   0.585   1.445   2.386 -0.0695  0.0352  0.1927
 8429TIP3    H125244   0.493   1.453   2.360 -0.8182 -0.4948  2.4607
 8429TIP3    H225245   0.632   1.500   2.324 -2.2044  2.4360  0.5253
 8430TIP3   OH225246   7.520   5.969   3.988  0.3187 -0.1118  0.3041
 8430TIP3    H125247   7.565   5.946   3.907 -0.0851 -0.3940  0.1524
 8430TIP3    H225248   7.450   6.028   3.961  0.0526 -0.3699  0.4129
 8431TIP3   OH225249   1.175   2.489   5.355 -0.4859 -0.2169 -0.1148
 8431TIP3    H125250   1.143   2.419   5.298  1.2049 -0.1801 -1.1829
 8431TIP3    H225251   1.154   2.569   5.308  0.0293 -0.1431 -0.2262
 8432TIP3   OH225252   4.825   6.001   2.357  0.2481 -0.6994 -0.4480
 8432TIP3    H125253   4.804   6.079   2.305  0.9837 -0.1209  0.0930
 8432TIP3    H225254   4.863   6.036   2.437  0.4083 -1.6220 -0.1118
 8433TIP3   OH225255   6.354   0.784   3.351  0.4247  0.0920 -0.4724
 8433TIP3    H125256   6.289   0.714   3.362  0.8588 -0.0298  1.7209
 8433TIP3    H225257   6.429   0.740   3.311  0.3378 -0.4755 -0.0290
 8434TIP3   OH225258   2.903   5.947   0.547 -0.4632 -0.0056 -0.2226
 8434TIP3    H125259   2.808   5.937   0.548 -0.3644 -1.4748 -1.8216
 8434TIP3    H225260   2.928   5.937   0.455  1.2636  0.1890  0.1791
 8435TIP3   OH225261   4.825   0.201   3.111 -0.3613 -0.4069 -0.7967
 8435TIP3    H125262   4.763   0.259   3.154 -1.6123 -0.6287 -2.2321
 8435TIP3    H225263   4.872   0.158   3.183 -1.6675 -0.0320  0.3203
 8436TIP3   OH225264   5.250   3.871   4.582  0.6904  0.0898  0.2114
 8436TIP3    H125265   5.291   3.873   4.668 -0.4200  2.1233  0.7779
 8436TIP3    H225266   5.318   3.899   4.522  1.1288 -0.0905  0.6213
 8437TIP3   OH225267   4.424   4.022   6.294 -0.0382 -0.5606  0.0595
 8437TIP3    H125268   4.488   3.965   6.336  0.5278 -0.4312 -0.6081
 8437TIP3    H225269   4.351   3.964   6.271  0.3800 -0.9481 -0.2970
 8438TIP3   OH225270   4.402   2.568   3.158 -0.4225 -0.3957  0.3804
 8438TIP3    H125271   4.309   2.576   3.177 -0.3738  0.2047  0.3785
 8438TIP3    H225272   4.405   2.530   3.070 -0.6485 -2.0876  1.0757
 8439TIP3   OH225273   3.574   3.770   0.831 -0.3254  0.1197 -0.1613
 8439TIP3    H125274   3.566   3.722   0.749  0.6104 -1.9146  0.8466
 8439TIP3    H225275   3.660   3.744   0.865 -0.0858  2.0095  0.7986
 8440TIP3   OH225276   0.736   0.669   6.182 -0.3128  0.6715  0.0506
 8440TIP3    H125277   0.665   0.669   6.246  0.0136  1.0330  0.4146
 8440TIP3    H225278   0.718   0.744   6.126 -0.2320  0.7471  0.1262
 8441TIP3   OH225279   2.818   6.863   0.102 -0.3157 -0.1126  0.1403
 8441TIP3    H125280   2.727   6.848   0.076  0.0289  0.5141 -1.5360
 8441TIP3    H225281   2.869   6.841   0.024  0.7864  1.8624  0.2502
 8442TIP3   OH225282   4.709   1.899   4.409 -0.9269  0.7334  0.1406
 8442TIP3    H125283   4.694   1.988   4.379 -0.4828  0.4561 -0.9961
 8442TIP3    H225284   4.692   1.845   4.331 -1.1901 -0.1652  0.8107
 8443TIP3   OH225285   5.840   7.815   1.532 -0.0320 -0.2502  0.6831
 8443TIP3    H125286   5.815   7.905   1.555  0.0371  0.1249 -0.6626
 8443TIP3    H225287   5.877   7.780   1.613  0.3015  1.0603  1.1240
 8444TIP3   OH225288   6.570   7.605   2.082 -0.3106  0.1330  0.3789
 8444TIP3    H125289   6.542   7.558   2.003 -1.6120  0.0486  0.8656
 8444TIP3    H225290   6.625   7.675   2.049 -0.9789  0.2086 -0.6390
 8445TIP3   OH225291   3.456   3.482   5.376 -0.3093  0.1390 -0.1604
 8445TIP3    H125292   3.506   3.429   5.437 -0.0234 -0.0425 -0.5507
 8445TIP3    H225293   3.377   3.430   5.358 -1.5384  1.1963  1.8329
 8446TIP3   OH225294   3.687   7.681   3.125  0.0682 -0.1855  0.6484
 8446TIP3    H125295   3.717   7.619   3.191 -0.1051  1.5444  2.4523
 8446TIP3    H225296   3.661   7.627   3.051  0.6683 -2.1836  1.8191
 8447TIP3   OH225297   4.445   7.318   1.441 -0.2577 -0.1035  0.6872
 8447TIP3    H125298   4.534   7.293   1.464  0.1428  0.1392 -0.5276
 8447TIP3    H225299   4.392   7.241   1.460  0.4080 -0.6745  0.2957
 8448TIP3   OH225300   4.683   7.316   0.378  0.1174 -0.8059  0.0253
 8448TIP3    H125301   4.679   7.247   0.444  0.1168 -1.5763 -0.7688
 8448TIP3    H225302   4.729   7.388   0.421  1.3656 -1.8067  0.4047
 8449TIP3   OH225303   7.295   1.852   1.722 -0.2511  0.0324 -0.0907
 8449TIP3    H125304   7.340   1.768   1.714  1.3905  0.8896 -0.2710
 8449TIP3    H225305   7.251   1.864   1.638  1.2781  0.2885 -0.8977
 8450TIP3   OH225306   3.840   2.368   4.936 -0.0389 -0.1861 -0.0146
 8450TIP3    H125307   3.844   2.446   4.990 -1.9578  0.3295 -0.5357
 8450TIP3    H225308   3.914   2.376   4.876  1.2065 -0.0160  1.5078
 8451TIP3   OH225309   6.617   4.943   3.542  0.0082 -0.2684  0.2451
 8451TIP3    H125310   6.661   4.888   3.607 -1.1103 -0.6733  0.6836
 8451TIP3    H225311   6.556   4.997   3.593 -0.2325  0.0539 -0.3755
 8452TIP3   OH225312   5.859   3.728   2.203  0.3293  0.0009  0.2836
 8452TIP3    H125313   5.883   3.803   2.257  0.3470 -0.9104  1.5878
 8452TIP3    H225314   5.802   3.764   2.135 -2.2282  0.8137  2.6425
 8453TIP3   OH225315   1.599   6.525   4.309 -0.4573 -0.8261 -0.2170
 8453TIP3    H125316   1.578   6.567   4.392  1.8706  2.1646 -0.9716
 8453TIP3    H225317   1.637   6.441   4.335  0.2499  0.0406  1.7755
 8454TIP3   OH225318   6.598   3.101   2.794 -0.7074  0.6877  0.1138
 8454TIP3    H125319   6.543   3.096   2.715  1.1704 -2.4561 -1.2070
 8454TIP3    H225320   6.564   3.032   2.851  0.8441 -0.3054 -0.0906
 8455TIP3   OH225321   3.390   2.221   4.271  0.2288 -0.7798 -0.0551
 8455TIP3    H125322   3.434   2.296   4.231 -2.5354  0.2425 -1.3861
 8455TIP3    H225323   3.392   2.153   4.203 -1.2772 -0.2846 -0.6333
 8456TIP3   OH225324   7.852   1.664   1.876  0.2494 -0.1634 -0.1331
 8456TIP3    H125325   7.897   1.708   1.948  0.9596 -0.7661 -0.1912
 8456TIP3    H225326   7.810   1.588   1.917  0.3536 -0.3056 -0.2856
 8457TIP3   OH225327   5.848   2.960   1.866 -0.4015  0.5233  0.4073
 8457TIP3    H125328   5.842   2.901   1.790  0.1130  0.3902  0.4631
 8457TIP3    H225329   5.792   2.920   1.932  0.7375 -0.4905  0.8116
 8458TIP3   OH225330   5.915   6.028   5.886 -0.5200 -0.6516 -0.3041
 8458TIP3    H125331   5.968   6.096   5.926 -0.5111  0.5139 -2.1910
 8458TIP3    H225332   5.978   5.963   5.855 -0.2163  0.2769 -1.7121
 8459TIP3   OH225333   6.932   1.050   5.563  0.4375  0.3153 -0.1313
 8459TIP3    H125334   6.854   1.017   5.518  0.2841  0.5646 -0.0557
 8459TIP3    H225335   6.919   1.024   5.654  0.4437  0.3529 -0.1194
 8460TIP3   OH225336   1.449   2.687   6.581  0.5504  0.5415  0.2277
 8460TIP3    H125337   1.374   2.628   6.576  0.1879  0.9595  0.6595
 8460TIP3    H225338   1.464   2.715   6.491 -0.2284  0.9659  0.2269
 8461TIP3   OH225339   6.602   2.475   3.571  0.0602 -0.1736 -0.5139
 8461TIP3    H125340   6.605   2.541   3.640 -1.2056  0.2614 -0.8491
 8461TIP3    H225341   6.586   2.393   3.617  2.5099 -0.4282 -0.0138
 8462TIP3   OH225342   2.306   5.256   4.334 -0.5077  0.1505  0.0114
 8462TIP3    H125343   2.398   5.258   4.305 -0.9660 -0.8050 -1.5919
 8462TIP3    H225344   2.288   5.347   4.359  1.2251  0.1324  1.6203
 8463TIP3   OH225345   4.052   2.833   5.429 -0.0524 -0.4189  0.2374
 8463TIP3    H125346   4.075   2.909   5.483 -1.2000 -1.5398  2.4507
 8463TIP3    H225347   4.094   2.850   5.345 -1.1855  3.2136  0.2246
 8464TIP3   OH225348   8.251   2.418   4.236 -0.0600  0.5655 -0.3546
 8464TIP3    H125349   8.269   2.391   4.326 -1.2300 -0.5414 -0.4270
 8464TIP3    H225350   8.314   2.488   4.219 -1.0271  2.1020  1.9374
 8465TIP3   OH225351   1.886   6.164   2.323  0.3476  0.5578  0.2150
 8465TIP3    H125352   1.826   6.153   2.249  0.6912  3.1920 -0.5743
 8465TIP3    H225353   1.970   6.134   2.291  0.6364  2.2964 -0.7619
 8466TIP3   OH225354   6.220   3.772   3.565  0.7344 -0.2691  0.3111
 8466TIP3    H125355   6.219   3.701   3.629  1.9111  0.2341  0.9158
 8466TIP3    H225356   6.161   3.839   3.602  2.0631  0.3801  1.3285
 8467TIP3   OH225357   4.755   0.827   6.047 -0.4502  0.0304 -1.2332
 8467TIP3    H125358   4.681   0.860   6.097 -0.1674  2.3647 -2.1942
 8467TIP3    H225359   4.719   0.806   5.961 -0.0463  1.2226 -1.7207
 8468TIP3   OH225360   8.284   5.798   0.448  0.4361 -0.0836  0.3159
 8468TIP3    H125361   8.348   5.869   0.446 -0.3571  0.6487 -2.0645
 8468TIP3    H225362   8.200   5.842   0.455  0.0331 -0.9289  0.9827
 8469TIP3   OH225363   3.266   1.925   2.064  0.5699 -0.0438  0.0667
 8469TIP3    H125364   3.324   1.973   2.005  1.2259 -0.6641  0.2014
 8469TIP3    H225365   3.295   1.950   2.151 -0.1646  0.5880  0.1499
 8470TIP3   OH225366   5.951   4.149   0.195 -0.1939 -0.2339  0.6718
 8470TIP3    H125367   5.883   4.148   0.263 -0.3416  1.9642  0.5977
 8470TIP3    H225368   6.021   4.094   0.231 -1.4153 -1.4308  1.3340
 8471TIP3   OH225369   7.324   7.143   1.650 -0.0258  0.2183 -0.6938
 8471TIP3    H125370   7.302   7.233   1.624 -0.2518 -0.3619 -2.6042
 8471TIP3    H225371   7.411   7.151   1.690  0.7286  1.0840 -2.3888
 8472TIP3   OH225372   7.923   7.274   5.553 -0.4984  0.2621  1.0568
 8472TIP3    H125373   7.926   7.308   5.642 -1.3537 -0.1209  1.2471
 8472TIP3    H225374   7.831   7.252   5.539  0.0278 -2.2225  1.0679
 8473TIP3   OH225375   2.090   6.998   4.804  0.1805 -0.3338 -0.4176
 8473TIP3    H125376   2.072   7.042   4.887 -0.4961 -1.3733  0.0066
 8473TIP3    H225377   2.150   7.057   4.759 -0.8781  1.1440  0.0123
 8474TIP3   OH225378   3.899   3.806   2.415  0.1042  0.1250  0.0627
 8474TIP3    H125379   3.911   3.853   2.333  0.0160 -0.3222 -0.2102
 8474TIP3    H225380   3.840   3.733   2.393  2.1458 -1.5696 -0.0921
 8475TIP3   OH225381   5.702   0.058   6.618  0.5746 -0.2130 -0.0820
 8475TIP3    H125382   5.696   0.054   6.523  1.7000  0.9919 -0.2285
 8475TIP3    H225383   5.617   0.025   6.649  0.1056 -0.3787 -1.4934
 8476TIP3   OH225384   6.526   4.378   1.822  0.9367  0.1336 -0.2724
 8476TIP3    H125385   6.608   4.413   1.786  1.0788 -0.2438 -0.3222
 8476TIP3    H225386   6.542   4.372   1.917  1.3525 -0.9223 -0.3923
 8477TIP3   OH225387   3.253   1.794   6.743  0.2259  0.6946  0.8081
 8477TIP3    H125388   3.162   1.778   6.721  0.8132 -0.1030 -1.2715
 8477TIP3    H225389   3.293   1.707   6.747  1.1639  1.0874  0.3567
 8478TIP3   OH225390   3.108   7.600   4.002  0.2706 -0.2461 -0.1641
 8478TIP3    H125391   3.115   7.628   4.093  0.1869 -0.7394 -0.0011
 8478TIP3    H225392   3.197   7.577   3.976  0.1430 -1.0705  0.1136
 8479TIP3   OH225393   5.807   1.783   6.539 -0.3637  0.1616 -0.5325
 8479TIP3    H125394   5.814   1.777   6.444 -0.5430 -0.4486 -0.5116
 8479TIP3    H225395   5.896   1.769   6.571 -0.2899  0.4456 -0.6136
 8480TIP3   OH225396   2.874   2.016   1.912  0.2429 -0.1672 -0.5411
 8480TIP3    H125397   2.900   1.966   1.989 -1.4641 -0.9898 -0.4469
 8480TIP3    H225398   2.952   2.066   1.888  1.6841 -2.0341  0.0131
 8481TIP3   OH225399   3.749   5.082   3.877  0.6483  0.0076 -0.3402
 8481TIP3    H125400   3.828   5.134   3.863  1.2383 -0.7187  0.2298
 8481TIP3    H225401   3.781   4.999   3.911 -0.3686 -0.2800 -0.0681
 8482TIP3   OH225402   5.120   0.243   3.181 -0.1314  0.6357  0.7591
 8482TIP3    H125403   5.061   0.287   3.118 -1.6356 -0.8600  1.0581
 8482TIP3    H225404   5.182   0.311   3.206 -1.2577  2.0808 -0.1674
 8483TIP3   OH225405   3.184   4.060   1.566 -0.1282 -0.1939 -0.4237
 8483TIP3    H125406   3.149   4.043   1.654  0.3808 -1.0730 -0.3810
 8483TIP3    H225407   3.254   4.124   1.581 -1.6752  1.6063 -0.5149
 8484TIP3   OH225408   1.358   1.863   4.241  0.2634 -0.6407 -0.1680
 8484TIP3    H125409   1.383   1.847   4.150 -0.4252  1.1752 -0.7362
 8484TIP3    H225410   1.424   1.924   4.274  0.1678 -0.8158  0.3679
 8485TIP3   OH225411   0.162   3.755   3.339 -0.0177 -0.5068  0.0237
 8485TIP3    H125412   0.232   3.730   3.279  0.6971  0.1554  0.5587
 8485TIP3    H225413   0.087   3.702   3.312  0.9145 -1.8506 -0.0303
 8486TIP3   OH225414   1.554   3.774   0.819 -0.5159 -0.0469  0.5090
 8486TIP3    H125415   1.483   3.718   0.786 -0.3772  0.9562 -1.6918
 8486TIP3    H225416   1.528   3.795   0.908 -3.0564  0.3051 -0.2185
 8487TIP3   OH225417   4.155   3.310   2.512  0.2186 -0.1186 -0.1718
 8487TIP3    H125418   4.120   3.236   2.463 -0.8101 -0.4190  0.9552
 8487TIP3    H225419   4.131   3.387   2.461 -0.4468 -0.4502 -0.3658
 8488TIP3   OH225420   5.856   0.840   2.208 -0.0610 -0.1396 -0.0310
 8488TIP3    H125421   5.864   0.879   2.295 -0.4838  1.0666 -0.5235
 8488TIP3    H225422   5.873   0.746   2.222  1.0965  0.2194  1.1525
 8489TIP3   OH225423   1.609   4.783   5.768 -0.2650  0.1540  0.1456
 8489TIP3    H125424   1.538   4.809   5.710 -0.3213  1.8295  0.9137
 8489TIP3    H225425   1.604   4.844   5.842  2.2291  0.6549  0.0063
 8490TIP3   OH225426   2.422   0.659   6.058 -0.5046  0.7286 -0.3749
 8490TIP3    H125427   2.466   0.705   5.988  2.0299 -0.2457  0.4650
 8490TIP3    H225428   2.394   0.576   6.019 -3.0021  1.8806 -1.2677
 8491TIP3   OH225429   3.320   0.963   2.529  0.8595  0.7157  0.5980
 8491TIP3    H125430   3.345   0.994   2.442  0.1467  0.7482  0.3955
 8491TIP3    H225431   3.325   1.041   2.585  2.0739  0.5356  0.7666
 8492TIP3   OH225432   0.257   3.802   2.962 -0.1326 -0.1906 -0.2755
 8492TIP3    H125433   0.329   3.763   3.012  0.6361 -0.0252 -1.2295
 8492TIP3    H225434   0.282   3.792   2.870 -0.8801  0.7202 -0.6053
 8493TIP3   OH225435   5.234   3.557   2.108  0.4798  0.2068  0.4404
 8493TIP3    H125436   5.302   3.575   2.043 -1.1755  1.4231 -1.0465
 8493TIP3    H225437   5.155   3.597   2.072 -0.4766  1.2071  3.3593
 8494TIP3   OH225438   2.055   7.317   2.117  0.0432 -0.4113  0.2194
 8494TIP3    H125439   2.023   7.330   2.206  0.6433 -0.2831  0.4183
 8494TIP3    H225440   1.984   7.270   2.073 -0.0537 -0.9153  0.8976
 8495TIP3   OH225441   4.115   0.214   3.089 -0.1469  0.2640  0.2617
 8495TIP3    H125442   4.187   0.230   3.028  1.3137 -0.2448  1.7798
 8495TIP3    H225443   4.098   0.299   3.130  0.2264  0.1913  0.5677
 8496TIP3   OH225444   6.113   7.507   1.431  0.0081 -0.5636 -0.0292
 8496TIP3    H125445   6.137   7.423   1.393  0.6854 -1.1332  1.5506
 8496TIP3    H225446   6.049   7.544   1.370 -1.0258 -2.6318 -0.2937
 8497TIP3   OH225447   5.217   7.673   1.116  0.4751 -0.3938  0.6874
 8497TIP3    H125448   5.219   7.764   1.085 -1.9621  0.0336  1.6073
 8497TIP3    H225449   5.198   7.621   1.038  2.4338 -0.2375  0.0464
 8498TIP3   OH225450   6.117   6.317   4.314  0.5198  0.5551 -0.0670
 8498TIP3    H125451   6.156   6.277   4.392 -0.8237 -2.1956 -0.6750
 8498TIP3    H225452   6.157   6.271   4.241  0.8228  2.2211 -1.0038
 8499TIP3   OH225453   5.525   0.561   6.287  0.7621 -0.2999  0.4530
 8499TIP3    H125454   5.489   0.592   6.370  0.8207  0.8542  0.0693
 8499TIP3    H225455   5.592   0.497   6.312  0.2343 -0.5493  1.2588
 8500TIP3   OH225456   6.028   4.125   4.415 -0.0123 -0.0796 -0.0678
 8500TIP3    H125457   6.073   4.206   4.392  2.0450 -1.0625  0.2342
 8500TIP3    H225458   6.046   4.113   4.508 -0.8061 -0.5830  0.0332
 8501TIP3   OH225459   3.354   2.199   3.665 -0.3645 -0.3026 -0.0937
 8501TIP3    H125460   3.361   2.154   3.749  1.6686  0.5410  0.2610
 8501TIP3    H225461   3.285   2.265   3.678  1.4266  1.3553  1.7499
 8502TIP3   OH225462   0.366   6.729   2.092  0.5844 -0.0325  0.6931
 8502TIP3    H125463   0.448   6.766   2.124 -0.0871  1.9534  0.3014
 8502TIP3    H225464   0.380   6.719   1.998  0.6352 -0.4076  0.7415
 8503TIP3   OH225465   2.511   3.933   5.918  0.6916 -0.4115 -0.0215
 8503TIP3    H125466   2.433   3.964   5.964  1.9400  0.1972  1.7929
 8503TIP3    H225467   2.492   3.841   5.898 -0.7986 -0.0561 -0.3514
 8504TIP3   OH225468   0.997   3.679   0.334  0.4092 -0.6074 -0.4126
 8504TIP3    H125469   1.015   3.598   0.286  2.3338 -2.1450  2.6097
 8504TIP3    H225470   1.013   3.749   0.270  1.9806 -2.5083 -2.2347
 8505TIP3   OH225471   2.710   0.939   3.644  0.1691  0.5835 -0.2178
 8505TIP3    H125472   2.700   0.980   3.559 -0.7727 -0.4582 -0.6282
 8505TIP3    H225473   2.781   0.875   3.632  0.4377  0.8441 -0.0497
 8506TIP3   OH225474   1.994   4.120   4.588 -0.2119  0.2818 -0.0813
 8506TIP3    H125475   2.059   4.103   4.519 -0.2123 -1.8666  0.3933
 8506TIP3    H225476   1.959   4.206   4.566  1.6203  0.7881 -1.2910
 8507TIP3   OH225477   0.195   5.308   2.644  0.3597  0.1530  0.0029
 8507TIP3    H125478   0.243   5.278   2.567  1.2705 -1.3070  1.0643
 8507TIP3    H225479   0.263   5.323   2.710 -0.4206  1.0425  0.6354
 8508TIP3   OH225480   4.890   2.649   5.571  0.0702 -0.5036  0.3447
 8508TIP3    H125481   4.923   2.694   5.493  1.4296 -2.2213 -0.1500
 8508TIP3    H225482   4.938   2.689   5.644 -0.1351  0.1113  0.1502
 8509TIP3   OH225483   3.133   1.849   2.832 -0.3375 -0.3133  0.1300
 8509TIP3    H125484   3.201   1.799   2.876  1.3449 -0.6803 -2.6684
 8509TIP3    H225485   3.131   1.933   2.879  1.3805 -0.6387  0.8699
 8510TIP3   OH225486   1.795   3.570   0.448  0.1578 -0.0011  0.0649
 8510TIP3    H125487   1.723   3.629   0.470  0.1656  0.2824 -0.6590
 8510TIP3    H225488   1.796   3.507   0.520 -1.5434 -0.7029 -0.4648
 8511TIP3   OH225489   1.160   6.017   4.035 -0.8147  0.0228 -0.4645
 8511TIP3    H125490   1.238   5.982   3.992 -0.3598  0.5334 -0.0662
 8511TIP3    H225491   1.103   6.046   3.963 -1.0144 -1.1070 -0.7916
 8512TIP3   OH225492   6.054   6.525   4.555 -0.0837 -0.1727 -0.0684
 8512TIP3    H125493   6.070   6.473   4.477 -1.7111 -0.6214 -0.1386
 8512TIP3    H225494   6.141   6.552   4.584  0.5756 -0.2779 -1.8234
 8513TIP3   OH225495   4.162   7.279   0.360  0.0430  0.7250  0.3854
 8513TIP3    H125496   4.222   7.258   0.432  0.3728  0.5959  0.0743
 8513TIP3    H225497   4.219   7.290   0.284 -0.3326  0.5881  0.0844
 8514TIP3   OH225498   1.669   1.391   3.466 -0.0170  0.0315 -0.7408
 8514TIP3    H125499   1.651   1.419   3.376  1.0325 -0.2555 -1.0583
 8514TIP3    H225500   1.699   1.300   3.456  2.0873  0.6270 -0.3500
 8515TIP3   OH225501   0.224   0.147   6.337 -0.3417 -0.0762  0.0062
 8515TIP3    H125502   0.198   0.074   6.281 -0.5669 -1.1934  1.5049
 8515TIP3    H225503   0.160   0.215   6.319 -0.9813 -0.7655 -0.3897
 8516TIP3   OH225504   3.967   5.849   5.226  0.6789 -0.1972 -0.1824
 8516TIP3    H125505   4.029   5.876   5.294  2.1940 -3.5069 -0.0419
 8516TIP3    H225506   4.000   5.764   5.196 -2.5907 -1.1055 -1.7084
 8517TIP3   OH225507   6.143   7.414   2.753 -0.7354  0.0223 -0.3647
 8517TIP3    H125508   6.155   7.331   2.706 -0.1798  1.1835 -2.3623
 8517TIP3    H225509   6.052   7.438   2.734 -0.5163  0.4859 -0.8223
 8518TIP3   OH225510   4.139   3.653   0.393  0.2821 -0.0841 -0.5245
 8518TIP3    H125511   4.116   3.728   0.338 -0.5026 -0.0724 -0.1766
 8518TIP3    H225512   4.058   3.603   0.401 -0.1120  0.8383  2.1119
 8519TIP3   OH225513   3.316   1.933   4.124 -0.7836  0.7770  0.5187
 8519TIP3    H125514   3.350   1.977   4.047 -1.5085  1.0452  0.3367
 8519TIP3    H225515   3.264   1.860   4.090 -0.4353  0.4015  0.7831
 8520TIP3   OH225516   3.143   4.926   1.974 -0.4586 -0.0793 -0.1054
 8520TIP3    H125517   3.211   4.908   1.909 -0.8212  1.6812 -1.0374
 8520TIP3    H225518   3.163   4.867   2.046  1.7267 -0.0166 -0.5866
 8521TIP3   OH225519   2.622   3.583   0.401  0.2265 -0.1886 -0.1926
 8521TIP3    H125520   2.640   3.491   0.384 -0.6957 -0.3177 -0.5389
 8521TIP3    H225521   2.663   3.601   0.485 -1.1084 -1.4100  0.7700
 8522TIP3   OH225522   5.608   5.782   5.495  0.3731 -0.5991  0.8021
 8522TIP3    H125523   5.577   5.704   5.449  1.4011 -0.5639  0.0221
 8522TIP3    H225524   5.582   5.767   5.586 -2.1130 -0.4519  0.1922
 8523TIP3   OH225525   0.158   6.928   3.096 -0.2237 -0.7684 -0.2664
 8523TIP3    H125526   0.231   6.990   3.105 -1.0663  0.1583  0.5248
 8523TIP3    H225527   0.129   6.912   3.186 -0.2514 -2.0468 -0.4964
 8524TIP3   OH225528   5.240   7.316   0.395  0.7108 -0.1563  0.7642
 8524TIP3    H125529   5.170   7.381   0.403  0.6852  0.0763 -1.0014
 8524TIP3    H225530   5.321   7.366   0.406  0.6538 -0.3785  2.5143
 8525TIP3   OH225531   7.731   1.970   0.869 -0.1041 -0.1499  0.0835
 8525TIP3    H125532   7.811   1.920   0.884  0.3982 -0.0193 -1.9059
 8525TIP3    H225533   7.736   1.997   0.777 -2.6433 -0.5175 -0.2319
 8526TIP3   OH225534   2.168   1.585   1.570  0.0363 -0.1846  0.9273
 8526TIP3    H125535   2.146   1.678   1.562 -0.0443 -0.3683 -1.8911
 8526TIP3    H225536   2.263   1.584   1.580  0.1264  0.1921  0.1760
 8527TIP3   OH225537   7.662   5.694   1.228  0.7947 -0.2914 -0.2581
 8527TIP3    H125538   7.608   5.623   1.193  0.5918 -0.2925  0.0471
 8527TIP3    H225539   7.599   5.762   1.250  0.7201 -0.9077  1.6098
 8528TIP3   OH225540   0.977   5.710   2.723  0.3724 -0.4599  0.6124
 8528TIP3    H125541   0.991   5.710   2.817  3.9392  1.7541  0.2535
 8528TIP3    H225542   0.915   5.781   2.708 -0.2531 -0.8553  1.2600
 8529TIP3   OH225543   3.218   1.071   0.480 -0.3964 -0.1690 -0.1158
 8529TIP3    H125544   3.148   1.124   0.442 -0.1430  0.8385  0.7692
 8529TIP3    H225545   3.297   1.124   0.468 -0.2412 -0.0286  1.4037
 8530TIP3   OH225546   8.279   2.819   4.867 -0.6064 -0.1562  0.1766
 8530TIP3    H125547   8.210   2.782   4.921  0.4453 -0.6528  1.2403
 8530TIP3    H225548   8.258   2.912   4.862 -0.7581 -0.1060  1.4263
 8531TIP3   OH225549   4.969   3.114   4.398 -0.2651 -0.3290  0.4089
 8531TIP3    H125550   4.916   3.186   4.433  0.2260  0.0924  0.2966
 8531TIP3    H225551   5.044   3.109   4.458  0.7097  0.5570 -0.6958
 8532TIP3   OH225552   2.855   4.398   6.412  0.4416  0.0865  0.3888
 8532TIP3    H125553   2.852   4.439   6.326 -1.8158 -1.3220 -0.2931
 8532TIP3    H225554   2.851   4.471   6.474 -1.8759  1.0052 -0.7508
 8533TIP3   OH225555   7.191   2.314   4.984  0.1247  0.4311 -0.2259
 8533TIP3    H125556   7.181   2.360   5.068 -0.2110 -0.9451  0.5350
 8533TIP3    H225557   7.144   2.369   4.921 -3.2044 -0.4450  1.2587
 8534TIP3   OH225558   6.572   7.508   2.670  0.5479  0.0450  0.3051
 8534TIP3    H125559   6.485   7.511   2.629  0.4177  0.7273  0.6183
 8534TIP3    H225560   6.598   7.600   2.678  1.7201 -0.1909 -0.6605
 8535TIP3   OH225561   0.538   4.707   0.895 -0.5438  0.3158 -0.6662
 8535TIP3    H125562   0.617   4.672   0.853 -0.2311 -1.5653  1.2993
 8535TIP3    H225563   0.570   4.749   0.974 -1.4291  0.5322 -0.4163
 8536TIP3   OH225564   7.481   1.621   3.729 -0.1574  0.0853  0.5638
 8536TIP3    H125565   7.498   1.623   3.635 -1.4159  1.1060  0.3130
 8536TIP3    H225566   7.567   1.624   3.770  0.5032 -2.2791 -0.5235
 8537TIP3   OH225567   7.189   7.713   5.475 -0.5279  0.9911 -0.1844
 8537TIP3    H125568   7.096   7.728   5.491 -0.8434 -0.0257 -1.0051
 8537TIP3    H225569   7.233   7.758   5.548 -1.6946  0.4893  0.8627
 8538TIP3   OH225570   0.929   2.279   4.177 -0.6984 -0.5454  0.5050
 8538TIP3    H125571   1.014   2.273   4.134 -0.8012 -0.9101  0.3498
 8538TIP3    H225572   0.922   2.199   4.229 -0.9001 -0.4654  0.6062
 8539TIP3   OH225573   4.454   0.463   0.898 -0.4232  0.0358  0.0561
 8539TIP3    H125574   4.530   0.510   0.933  0.3824  0.5315 -2.1900
 8539TIP3    H225575   4.383   0.527   0.903  0.1444  0.7729 -0.9547
 8540TIP3   OH225576   4.463   4.500   5.323  0.1104  0.2993 -0.8103
 8540TIP3    H125577   4.421   4.585   5.335  0.5240  0.7731 -2.5113
 8540TIP3    H225578   4.483   4.470   5.412 -0.7142  1.6263 -0.1572
 8541TIP3   OH225579   4.976   6.967   3.479  0.9333  0.4239 -0.4539
 8541TIP3    H125580   4.974   7.007   3.391 -4.1595 -0.2581 -0.9472
 8541TIP3    H225581   4.987   6.873   3.462  2.2309  0.4904 -0.0974
 8542TIP3   OH225582   2.913   4.265   1.561 -0.4951  0.1698  0.3884
 8542TIP3    H125583   2.950   4.328   1.623 -0.1307 -1.6117  2.0810
 8542TIP3    H225584   2.843   4.223   1.610 -2.3241  0.8501 -1.5180
 8543TIP3   OH225585   8.025   0.036   6.643 -0.2789  0.0854 -0.1399
 8543TIP3    H125586   8.086   0.106   6.619  0.0636  0.0290  0.5455
 8543TIP3    H225587   8.066  -0.044   6.609 -0.0396  0.0632  0.2038
 8544TIP3   OH225588   2.342   1.189   3.585  0.2377 -0.2095 -0.6548
 8544TIP3    H125589   2.359   1.094   3.583 -1.2903 -0.5142 -0.5571
 8544TIP3    H225590   2.382   1.219   3.666 -0.6444 -1.0908  0.1498
 8545TIP3   OH225591   6.220   4.954   2.595 -0.2521  0.2550  0.3685
 8545TIP3    H125592   6.293   4.948   2.656 -0.8756 -1.5315  1.0288
 8545TIP3    H225593   6.172   5.032   2.622  0.8610  0.9058  0.5381
 8546TIP3   OH225594   5.694   6.774   6.355  0.0770 -0.2602  0.4186
 8546TIP3    H125595   5.770   6.743   6.405 -0.3341 -0.2793  1.0546
 8546TIP3    H225596   5.677   6.862   6.390 -0.1165 -0.2108  0.2030
 8547TIP3   OH225597   4.226   6.405   0.614 -0.1952 -0.0560  0.2830
 8547TIP3    H125598   4.242   6.479   0.555  0.9161 -0.2701  0.2899
 8547TIP3    H225599   4.169   6.346   0.565  0.8698 -0.3247 -0.6647
 8548TIP3   OH225600   1.085   6.938   5.974  0.5589 -0.6710 -0.1276
 8548TIP3    H125601   1.154   6.918   6.038  0.9037 -1.2336 -0.6658
 8548TIP3    H225602   1.126   6.997   5.912 -0.0031  0.5038  0.5817
 8549TIP3   OH225603   6.330   3.458   2.428 -0.6520 -0.0286 -0.0993
 8549TIP3    H125604   6.339   3.369   2.396 -1.8374  0.4005 -1.7129
 8549TIP3    H225605   6.249   3.458   2.478  0.3086 -0.2649  1.5611
 8550TIP3   OH225606   3.682   7.529   3.757  0.2557 -0.1652 -0.4001
 8550TIP3    H125607   3.627   7.572   3.692  0.2376  1.0768  0.4003
 8550TIP3    H225608   3.620   7.474   3.806 -0.3349  1.2521  0.5198
 8551TIP3   OH225609   2.305   6.522   5.100 -0.2792 -0.3855 -0.2078
 8551TIP3    H125610   2.288   6.573   5.020 -0.3636 -1.4810 -0.9141
 8551TIP3    H225611   2.390   6.552   5.130  1.1004 -1.9150 -2.3155
 8552TIP3   OH225612   2.142   4.488   2.212 -0.0823 -0.1549 -0.0315
 8552TIP3    H125613   2.237   4.483   2.208 -0.0572  0.7032 -0.8499
 8552TIP3    H225614   2.121   4.481   2.305  0.9303  1.7754  0.3933
 8553TIP3   OH225615   0.882   6.948   1.031 -0.5071 -0.0013  0.3757
 8553TIP3    H125616   0.822   6.891   0.982 -0.1399 -0.6583  0.6797
 8553TIP3    H225617   0.850   6.944   1.121 -0.6206  0.4681  0.3586
 8554TIP3   OH225618   6.406   2.482   0.604  0.1569  0.1591 -1.0166
 8554TIP3    H125619   6.371   2.451   0.521 -1.8938 -1.9332  0.4938
 8554TIP3    H225620   6.491   2.439   0.612 -0.7807 -1.7705 -0.9224
 8555TIP3   OH225621   3.107   5.206   4.842  0.2976 -0.0274 -0.6563
 8555TIP3    H125622   3.162   5.140   4.800  1.0592 -0.0510  0.3546
 8555TIP3    H225623   3.028   5.158   4.869  0.4473 -0.3191 -0.7380
 8556TIP3   OH225624   2.303   4.517   3.008  0.4551 -0.6592  0.0786
 8556TIP3    H125625   2.210   4.496   3.004  0.4237 -1.4907  2.9737
 8556TIP3    H225626   2.307   4.611   2.992 -0.8076 -0.6654 -0.3908
 8557TIP3   OH225627   1.279   4.584   2.288 -0.1186 -0.4968 -0.0469
 8557TIP3    H125628   1.302   4.641   2.215  0.2838 -1.4998 -0.7219
 8557TIP3    H225629   1.191   4.552   2.267 -0.1045 -0.5900  0.0367
 8558TIP3   OH225630   0.685   3.731   4.980 -0.0807  0.0699 -0.2475
 8558TIP3    H125631   0.714   3.821   4.994 -1.7458  0.4733  0.8336
 8558TIP3    H225632   0.650   3.731   4.891  1.4153  0.0369 -0.8716
 8559TIP3   OH225633   2.939   6.401   5.287 -0.4347 -0.1262 -0.0067
 8559TIP3    H125634   3.007   6.469   5.289 -1.7316  1.2257  1.0104
 8559TIP3    H225635   2.932   6.372   5.378 -0.8525 -0.6244 -0.1955
 8560TIP3   OH225636   1.856   3.934   3.544  0.0725  0.3320 -0.3358
 8560TIP3    H125637   1.877   4.013   3.594  1.2160 -0.8370  1.0999
 8560TIP3    H225638   1.774   3.956   3.499  1.1632  2.9087 -1.3079
 8561TIP3   OH225639   3.899   1.979   2.960  0.0745 -0.3133  0.2431
 8561TIP3    H125640   3.894   1.884   2.969  2.2936 -0.3735  1.5645
 8561TIP3    H225641   3.896   1.995   2.866  0.4209 -1.7324 -0.0245
 8562TIP3   OH225642   5.770   4.074   6.085  0.0184 -0.5184  0.4703
 8562TIP3    H125643   5.795   3.982   6.082  0.6302 -0.3484  0.2834
 8562TIP3    H225644   5.853   4.121   6.091 -0.1348  0.1428 -1.7619
 8563TIP3   OH225645   7.279   5.088   0.439 -0.1721 -0.4613  0.0944
 8563TIP3    H125646   7.256   5.141   0.363 -1.2293 -1.6259 -0.4465
 8563TIP3    H225647   7.237   5.003   0.422  0.3195 -1.0267  1.5603
 8564TIP3   OH225648   4.162   0.578   5.686  0.3391 -0.1808 -0.3143
 8564TIP3    H125649   4.148   0.485   5.702  0.5929 -0.6513 -2.4541
 8564TIP3    H225650   4.256   0.591   5.704  0.0371  0.0052  1.2805
 8565TIP3   OH225651   6.623   3.354   3.334 -0.4271 -0.1278 -0.6605
 8565TIP3    H125652   6.601   3.431   3.388 -0.5531 -0.0027 -0.8874
 8565TIP3    H225653   6.607   3.280   3.391 -0.2625  0.0187 -0.4234
 8566TIP3   OH225654   4.000   1.985   0.675 -0.1063  0.6978 -0.5377
 8566TIP3    H125655   3.984   2.049   0.605  0.3188  0.2728 -1.0312
 8566TIP3    H225656   4.070   1.929   0.641 -0.5132 -0.0695 -0.1350
 8567TIP3   OH225657   6.771   3.889   4.201 -0.0268 -0.4183  0.0447
 8567TIP3    H125658   6.859   3.853   4.188  1.0482  1.6634  1.1517
 8567TIP3    H225659   6.741   3.849   4.282  0.3128 -0.3781  0.1912
 8568TIP3   OH225660   2.765   7.313   3.145 -0.2255 -0.0765 -0.1887
 8568TIP3    H125661   2.763   7.225   3.106  1.0756 -0.3489  0.2967
 8568TIP3    H225662   2.688   7.316   3.201 -1.0512 -0.3894 -1.2550
 8569TIP3   OH225663   3.095   7.438   0.237  0.4446  0.1269 -0.2306
 8569TIP3    H125664   3.058   7.520   0.203 -1.4700 -0.8029 -0.5076
 8569TIP3    H225665   3.141   7.400   0.163 -1.3630 -0.5456 -1.0557
 8570TIP3   OH225666   7.282   6.186   6.312  0.3071 -1.1087 -0.7452
 8570TIP3    H125667   7.207   6.233   6.348  0.3716 -0.8827 -0.9021
 8570TIP3    H225668   7.343   6.255   6.287  1.4405 -1.3344  1.2378
 8571TIP3   OH225669   1.581   6.575   5.066 -0.0656  0.4258  0.1392
 8571TIP3    H125670   1.550   6.645   5.123  1.1262  0.3350  0.9512
 8571TIP3    H225671   1.670   6.557   5.097  0.7613  0.5997 -1.9596
 8572TIP3   OH225672   6.278   5.250   2.687  0.0405  0.1618  0.2337
 8572TIP3    H125673   6.355   5.297   2.719  0.0921  1.0768 -1.1295
 8572TIP3    H225674   6.209   5.316   2.685 -0.0418  0.0790 -1.1515
 8573TIP3   OH225675   7.646   2.545   5.344 -0.1362 -0.2312 -0.0766
 8573TIP3    H125676   7.590   2.616   5.374 -1.4574 -1.0258 -0.5818
 8573TIP3    H225677   7.695   2.519   5.422 -1.1332 -0.1042  0.6125
 8574TIP3   OH225678   6.193   7.360   3.365  0.0215  0.2054 -0.2016
 8574TIP3    H125679   6.120   7.299   3.371 -0.2414  0.4201 -1.0263
 8574TIP3    H225680   6.156   7.438   3.324  1.1344 -0.4605 -2.6434
 8575TIP3   OH225681   1.521   6.093   3.428 -0.0319  0.6610 -0.4542
 8575TIP3    H125682   1.514   6.008   3.470 -1.6633  1.2492  0.5396
 8575TIP3    H225683   1.516   6.074   3.334 -0.5762 -0.3258 -0.2363
 8576TIP3   OH225684   6.998   4.525   5.201  0.0137  0.2468  0.8871
 8576TIP3    H125685   7.036   4.612   5.209  0.7305  0.1709 -1.0959
 8576TIP3    H225686   7.074   4.467   5.195 -0.4541 -0.5501  2.2608
 8577TIP3   OH225687   0.651   2.348   0.710  0.5138  0.5512 -0.4864
 8577TIP3    H125688   0.724   2.289   0.730  0.5688  0.1332 -1.8412
 8577TIP3    H225689   0.613   2.313   0.630 -1.2020  0.7527  0.2012
 8578TIP3   OH225690   0.396   7.574   4.547 -0.0849 -0.5376  0.3351
 8578TIP3    H125691   0.446   7.655   4.553  0.0450 -0.7036  2.0102
 8578TIP3    H225692   0.461   7.508   4.523 -0.1223 -0.2155 -0.6730
 8579TIP3   OH225693   7.864   4.157   0.404  0.0782  0.0295 -0.3663
 8579TIP3    H125694   7.897   4.071   0.429 -0.3362 -0.0858 -0.1956
 8579TIP3    H225695   7.812   4.186   0.479  1.0017  0.8594 -0.0298
 8580TIP3   OH225696   5.561   7.025   3.005 -0.2826 -0.0806 -0.2307
 8580TIP3    H125697   5.621   7.099   2.996 -0.2100  0.1707  1.9067
 8580TIP3    H225698   5.486   7.048   2.950  0.2746  0.9836 -0.5764
 8581TIP3   OH225699   3.658   7.371   4.714 -0.4555  0.1997  0.5668
 8581TIP3    H125700   3.693   7.309   4.777 -0.1906  0.7382  0.9586
 8581TIP3    H225701   3.734   7.401   4.664 -0.4604  0.7790  0.8924
 8582TIP3   OH225702   6.094   0.715   3.959  0.6227 -0.1743  0.0778
 8582TIP3    H125703   6.135   0.696   3.874  0.0053 -0.2465 -0.2065
 8582TIP3    H225704   6.123   0.644   4.016  2.5329  0.8301  0.4491
 8583TIP3   OH225705   3.171   1.287   3.364 -0.1451 -0.1895  0.3385
 8583TIP3    H125706   3.245   1.229   3.376 -0.1009 -0.0182  0.8976
 8583TIP3    H225707   3.167   1.338   3.445 -0.7696 -0.0840  0.2425
 8584TIP3   OH225708   2.545   2.665   5.533 -0.4830 -0.1481 -0.3511
 8584TIP3    H125709   2.541   2.703   5.621 -1.2644  0.6725 -0.7349
 8584TIP3    H225710   2.632   2.686   5.502 -0.1696 -0.5114  0.2465
 8585TIP3   OH225711   0.970   2.163   2.975 -0.5241 -0.0593 -0.2065
 8585TIP3    H125712   0.949   2.196   3.062  1.3806 -0.2960  0.3694
 8585TIP3    H225713   0.963   2.068   2.983  0.0118 -0.1001 -0.2058
 8586TIP3   OH225714   1.453   3.762   1.063 -0.6023 -0.0796 -0.5030
 8586TIP3    H125715   1.382   3.793   1.120 -1.7841 -0.7287 -1.5711
 8586TIP3    H225716   1.454   3.667   1.076 -1.8575 -0.4440 -2.5330
 8587TIP3   OH225717   8.229   1.651   5.698  0.2948  0.1293 -0.2213
 8587TIP3    H125718   8.287   1.649   5.622 -0.7347  0.5081 -1.0579
 8587TIP3    H225719   8.164   1.583   5.680 -1.1883  1.6066 -0.7490
 8588TIP3   OH225720   2.220   6.609   3.628 -0.2767 -0.3866 -0.8221
 8588TIP3    H125721   2.131   6.579   3.613 -0.6022  0.5011 -0.7315
 8588TIP3    H225722   2.227   6.690   3.578 -0.1531  0.5840  0.6963
 8589TIP3   OH225723   1.276   3.086   2.224 -0.2386 -0.1792 -0.6834
 8589TIP3    H125724   1.243   3.044   2.304 -0.3227  0.8980 -0.1375
 8589TIP3    H225725   1.359   3.041   2.207  1.4545  1.6569  1.8954
 8590TIP3   OH225726   6.581   3.115   5.274  0.1583  0.3746 -0.0469
 8590TIP3    H125727   6.630   3.116   5.356 -0.8711 -0.3531  0.6063
 8590TIP3    H225728   6.639   3.156   5.210  1.0501  0.7887  1.0036
 8591TIP3   OH225729   7.832   6.475   2.078  0.0145  0.4606  0.1420
 8591TIP3    H125730   7.768   6.406   2.064 -0.4742  1.2583 -1.8330
 8591TIP3    H225731   7.795   6.529   2.147  0.7118 -1.5478  2.2027
 8592TIP3   OH225732   5.022   2.064   0.908  0.8214 -0.0603 -0.3285
 8592TIP3    H125733   5.015   1.974   0.874  0.0526  0.5903 -1.9925
 8592TIP3    H225734   5.110   2.092   0.883  1.3761 -0.5864  0.9132
 8593TIP3   OH225735   5.549   4.984   2.837  0.6861  0.2107 -0.0040
 8593TIP3    H125736   5.598   4.962   2.917  1.1192 -2.9691 -1.0091
 8593TIP3    H225737   5.599   5.055   2.797  1.0831  1.0959  1.9245
 8594TIP3   OH225738   5.754   6.212   1.816 -0.0628 -0.3844  0.2269
 8594TIP3    H125739   5.776   6.120   1.832 -0.9854 -0.6358  0.1270
 8594TIP3    H225740   5.748   6.251   1.903  1.0122 -0.2345  0.2523
 8595TIP3   OH225741   4.254   6.891   0.291 -0.5337  0.0034  0.0112
 8595TIP3    H125742   4.177   6.943   0.269 -1.5921 -1.7556 -0.6847
 8595TIP3    H225743   4.315   6.908   0.220  0.2826  2.3602  1.1887
 8596TIP3   OH225744   0.345   6.630   4.268 -0.1258 -0.5657 -0.3984
 8596TIP3    H125745   0.295   6.705   4.300  0.0855 -1.0100  1.0453
 8596TIP3    H225746   0.332   6.631   4.173 -1.2150  0.5022 -0.2584
 8597TIP3   OH225747   6.328   7.016   0.894 -0.1899  0.3510  0.2523
 8597TIP3    H125748   6.289   7.002   0.807 -0.6448 -0.1983  0.5354
 8597TIP3    H225749   6.282   7.093   0.928 -2.6897 -1.4981  1.4569
 8598TIP3   OH225750   2.807   5.221   0.575  0.2756  0.1012 -0.0299
 8598TIP3    H125751   2.857   5.141   0.592  0.7369  0.3696 -0.1142
 8598TIP3    H225752   2.717   5.191   0.566  0.3812 -0.3581  0.3725
 8599TIP3   OH225753   5.453   1.206   0.467 -0.3186 -0.6842 -0.5226
 8599TIP3    H125754   5.506   1.191   0.389  0.7979  0.5691 -0.0258
 8599TIP3    H225755   5.504   1.169   0.539 -0.2594  0.2291 -0.0858
 8600TIP3   OH225756   2.392   5.957   4.886  0.2999  0.0747  0.0982
 8600TIP3    H125757   2.345   5.921   4.811 -0.0838 -0.5418  0.6249
 8600TIP3    H225758   2.324   5.994   4.942  0.2481 -1.9108  1.4653
 8601TIP3   OH225759   3.800   1.088   1.622  0.3263 -0.1606  0.0212
 8601TIP3    H125760   3.874   1.136   1.659 -0.1332  1.6532 -1.3173
 8601TIP3    H225761   3.812   1.094   1.527 -0.3972 -1.7183 -0.1994
 8602TIP3   OH225762   6.820   7.342   3.137 -0.1034  0.0606 -0.6019
 8602TIP3    H125763   6.873   7.335   3.057 -1.1055  0.6794 -1.3504
 8602TIP3    H225764   6.759   7.414   3.119 -0.0937  0.4638  0.8851
 8603TIP3   OH225765   7.528   5.704   2.432  0.4610 -0.4922  0.2299
 8603TIP3    H125766   7.586   5.628   2.424  1.8757  0.5811 -0.2578
 8603TIP3    H225767   7.553   5.761   2.358  0.7520  1.2629  1.5997
 8604TIP3   OH225768   3.734   3.782   2.147  0.0167  0.5865  0.3820
 8604TIP3    H125769   3.679   3.738   2.211  0.9423  0.9270  1.4456
 8604TIP3    H225770   3.704   3.873   2.149 -0.7254  0.3719 -0.5310
 8605TIP3   OH225771   1.170   2.434   1.621  0.1386 -0.7003  0.0319
 8605TIP3    H125772   1.265   2.421   1.611  0.3396 -0.6239  1.5658
 8605TIP3    H225773   1.156   2.432   1.715 -1.3458 -0.2973 -0.1616
 8606TIP3   OH225774   1.165   0.788   6.443 -0.2393 -0.3597  0.0923
 8606TIP3    H125775   1.124   0.856   6.389 -1.4282  0.0027  1.3857
 8606TIP3    H225776   1.185   0.832   6.526  0.2472 -1.2456  0.4566
 8607TIP3   OH225777   0.571   2.152   1.605 -0.1768  0.2943  0.5505
 8607TIP3    H125778   0.634   2.081   1.593 -0.2129  0.2880  0.3916
 8607TIP3    H225779   0.559   2.158   1.699 -1.0842 -0.7173  0.5182
 8608TIP3   OH225780   1.045   3.540   3.999 -0.2973  0.3130  0.1734
 8608TIP3    H125781   1.000   3.497   3.927  0.1248 -1.0755  0.7041
 8608TIP3    H225782   1.108   3.475   4.031 -1.8348  0.0991  3.0666
 8609TIP3   OH225783   6.311   2.167   5.926  0.6747 -0.0281 -0.2431
 8609TIP3    H125784   6.318   2.251   5.879  1.9761  0.3201  0.5175
 8609TIP3    H225785   6.325   2.190   6.018 -1.8814 -0.6898  0.4070
 8610TIP3   OH225786   8.102   4.217   5.898 -0.2924  0.2667 -0.1527
 8610TIP3    H125787   8.092   4.242   5.806 -0.8502 -0.6098 -0.3334
 8610TIP3    H225788   8.048   4.280   5.946 -2.2198 -0.9287 -0.6580
 8611TIP3   OH225789   6.730   6.787   5.415 -0.4660 -0.0060  0.2740
 8611TIP3    H125790   6.716   6.747   5.329 -1.0358  0.3152  0.2145
 8611TIP3    H225791   6.678   6.867   5.413 -0.3500  0.0860  0.8635
 8612TIP3   OH225792   6.749   2.277   4.140  0.5702 -0.3880  0.1159
 8612TIP3    H125793   6.755   2.311   4.230 -1.1757 -0.5526  0.3362
 8612TIP3    H225794   6.709   2.191   4.150  2.2463 -1.3023 -0.6924
 8613TIP3   OH225795   6.339   6.729   0.856 -0.0269 -0.8193 -0.1041
 8613TIP3    H125796   6.376   6.813   0.884  0.4632 -1.0233 -0.1234
 8613TIP3    H225797   6.246   6.735   0.879 -0.2240  0.1395 -1.0673
 8614TIP3   OH225798   6.637   5.599   1.907 -0.4725  0.0942 -0.2027
 8614TIP3    H125799   6.560   5.586   1.852 -1.2958  0.7945  0.7345
 8614TIP3    H225800   6.636   5.692   1.929  1.4752  0.4489 -1.3221
 8615TIP3   OH225801   4.997   7.507   2.418 -0.4291  0.3258  0.2952
 8615TIP3    H125802   4.931   7.481   2.481 -1.0169 -1.1462 -0.8731
 8615TIP3    H225803   4.992   7.603   2.416 -2.0076  0.2806  0.7676
 8616TIP3   OH225804   7.237   4.570   3.921 -0.1417 -0.5962 -0.4661
 8616TIP3    H125805   7.310   4.608   3.969  0.7689 -1.1156 -1.4054
 8616TIP3    H225806   7.243   4.476   3.938  0.8966 -0.9474 -2.4453
 8617TIP3   OH225807   4.899   2.531   1.164  0.2437 -0.0024  0.1534
 8617TIP3    H125808   4.888   2.467   1.233  1.2136 -0.4606 -0.1059
 8617TIP3    H225809   4.950   2.486   1.096 -0.3339  0.5625 -0.6892
 8618TIP3   OH225810   7.272   6.832   5.460 -1.1290  0.3210  0.3130
 8618TIP3    H125811   7.255   6.747   5.501  0.1503  1.5025  3.5525
 8618TIP3    H225812   7.185   6.868   5.443 -1.6937 -1.3621 -0.6926
 8619TIP3   OH225813   2.739   1.874   5.893  0.4901  0.4511 -0.1324
 8619TIP3    H125814   2.710   1.949   5.841  0.1201  0.2799 -0.1767
 8619TIP3    H225815   2.663   1.851   5.946  0.8287  0.5440  0.3920
 8620TIP3   OH225816   6.075   4.735   1.646  0.2447 -0.1629  0.6786
 8620TIP3    H125817   5.992   4.770   1.679 -0.6521 -1.0808 -0.4766
 8620TIP3    H225818   6.134   4.737   1.721 -0.9000  0.2573  1.6023
 8621TIP3   OH225819   6.229   7.157   2.395 -0.3736 -0.2959 -0.6187
 8621TIP3    H125820   6.212   7.144   2.488  0.3057  0.1272 -0.4327
 8621TIP3    H225821   6.258   7.071   2.364 -2.2486 -0.9001 -0.8340
 8622TIP3   OH225822   5.782   7.756   3.360 -0.1684 -0.0535  0.2295
 8622TIP3    H125823   5.712   7.715   3.410 -1.9783 -1.6232 -3.2223
 8622TIP3    H225824   5.839   7.684   3.334  1.0675  0.7862  0.5297
 8623TIP3   OH225825   6.925   3.734   0.064 -0.2389  0.8916 -0.6060
 8623TIP3    H125826   6.937   3.723  -0.030 -2.1978  1.0972 -0.9356
 8623TIP3    H225827   6.841   3.691   0.083  1.2209 -1.2603  1.5163
 8624TIP3   OH225828   5.603   2.239   2.177 -0.5103 -0.1007 -0.2289
 8624TIP3    H125829   5.598   2.255   2.271 -1.2792 -0.0133 -0.2803
 8624TIP3    H225830   5.658   2.309   2.143 -1.7472  0.9733 -0.0958
 8625TIP3   OH225831   1.188   4.270   5.737  0.1102  0.2203  0.1297
 8625TIP3    H125832   1.229   4.238   5.657 -0.6209 -3.1830  0.9663
 8625TIP3    H225833   1.260   4.283   5.798  0.4306 -0.1171 -0.1728
 8626TIP3   OH225834   4.596   0.166   2.483  0.2751  0.1350 -0.5206
 8626TIP3    H125835   4.682   0.135   2.454  0.3750  0.1437 -0.2321
 8626TIP3    H225836   4.581   0.122   2.566 -0.1717 -0.1642 -0.7550
 8627TIP3   OH225837   0.508   2.697   4.088 -0.3726 -0.0653  0.4603
 8627TIP3    H125838   0.534   2.666   4.174 -1.0506  0.1914  0.7615
 8627TIP3    H225839   0.587   2.738   4.053 -0.4954  1.2708  1.6290
 8628TIP3   OH225840   8.157   1.425   3.415  0.5005 -0.0201  0.3288
 8628TIP3    H125841   8.168   1.431   3.510  0.4621  1.6738  0.2536
 8628TIP3    H225842   8.063   1.412   3.403  0.5089 -0.2630  0.5193
 8629TIP3   OH225843   2.437   2.695   1.722  0.5739  0.1763 -0.2279
 8629TIP3    H125844   2.413   2.773   1.671 -0.6202  0.8396  1.2774
 8629TIP3    H225845   2.423   2.622   1.662  0.1968  1.0111 -1.1826
 8630TIP3   OH225846   3.466   1.700   2.957  0.0076 -0.3857  0.5439
 8630TIP3    H125847   3.388   1.709   3.013  0.2744  0.2034  0.8364
 8630TIP3    H225848   3.492   1.608   2.966 -0.5181 -0.5282  0.6311
 8631TIP3   OH225849   2.724   5.392   5.502 -0.1427  0.3820  0.0309
 8631TIP3    H125850   2.747   5.360   5.415  2.1869  0.7921  0.4320
 8631TIP3    H225851   2.701   5.484   5.488 -0.4256  0.2772 -0.2197
 8632TIP3   OH225852   4.773   4.147   4.983  0.0661 -0.0030  0.1224
 8632TIP3    H125853   4.844   4.105   4.933 -0.3169 -1.4921  0.7735
 8632TIP3    H225854   4.700   4.153   4.921  0.1501 -0.2377 -0.0005
 8633TIP3   OH225855   6.973   3.169   3.809 -0.1039  0.1645 -0.7196
 8633TIP3    H125856   7.034   3.096   3.796  0.3843  0.4073  0.1560
 8633TIP3    H225857   6.890   3.137   3.772  0.3613 -0.4479 -1.2526
 8634TIP3   OH225858   6.189   5.865   5.773  0.0668  0.4777 -1.0728
 8634TIP3    H125859   6.230   5.917   5.842  3.0293  0.5681 -2.7720
 8634TIP3    H225860   6.216   5.775   5.791 -0.6100  0.2489 -1.1615
 8635TIP3   OH225861   2.223   7.209   4.219 -0.2705  0.2338  0.0185
 8635TIP3    H125862   2.131   7.222   4.194  0.0174  0.6676 -0.8433
 8635TIP3    H225863   2.267   7.187   4.137  0.2966 -0.5389  0.5259
 8636TIP3   OH225864   0.309   4.529   0.527 -0.0655  0.1470  0.7166
 8636TIP3    H125865   0.338   4.507   0.438 -0.1128 -1.7344  1.1302
 8636TIP3    H225866   0.221   4.567   0.515  0.7125  1.7971 -0.1631
 8637TIP3   OH225867   5.662   2.505   3.443 -0.2783 -0.5193 -0.6457
 8637TIP3    H125868   5.681   2.496   3.537  3.1659  1.0965 -1.0001
 8637TIP3    H225869   5.581   2.555   3.440 -1.1598 -1.6970  1.4228
 8638TIP3   OH225870   7.290   2.750   5.462  0.2340  0.2984  0.2216
 8638TIP3    H125871   7.382   2.767   5.483  0.4226  0.5900 -0.7529
 8638TIP3    H225872   7.256   2.836   5.434  0.0180 -0.0462 -0.6139
 8639TIP3   OH225873   5.529   6.304   5.602  0.1458  0.2358 -0.2560
 8639TIP3    H125874   5.605   6.247   5.590 -0.4734 -0.5837 -0.3312
 8639TIP3    H225875   5.511   6.299   5.696  1.6915  2.4152  0.2561
 8640TIP3   OH225876   7.586   2.726   2.140 -0.0550 -0.1812 -0.1464
 8640TIP3    H125877   7.566   2.680   2.058  0.5573 -0.8717  0.0799
 8640TIP3    H225878   7.633   2.661   2.192 -0.8032  0.1102  0.9238
 8641TIP3   OH225879   4.007   1.810   5.758  0.3378  0.2519  0.5421
 8641TIP3    H125880   3.968   1.893   5.729  0.0409  0.1169  0.5530
 8641TIP3    H225881   4.100   1.831   5.772  0.0800  0.8330  1.4862
 8642TIP3   OH225882   0.504   3.096   0.322  0.2954 -0.3434  0.3540
 8642TIP3    H125883   0.454   3.146   0.257  0.6423  1.4551  1.4085
 8642TIP3    H225884   0.562   3.041   0.270  1.3972  1.8856 -0.9413
 8643TIP3   OH225885   6.580   2.006   1.296 -0.3246  0.0411 -0.1450
 8643TIP3    H125886   6.545   1.942   1.359 -0.7919  0.1802 -0.2607
 8643TIP3    H225887   6.670   2.022   1.326 -0.5408  0.1029  0.4891
 8644TIP3   OH225888   2.946   0.091   0.008 -0.1823  0.2094 -0.1108
 8644TIP3    H125889   2.944   0.106   0.102 -1.7441 -0.5666  0.0039
 8644TIP3    H225890   2.924  -0.002  -0.003  1.7115 -0.1700 -1.1717
 8645TIP3   OH225891   0.807   4.449   1.457  0.0937  0.1231  0.4608
 8645TIP3    H125892   0.750   4.470   1.532  1.6084 -1.4009  2.1313
 8645TIP3    H225893   0.891   4.427   1.496  0.4871 -2.4054 -1.5606
 8646TIP3   OH225894   3.978   4.274   0.915 -0.2252 -0.3459 -0.5334
 8646TIP3    H125895   3.921   4.219   0.862  0.1866 -0.8474 -0.4554
 8646TIP3    H225896   4.056   4.221   0.932 -0.4448 -0.3004  0.7774
 8647TIP3   OH225897   3.110   0.032   4.421  0.2490 -0.0602  0.5648
 8647TIP3    H125898   3.067   0.092   4.481  3.7298  2.2051  1.0758
 8647TIP3    H225899   3.161  -0.027   4.477 -0.3415 -1.2183 -0.0687
 8648TIP3   OH225900   1.791   2.536   0.879  0.2435 -0.3194 -0.4553
 8648TIP3    H125901   1.821   2.531   0.788  0.7961 -1.3551 -0.2385
 8648TIP3    H225902   1.697   2.551   0.872  0.7125  2.9388 -1.1594
 8649TIP3   OH225903   0.866   5.085   4.323 -0.2378  0.1947 -0.3292
 8649TIP3    H125904   0.859   4.992   4.303 -1.0837  0.5430 -1.7662
 8649TIP3    H225905   0.776   5.118   4.316  0.1166  1.2024 -0.2840
 8650TIP3   OH225906   6.476   3.942   2.871 -0.0819  0.1412  0.3074
 8650TIP3    H125907   6.424   3.976   2.943 -1.0005  0.4314 -0.4593
 8650TIP3    H225908   6.413   3.933   2.799  0.6864 -0.6850 -0.2859
 8651TIP3   OH225909   4.015   2.154   0.469  0.1847 -0.2883  0.3967
 8651TIP3    H125910   3.961   2.229   0.443  0.4795 -0.0015  0.6074
 8651TIP3    H225911   4.077   2.190   0.532  1.2360 -0.4136 -0.5446
 8652TIP3   OH225912   7.697   0.639   2.093  0.1456  0.7492  0.8707
 8652TIP3    H125913   7.766   0.581   2.124  0.3210  1.3355  1.6000
 8652TIP3    H225914   7.706   0.638   1.998  1.5748  1.3071  0.9751
 8653TIP3   OH225915   6.299   0.655   2.853  0.3840  0.1768  0.0612
 8653TIP3    H125916   6.313   0.575   2.802 -2.1021 -0.3450  0.0685
 8653TIP3    H225917   6.323   0.632   2.942  0.9687 -0.1355 -0.1736
 8654TIP3   OH225918   7.761   5.691   3.519 -0.4820 -0.0356 -0.2156
 8654TIP3    H125919   7.833   5.628   3.523  0.0471  0.5862  2.6757
 8654TIP3    H225920   7.683   5.638   3.533 -0.1484 -0.2452  1.0049
 8655TIP3   OH225921   1.264   7.512   6.170 -0.1932 -0.1297 -0.4516
 8655TIP3    H125922   1.295   7.468   6.091  1.5528 -0.4197  0.3685
 8655TIP3    H225923   1.320   7.588   6.179 -3.4341  2.7285 -2.1012
 8656TIP3   OH225924   2.084   4.959   5.433 -0.0522  0.0541  0.7771
 8656TIP3    H125925   2.118   4.905   5.362  1.9446 -0.5634  2.1182
 8656TIP3    H225926   2.158   4.969   5.493 -0.5429  3.6352  1.0143
 8657TIP3   OH225927   6.784   1.151   1.310  0.0726 -0.4235  0.2029
 8657TIP3    H125928   6.839   1.207   1.255  0.4003  0.2194  1.1564
 8657TIP3    H225929   6.792   1.188   1.398 -0.4446 -1.4202  0.6931
 8658TIP3   OH225930   0.800   6.321   4.099 -0.3584 -0.5343  0.0554
 8658TIP3    H125931   0.762   6.290   4.016 -0.8942 -3.4012  1.2448
 8658TIP3    H225932   0.725   6.355   4.148 -0.1350  0.6186 -0.3784
 8659TIP3   OH225933   4.159   0.292   4.728  0.3994  0.4292  0.3283
 8659TIP3    H125934   4.175   0.202   4.700 -0.6939  0.2273  0.3347
 8659TIP3    H225935   4.216   0.345   4.672 -1.8026  0.0582 -2.4626
 8660TIP3   OH225936   7.513   5.678   5.653 -0.0223  0.3349 -0.2334
 8660TIP3    H125937   7.553   5.593   5.675 -1.8153 -0.6191 -0.4611
 8660TIP3    H225938   7.443   5.689   5.717 -0.4657  1.1533 -0.8337
 8661TIP3   OH225939   2.144   5.253   5.762 -0.0923 -0.1901  0.5125
 8661TIP3    H125940   2.064   5.205   5.743  1.2089 -2.1025 -0.4606
 8661TIP3    H225941   2.174   5.218   5.846  1.4392 -2.0148 -0.7179
 8662TIP3   OH225942   5.951   2.532   1.284  0.7620  0.2308  0.7103
 8662TIP3    H125943   5.886   2.602   1.279  0.7475  0.2131  0.6446
 8662TIP3    H225944   5.901   2.454   1.308  0.9712  0.5042  2.1159
 8663TIP3   OH225945   5.277   6.096   5.798 -0.4111 -0.0286  1.0425
 8663TIP3    H125946   5.194   6.052   5.780  0.1180 -1.4412  1.8500
 8663TIP3    H225947   5.343   6.037   5.762  0.2423  1.3298 -0.0646
 8664TIP3   OH225948   3.352   2.107   0.325 -0.4277  0.6550  0.2602
 8664TIP3    H125949   3.325   2.029   0.276  1.4984 -0.8714  1.5126
 8664TIP3    H225950   3.277   2.128   0.381 -1.3329  0.3483 -0.7976
 8665TIP3   OH225951   0.060   0.781   0.685 -0.2233  0.1017 -0.0947
 8665TIP3    H125952   0.147   0.812   0.709 -0.5608  0.0256  1.2654
 8665TIP3    H225953   0.009   0.861   0.670  0.4541  0.1632 -2.4459
 8666TIP3   OH225954   7.453   2.757   3.307 -0.4245  0.1127  0.1767
 8666TIP3    H125955   7.445   2.852   3.310  0.5225  0.2071  0.3517
 8666TIP3    H225956   7.539   2.742   3.268 -1.0153 -0.7026 -0.8500
 8667TIP3   OH225957   7.333   6.946   3.337 -0.6417  0.2297 -0.0569
 8667TIP3    H125958   7.299   6.898   3.262  0.0632  0.4082 -0.4981
 8667TIP3    H225959   7.426   6.922   3.340 -0.1700  1.9069 -0.5612
 8668TIP3   OH225960   3.853   7.309   6.090  0.3599 -0.0704 -0.6087
 8668TIP3    H125961   3.847   7.214   6.081 -1.0839  0.0297 -1.0005
 8668TIP3    H225962   3.921   7.323   6.156  0.8793 -1.3482 -0.8480
 8669TIP3   OH225963   6.277   5.414   0.295  0.0481 -0.0192  0.1104
 8669TIP3    H125964   6.328   5.385   0.371 -1.8162  1.1203  1.8696
 8669TIP3    H225965   6.199   5.358   0.296 -0.3087  0.4576 -0.5733
 8670TIP3   OH225966   2.552   6.814   0.061 -0.3380  0.6812 -0.1973
 8670TIP3    H125967   2.513   6.728   0.048  0.0997  0.8040 -2.8386
 8670TIP3    H225968   2.557   6.852  -0.026 -1.0122  3.6475  0.9249
 8671TIP3   OH225969   5.782   0.369   0.863 -0.3418 -0.6009  0.0863
 8671TIP3    H125970   5.870   0.347   0.895  0.1508  1.1042  0.0244
 8671TIP3    H225971   5.723   0.337   0.930  0.6344  2.4960  2.6809
 8672TIP3   OH225972   3.768   1.997   4.703 -0.0010  0.3769  0.1340
 8672TIP3    H125973   3.691   2.054   4.701  0.8747  1.7296  2.1660
 8672TIP3    H225974   3.754   1.939   4.777 -0.4056 -1.4769 -1.3075
 8673TIP3   OH225975   1.353   6.335   6.597  0.5290  0.1169  0.6272
 8673TIP3    H125976   1.318   6.394   6.664  0.9720  2.0558 -0.7590
 8673TIP3    H225977   1.447   6.329   6.618  0.4419 -0.2911  0.9039
 8674TIP3   OH225978   2.095   5.149   2.439 -0.1613 -0.1859 -0.0860
 8674TIP3    H125979   2.066   5.200   2.514 -0.5941 -0.5964  0.0319
 8674TIP3    H225980   2.073   5.058   2.461 -0.4609 -0.2938 -0.7723
 8675TIP3   OH225981   2.737   5.962   5.416 -0.3311  0.2028 -0.6560
 8675TIP3    H125982   2.784   6.009   5.347 -1.5566  0.6132 -1.2365
 8675TIP3    H225983   2.662   5.924   5.371 -0.3022 -0.8473  0.1624
 8676TIP3   OH225984   2.864   2.576   3.393 -0.2013 -0.4200  0.3926
 8676TIP3    H125985   2.818   2.565   3.477 -0.7465 -0.9077  0.0412
 8676TIP3    H225986   2.861   2.670   3.376  1.5235 -0.0494  1.7985
 8677TIP3   OH225987   3.275   6.136   4.746 -0.3677 -0.0809 -0.4296
 8677TIP3    H125988   3.333   6.071   4.786 -1.4424 -1.1243 -0.4972
 8677TIP3    H225989   3.291   6.128   4.652 -1.5039 -1.3097 -0.5570
 8678TIP3   OH225990   2.123   5.946   5.361  0.1526 -0.1064  0.0276
 8678TIP3    H125991   2.131   5.853   5.381  1.0893 -0.3447 -1.3460
 8678TIP3    H225992   2.196   5.987   5.407 -1.9037  0.4572  3.1155
 8679TIP3   OH225993   2.714   1.701   2.598  0.2400 -0.6386 -0.5455
 8679TIP3    H125994   2.773   1.653   2.540  1.8497 -1.2062  1.4446
 8679TIP3    H225995   2.769   1.769   2.636 -1.4034  1.3381 -1.4716
 8680TIP3   OH225996   1.761   0.176   2.701 -0.0125  0.1236  0.0257
 8680TIP3    H125997   1.802   0.188   2.615 -0.1407 -1.2849 -0.2508
 8680TIP3    H225998   1.677   0.221   2.695 -0.2423 -0.4013 -0.7683
 8681TIP3   OH225999   5.750   3.814   3.889 -0.6172 -0.3492  0.1424
 8681TIP3    H126000   5.782   3.754   3.956 -0.0873 -0.0805  0.1367
 8681TIP3    H226001   5.802   3.893   3.901 -1.8501  0.4226  0.6788
 8682TIP3   OH226002   6.966   0.409   2.953 -0.0626 -0.1497 -0.7089
 8682TIP3    H126003   6.964   0.317   2.927 -0.5065 -0.2081 -0.4841
 8682TIP3    H226004   6.924   0.411   3.039  1.3855  0.0508  0.0099
 8683TIP3   OH226005   2.747   4.448   1.962  0.2760  0.0105 -0.4413
 8683TIP3    H126006   2.835   4.480   1.943  0.1779  0.1688 -0.6348
 8683TIP3    H226007   2.693   4.482   1.891 -0.0871  0.5784  0.0969
 8684TIP3   OH226008   7.518   1.050   5.423  0.4641  0.3836 -0.3560
 8684TIP3    H126009   7.549   0.970   5.464  1.7536 -0.5866 -3.0597
 8684TIP3    H226010   7.437   1.025   5.378  0.4941  0.7837 -0.6405
 8685TIP3   OH226011   2.970   7.272   5.560  0.0157  0.1560  0.0846
 8685TIP3    H126012   2.940   7.284   5.470  1.8370  1.0738 -0.4599
 8685TIP3    H226013   3.060   7.239   5.551  0.5255  1.0643  1.5361
 8686TIP3   OH226014   4.732   1.870   0.660 -0.1018 -0.9658 -0.4656
 8686TIP3    H126015   4.799   1.924   0.617  0.5457 -1.6467 -0.3291
 8686TIP3    H226016   4.751   1.877   0.753 -1.2257  0.1361 -0.2894
 8687TIP3   OH226017   0.644   7.120   6.333  0.5248 -0.3959  0.4295
 8687TIP3    H126018   0.656   7.065   6.256 -1.1348  0.5612 -0.5669
 8687TIP3    H226019   0.732   7.151   6.354  1.1330 -1.4026 -0.4965
 8688TIP3   OH226020   3.391   3.215   5.248 -0.1938 -0.1698  0.3690
 8688TIP3    H126021   3.392   3.123   5.221  1.1681  0.3148 -1.4552
 8688TIP3    H226022   3.300   3.232   5.271 -0.8785 -1.5050 -1.1284
 8689TIP3   OH226023   7.204   4.906   3.841  0.4648 -0.1200 -0.4200
 8689TIP3    H126024   7.203   4.868   3.929  0.4447 -0.9149 -0.7545
 8689TIP3    H226025   7.121   4.953   3.834  0.0604 -0.7973 -0.3240
 8690TIP3   OH226026   5.937   1.413   2.477 -0.0638 -0.4310  0.1215
 8690TIP3    H126027   5.975   1.405   2.389 -1.4926  0.1295 -0.5853
 8690TIP3    H226028   5.908   1.504   2.482  1.6519  0.0933  1.9181
 8691TIP3   OH226029   2.958   3.779   2.277  0.3812  0.2847  0.3504
 8691TIP3    H126030   2.882   3.789   2.219  1.2478 -0.1093 -0.8907
 8691TIP3    H226031   2.949   3.851   2.340 -0.7884  0.4984 -0.0238
 8692TIP3   OH226032   5.880   0.352   2.110 -0.3186 -0.3354  0.3821
 8692TIP3    H126033   5.903   0.427   2.165 -0.9660 -0.3906  0.7429
 8692TIP3    H226034   5.961   0.303   2.101  0.2055  0.5844 -0.1533
 8693TIP3   OH226035   7.938   4.352   0.204  0.0995 -0.3697  0.2139
 8693TIP3    H126036   7.991   4.402   0.266 -0.9403 -1.0500  1.7510
 8693TIP3    H226037   7.913   4.274   0.254 -2.0555 -0.2076 -0.5324
 8694TIP3   OH226038   1.408   3.344   5.149 -0.3408  0.2192  0.2542
 8694TIP3    H126039   1.477   3.284   5.176  0.1062  0.5615 -0.0929
 8694TIP3    H226040   1.337   3.288   5.120 -0.4536 -0.1383  1.2179
 8695TIP3   OH226041   0.162   4.884   5.651  0.2311  0.5096  0.3130
 8695TIP3    H126042   0.112   4.829   5.710  2.4074 -0.4499  1.3869
 8695TIP3    H226043   0.149   4.973   5.684  0.0578  0.1674  1.1940
 8696TIP3   OH226044   8.078   3.575   4.099 -0.6769 -0.3279  0.1828
 8696TIP3    H126045   8.000   3.594   4.046 -0.5725 -1.2787 -0.3361
 8696TIP3    H226046   8.050   3.504   4.158 -0.8470  0.8527  1.5622
 8697TIP3   OH226047   0.109   4.141   0.920  0.1304 -0.1283 -0.4871
 8697TIP3    H126048   0.191   4.149   0.871  0.2057  1.3042 -0.1776
 8697TIP3    H226049   0.094   4.047   0.926  0.5903 -0.3805 -2.4619
 8698TIP3   OH226050   1.868   0.578   3.912 -0.3350  0.4036 -0.3047
 8698TIP3    H126051   1.949   0.606   3.870  0.9628 -0.9944  1.1557
 8698TIP3    H226052   1.850   0.645   3.978  1.1429 -0.6096  1.1852
 8699TIP3   OH226053   6.172   0.380   2.471  0.2865 -0.6183  0.1054
 8699TIP3    H126054   6.077   0.391   2.467  0.4301  0.9611  0.3211
 8699TIP3    H226055   6.201   0.391   2.381  0.1253 -3.1961 -0.3409
 8700TIP3   OH226056   5.655   6.554   2.112  0.2213 -0.4343  0.3185
 8700TIP3    H126057   5.661   6.620   2.042  0.1145 -0.7045  0.0491
 8700TIP3    H226058   5.662   6.604   2.193 -1.4826  0.1216  0.1598
 8701TIP3   OH226059   1.722   6.798   0.152 -0.0208 -0.7644  0.1710
 8701TIP3    H126060   1.758   6.793   0.063  1.1636 -0.8642  0.6375
 8701TIP3    H226061   1.796   6.777   0.209 -0.2896  1.0521  1.2664
 8702TIP3   OH226062   3.635   1.130   2.393 -0.1480  0.0588 -0.0908
 8702TIP3    H126063   3.718   1.087   2.413  1.0724  1.5853 -1.5647
 8702TIP3    H226064   3.660   1.213   2.353 -2.4092  0.5594 -0.6273
 8703TIP3   OH226065   0.848   3.973   5.041  0.7924 -0.2914  0.3669
 8703TIP3    H126066   0.839   4.062   5.007 -1.2327 -0.4047  0.4884
 8703TIP3    H226067   0.940   3.966   5.064  1.5796  0.8969 -2.0138
 8704TIP3   OH226068   4.588   2.843   0.385 -0.5299  0.1598 -0.2948
 8704TIP3    H126069   4.508   2.896   0.380 -0.2358  0.5166 -1.3537
 8704TIP3    H226070   4.659   2.907   0.394 -0.1492 -0.0182 -1.8355
 8705TIP3   OH226071   8.278   3.887   5.204 -0.6913  0.2303  0.1721
 8705TIP3    H126072   8.221   3.879   5.127  0.4666  0.1974 -0.7198
 8705TIP3    H226073   8.232   3.838   5.273 -0.8616 -1.4082 -1.0337
 8706TIP3   OH226074   6.138   5.671   4.009  0.4824  0.1517 -0.1132
 8706TIP3    H126075   6.062   5.654   3.954  1.1462  0.2085 -1.0612
 8706TIP3    H226076   6.102   5.716   4.086 -0.2409  1.6743 -1.2880
 8707TIP3   OH226077   7.278   2.150   3.366  0.5432  0.1143 -0.2103
 8707TIP3    H126078   7.328   2.199   3.432  1.0106  0.0987 -0.5509
 8707TIP3    H226079   7.250   2.216   3.303 -0.1747  0.1779  0.1622
 8708TIP3   OH226080   1.434   7.226   6.736  0.1405  0.5491 -0.3214
 8708TIP3    H126081   1.420   7.270   6.820 -1.2800  0.8385 -0.6816
 8708TIP3    H226082   1.351   7.236   6.690  0.2606 -1.2573 -1.0081
 8709TIP3   OH226083   5.189   6.233   2.176 -0.2018  0.4466 -0.2325
 8709TIP3    H126084   5.231   6.220   2.261  0.2947  1.0654 -0.3778
 8709TIP3    H226085   5.262   6.248   2.116 -0.5369 -0.1728 -0.8105
 8710TIP3   OH226086   3.568   5.925   1.810 -0.2785 -0.3418  0.3041
 8710TIP3    H126087   3.582   5.849   1.867  0.9603 -1.4508 -1.3705
 8710TIP3    H226088   3.649   5.975   1.817 -0.5033  0.0242  0.2697
 8711TIP3   OH226089   5.161   3.587   2.695  0.4564 -0.2382 -0.0031
 8711TIP3    H126090   5.171   3.495   2.719 -0.7436 -0.6580 -0.9720
 8711TIP3    H226091   5.066   3.603   2.698  0.7426  1.4328  1.7029
 8712TIP3   OH226092   8.114   4.504   0.356 -0.2805 -0.0311  0.8467
 8712TIP3    H126093   8.084   4.545   0.437  1.8670  3.5591  0.0816
 8712TIP3    H226094   8.209   4.493   0.369 -0.2345 -1.3546 -0.4085
 8713TIP3   OH226095   3.879   3.578   0.355 -0.0146  0.0811 -0.4198
 8713TIP3    H126096   3.821   3.527   0.298 -0.5859  0.6998 -0.3980
 8713TIP3    H226097   3.846   3.668   0.350  2.1359  0.8519 -1.9602
 8714TIP3   OH226098   2.337   5.267   2.424 -0.3184 -0.4133  0.5974
 8714TIP3    H126099   2.370   5.265   2.334 -0.0947 -1.0863  0.6853
 8714TIP3    H226100   2.244   5.244   2.415 -0.4095 -0.0009  0.4911
 8715TIP3   OH226101   3.579   7.722   6.555 -0.1751  0.2143  0.3601
 8715TIP3    H126102   3.622   7.708   6.639 -1.7764 -1.0401  1.0322
 8715TIP3    H226103   3.510   7.785   6.574 -0.4557  0.0344 -0.0428
 8716TIP3   OH226104   2.157   3.165   4.162 -0.4891  0.1267  0.0760
 8716TIP3    H126105   2.177   3.244   4.212  0.3880 -0.4845  0.7360
 8716TIP3    H226106   2.225   3.103   4.189 -0.4452 -0.4677 -1.3304
 8717TIP3   OH226107   4.333   1.970   5.161  0.2552 -0.2218  0.0965
 8717TIP3    H126108   4.288   1.920   5.093  1.2177 -0.7042 -0.1893
 8717TIP3    H226109   4.336   1.910   5.236 -0.4942  0.1868  0.4707
 8718TIP3   OH226110   7.401   2.626   0.740 -0.0071  0.1606  0.4924
 8718TIP3    H126111   7.486   2.605   0.701  0.8045  0.9600  1.7776
 8718TIP3    H226112   7.390   2.562   0.810 -0.8972 -0.4986 -0.2207
 8719TIP3   OH226113   2.756   7.692   4.376 -0.6967 -0.6110 -0.0176
 8719TIP3    H126114   2.749   7.717   4.468 -1.3970  1.9222 -0.6744
 8719TIP3    H226115   2.742   7.597   4.376  0.3899 -0.8656  2.5585
 8720TIP3   OH226116   3.271   2.921   6.627 -0.2797  0.3512 -0.2841
 8720TIP3    H126117   3.315   2.866   6.692 -0.4482 -0.5541 -0.9283
 8720TIP3    H226118   3.179   2.896   6.632 -0.2728  0.1749 -0.9682
 8721TIP3   OH226119   8.133   6.606   4.701 -0.5305  0.4605  0.2294
 8721TIP3    H126120   8.171   6.518   4.698  0.2357  0.8205 -1.4633
 8721TIP3    H226121   8.186   6.652   4.766  0.0768  0.1132 -0.0081
 8722TIP3   OH226122   5.537   2.585   4.339  0.2876  0.5503  0.3195
 8722TIP3    H126123   5.495   2.670   4.348 -0.6497  0.1555 -0.0700
 8722TIP3    H226124   5.512   2.537   4.418 -0.3845  0.1644 -0.1132
 8723TIP3   OH226125   7.856   3.757   3.692 -0.3079 -0.2146  0.0107
 8723TIP3    H126126   7.864   3.676   3.642  1.0141 -0.2754  0.2914
 8723TIP3    H226127   7.930   3.811   3.663 -0.3322  0.3088  0.8700
 8724TIP3   OH226128   7.967   0.551   1.622 -0.3851 -0.1124  0.2985
 8724TIP3    H126129   7.902   0.616   1.648  0.0010  0.0787  0.8063
 8724TIP3    H226130   7.969   0.488   1.695  0.2635  0.0932  0.4724
 8725TIP3   OH226131   5.686   2.489   2.979 -0.1646  0.3511  0.1395
 8725TIP3    H126132   5.672   2.584   2.979 -1.0493  0.2210  0.4446
 8725TIP3    H226133   5.710   2.468   3.069  1.4351  0.4730 -0.2256
 8726TIP3   OH226134   4.519   2.924   4.004  0.2249 -0.0882  0.5385
 8726TIP3    H126135   4.488   2.912   4.094 -0.8687 -1.2799  0.0400
 8726TIP3    H226136   4.548   2.836   3.976 -2.8258 -0.6260 -1.4182
 8727TIP3   OH226137   4.258   3.104   5.275 -0.0414 -0.8547  0.4426
 8727TIP3    H126138   4.346   3.077   5.301  0.3900 -0.5879 -0.6855
 8727TIP3    H226139   4.220   3.025   5.236 -0.0713 -0.7977  0.3553
 8728TIP3   OH226140   1.684   1.446   1.373  0.1055 -0.3571  0.1061
 8728TIP3    H126141   1.762   1.395   1.396 -0.5072 -2.0251 -1.3032
 8728TIP3    H226142   1.717   1.535   1.359  1.4330 -0.6195  1.3438
 8729TIP3   OH226143   0.474   0.783   5.100  0.0171  0.8272 -0.0633
 8729TIP3    H126144   0.456   0.690   5.087  2.3739  0.1218  1.0502
 8729TIP3    H226145   0.458   0.824   5.015  2.0027 -1.1854 -1.5031
 8730TIP3   OH226146   3.557   7.315   3.903  0.2113  0.1413 -0.4403
 8730TIP3    H126147   3.581   7.250   3.969 -0.5151  0.3515  0.0369
 8730TIP3    H226148   3.566   7.269   3.820  3.2216  0.4694 -0.4074
 8731TIP3   OH226149   1.551   0.493   4.603 -0.9983  0.6504  0.8123
 8731TIP3    H126150   1.644   0.510   4.588 -1.1594  0.9075  0.0458
 8731TIP3    H226151   1.507   0.530   4.526 -1.6886  0.0948  0.9247
 8732TIP3   OH226152   2.414   2.319   1.249  0.0845  0.0861 -0.6779
 8732TIP3    H126153   2.495   2.371   1.252 -0.8695  1.6080  1.4850
 8732TIP3    H226154   2.345   2.384   1.235 -0.8087 -1.2309 -2.9155
 8733TIP3   OH226155   2.869   5.116   4.394  0.6996 -0.1420 -0.0493
 8733TIP3    H126156   2.883   5.066   4.314 -1.3076 -2.0579  0.6864
 8733TIP3    H226157   2.957   5.137   4.426  1.5471  0.7358 -2.7167
 8734TIP3   OH226158   1.749   5.843   2.446  0.5240 -0.1407  0.3784
 8734TIP3    H126159   1.809   5.857   2.372  0.7196 -2.6336 -0.0010
 8734TIP3    H226160   1.671   5.805   2.406  0.7071 -1.6965  1.4541
 8735TIP3   OH226161   1.865   2.028   2.811  0.1635  0.2856 -0.1847
 8735TIP3    H126162   1.949   2.048   2.771 -1.0430  2.6463 -1.7518
 8735TIP3    H226163   1.800   2.064   2.751 -1.9075  0.7842  2.1514
 8736TIP3   OH226164   7.701   5.538   5.376  0.0485  0.3409 -0.5798
 8736TIP3    H126165   7.638   5.501   5.439 -0.7740 -0.7259 -1.9636
 8736TIP3    H226166   7.716   5.467   5.314  2.7868  0.5146 -0.2213
 8737TIP3   OH226167   2.445   0.266   1.119  0.2441 -0.9943 -0.1490
 8737TIP3    H126168   2.418   0.325   1.190 -0.7190 -2.0679  0.4107
 8737TIP3    H226169   2.416   0.179   1.148  1.4751 -1.7254 -1.0321
 8738TIP3   OH226170   7.010   3.621   5.967 -0.5046  0.2020  0.4447
 8738TIP3    H126171   7.038   3.552   6.027 -1.7629 -0.3733  0.4105
 8738TIP3    H226172   7.035   3.589   5.880  2.2407  1.4910  0.6574
 8739TIP3   OH226173   1.890   7.799   6.313 -0.6337  0.4966  0.1754
 8739TIP3    H126174   1.898   7.705   6.300  0.6067  0.7432 -1.0663
 8739TIP3    H226175   1.953   7.819   6.383 -2.4942  0.1456  2.0833
 8740TIP3   OH226176   7.351   4.727   2.789  0.0556  0.0783 -0.0398
 8740TIP3    H126177   7.287   4.656   2.783  0.4432 -0.1499 -3.9744
 8740TIP3    H226178   7.298   4.806   2.804 -0.7967 -0.5261  0.2092
 8741TIP3   OH226179   0.028   1.998   3.216 -0.1631  0.1904  0.0327
 8741TIP3    H126180   0.102   1.955   3.259 -0.1074  0.0899 -0.1642
 8741TIP3    H226181  -0.019   2.042   3.288 -0.3197 -0.3447  0.2579
 8742TIP3   OH226182   6.090   7.103   4.698 -0.1718  0.3202 -0.4950
 8742TIP3    H126183   6.083   7.161   4.622  0.5862 -0.1978 -0.9734
 8742TIP3    H226184   6.184   7.086   4.707 -0.3857 -0.9714 -0.4713
 8743TIP3   OH226185   7.206   5.341   6.311  0.4200  0.4593 -0.1147
 8743TIP3    H126186   7.150   5.292   6.371  0.1626  1.1379  0.2071
 8743TIP3    H226187   7.295   5.316   6.335  0.4897  2.7232  2.3888
 8744TIP3   OH226188   4.549   2.250   5.440 -0.2083  0.0861 -0.1074
 8744TIP3    H126189   4.639   2.247   5.406 -0.0875 -1.0173  0.2654
 8744TIP3    H226190   4.494   2.263   5.363  0.2260  0.0374 -0.4257
 8745TIP3   OH226191   3.441   1.832   5.259 -0.4320 -0.5134 -0.0791
 8745TIP3    H126192   3.495   1.757   5.237  1.1133 -0.2236  2.3239
 8745TIP3    H226193   3.471   1.859   5.346 -4.5653 -0.4034  1.5642
 8746TIP3   OH226194   2.481   7.706   4.300  0.2624  0.2584 -0.2431
 8746TIP3    H126195   2.449   7.725   4.388  1.4412  0.0309  0.2530
 8746TIP3    H226196   2.576   7.704   4.309  0.3643 -0.9932 -1.2692
 8747TIP3   OH226197   3.717   6.241   3.592 -0.3491  0.1686 -1.0785
 8747TIP3    H126198   3.699   6.149   3.612 -0.9817 -0.0037 -2.3620
 8747TIP3    H226199   3.753   6.239   3.503 -0.2073  1.1532 -1.0498
 8748TIP3   OH226200   2.219   3.412   0.981 -0.1223 -0.5251  0.0650
 8748TIP3    H126201   2.143   3.460   0.947 -0.4874 -1.2530 -0.1715
 8748TIP3    H226202   2.189   3.375   1.064  0.6305  0.8792  1.0036
 8749TIP3   OH226203   4.939   4.034   1.787  0.0134 -0.0190  0.9134
 8749TIP3    H126204   4.899   4.004   1.868 -0.2001 -0.5274  0.6197
 8749TIP3    H226205   5.006   3.968   1.767  0.1869  0.1985  0.7680
 8750TIP3   OH226206   0.509   7.421   5.513 -0.0549 -0.3791 -0.3467
 8750TIP3    H126207   0.441   7.353   5.511 -0.2373 -0.2881  1.3192
 8750TIP3    H226208   0.587   7.376   5.545 -0.1941  0.1711  0.8400
 8751TIP3   OH226209   2.449   4.749   5.169  0.0035 -0.2006 -0.4542
 8751TIP3    H126210   2.465   4.665   5.125 -1.5459 -0.5277 -0.4555
 8751TIP3    H226211   2.461   4.730   5.262 -1.5614 -0.7634 -0.3425
 8752TIP3   OH226212   0.087   3.388   4.077  0.0879  0.6644  0.1287
 8752TIP3    H126213   0.082   3.420   4.168 -0.2596  0.7596  0.0764
 8752TIP3    H226214   0.168   3.426   4.043 -0.3239  1.5114  0.0638
 8753TIP3   OH226215   5.598   2.188   3.801 -0.6303  0.6179 -0.1212
 8753TIP3    H126216   5.526   2.247   3.823 -1.6391 -0.8708  0.7514
 8753TIP3    H226217   5.577   2.106   3.848  1.4461  0.0327 -0.1312
 8754TIP3   OH226218   0.686   0.904   4.130  0.1187 -0.3457  0.4657
 8754TIP3    H126219   0.593   0.897   4.108  0.4281 -0.1200 -1.0525
 8754TIP3    H226220   0.724   0.821   4.100  0.6710  0.2399 -0.5496
 8755TIP3   OH226221   4.216   5.044   1.753  0.1772  0.1573 -0.4809
 8755TIP3    H126222   4.155   5.028   1.680 -0.5787 -0.8237  0.3385
 8755TIP3    H226223   4.237   4.957   1.786  0.8318  0.5755  0.2277
 8756TIP3   OH226224   7.980   5.398   5.919  0.3503 -0.3768  0.0277
 8756TIP3    H126225   7.990   5.473   5.860  0.1980 -1.1922 -1.0769
 8756TIP3    H226226   7.953   5.436   6.002  0.6311  0.8206 -0.4104
 8757TIP3   OH226227   5.511   3.748   0.422 -0.2912  0.1415 -0.3125
 8757TIP3    H126228   5.512   3.715   0.512 -0.8411  0.4781 -0.1769
 8757TIP3    H226229   5.494   3.671   0.368  2.0910 -0.4550 -0.3273
 8758TIP3   OH226230   2.182   5.692   5.445 -0.2372 -0.0985  0.0376
 8758TIP3    H126231   2.216   5.602   5.446  0.4793  0.1234 -1.2578
 8758TIP3    H226232   2.117   5.694   5.515  0.1824 -1.4487  0.5016
 8759TIP3   OH226233   0.749   3.567   0.931  0.4408 -0.1332  0.0570
 8759TIP3    H126234   0.685   3.539   0.865 -0.4274  0.1062  0.7831
 8759TIP3    H226235   0.822   3.505   0.921 -0.0294 -0.5925 -0.5918
 8760TIP3   OH226236   1.152   2.658   6.697 -0.0390  0.3124  0.1253
 8760TIP3    H126237   1.209   2.691   6.766  1.9643 -2.4921 -0.0226
 8760TIP3    H226238   1.135   2.567   6.721 -2.1085  0.2093 -1.3954
 8761TIP3   OH226239   3.528   3.516   1.634  0.5966 -0.0433 -0.2707
 8761TIP3    H126240   3.602   3.494   1.578  0.1792 -0.8624 -0.5251
 8761TIP3    H226241   3.505   3.433   1.676  1.5152  0.7088  1.9004
 8762TIP3   OH226242   4.098   1.819   5.060  0.3049  0.2801 -0.1038
 8762TIP3    H126243   4.080   1.752   5.125 -0.2769  0.4204 -0.1072
 8762TIP3    H226244   4.033   1.888   5.078  0.8649  0.8206 -0.1202
 8763TIP3   OH226245   2.970   3.061   6.141 -0.0787 -0.3834 -0.2810
 8763TIP3    H126246   2.936   3.105   6.063  0.0925  0.4164  0.0846
 8763TIP3    H226247   2.895   3.012   6.175 -0.2099 -0.5735 -0.8249
 8764TIP3   OH226248   0.843   6.973   3.304 -0.3734  0.0663 -0.3361
 8764TIP3    H126249   0.863   7.021   3.384  0.5353 -0.6899 -0.0902
 8764TIP3    H226250   0.810   7.039   3.244 -1.1919  0.6209  0.7004
 8765TIP3   OH226251   3.706   0.590   1.929  0.3465 -0.3851  0.3317
 8765TIP3    H126252   3.686   0.678   1.897 -0.5047 -1.0421 -1.0248
 8765TIP3    H226253   3.701   0.598   2.024  0.1223  0.9948  0.2318
 8766TIP3   OH226254   3.396   6.860   0.472 -0.0884 -0.4381 -0.3118
 8766TIP3    H126255   3.348   6.804   0.411 -4.4682 -0.5884  2.8582
 8766TIP3    H226256   3.369   6.949   0.450 -1.1880 -0.4466  0.9124
 8767TIP3   OH226257   7.584   4.985   5.426 -0.1976 -1.0347 -0.6790
 8767TIP3    H126258   7.531   4.936   5.489 -0.6212 -0.2798 -0.4447
 8767TIP3    H226259   7.671   4.989   5.467 -0.8107  0.6868  0.5617
 8768TIP3   OH226260   5.073   7.537   5.452 -0.5001 -0.3803  0.1115
 8768TIP3    H126261   5.011   7.598   5.492  0.7907  0.1711  1.3748
 8768TIP3    H226262   5.020   7.484   5.392 -1.9536  0.8458  0.2571
 8769TIP3   OH226263   2.483   0.455   3.799  0.2610 -0.4209  0.4030
 8769TIP3    H126264   2.538   0.514   3.747 -0.0813 -0.5002 -0.0594
 8769TIP3    H226265   2.452   0.509   3.871 -2.1328  0.7765 -1.3744
 8770TIP3   OH226266   1.005   7.718   4.538  0.4653  0.1003  0.4076
 8770TIP3    H126267   1.097   7.703   4.517  1.2757  2.1446  2.1941
 8770TIP3    H226268   1.003   7.804   4.579 -1.8516 -0.9321  2.7509
 8771TIP3   OH226269   6.192   7.729   3.517 -0.4127 -0.0837 -0.4988
 8771TIP3    H126270   6.281   7.696   3.506 -0.3110 -0.5244  1.3328
 8771TIP3    H226271   6.202   7.824   3.525  0.0904 -0.2404  1.1091
 8772TIP3   OH226272   4.241   1.556   3.225  0.4447  0.0010  0.1605
 8772TIP3    H126273   4.272   1.529   3.311 -1.3311 -0.3815  0.7353
 8772TIP3    H226274   4.184   1.631   3.242  1.5518  1.1230 -0.9080
 8773TIP3   OH226275   4.657   7.442   0.782 -0.4683  0.0664  0.2262
 8773TIP3    H126276   4.637   7.516   0.839  0.3202  1.6955 -1.5035
 8773TIP3    H226277   4.579   7.387   0.785 -0.7931  0.5464  2.1196
 8774TIP3   OH226278   2.248   2.309   4.109 -0.0803 -0.1767 -0.1980
 8774TIP3    H126279   2.312   2.305   4.038 -0.7762 -0.0996 -0.8412
 8774TIP3    H226280   2.165   2.283   4.068 -0.6158  0.4959  0.4350
 8775TIP3   OH226281   4.837   4.030   3.429  0.2323 -0.1167  0.1933
 8775TIP3    H126282   4.779   4.015   3.354  0.6260 -2.5297  0.2869
 8775TIP3    H226283   4.826   3.952   3.484  2.5282 -0.0251  0.8885
 8776TIP3   OH226284   3.965   0.346   5.129  0.2409  0.6293 -0.8535
 8776TIP3    H126285   4.046   0.326   5.083 -0.4605  1.7385 -2.7065
 8776TIP3    H226286   3.896   0.316   5.069 -0.7605 -0.6076  0.8239
 8777TIP3   OH226287   0.490   5.394   4.279 -0.5028  0.6771  0.0079
 8777TIP3    H126288   0.517   5.462   4.217 -0.6844  0.0996 -0.7125
 8777TIP3    H226289   0.508   5.312   4.234 -1.6515  0.2525  0.2841
 8778TIP3   OH226290   0.005   3.823   1.865 -0.1146  0.0461 -0.9203
 8778TIP3    H126291  -0.019   3.797   1.954  0.0771  0.7011 -0.6703
 8778TIP3    H226292   0.100   3.812   1.861  0.3706  3.0539  0.0310
 8779TIP3   OH226293   7.903   3.761   4.734 -0.1212 -0.5751  0.5522
 8779TIP3    H126294   7.963   3.764   4.660 -0.8075  1.0641  0.0055
 8779TIP3    H226295   7.889   3.667   4.751  2.6978 -1.0105  0.8627
 8780TIP3   OH226296   5.920   7.117   0.527  0.3898 -0.0142 -0.0032
 8780TIP3    H126297   5.902   7.030   0.492  1.0349 -0.4179  0.6592
 8780TIP3    H226298   5.837   7.164   0.517  0.0358 -0.7031 -0.3585
 8781TIP3   OH226299   4.226   3.843   2.959 -0.0582 -0.1290  0.6096
 8781TIP3    H126300   4.163   3.884   3.018 -0.1115 -0.7290  0.9764
 8781TIP3    H226301   4.250   3.912   2.897 -2.0251 -0.2117 -0.3203
 8782TIP3   OH226302   2.588   2.183   6.404 -0.0095  0.1332  0.4424
 8782TIP3    H126303   2.678   2.155   6.419  0.2011  0.5689  0.0255
 8782TIP3    H226304   2.541   2.158   6.484  0.7098  0.8867  1.1179
 8783TIP3   OH226305   6.880   4.497   6.073  0.0213  0.0023  0.4669
 8783TIP3    H126306   6.975   4.508   6.066 -0.1262  1.5054  0.4989
 8783TIP3    H226307   6.865   4.405   6.053  1.4244 -0.1006 -0.2262
 8784TIP3   OH226308   0.273   0.992   5.190  0.1064  0.0550 -0.1553
 8784TIP3    H126309   0.340   0.938   5.148 -1.0032 -1.1351 -0.4295
 8784TIP3    H226310   0.298   1.082   5.167  1.0263 -0.4228 -1.1204
 8785TIP3   OH226311   4.708   6.468   3.314  0.3154  0.0699  0.6454
 8785TIP3    H126312   4.640   6.453   3.248  0.8486  0.5950 -0.0497
 8785TIP3    H226313   4.662   6.461   3.398 -0.7884  1.2802  0.1820
 8786TIP3   OH226314   7.964   3.612   6.280 -0.1557 -0.1507 -0.0583
 8786TIP3    H126315   7.955   3.628   6.374  2.3752  0.8832  0.0842
 8786TIP3    H226316   8.002   3.693   6.246 -0.5419 -0.7081 -1.9007
 8787TIP3   OH226317   1.144   1.481   0.425 -0.4296 -0.1918  0.2486
 8787TIP3    H126318   1.206   1.409   0.414  0.0721  0.3347 -0.4530
 8787TIP3    H226319   1.060   1.438   0.439 -0.5461 -0.9913 -2.3507
 8788TIP3   OH226320   1.811   6.574   6.663  0.0955  0.1140  0.0750
 8788TIP3    H126321   1.858   6.637   6.608  0.7717  1.5938  2.2324
 8788TIP3    H226322   1.745   6.627   6.708  0.3763 -0.7992  1.6031
 8789TIP3   OH226323   7.467   3.840   6.492 -0.3747  0.6002 -0.1669
 8789TIP3    H126324   7.487   3.932   6.509  0.2016  0.3129  0.8192
 8789TIP3    H226325   7.384   3.825   6.538  1.1056 -0.1364  2.4747
 8790TIP3   OH226326   7.775   5.487   0.995 -0.3153 -0.0222 -0.2080
 8790TIP3    H126327   7.704   5.535   0.952 -0.6759 -1.1961 -0.9734
 8790TIP3    H226328   7.738   5.461   1.079 -1.1575 -1.4169 -0.9731
 8791TIP3   OH226329   2.869   7.451   6.093 -0.1954  0.3501  0.5024
 8791TIP3    H126330   2.795   7.510   6.078  0.7274  1.2724 -0.6292
 8791TIP3    H226331   2.900   7.472   6.181 -0.2209  1.1692  0.3184
 8792TIP3   OH226332   5.336   3.217   4.117  0.7978 -0.4157 -0.0197
 8792TIP3    H126333   5.372   3.273   4.049  1.8506  0.4260  1.1709
 8792TIP3    H226334   5.383   3.134   4.106  0.7845 -0.3649 -0.4744
 8793TIP3   OH226335   1.746   6.985   2.595 -0.2855 -0.2755  0.1528
 8793TIP3    H126336   1.791   6.968   2.512  1.2567  0.4771  0.7786
 8793TIP3    H226337   1.690   6.909   2.608  0.9495 -1.3588 -0.6150
 8794TIP3   OH226338   4.403   2.681   2.778 -0.3552  0.0014 -0.0095
 8794TIP3    H126339   4.352   2.612   2.820  1.5971 -0.1227  2.3853
 8794TIP3    H226340   4.458   2.636   2.714  1.1387 -0.7810  1.7652
 8795TIP3   OH226341   1.233   5.821   2.760  0.6244 -0.3207  0.5124
 8795TIP3    H126342   1.289   5.791   2.688  1.2507  0.2500  0.7487
 8795TIP3    H226343   1.144   5.800   2.731  0.8426  0.1067 -0.5336
 8796TIP3   OH226344   4.079   5.263   5.072  0.2741  0.3946 -0.1250
 8796TIP3    H126345   4.142   5.212   5.122 -0.3892  0.7860  1.1337
 8796TIP3    H226346   3.994   5.243   5.112 -0.1851  1.2424 -0.6512
 8797TIP3   OH226347   4.717   1.770   6.705 -0.2460 -0.5102 -0.0963
 8797TIP3    H126348   4.784   1.709   6.673  1.1932  1.1336 -0.3173
 8797TIP3    H226349   4.745   1.793   6.793 -0.8670 -0.2616  0.0401
 8798TIP3   OH226350   7.225   1.049   4.797 -0.0442  0.0891 -0.6519
 8798TIP3    H126351   7.312   1.017   4.773  0.3974  0.4964  0.3631
 8798TIP3    H226352   7.198   1.103   4.722 -0.1872 -1.4286 -1.7455
 8799TIP3   OH226353   4.902   0.978   2.755 -0.0801  0.1155 -0.1993
 8799TIP3    H126354   4.860   0.894   2.770  1.2058 -0.4872  0.1986
 8799TIP3    H226355   4.984   0.956   2.711  2.0153  0.7510  3.0240
 8800TIP3   OH226356   6.821   2.592   5.318  0.0931  0.9013 -0.2064
 8800TIP3    H126357   6.838   2.525   5.384  2.1358 -0.0842 -1.6299
 8800TIP3    H226358   6.888   2.658   5.334 -0.2430  1.3082 -0.4736
 8801TIP3   OH226359   0.525   2.404   1.471  0.4469  0.5274 -0.3517
 8801TIP3    H126360   0.542   2.322   1.517  0.1691  0.5380 -0.2330
 8801TIP3    H226361   0.430   2.412   1.469  0.4849  1.7262  1.2071
 8802TIP3   OH226362   0.414   7.236   4.837  0.4484  0.3455 -0.3000
 8802TIP3    H126363   0.435   7.243   4.930  1.1519  0.0227 -0.4215
 8802TIP3    H226364   0.369   7.317   4.816  0.2986  0.4283  0.3200
 8803TIP3   OH226365   2.667   1.017   3.112 -0.1679 -0.2018  0.2890
 8803TIP3    H126366   2.707   0.930   3.113  0.2347 -0.0278  1.5944
 8803TIP3    H226367   2.736   1.074   3.078  0.8022  0.1142  2.6343
 8804TIP3   OH226368   1.236   5.808   0.878 -0.1837 -0.4878 -0.0743
 8804TIP3    H126369   1.294   5.868   0.925 -0.0099 -0.0781 -0.7951
 8804TIP3    H226370   1.282   5.787   0.797 -0.8715 -0.4459 -0.4903
 8805TIP3   OH226371   2.756   3.161   2.817 -0.4008  0.3185 -0.2831
 8805TIP3    H126372   2.787   3.151   2.907  0.0335  1.0079 -0.3431
 8805TIP3    H226373   2.661   3.165   2.824 -0.3845  0.0531  0.1147
 8806TIP3   OH226374   1.998   2.842   2.193 -0.4890  0.0101  0.0882
 8806TIP3    H126375   1.977   2.757   2.155 -1.5696  0.8208 -1.2176
 8806TIP3    H226376   2.000   2.826   2.287 -0.4102 -1.5047 -0.1499
 8807TIP3   OH226377   0.062   3.987   6.234 -0.4063  0.2366  0.3787
 8807TIP3    H126378   0.131   4.031   6.283 -0.4522  0.6061  0.1078
 8807TIP3    H226379   0.041   3.910   6.288  0.0038  0.2828  0.6091
 8808TIP3   OH226380   7.426   0.147   2.721  0.1085  0.3148 -0.1735
 8808TIP3    H126381   7.466   0.060   2.728  1.8289  0.9490 -1.2190
 8808TIP3    H226382   7.501   0.206   2.717 -1.0289  1.8229  0.1281
 8809TIP3   OH226383   5.862   7.036   0.095  0.2325 -0.1594  0.5200
 8809TIP3    H126384   5.868   6.952   0.049  0.2736 -0.0817  0.3842
 8809TIP3    H226385   5.952   7.069   0.097 -0.0784  0.9908 -1.4895
 8810TIP3   OH226386   5.772   3.811   6.483 -0.2065  0.4490 -0.0592
 8810TIP3    H126387   5.779   3.745   6.552  1.9063  1.0083  0.3565
 8810TIP3    H226388   5.810   3.769   6.406 -1.1278  0.3635 -0.4799
 8811TIP3   OH226389   1.534   7.465   0.316  0.0006 -0.0023  0.1367
 8811TIP3    H126390   1.503   7.546   0.277  0.0029  0.1117  0.3690
 8811TIP3    H226391   1.475   7.398   0.282  0.3272  0.0114 -0.4790
 8812TIP3   OH226392   2.341   5.072   3.147  0.0341  0.4884  0.0331
 8812TIP3    H126393   2.381   5.115   3.223  1.0738  1.3673 -0.9728
 8812TIP3    H226394   2.290   5.141   3.105 -0.2778  0.0861 -0.2523
 8813TIP3   OH226395   8.293   3.157   2.824 -0.9893  0.2063 -0.6371
 8813TIP3    H126396   8.271   3.120   2.739  0.1956  2.0014 -1.8161
 8813TIP3    H226397   8.334   3.241   2.803  0.8618 -0.0251  1.6220
 8814TIP3   OH226398   2.039   4.520   1.183  0.2702  0.3588  0.2612
 8814TIP3    H126399   2.017   4.587   1.248 -0.4454 -0.3932  0.8036
 8814TIP3    H226400   2.123   4.486   1.213  1.4589  2.0755 -0.8952
 8815TIP3   OH226401   6.061   6.480   5.340  0.0318 -0.2644  0.2554
 8815TIP3    H126402   6.048   6.539   5.266 -0.7078  0.8913  1.2580
 8815TIP3    H226403   6.071   6.538   5.416  0.9830 -1.4012  1.0409
 8816TIP3   OH226404   4.209   3.996   4.214 -1.0169 -0.3652  0.2618
 8816TIP3    H126405   4.123   4.035   4.200 -1.0325 -0.5656 -0.2055
 8816TIP3    H226406   4.197   3.903   4.196 -0.4769 -0.2406 -0.8252
 8817TIP3   OH226407   0.508   5.602   6.714  0.4583 -0.5409  0.6878
 8817TIP3    H126408   0.593   5.561   6.699  1.7967  2.0751  0.5685
 8817TIP3    H226409   0.499   5.605   6.809  1.3281  0.6890  0.7481
 8818TIP3   OH226410   4.963   0.805   6.245  0.1600 -0.5349  0.1690
 8818TIP3    H126411   4.980   0.711   6.255 -1.0447 -0.6752  1.0648
 8818TIP3    H226412   4.902   0.811   6.172 -0.2856 -0.5064  0.5428
 8819TIP3   OH226413   6.341   3.809   0.895 -0.4216  0.4458  0.0921
 8819TIP3    H126414   6.343   3.902   0.918  1.2640  0.5984 -0.5347
 8819TIP3    H226415   6.429   3.790   0.865 -1.1914 -0.9484 -1.4470
 8820TIP3   OH226416   7.623   4.948   4.811  0.3402 -0.3041 -0.2718
 8820TIP3    H126417   7.628   5.040   4.786 -0.8778 -0.0472  0.3524
 8820TIP3    H226418   7.590   4.903   4.733  1.1196 -0.2520 -0.6393
 8821TIP3   OH226419   4.460   3.102   1.713  0.4229  0.6685  0.0417
 8821TIP3    H126420   4.493   3.136   1.629 -0.0018 -1.8643 -1.2408
 8821TIP3    H226421   4.374   3.065   1.692  0.8331 -1.1450  1.2923
 8822TIP3   OH226422   4.068   5.331   3.230  0.0728 -0.0977  0.0330
 8822TIP3    H126423   4.045   5.404   3.172 -1.3279  0.7106  1.5089
 8822TIP3    H226424   3.995   5.270   3.221  0.1485 -0.2534  0.4602
 8823TIP3   OH226425   5.576   4.795   1.744 -0.0307 -0.0512 -0.5939
 8823TIP3    H126426   5.497   4.843   1.766 -0.0932  0.8315 -2.5837
 8823TIP3    H226427   5.565   4.710   1.787 -0.9002  0.9146  1.1866
 8824TIP3   OH226428   0.294   3.299   2.684 -0.2492  0.2688  0.4685
 8824TIP3    H126429   0.340   3.249   2.752 -1.5791 -0.8492  0.6008
 8824TIP3    H226430   0.277   3.384   2.724  0.0305  0.0336  1.1029
 8825TIP3   OH226431   8.084   3.964   1.804  0.3092 -0.3822 -0.2754
 8825TIP3    H126432   8.175   3.939   1.818  0.1080 -0.9564  0.0231
 8825TIP3    H226433   8.040   3.883   1.780  0.1231  0.1051 -1.6798
 8826TIP3   OH226434   3.487   2.220   1.970 -0.1069 -0.1000 -0.2561
 8826TIP3    H126435   3.476   2.135   1.927  1.7615 -1.1718  1.2412
 8826TIP3    H226436   3.399   2.242   2.001 -1.0613 -0.3714 -2.5417
 8827TIP3   OH226437   2.821   7.312   4.940 -0.0660 -0.0847  0.3612
 8827TIP3    H126438   2.771   7.350   5.012  1.5521  0.2426  1.3395
 8827TIP3    H226439   2.912   7.336   4.957  0.5941 -1.5679 -0.7930
 8828TIP3   OH226440   3.182   2.075   3.309 -0.0985  0.1541 -0.2287
 8828TIP3    H126441   3.217   2.164   3.304  0.3902 -0.0803 -1.3814
 8828TIP3    H226442   3.109   2.082   3.370  1.7617  0.7077  2.1187
 8829TIP3   OH226443   7.909   7.516   3.029 -0.4020  0.3955  0.4265
 8829TIP3    H126444   7.864   7.535   2.947 -0.9169  0.9822  0.8339
 8829TIP3    H226445   7.846   7.538   3.097 -0.4306 -1.2651  0.9727
 8830TIP3   OH226446   1.259   0.075   1.159 -0.3229 -0.1696 -0.1878
 8830TIP3    H126447   1.199   0.122   1.217 -1.1775 -0.0757 -1.1241
 8830TIP3    H226448   1.254   0.123   1.076  0.4975 -0.6027 -0.5002
 8831TIP3   OH226449   6.331   1.187   1.461 -0.4001  0.6401 -0.4313
 8831TIP3    H126450   6.330   1.201   1.556 -0.0970 -0.3259 -0.2716
 8831TIP3    H226451   6.385   1.258   1.427  0.9796 -0.0060  0.3142
 8832TIP3   OH226452   4.453   5.608   5.576  0.6662 -0.7112  0.3196
 8832TIP3    H126453   4.507   5.653   5.641 -0.3081  1.0809 -0.0549
 8832TIP3    H226454   4.478   5.649   5.493 -1.7767  0.7445  0.2224
 8833TIP3   OH226455   0.362   4.298   3.174  0.4902  1.0015 -0.0695
 8833TIP3    H126456   0.307   4.244   3.118 -0.7980  0.7008  1.4398
 8833TIP3    H226457   0.443   4.248   3.183 -0.2711 -0.1738  0.4196
 8834TIP3   OH226458   0.402   3.218   5.992  0.3220 -0.4209 -0.2844
 8834TIP3    H126459   0.384   3.311   6.010  0.3796 -0.3146 -0.7791
 8834TIP3    H226460   0.317   3.175   6.002  0.2760 -0.3016 -0.1553
 8835TIP3   OH226461   2.265   5.297   3.803 -0.0120 -0.3195 -0.1370
 8835TIP3    H126462   2.298   5.226   3.748  0.5011 -1.2642  1.3274
 8835TIP3    H226463   2.211   5.254   3.868  0.4285  0.5993  0.8696
 8836TIP3   OH226464   2.536   0.269   5.233 -0.0136 -0.3382  0.0570
 8836TIP3    H126465   2.480   0.192   5.231 -0.4852 -0.0043  0.3252
 8836TIP3    H226466   2.488   0.333   5.286  0.4327  0.0936 -0.0493
 8837TIP3   OH226467   4.918   7.135   2.347 -0.2178 -0.2847  0.4672
 8837TIP3    H126468   4.966   7.073   2.293  0.1339 -1.5742  2.1794
 8837TIP3    H226469   4.948   7.221   2.317 -0.7682 -0.8678 -2.0054
 8838TIP3   OH226470   0.676   4.363   6.161  0.0132 -0.2812  0.8162
 8838TIP3    H126471   0.693   4.441   6.213  1.5650  0.4148 -0.6335
 8838TIP3    H226472   0.708   4.291   6.214  1.0646  0.3498  1.0636
 8839TIP3   OH226473   8.051   2.920   2.751  0.3622  0.3135  0.5818
 8839TIP3    H126474   8.118   2.969   2.704  0.1305 -0.3307 -0.4501
 8839TIP3    H226475   7.973   2.974   2.745 -0.2248 -0.7039 -1.6435
 8840TIP3   OH226476   0.339   7.622   3.649  0.5767  0.6532 -0.1064
 8840TIP3    H126477   0.275   7.560   3.614  0.4945 -0.0252  1.1790
 8840TIP3    H226478   0.285   7.691   3.689  0.6670  1.6743 -1.6819
 8841TIP3   OH226479   6.503   2.890   0.465  0.3625 -0.4818 -0.3233
 8841TIP3    H126480   6.475   2.956   0.528  1.0784  0.0491 -0.5420
 8841TIP3    H226481   6.430   2.829   0.459 -0.0236 -0.1020  0.4236
 8842TIP3   OH226482   5.160   2.989   6.553 -0.8350  0.2406  0.0858
 8842TIP3    H126483   5.084   2.956   6.601 -1.8110  0.0854 -1.4784
 8842TIP3    H226484   5.136   3.079   6.529  0.1541  0.7483  0.9138
 8843TIP3   OH226485   6.960   3.391   2.523  0.5872  0.0415  0.3355
 8843TIP3    H126486   6.977   3.331   2.451 -1.0117  1.7011 -1.5203
 8843TIP3    H226487   6.880   3.358   2.564  0.6217 -0.0077  0.3634
 8844TIP3   OH226488   5.169   6.757   3.531 -0.1187  0.1419 -0.3777
 8844TIP3    H126489   5.158   6.746   3.625  0.8152  1.7448 -0.0358
 8844TIP3    H226490   5.180   6.669   3.497  0.8982 -0.3737  1.2027
 8845TIP3   OH226491   4.695   1.430   0.938 -0.3578  0.5325 -0.3777
 8845TIP3    H126492   4.730   1.445   0.850  0.7078  0.7294  0.0591
 8845TIP3    H226493   4.712   1.338   0.955 -0.5882  0.4879 -0.3845
 8846TIP3   OH226494   7.111   5.962   5.259 -0.3733  0.1811  0.1166
 8846TIP3    H126495   7.120   5.871   5.229 -1.6862 -0.3294  1.1900
 8846TIP3    H226496   7.200   5.987   5.285 -0.0534 -0.9335  0.1635
 8847TIP3   OH226497   5.331   1.391   1.891 -0.2129 -0.3929  0.2426
 8847TIP3    H126498   5.282   1.407   1.972  3.3227  1.2450  2.2956
 8847TIP3    H226499   5.389   1.318   1.913  0.0180 -0.6724 -1.2395
 8848TIP3   OH226500   1.474   2.556   1.843 -0.4708  0.3807  0.4221
 8848TIP3    H126501   1.403   2.591   1.896  0.6228  1.0255  1.5050
 8848TIP3    H226502   1.539   2.525   1.906  0.0634 -0.5550 -0.5383
 8849TIP3   OH226503   5.773   4.545   2.476  0.4693 -0.6993 -0.2370
 8849TIP3    H126504   5.807   4.506   2.556  0.5709 -0.8690 -0.3642
 8849TIP3    H226505   5.818   4.630   2.470 -0.8368  0.1085  0.8290
 8850TIP3   OH226506   4.866   2.549   1.539 -0.1411 -0.1264 -0.0421
 8850TIP3    H126507   4.784   2.596   1.524 -0.5458 -0.3090  1.4035
 8850TIP3    H226508   4.871   2.486   1.467 -1.7798 -0.7824  0.3677
 8851TIP3   OH226509   3.809   2.046   6.732 -0.0861 -0.2682  0.4548
 8851TIP3    H126510   3.792   2.126   6.781  1.1093 -0.5273  1.3807
 8851TIP3    H226511   3.876   2.070   6.668 -2.4504  0.3440 -1.9515
 8852TIP3   OH226512   7.107   7.751   1.983 -0.5046 -0.0469  0.2676
 8852TIP3    H126513   7.185   7.696   1.981 -1.1061 -0.9524  0.8521
 8852TIP3    H226514   7.132   7.830   1.936  0.9424 -0.0764  0.9323
 8853TIP3   OH226515   2.289   7.607   4.520 -0.3080 -0.5464  0.0765
 8853TIP3    H126516   2.214   7.646   4.566  0.1442 -1.4091  1.6347
 8853TIP3    H226517   2.251   7.537   4.467 -0.5870 -1.2235  1.1464
 8854TIP3   OH226518   7.710   2.419   4.506 -0.0533  0.2078 -0.1461
 8854TIP3    H126519   7.668   2.334   4.492  0.6510 -0.5760  2.1030
 8854TIP3    H226520   7.803   2.404   4.488 -0.1595  0.9650 -1.4151
 8855TIP3   OH226521   6.840   5.983   4.796  0.0123  0.1418 -0.2313
 8855TIP3    H126522   6.844   6.006   4.889  0.7280  0.4631 -0.3359
 8855TIP3    H226523   6.931   5.962   4.772 -0.2996 -0.7685 -0.6531
 8856TIP3   OH226524   0.921   7.140   0.831 -0.4330  0.3333  0.1439
 8856TIP3    H126525   0.989   7.205   0.849 -0.4122  0.4444 -0.3331
 8856TIP3    H226526   0.918   7.087   0.910 -0.5997  1.0457  0.6289
 8857TIP3   OH226527   5.468   7.212   6.305  0.3358 -0.0022  0.1830
 8857TIP3    H126528   5.488   7.151   6.234 -0.0238 -1.2609  1.1141
 8857TIP3    H226529   5.406   7.164   6.360  1.4826  0.4638  1.9596
 8858TIP3   OH226530   4.572   6.360   0.766 -0.5294 -0.1791 -0.2247
 8858TIP3    H126531   4.618   6.283   0.800  1.5987  1.3412  0.6042
 8858TIP3    H226532   4.608   6.372   0.678 -0.0338  0.4856  0.0665
 8859TIP3   OH226533   1.449   4.106   5.142 -0.0245 -0.1105  0.0784
 8859TIP3    H126534   1.362   4.066   5.148  0.4604 -1.7057 -2.0891
 8859TIP3    H226535   1.441   4.168   5.070  0.1784  1.1641  1.1248
 8860TIP3   OH226536   7.163   1.162   5.512  0.1307 -0.1135  0.3537
 8860TIP3    H126537   7.207   1.102   5.452  0.9416  1.6454 -0.9109
 8860TIP3    H226538   7.075   1.128   5.522  0.8502 -2.0373  0.4905
 8861TIP3   OH226539   4.963   2.683   6.132 -0.2070 -0.3058 -0.4737
 8861TIP3    H126540   5.023   2.636   6.073 -0.7350  0.5200 -1.7081
 8861TIP3    H226541   4.911   2.614   6.173  0.7153 -0.9496 -0.3385
 8862TIP3   OH226542   8.224   5.956   5.568 -0.1402  0.0392  0.1053
 8862TIP3    H126543   8.158   5.901   5.610 -0.5734  0.4304 -0.0565
 8862TIP3    H226544   8.268   5.899   5.506  0.0020 -0.3511  0.5628
 8863TIP3   OH226545   3.007   3.435   0.433 -0.9115  0.3090  0.0191
 8863TIP3    H126546   2.918   3.428   0.468 -0.9735 -2.2267 -0.4420
 8863TIP3    H226547   3.057   3.476   0.504 -2.0461 -0.1060  1.1048
 8864TIP3   OH226548   2.834   4.624   3.245  0.3946 -0.2978 -0.0611
 8864TIP3    H126549   2.763   4.686   3.226  0.2356 -0.9610 -1.8084
 8864TIP3    H226550   2.908   4.680   3.270 -0.6131  0.4189  1.4516
 8865TIP3   OH226551   1.662   3.392   2.149 -0.0101  0.3501  0.5167
 8865TIP3    H126552   1.673   3.343   2.231 -1.0024 -2.3059 -0.8349
 8865TIP3    H226553   1.745   3.381   2.103 -0.0208  0.4625  0.4704
 8866TIP3   OH226554   0.182   7.753   1.368 -0.3310 -0.0605 -0.6564
 8866TIP3    H126555   0.260   7.701   1.385 -0.5192 -0.7463 -1.7511
 8866TIP3    H226556   0.109   7.694   1.387 -0.6093  0.6905  0.7170
 8867TIP3   OH226557   7.024   3.998   3.503  0.0441  0.4960  0.3053
 8867TIP3    H126558   6.974   4.067   3.460  0.0910 -1.5546 -3.4905
 8867TIP3    H226559   7.115   4.028   3.499 -0.0601  0.7465 -0.1971
 8868TIP3   OH226560   3.717   5.044   1.810 -0.2846  0.1168  0.2671
 8868TIP3    H126561   3.734   5.137   1.825 -1.2173  0.6730 -1.8167
 8868TIP3    H226562   3.641   5.024   1.865 -1.9520  1.3974 -1.4383
 8869TIP3   OH226563   4.800   1.248   3.637 -0.0983  0.0841 -0.0096
 8869TIP3    H126564   4.826   1.324   3.690 -2.3203  1.0120 -0.1422
 8869TIP3    H226565   4.786   1.283   3.549 -1.8024 -0.2759  0.0701
 8870TIP3   OH226566   5.208   5.974   1.851 -0.2016 -0.5302  0.0859
 8870TIP3    H126567   5.281   5.938   1.800 -0.0159  0.5839 -0.4865
 8870TIP3    H226568   5.241   6.058   1.883 -0.6472 -0.7982  1.2913
 8871TIP3   OH226569   3.599   3.762   5.538  0.1855 -0.2551  0.0503
 8871TIP3    H126570   3.675   3.810   5.572  1.4300 -0.5702 -2.1195
 8871TIP3    H226571   3.622   3.670   5.550  0.7681 -0.3775 -1.7870
 8872TIP3   OH226572   0.874   2.385   5.233 -0.0977 -0.0415 -0.4812
 8872TIP3    H126573   0.828   2.442   5.296  1.6408  0.8462  0.0706
 8872TIP3    H226574   0.875   2.299   5.275 -0.1776  0.2229  0.0784
 8873TIP3   OH226575   4.261   5.270   3.792  0.0697 -0.2906  0.0417
 8873TIP3    H126576   4.291   5.212   3.862  1.2282  0.7837  0.4794
 8873TIP3    H226577   4.340   5.315   3.762 -0.9339  1.9374  0.5411
 8874TIP3   OH226578   1.827   3.699   2.409 -0.2999  0.5754  0.6092
 8874TIP3    H126579   1.750   3.686   2.464 -0.3424 -1.7883  0.1114
 8874TIP3    H226580   1.890   3.745   2.465 -1.5217  1.1823  1.5027
 8875TIP3   OH226581   3.456   2.015   4.878  0.4323  0.2141 -0.1923
 8875TIP3    H126582   3.507   2.081   4.832  1.5698 -1.6321 -1.7434
 8875TIP3    H226583   3.511   1.987   4.951  2.2637 -2.4095 -2.3686
 8876TIP3   OH226584   7.030   7.041   2.352  0.2055  0.0924  0.6026
 8876TIP3    H126585   6.999   6.956   2.320 -0.1263  0.4999 -0.2004
 8876TIP3    H226586   6.960   7.102   2.329  0.7218  0.6884  0.5836
 8877TIP3   OH226587   0.747   4.069   4.690 -0.4055 -0.7465  0.3855
 8877TIP3    H126588   0.788   3.983   4.682  2.9038  0.7592 -0.8325
 8877TIP3    H226589   0.665   4.061   4.641  1.2578 -2.4652 -2.4479
 8878TIP3   OH226590   7.497   3.027   5.528 -0.2658 -0.0574 -0.2800
 8878TIP3    H126591   7.468   3.010   5.618  1.1184 -0.2027  0.1626
 8878TIP3    H226592   7.447   3.104   5.501  0.3317  0.8788  1.1603
 8879TIP3   OH226593   2.284   3.020   3.045 -0.5044 -0.5770 -0.0516
 8879TIP3    H126594   2.210   3.076   3.068 -0.4478  0.4845 -2.1865
 8879TIP3    H226595   2.260   2.934   3.078 -1.0040  0.4447  2.5288
 8880TIP3   OH226596   2.379   7.055   5.962 -0.1617 -0.2625 -0.0549
 8880TIP3    H126597   2.452   6.996   5.944 -1.9298 -2.4432 -0.4300
 8880TIP3    H226598   2.354   7.088   5.875  0.3616  0.5364  0.0812
 8881TIP3   OH226599   2.225   2.868   4.848  0.7609 -0.3299 -0.0966
 8881TIP3    H126600   2.180   2.826   4.775 -0.7465  0.7985  0.1351
 8881TIP3    H226601   2.196   2.820   4.925 -0.9678  1.0613  0.1689
 8882TIP3   OH226602   3.437   1.855   6.510  0.5825 -0.2325 -0.0687
 8882TIP3    H126603   3.368   1.843   6.575 -0.2299  2.3897 -0.3159
 8882TIP3    H226604   3.515   1.815   6.549 -1.3598 -5.4754 -0.7727
 8883TIP3   OH226605   4.068   4.302   0.628 -0.3587 -0.0043 -0.3301
 8883TIP3    H126606   4.002   4.333   0.689  0.1931  1.2624 -0.3492
 8883TIP3    H226607   4.037   4.332   0.542 -1.0097 -1.5665 -0.6693
 8884TIP3   OH226608   0.497   0.537   2.454 -0.6171  0.0468  0.1123
 8884TIP3    H126609   0.535   0.615   2.414  0.9577 -0.7717 -0.0511
 8884TIP3    H226610   0.403   0.549   2.445 -0.4116  1.9409  0.1176
 8885TIP3   OH226611   3.054   6.444   2.965 -0.3550  0.2494 -0.4361
 8885TIP3    H126612   3.024   6.460   2.876 -0.2713  0.2630 -0.4620
 8885TIP3    H226613   3.130   6.502   2.976 -1.1550  1.2111  0.0916
 8886TIP3   OH226614   1.807   1.354   4.292 -0.0287  0.4276 -0.8565
 8886TIP3    H126615   1.868   1.396   4.353  0.0018 -0.1836 -0.4569
 8886TIP3    H226616   1.785   1.270   4.334 -0.5592  0.3136 -1.3519
 8887TIP3   OH226617   5.265   0.224   4.457 -0.7767 -0.1770 -0.3212
 8887TIP3    H126618   5.210   0.244   4.381 -0.6479 -2.4190 -1.1004
 8887TIP3    H226619   5.246   0.132   4.476  0.8370 -0.2844  0.9939
 8888TIP3   OH226620   4.772   4.649   4.556 -0.3082  0.0023 -0.2299
 8888TIP3    H126621   4.831   4.638   4.631 -1.7733  0.9101  1.1244
 8888TIP3    H226622   4.827   4.636   4.480  1.0722 -1.8864  1.0010
 8889TIP3   OH226623   3.643   0.705   2.430 -0.0096 -0.0229 -0.0473
 8889TIP3    H126624   3.684   0.745   2.354 -0.2539 -0.6238 -0.5099
 8889TIP3    H226625   3.665   0.612   2.422 -2.1935 -0.5489 -0.8439
 8890TIP3   OH226626   3.189   5.678   5.344  0.0897 -0.1881 -0.4083
 8890TIP3    H126627   3.151   5.596   5.376  1.1413 -0.6600 -0.3251
 8890TIP3    H226628   3.280   5.675   5.374  0.5213  0.3568 -1.6091
 8891TIP3   OH226629   6.621   0.272   4.177 -0.2930 -0.1253  0.1734
 8891TIP3    H126630   6.629   0.179   4.161 -1.7440 -0.2722  0.1494
 8891TIP3    H226631   6.580   0.307   4.098 -2.7459 -0.0339  1.3775
 8892TIP3   OH226632   7.209   4.743   4.309 -0.1357 -0.3147  0.4215
 8892TIP3    H126633   7.271   4.816   4.298  0.3069 -1.0087 -2.9148
 8892TIP3    H226634   7.254   4.682   4.366  2.6661 -0.9892 -2.2297
 8893TIP3   OH226635   6.890   0.055   3.595 -0.1198  0.5825 -0.5657
 8893TIP3    H126636   6.982   0.041   3.620 -0.2888 -1.7985 -1.0563
 8893TIP3    H226637   6.885   0.148   3.575  2.0275  0.9085  0.1209
 8894TIP3   OH226638   3.604   1.239   0.612 -0.2289  0.2943 -0.4221
 8894TIP3    H126639   3.526   1.263   0.562 -1.1641 -1.2302  0.2268
 8894TIP3    H226640   3.675   1.287   0.570 -1.3374  0.8243 -1.7702
 8895TIP3   OH226641   7.217   2.969   3.023 -0.5570 -1.0276 -0.1754
 8895TIP3    H126642   7.179   2.916   3.093  0.3868 -1.4912  0.0002
 8895TIP3    H226643   7.161   2.952   2.947 -1.4655 -0.6792  0.4029
 8896TIP3   OH226644   6.680   1.344   0.499 -0.0613 -0.3381  0.4752
 8896TIP3    H126645   6.647   1.288   0.428 -0.1720 -0.3531  0.5383
 8896TIP3    H226646   6.662   1.295   0.579 -0.8552  0.1239  0.5875
 8897TIP3   OH226647   0.529   4.584   4.548  0.1200 -0.2201 -0.0129
 8897TIP3    H126648   0.515   4.646   4.476  0.8531 -1.5497 -1.3657
 8897TIP3    H226649   0.590   4.629   4.607 -2.8562  2.1643  1.5238
 8898TIP3   OH226650   1.384   3.611   5.250 -0.0232  0.3750 -0.8667
 8898TIP3    H126651   1.461   3.660   5.222  1.2898  0.4082  2.2917
 8898TIP3    H226652   1.397   3.523   5.214  2.5023 -0.1138  0.9403
 8899TIP3   OH226653   4.192   2.503   1.013 -0.1954 -0.0027 -0.3430
 8899TIP3    H126654   4.232   2.465   0.935 -0.6020 -0.7557 -0.1896
 8899TIP3    H226655   4.103   2.467   1.015 -1.3263  2.4982 -1.3015
 8900TIP3   OH226656   0.053   5.226   6.448 -0.8407 -0.2275 -0.2391
 8900TIP3    H126657   0.031   5.203   6.358 -0.2421 -0.2527 -0.3788
 8900TIP3    H226658   0.133   5.177   6.467 -0.0930  0.9739 -0.2180
 8901TIP3   OH226659   4.927   6.709   3.383  0.0928 -0.3221  0.2404
 8901TIP3    H126660   4.986   6.679   3.313 -0.6986  0.5322 -0.8275
 8901TIP3    H226661   4.940   6.645   3.454  2.2404 -0.2099  0.0327
 8902TIP3   OH226662   0.491   6.928   3.350  0.2256  0.0511  0.7342
 8902TIP3    H126663   0.552   6.853   3.349 -1.9406 -1.7964 -0.2479
 8902TIP3    H226664   0.535   6.993   3.405  1.8445 -2.2672  2.3734
 8903TIP3   OH226665   0.400   6.225   1.832  0.1243  0.0835 -0.1105
 8903TIP3    H126666   0.316   6.272   1.834  1.1611  2.0531 -0.4581
 8903TIP3    H226667   0.389   6.160   1.764 -1.5812 -0.6429  0.7985
 8904TIP3   OH226668   5.146   7.607   3.925 -0.0738 -0.7056 -0.4791
 8904TIP3    H126669   5.090   7.606   3.848 -1.0516  0.7441  0.1825
 8904TIP3    H226670   5.194   7.690   3.920  1.0786 -1.3317 -0.3515
 8905TIP3   OH226671   2.964   5.748   5.862 -0.5205 -0.0316 -0.3880
 8905TIP3    H126672   2.994   5.673   5.811 -0.3356 -0.0050 -0.3196
 8905TIP3    H226673   2.877   5.768   5.827 -0.9717 -0.8744  0.2424
 8906TIP3   OH226674   2.884   3.401   5.210  0.0563 -0.1599  0.0128
 8906TIP3    H126675   2.850   3.490   5.208  0.5429  0.0588  0.7524
 8906TIP3    H226676   2.807   3.346   5.226  0.0932  0.4128  2.6995
 8907TIP3   OH226677   0.758   0.972   0.788 -0.0589  0.5316  0.1615
 8907TIP3    H126678   0.665   0.977   0.810 -0.3545 -0.8738 -0.6402
 8907TIP3    H226679   0.802   1.015   0.861 -1.2251 -0.5148  1.5480
 8908TIP3   OH226680   7.180   6.220   1.418  0.3388 -0.6189 -0.3596
 8908TIP3    H126681   7.225   6.290   1.370  1.6587 -0.1587  1.4482
 8908TIP3    H226682   7.112   6.265   1.467  2.8619 -0.0209  2.9175
 8909TIP3   OH226683   7.889   5.610   6.410 -0.4835 -0.2584 -0.0808
 8909TIP3    H126684   7.967   5.621   6.463 -1.3340 -0.4269  1.2478
 8909TIP3    H226685   7.822   5.580   6.471 -2.0632  1.5646 -0.8191
 8910TIP3   OH226686   4.303   3.887   2.612  0.4710  0.4711  0.6255
 8910TIP3    H126687   4.342   3.835   2.542 -1.4766  0.8984 -0.8887
 8910TIP3    H226688   4.342   3.853   2.692  0.7171 -1.9949 -0.4402
 8911TIP3   OH226689   0.300   2.687   0.921 -0.2021 -0.0018 -0.1714
 8911TIP3    H126690   0.324   2.604   0.880 -0.4247  0.0005 -0.3051
 8911TIP3    H226691   0.224   2.717   0.872  0.2278  0.5692 -0.5001
 8912TIP3   OH226692   2.575   1.973   2.591  0.2138  0.0076  0.3253
 8912TIP3    H126693   2.590   1.962   2.497  1.2249 -0.9057  0.5763
 8912TIP3    H226694   2.500   1.916   2.610 -1.2399  1.6426 -0.2373
 8913TIP3   OH226695   3.518   4.294   4.447 -0.2545 -1.4146  0.1185
 8913TIP3    H126696   3.510   4.199   4.449  2.0280 -1.6536  1.7916
 8913TIP3    H226697   3.552   4.317   4.533  2.1316  0.5854 -1.2395
 8914TIP3   OH226698   5.937   5.170   4.063 -0.0776  0.3315 -0.3009
 8914TIP3    H126699   5.940   5.193   4.155  2.2723 -0.2976 -0.1528
 8914TIP3    H226700   6.015   5.211   4.025  0.5165 -1.6334 -1.3896
 8915TIP3   OH226701   4.714   5.550   0.775  0.6893  0.0658 -0.0075
 8915TIP3    H126702   4.756   5.613   0.717  0.3785  2.4105  2.1732
 8915TIP3    H226703   4.620   5.563   0.762  0.6196  0.3334  0.7304
 8916TIP3   OH226704   4.999   4.798   2.922  0.0900  0.1080  0.1906
 8916TIP3    H126705   5.028   4.809   3.013  0.2450  3.6606 -0.1583
 8916TIP3    H226706   4.904   4.783   2.929 -0.2119  2.1103  0.9377
 8917TIP3   OH226707   0.399   0.483   5.694 -0.5785  0.3791 -0.1063
 8917TIP3    H126708   0.344   0.499   5.618  0.6245  1.0953 -0.8590
 8917TIP3    H226709   0.346   0.512   5.769 -0.9760  1.6566 -0.8593
 8918TIP3   OH226710   2.038   6.699   6.530 -0.4600  0.0039 -0.3951
 8918TIP3    H126711   2.120   6.678   6.485 -1.5772 -0.4153 -2.3219
 8918TIP3    H226712   2.038   6.794   6.537 -0.4057  0.0958 -1.5772
 8919TIP3   OH226713   8.232   1.820   4.002 -0.2896  0.3065 -0.2303
 8919TIP3    H126714   8.308   1.859   3.959  0.6985 -1.7060 -0.3919
 8919TIP3    H226715   8.253   1.823   4.095 -0.5518  0.8064 -0.1821
 8920TIP3   OH226716   3.693   2.165   4.180  0.3688 -0.5125  0.4516
 8920TIP3    H126717   3.639   2.092   4.213  0.2058 -0.8613 -0.5652
 8920TIP3    H226718   3.783   2.137   4.195  0.3168  0.2834  2.6218
 8921TIP3   OH226719   3.636   1.274   2.829  0.1507 -0.5321  0.0973
 8921TIP3    H126720   3.617   1.352   2.882 -0.8804  0.7907 -2.0593
 8921TIP3    H226721   3.553   1.226   2.827  0.4986 -1.1592  0.5783
 8922TIP3   OH226722   6.344   5.439   4.346 -0.6188 -0.4868 -0.3312
 8922TIP3    H126723   6.318   5.419   4.436  0.2203  0.8571  0.2384
 8922TIP3    H226724   6.286   5.510   4.319  0.3971  0.4459 -0.1332
 8923TIP3   OH226725   7.329   5.879   2.017  0.0510  0.2835 -0.1422
 8923TIP3    H126726   7.382   5.896   1.939  0.2409 -1.2347 -0.3825
 8923TIP3    H226727   7.388   5.897   2.090 -0.5532  3.1086 -0.2417
 8924TIP3   OH226728   1.481   2.929   1.381  0.0529 -0.4154 -0.4426
 8924TIP3    H126729   1.477   2.845   1.427 -1.1578 -0.5563 -0.7535
 8924TIP3    H226730   1.546   2.916   1.312  0.6303 -0.7564  0.1604
 8925TIP3   OH226731   4.229   5.230   6.103 -0.0403  0.0860 -0.6074
 8925TIP3    H126732   4.254   5.262   6.016  0.9204  0.4133 -0.2221
 8925TIP3    H226733   4.310   5.195   6.140 -0.5696 -0.6227 -0.0814
 8926TIP3   OH226734   1.574   7.305   3.424  0.4834 -0.0719  0.7690
 8926TIP3    H126735   1.481   7.286   3.411  0.3263  1.4197 -0.6276
 8926TIP3    H226736   1.619   7.228   3.391 -0.2191  0.0355 -0.5052
 8927TIP3   OH226737   6.461   7.405   3.321 -0.1246 -0.0101  0.3718
 8927TIP3    H126738   6.515   7.329   3.341 -0.4289 -0.1575  0.6525
 8927TIP3    H226739   6.372   7.378   3.345 -0.3236  0.2213 -0.0952
 8928TIP3   OH226740   7.908   0.908   2.215  0.2519  0.4343  0.4280
 8928TIP3    H126741   7.907   0.890   2.120  0.9608  1.5080  0.2058
 8928TIP3    H226742   7.828   0.957   2.231 -0.7412 -1.2083  0.7091
 8929TIP3   OH226743   3.109   1.379   2.379 -0.3024 -0.3482 -0.3005
 8929TIP3    H126744   3.064   1.454   2.418  1.0416  1.1085 -1.4672
 8929TIP3    H226745   3.057   1.304   2.408 -1.4457  0.9549  1.2684
 8930TIP3   OH226746   4.089   5.920   0.186 -0.7154  0.3207 -0.1786
 8930TIP3    H126747   4.060   6.010   0.202 -1.4491 -0.2267  1.7729
 8930TIP3    H226748   4.023   5.884   0.126 -0.1506  1.1864 -1.3725
 8931TIP3   OH226749   1.227   0.861   6.720  0.0584 -0.3112 -0.4223
 8931TIP3    H126750   1.221   0.767   6.736 -1.8238 -0.0509  0.6970
 8931TIP3    H226751   1.232   0.900   6.807 -0.3412  0.6771 -0.8200
 8932TIP3   OH226752   5.058   2.045   4.410 -0.5236  0.1299  0.1814
 8932TIP3    H126753   5.143   2.071   4.376 -0.6641 -1.4945 -1.5705
 8932TIP3    H226754   5.071   2.040   4.505  1.0155  0.8987  0.0470
 8933TIP3   OH226755   7.091   5.446   5.720  0.0610 -0.1919  0.0347
 8933TIP3    H126756   7.114   5.451   5.812 -3.7683  1.9772  1.0775
 8933TIP3    H226757   7.053   5.359   5.709  2.4983 -1.3119 -0.1724
 8934TIP3   OH226758   4.160   6.882   5.243 -0.4823 -0.1803  0.3520
 8934TIP3    H126759   4.237   6.847   5.288 -0.0965 -0.9850 -0.8970
 8934TIP3    H226760   4.138   6.962   5.291  0.5888 -0.4166  1.2641
 8935TIP3   OH226761   1.590   7.693   3.126 -0.0530  0.1386 -0.1310
 8935TIP3    H126762   1.682   7.695   3.152 -0.4753  1.2999  1.3809
 8935TIP3    H226763   1.551   7.624   3.179 -0.0285 -0.5016 -0.9286
 8936TIP3   OH226764   0.689   0.420   1.022  0.9754  0.4594 -0.2158
 8936TIP3    H126765   0.634   0.422   1.100  1.5125 -0.7463  0.2347
 8936TIP3    H226766   0.666   0.498   0.973 -1.6856 -0.3745 -0.4436
 8937TIP3   OH226767   8.224   1.772   4.757  0.4141  0.1292 -0.3798
 8937TIP3    H126768   8.251   1.681   4.751 -0.4849 -0.1915  0.3082
 8937TIP3    H226769   8.134   1.773   4.726 -0.6414  0.2443  2.4619
 8938TIP3   OH226770   4.166   5.421   0.094  0.0377 -0.1709 -0.4112
 8938TIP3    H126771   4.229   5.432   0.022 -0.1811  1.5465 -0.3985
 8938TIP3    H226772   4.196   5.344   0.141  2.4772  0.8948 -0.0829
 8939TIP3   OH226773   2.680   7.644   6.004 -0.3542 -0.5149 -0.1606
 8939TIP3    H126774   2.654   7.721   6.055 -1.1373  0.1136 -1.4663
 8939TIP3    H226775   2.765   7.667   5.967  0.1732 -0.9368  0.7530
 8940TIP3   OH226776   2.443   5.421   1.619  0.3193  0.0392 -0.1083
 8940TIP3    H126777   2.458   5.409   1.526  0.4150 -1.0397  0.0304
 8940TIP3    H226778   2.509   5.485   1.646  1.3102 -0.7931 -0.4963
 8941TIP3   OH226779   8.110   3.159   0.758 -0.0269  0.0606  0.1167
 8941TIP3    H126780   8.102   3.252   0.735 -1.6348  0.0370  0.4837
 8941TIP3    H226781   8.041   3.116   0.707  0.4139 -0.8701  0.2949
 8942TIP3   OH226782   1.921   7.396   1.189 -0.2735 -0.0964 -0.5230
 8942TIP3    H126783   1.980   7.440   1.128  0.0828  3.4485  2.0695
 8942TIP3    H226784   1.835   7.406   1.149 -0.4581  4.5952  0.3921
 8943TIP3   OH226785   4.275   3.599   1.514 -0.2599 -0.4108 -0.6414
 8943TIP3    H126786   4.282   3.510   1.480  0.0781 -0.8093  0.4347
 8943TIP3    H226787   4.324   3.598   1.596 -2.4088  0.0708  0.7132
 8944TIP3   OH226788   2.178   4.197   1.082  0.5323 -0.1123  0.5642
 8944TIP3    H126789   2.205   4.289   1.088 -0.7148  0.2584  0.7360
 8944TIP3    H226790   2.208   4.158   1.164  2.1406 -0.1881 -0.0075
 8945TIP3   OH226791   2.848   4.907   3.555  0.0668  0.1721 -0.1058
 8945TIP3    H126792   2.843   4.998   3.524  0.7951  0.1690 -0.2572
 8945TIP3    H226793   2.763   4.869   3.532  0.5780  0.1632 -2.1680
 8946TIP3   OH226794   7.879   5.051   3.855  0.2499 -0.1267 -0.0568
 8946TIP3    H126795   7.866   4.982   3.790  0.9355  0.5191 -0.9014
 8946TIP3    H226796   7.792   5.065   3.892  0.3601 -2.6405  1.4116
 8947TIP3   OH226797   5.398   4.998   4.384  0.3764  0.0272  0.3343
 8947TIP3    H126798   5.312   4.987   4.345  0.7655 -0.4558 -0.4093
 8947TIP3    H226799   5.460   4.981   4.313  1.2079 -4.0441  1.7497
 8948TIP3   OH226800   0.168   1.322   5.390  0.0866  0.2211 -0.0210
 8948TIP3    H126801   0.249   1.297   5.346 -0.2262 -1.4833  0.2874
 8948TIP3    H226802   0.131   1.390   5.334  0.4238 -0.8465 -1.6319
 8949TIP3   OH226803   6.388   7.501   5.463 -0.0639 -0.1977  0.1921
 8949TIP3    H126804   6.311   7.556   5.482  0.5569  0.9168 -0.4013
 8949TIP3    H226805   6.354   7.430   5.409 -0.9153 -0.5034  1.0918
 8950TIP3   OH226806   6.804   6.356   2.325 -0.0351  0.2376  0.1535
 8950TIP3    H126807   6.854   6.431   2.356  3.1155 -0.8467 -1.8257
 8950TIP3    H226808   6.766   6.385   2.242  0.9592 -0.2115 -0.4778
 8951TIP3   OH226809   5.204   0.543   2.344 -0.1127 -0.0230 -0.1671
 8951TIP3    H126810   5.146   0.614   2.371 -0.6574 -0.5635  0.0778
 8951TIP3    H226811   5.196   0.477   2.413  0.0525 -0.5165 -0.6144
 8952TIP3   OH226812   2.060   2.392   2.281  0.1797 -0.0993 -0.5145
 8952TIP3    H126813   2.117   2.456   2.238 -0.9165  0.5101 -1.0905
 8952TIP3    H226814   1.974   2.435   2.285 -0.1316 -0.7927  0.8025
 8953TIP3   OH226815   1.836   2.674   5.444  0.0067 -0.3053 -0.5831
 8953TIP3    H126816   1.873   2.696   5.530  0.1250  0.4644 -0.8263
 8953TIP3    H226817   1.745   2.653   5.462  0.2407 -1.0089 -0.1507
 8954TIP3   OH226818   2.487   1.219   5.742  0.6729  0.1086  0.2270
 8954TIP3    H126819   2.499   1.184   5.654 -0.5686  0.9130 -0.2903
 8954TIP3    H226820   2.547   1.168   5.797  2.4409  0.4471 -1.2823
 8955TIP3   OH226821   6.319   3.174   4.369  0.0001 -0.0289  0.3492
 8955TIP3    H126822   6.410   3.177   4.397  0.0519 -4.6709  1.3706
 8955TIP3    H226823   6.324   3.175   4.273  1.3617 -1.8713  0.3400
 8956TIP3   OH226824   0.205   6.261   5.368  0.3459 -0.0633 -0.0918
 8956TIP3    H126825   0.163   6.228   5.447  0.4642  0.6960  0.3014
 8956TIP3    H226826   0.290   6.216   5.365 -0.0058 -0.7157 -0.2440
 8957TIP3   OH226827   6.826   0.817   0.768 -0.0535  0.3206 -0.3888
 8957TIP3    H126828   6.907   0.867   0.757  1.9143 -2.8497 -1.6060
 8957TIP3    H226829   6.833   0.776   0.854 -0.5508  0.2704 -0.3653
 8958TIP3   OH226830   4.427   3.841   0.537  0.1590 -0.1691 -0.3845
 8958TIP3    H126831   4.453   3.932   0.555  0.4299 -0.5040  1.1078
 8958TIP3    H226832   4.334   3.846   0.517  0.1647  0.4438 -0.2780
 8959TIP3   OH226833   3.824   4.555   2.892  0.6801 -0.0303 -0.1187
 8959TIP3    H126834   3.789   4.550   2.803  1.6855  1.0908 -0.6070
 8959TIP3    H226835   3.748   4.546   2.949  0.1224 -1.7009 -1.0486
 8960TIP3   OH226836   6.984   7.094   3.172  1.0903  0.1685  0.4622
 8960TIP3    H126837   6.955   7.084   3.263 -0.9469  0.9539 -0.0326
 8960TIP3    H226838   7.028   7.179   3.171  2.3704 -0.4592  0.9633
 8961TIP3   OH226839   6.169   2.492   2.565 -0.6204  0.4226  0.2312
 8961TIP3    H126840   6.134   2.568   2.519 -0.7616  0.2051 -0.0236
 8961TIP3    H226841   6.207   2.438   2.496  0.3188  0.7056  0.5172
 8962TIP3   OH226842   2.031   3.054   5.096  0.2233  0.1628  0.1700
 8962TIP3    H126843   2.103   3.040   5.158 -0.0655 -0.1994  0.4269
 8962TIP3    H226844   1.969   2.983   5.114 -1.6897  2.1794  2.0257
 8963TIP3   OH226845   1.915   4.238   1.274 -0.0268  0.6309  0.6661
 8963TIP3    H126846   1.959   4.315   1.239 -0.1756  0.5192  0.2204
 8963TIP3    H226847   1.968   4.212   1.349  0.8069  0.3667 -0.0016
 8964TIP3   OH226848   0.558   1.438   4.227 -0.1339  0.2881  0.4339
 8964TIP3    H126849   0.478   1.490   4.225 -0.3388 -0.0404 -0.2513
 8964TIP3    H226850   0.610   1.477   4.297 -1.1347  0.1328  1.2913
 8965TIP3   OH226851   0.051   0.144   0.989 -0.2131 -0.0130 -0.5523
 8965TIP3    H126852   0.016   0.158   1.076  1.6032  0.6178  0.1254
 8965TIP3    H226853   0.064   0.232   0.953  1.3461 -0.1761 -0.4579
 8966TIP3   OH226854   2.624   1.724   2.326 -0.5558  0.0896 -0.0975
 8966TIP3    H126855   2.594   1.815   2.317 -0.8794 -0.1548 -1.7225
 8966TIP3    H226856   2.546   1.676   2.352 -0.5437  0.1544  0.0624
 8967TIP3   OH226857   7.993   4.323   1.521  0.2208 -0.0966 -0.1182
 8967TIP3    H126858   7.961   4.290   1.437 -1.4246 -0.0724  0.4771
 8967TIP3    H226859   8.026   4.245   1.566  1.0057 -0.1266 -0.7187
 8968TIP3   OH226860   8.085   7.554   0.711  0.4821  0.1746  0.1300
 8968TIP3    H126861   8.073   7.585   0.621 -1.5039  2.0442  0.9583
 8968TIP3    H226862   8.179   7.536   0.717  1.0056  1.8026 -1.7913
 8969TIP3   OH226863   3.964   2.818   1.042 -0.1004  0.3123 -0.1660
 8969TIP3    H126864   3.923   2.875   1.107 -1.0737 -0.7749  0.2059
 8969TIP3    H226865   3.962   2.731   1.081  1.6869  0.0390 -0.5753
 8970TIP3   OH226866   7.499   3.284   4.725  0.2657  0.2514  0.2686
 8970TIP3    H126867   7.458   3.212   4.772 -0.5340  0.9975  0.7490
 8970TIP3    H226868   7.507   3.253   4.635 -2.1308  0.3529 -0.0352
 8971TIP3   OH226869   1.677   6.470   1.204 -0.1812  0.1843  0.5821
 8971TIP3    H126870   1.663   6.530   1.131 -1.8408 -0.4966  0.2883
 8971TIP3    H226871   1.772   6.467   1.215  0.2264 -0.6403 -2.3745
 8972TIP3   OH226872   1.578   5.869   0.815  0.4786 -0.3879  0.4735
 8972TIP3    H126873   1.568   5.814   0.738  0.3200 -1.3921  1.1800
 8972TIP3    H226874   1.542   5.954   0.790 -1.7030 -1.3308  0.1308
 8973TIP3   OH226875   5.159   1.251   4.096  0.5403  0.3365 -0.2010
 8973TIP3    H126876   5.129   1.176   4.044  0.4184 -0.0323  0.3942
 8973TIP3    H226877   5.235   1.218   4.144 -1.3361 -0.4073  2.4938
 8974TIP3   OH226878   6.251   4.503   1.134  0.0017  0.3475 -0.0180
 8974TIP3    H126879   6.182   4.448   1.169  0.5562  0.4030  1.2083
 8974TIP3    H226880   6.211   4.589   1.125 -0.6653 -0.0607 -1.2837
 8975TIP3   OH226881   2.895   0.503   3.358 -0.1478 -0.0425 -0.0677
 8975TIP3    H126882   2.987   0.515   3.335  0.3744 -2.7243  0.3312
 8975TIP3    H226883   2.896   0.443   3.432 -2.2010  1.0388  0.9368
 8976TIP3   OH226884   6.295   0.649   4.982  0.1000  0.5395 -0.2242
 8976TIP3    H126885   6.370   0.691   5.024  0.8250 -0.7792 -0.1558
 8976TIP3    H226886   6.306   0.556   5.000 -2.4725  0.4174  1.2761
 8977TIP3   OH226887   1.848   3.701   6.740  0.6570 -0.0886  0.3195
 8977TIP3    H126888   1.819   3.631   6.799 -1.5327 -1.3097 -2.0016
 8977TIP3    H226889   1.814   3.781   6.779 -1.3336 -0.9291  0.4130
 8978TIP3   OH226890   2.725   6.476   6.029  0.0785 -0.0554 -0.6367
 8978TIP3    H126891   2.791   6.488   5.961  0.3707 -0.1749 -0.3814
 8978TIP3    H226892   2.731   6.556   6.082  0.8080 -0.5354  0.0418
 8979TIP3   OH226893   6.684   5.995   5.123  0.0107 -0.3630  0.2730
 8979TIP3    H126894   6.671   5.931   5.053 -0.1633 -0.4022  0.3405
 8979TIP3    H226895   6.652   6.077   5.086 -1.5433 -0.6779  0.8357
 8980TIP3   OH226896   0.667   7.315   2.582 -0.4783 -0.0630 -0.2275
 8980TIP3    H126897   0.665   7.377   2.656 -0.9390  1.3746 -1.3902
 8980TIP3    H226898   0.700   7.234   2.620 -2.6124 -0.0193  2.0416
 8981TIP3   OH226899   0.193   1.493   0.428  0.0594 -0.2746 -0.1339
 8981TIP3    H126900   0.205   1.491   0.523  1.1814  0.0437 -0.2554
 8981TIP3    H226901   0.201   1.401   0.401  0.9664 -0.2282 -0.0501
 8982TIP3   OH226902   6.441   2.557   1.909  0.2680  0.7316  0.8150
 8982TIP3    H126903   6.421   2.638   1.863  1.0937  1.3827  1.5480
 8982TIP3    H226904   6.516   2.520   1.862 -0.9594 -0.3564 -0.3609
 8983TIP3   OH226905   0.437   2.417   5.953 -0.2269 -0.6049 -0.3431
 8983TIP3    H126906   0.520   2.374   5.972  0.3757 -0.3562 -2.1821
 8983TIP3    H226907   0.378   2.346   5.927  0.0674 -0.5819 -1.1011
 8984TIP3   OH226908   4.942   0.661   2.910  0.1540 -0.2983 -0.2806
 8984TIP3    H126909   4.984   0.671   2.995  1.0454 -2.5183 -0.3684
 8984TIP3    H226910   5.015   0.646   2.849 -0.4888  0.9041 -1.3891
 8985TIP3   OH226911   3.642   3.022   6.088 -0.1802 -0.1257 -0.0462
 8985TIP3    H126912   3.645   3.073   6.169 -0.3569  1.3112 -0.9000
 8985TIP3    H226913   3.620   2.933   6.116 -1.8307  0.6616  1.3643
 8986TIP3   OH226914   2.644   7.164   0.590  0.6173 -0.2672 -0.0387
 8986TIP3    H126915   2.565   7.210   0.619  1.3301  0.6070  0.5563
 8986TIP3    H226916   2.647   7.181   0.496  0.3244  0.0623  0.0055
 8987TIP3   OH226917   7.116   2.485   0.234 -0.1018 -0.3038 -0.2517
 8987TIP3    H126918   7.097   2.420   0.166 -0.6721 -1.4661  0.9782
 8987TIP3    H226919   7.108   2.437   0.316  1.6172  0.8028  0.6236
 8988TIP3   OH226920   1.488   4.218   0.960  0.8204 -0.2046  0.4566
 8988TIP3    H126921   1.496   4.248   1.050 -0.0301  1.7444 -0.0621
 8988TIP3    H226922   1.508   4.295   0.906 -2.1920 -0.2526 -0.9516
 8989TIP3   OH226923   3.254   5.803   1.369 -0.1295  0.5858  0.3061
 8989TIP3    H126924   3.292   5.765   1.448 -0.5789 -1.8365 -0.5378
 8989TIP3    H226925   3.328   5.844   1.324  1.5860 -3.2453 -0.8544
 8990TIP3   OH226926   6.858   1.275   6.394  0.2952 -0.5795 -0.3714
 8990TIP3    H126927   6.861   1.304   6.303  0.5878  0.1910 -0.1235
 8990TIP3    H226928   6.827   1.185   6.389  0.5061 -0.6164 -1.2522
 8991TIP3   OH226929   6.677   7.768   6.057 -0.5527 -0.0232 -0.2302
 8991TIP3    H126930   6.749   7.721   6.015 -0.2453  0.6335 -0.4463
 8991TIP3    H226931   6.633   7.814   5.986  0.2072  1.4133  0.1839
 8992TIP3   OH226932   0.471   2.383   6.327 -0.4142  0.4691 -0.4269
 8992TIP3    H126933   0.388   2.403   6.283  0.2171  0.7863 -1.5012
 8992TIP3    H226934   0.527   2.457   6.308  1.0760 -1.0116 -2.2183
 8993TIP3   OH226935   7.585   7.053   3.886  0.0383  0.7190  0.2302
 8993TIP3    H126936   7.565   6.987   3.820  1.1709  0.0532  0.5150
 8993TIP3    H226937   7.646   7.009   3.946  0.2118  1.7799  0.8582
 8994TIP3   OH226938   5.215   1.853   2.431  0.2669 -0.4799 -0.1802
 8994TIP3    H126939   5.287   1.887   2.378 -0.2031 -1.2264 -1.3503
 8994TIP3    H226940   5.249   1.772   2.468  0.2582 -0.4857 -0.1848
 8995TIP3   OH226941   7.157   2.628   2.614  0.1601  0.0668  0.9264
 8995TIP3    H126942   7.162   2.649   2.708  2.6063  2.5228  0.3495
 8995TIP3    H226943   7.215   2.691   2.572  1.4590 -2.8069 -2.0016
 8996TIP3   OH226944   6.213   6.158   4.528 -0.4503  0.1443 -0.4020
 8996TIP3    H126945   6.158   6.087   4.560 -0.1007 -0.2896 -0.7551
 8996TIP3    H226946   6.301   6.121   4.525  0.3122  1.4686  2.2530
 8997TIP3   OH226947   0.249   7.546   1.653  0.5050 -0.5089  0.5001
 8997TIP3    H126948   0.187   7.599   1.702  0.0436 -0.2087 -0.3804
 8997TIP3    H226949   0.242   7.458   1.691 -0.5229 -0.4956  0.3569
 8998TIP3   OH226950   2.890   7.823   1.155  0.2981 -0.2411  0.0585
 8998TIP3    H126951   2.862   7.882   1.225  0.4210  1.2164 -1.0825
 8998TIP3    H226952   2.810   7.776   1.130 -0.0895  0.3736  0.1171
 8999TIP3   OH226953   6.483   4.416   0.720 -0.4090 -0.2521 -0.1784
 8999TIP3    H126954   6.495   4.511   0.717 -0.7286 -0.2029  0.1735
 8999TIP3    H226955   6.399   4.403   0.763 -0.0752 -0.7154  0.3379
 9000TIP3   OH226956   5.831   1.587   2.052 -0.2082  0.4706 -0.0749
 9000TIP3    H126957   5.900   1.643   2.087  1.3095 -1.5115  0.2605
 9000TIP3    H226958   5.875   1.506   2.027 -2.5953 -1.5053  1.5732
 9001TIP3   OH226959   1.661   6.242   6.423  0.0447  0.1700  0.2180
 9001TIP3    H126960   1.710   6.250   6.504  1.3517 -2.8684 -0.1369
 9001TIP3    H226961   1.719   6.281   6.356  0.6890 -0.7551  0.2242
 9002TIP3   OH226962   7.670   7.721   0.780 -0.3268 -0.5573  0.1299
 9002TIP3    H126963   7.639   7.672   0.704  0.4811  1.8379 -1.8572
 9002TIP3    H226964   7.759   7.689   0.795 -0.8204 -1.7087  0.7178
 9003TIP3   OH226965   5.617   3.973   5.593  0.1455  0.1770 -0.4627
 9003TIP3    H126966   5.645   4.052   5.638 -1.4698  1.7451 -2.0345
 9003TIP3    H226967   5.685   3.957   5.527  0.3604  0.3946 -0.2927
 9004TIP3   OH226968   6.272   1.184   5.814 -0.4297 -0.1306 -0.1571
 9004TIP3    H126969   6.342   1.242   5.843 -1.4954 -0.1896  2.8508
 9004TIP3    H226970   6.191   1.233   5.830 -1.3017 -1.9693  1.4951
 9005TIP3   OH226971   5.467   1.695   3.931 -0.6784 -0.1271 -0.3802
 9005TIP3    H126972   5.480   1.768   3.992 -1.2388 -1.9370  2.0888
 9005TIP3    H226973   5.539   1.703   3.868 -0.7059  2.4822 -0.1814
 9006TIP3   OH226974   6.252   3.972   3.278  0.1557  0.2719  0.3222
 9006TIP3    H126975   6.194   4.025   3.333 -0.5005 -0.2257  0.1112
 9006TIP3    H226976   6.203   3.892   3.261  0.7922 -0.0362 -0.0951
 9007TIP3   OH226977   4.309   6.716   0.036 -0.6532  0.0659  0.1187
 9007TIP3    H126978   4.397   6.692   0.065 -0.9462 -0.1716  0.8499
 9007TIP3    H226979   4.305   6.688  -0.055  0.1559  0.4249 -0.0312
 9008TIP3   OH226980   2.613   4.656   1.745 -0.0212  0.0776 -0.3499
 9008TIP3    H126981   2.655   4.709   1.813  0.6849 -0.6533 -0.2012
 9008TIP3    H226982   2.523   4.688   1.742  0.7429  2.3432 -1.3274
 9009TIP3   OH226983   4.672   0.349   3.263  0.4656  0.1495 -0.2340
 9009TIP3    H126984   4.641   0.438   3.245  2.8834  0.9437 -0.7387
 9009TIP3    H226985   4.723   0.357   3.343  2.2034 -0.3895 -1.2474
 9010TIP3   OH226986   0.596   1.317   2.977  0.1134 -0.7188 -0.0988
 9010TIP3    H126987   0.510   1.340   2.941 -0.9017 -0.0938  2.5160
 9010TIP3    H226988   0.595   1.222   2.981 -1.2416 -0.6813  1.5393
 9011TIP3   OH226989   2.955   5.375   6.211 -0.1740 -0.4522  0.2209
 9011TIP3    H126990   3.048   5.398   6.213 -0.1348 -0.4939 -0.6171
 9011TIP3    H226991   2.947   5.302   6.273  0.5697 -1.1836 -0.5199
 9012TIP3   OH226992   7.730  -0.002   0.000  0.2136 -0.2616  0.0523
 9012TIP3    H126993   7.683   0.046   0.069  0.6705  1.1780 -0.5894
 9012TIP3    H226994   7.818  -0.014   0.036  0.2019 -0.3081  0.0659
 9013TIP3   OH226995   2.336   5.524   5.250  0.0014  0.1727  0.1265
 9013TIP3    H126996   2.260   5.578   5.274  0.3564  0.0970  1.5310
 9013TIP3    H226997   2.301   5.435   5.246  0.2860 -0.1204  2.5142
 9014TIP3   OH226998   4.759   5.112   2.183  0.1749  0.2583 -0.3388
 9014TIP3    H126999   4.852   5.108   2.161 -0.0319  1.2517 -1.4612
 9014TIP3    H227000   4.718   5.049   2.124  0.0146  0.5100 -0.4938
 9015TIP3   OH227001   6.712   7.410   2.882 -0.5847  0.4807 -0.0693
 9015TIP3    H127002   6.694   7.475   2.949  1.6013  1.2515 -0.1366
 9015TIP3    H227003   6.646   7.426   2.814 -1.0742  1.5504  0.6408
 9016TIP3   OH227004   6.359   1.994   6.419 -0.4734 -0.6171  0.8548
 9016TIP3    H127005   6.408   2.039   6.488  0.5463 -1.6555  0.8405
 9016TIP3    H227006   6.427   1.965   6.357 -1.1834 -1.4423  0.4462
 9017TIP3   OH227007   3.147   7.552   6.082 -0.0897  0.0528 -0.2865
 9017TIP3    H127008   3.181   7.494   6.150 -0.4938  0.3633  0.1826
 9017TIP3    H227009   3.057   7.523   6.068  0.2844 -0.6359 -1.3848
 9018TIP3   OH227010   5.174   3.553   4.456  0.7769  0.0797 -0.0999
 9018TIP3    H127011   5.195   3.511   4.373 -0.3643 -2.8126  0.9380
 9018TIP3    H227012   5.168   3.481   4.519 -2.0075  1.7055  1.7312
 9019TIP3   OH227013   2.350   0.478   4.797  0.2898 -0.8814 -0.1423
 9019TIP3    H127014   2.398   0.455   4.876  1.3119  1.1570 -0.1176
 9019TIP3    H227015   2.284   0.540   4.827  1.8048  1.2814 -1.0699
 9020TIP3   OH227016   7.462   5.821   6.174 -0.1398 -0.4991 -0.0932
 9020TIP3    H127017   7.430   5.755   6.112 -0.9279 -1.3772  1.1881
 9020TIP3    H227018   7.551   5.794   6.193 -0.9539 -2.1853  1.6164
 9021TIP3   OH227019   6.368   0.770   6.223  0.2474  0.2478 -0.4580
 9021TIP3    H127020   6.338   0.744   6.136 -1.5734 -0.4931  0.3391
 9021TIP3    H227021   6.339   0.861   6.231  2.4093  1.0832 -1.4321
 9022TIP3   OH227022   7.183   5.762   2.833 -0.2337 -0.2729 -0.1421
 9022TIP3    H127023   7.248   5.692   2.845 -1.1854 -1.2605 -0.5521
 9022TIP3    H227024   7.176   5.804   2.919 -2.2053 -3.0042  1.1892
 9023TIP3   OH227025   6.712   3.897   4.606  0.6742 -0.4776 -0.5526
 9023TIP3    H127026   6.696   3.963   4.538  1.0792 -2.0046 -2.2288
 9023TIP3    H227027   6.626   3.857   4.621  0.4420  0.3646  0.4105
 9024TIP3   OH227028   1.098   5.168   0.388  0.1035 -0.2765 -0.0152
 9024TIP3    H127029   1.085   5.262   0.395  0.7181 -0.2453  0.9667
 9024TIP3    H227030   1.052   5.143   0.308 -0.3169  0.8040 -0.1302
 9025TIP3   OH227031   3.443   4.713   2.114 -0.0580  0.1287  0.5704
 9025TIP3    H127032   3.445   4.698   2.020  0.3508 -1.5280  0.8154
 9025TIP3    H227033   3.391   4.793   2.125 -1.5291 -0.5720 -0.9504
 9026TIP3   OH227034   2.303   6.576   1.183  0.2691 -0.3341  0.2927
 9026TIP3    H127035   2.328   6.668   1.173  0.7489 -0.5372 -0.5509
 9026TIP3    H227036   2.220   6.569   1.136 -0.2795 -0.1218  1.2226
 9027TIP3   OH227037   5.665   2.030   1.803 -1.1901  0.0737  0.1093
 9027TIP3    H127038   5.695   1.940   1.790  2.4700  1.1312  0.1796
 9027TIP3    H227039   5.572   2.028   1.779 -1.0734 -3.5278 -0.5928
 9028TIP3   OH227040   3.614   4.147   3.108  0.6676 -0.1060 -0.1433
 9028TIP3    H127041   3.579   4.062   3.133 -2.3601  0.2721 -2.5079
 9028TIP3    H227042   3.569   4.209   3.165 -1.3204  0.2236 -1.9296
 9029TIP3   OH227043   7.389   6.467   5.272  0.2873 -0.1439 -0.0926
 9029TIP3    H127044   7.316   6.419   5.312 -1.7091  1.5527 -1.4720
 9029TIP3    H227045   7.357   6.557   5.265  1.6398  0.2048 -2.7639
 9030TIP3   OH227046   8.292   5.192   1.487 -0.2033  0.3295 -0.0421
 9030TIP3    H127047   8.251   5.109   1.463 -1.2526  0.2831  1.7404
 9030TIP3    H227048   8.384   5.181   1.461 -0.5562 -0.9318 -0.8728
 9031TIP3   OH227049   5.443   0.156   5.267 -0.4949  0.5845  0.1468
 9031TIP3    H127050   5.420   0.206   5.345  0.7660 -0.3746  1.1752
 9031TIP3    H227051   5.528   0.190   5.239 -0.9017  0.8764 -0.7940
 9032TIP3   OH227052   4.085   4.798   2.342  0.2839 -0.3484 -0.5135
 9032TIP3    H127053   4.008   4.788   2.286 -0.8092  2.5357  0.3135
 9032TIP3    H227054   4.114   4.888   2.327  0.3356  0.3486  2.9979
 9033TIP3   OH227055   3.184   6.228   4.330 -0.4964  0.5428 -0.6787
 9033TIP3    H127056   3.247   6.180   4.384 -1.5254 -2.1305 -1.6651
 9033TIP3    H227057   3.113   6.249   4.390 -0.8727 -0.9032 -0.5751
 9034TIP3   OH227058   4.192   3.891   5.889  0.4780 -0.2203  0.3423
 9034TIP3    H127059   4.236   3.811   5.915  0.3438 -1.2523 -2.2846
 9034TIP3    H227060   4.103   3.863   5.865  0.4020  0.7065 -0.5440
 9035TIP3   OH227061   7.049   2.444   0.679 -0.7407 -0.3913  0.0960
 9035TIP3    H127062   7.069   2.536   0.666 -1.4485 -0.3390 -0.6733
 9035TIP3    H227063   7.102   2.399   0.612 -1.8844 -0.3768 -0.8491
 9036TIP3   OH227064   7.206   0.414   4.495  0.0841  0.1958 -0.2005
 9036TIP3    H127065   7.185   0.482   4.431 -0.8595 -0.7994 -1.0012
 9036TIP3    H227066   7.122   0.396   4.539  0.1333 -0.9554 -0.5359
 9037TIP3   OH227067   5.497   0.492   0.556  0.0083 -0.4020  0.2703
 9037TIP3    H127068   5.546   0.463   0.479 -2.0766 -1.4211 -0.7698
 9037TIP3    H227069   5.435   0.420   0.573 -0.5536  0.4341  2.0393
 9038TIP3   OH227070   1.655   0.402   1.845 -0.5215  0.4390  0.0773
 9038TIP3    H127071   1.591   0.463   1.882  0.7318  1.8751 -0.0270
 9038TIP3    H227072   1.707   0.456   1.785  0.4328 -0.8135 -0.2505
 9039TIP3   OH227073   6.277   2.999   3.361  0.3544 -0.2918 -0.1659
 9039TIP3    H127074   6.360   3.041   3.340  0.9156 -1.0125  0.5298
 9039TIP3    H227075   6.299   2.906   3.370 -0.8484 -0.7422 -1.6249
 9040TIP3   OH227076   3.121   1.323   6.735 -0.0650  0.2152  0.2984
 9040TIP3    H127077   3.092   1.389   6.672 -0.7624 -0.4069 -0.0515
 9040TIP3    H227078   3.040   1.284   6.768  0.3257 -0.2376  0.7415
 9041TIP3   OH227079   1.050   7.653   6.018 -0.1371  0.4594  0.6917
 9041TIP3    H127080   1.129   7.613   6.055 -0.3230 -0.3475  0.2407
 9041TIP3    H227081   0.981   7.589   6.033 -0.6113  0.9531  0.6523
 9042TIP3   OH227082   4.814   1.557   2.977  0.0650  0.1763 -0.4970
 9042TIP3    H127083   4.892   1.602   2.943  0.0151  0.9222  0.3397
 9042TIP3    H227084   4.746   1.573   2.912  0.5700 -0.3859 -1.1795
 9043TIP3   OH227085   6.847   6.400   2.682 -0.1308 -0.3623  0.2491
 9043TIP3    H127086   6.850   6.356   2.597  0.3967  1.4471 -0.7278
 9043TIP3    H227087   6.936   6.394   2.716 -0.4076 -1.3370  0.8294
 9044TIP3   OH227088   4.012   0.041   2.913  0.0574  0.8660  0.0768
 9044TIP3    H127089   3.932   0.063   2.866  1.3508  1.2675 -2.1219
 9044TIP3    H227090   4.028   0.115   2.971 -0.8779  1.0191  0.1438
 9045TIP3   OH227091   4.128   3.058   5.954  0.5538  0.0895  0.0358
 9045TIP3    H127092   4.175   3.071   6.036  1.1304 -2.0826  0.1205
 9045TIP3    H227093   4.085   2.973   5.965  0.5832 -0.2085 -1.8721
 9046TIP3   OH227094   0.372   0.693   5.376 -0.1913 -0.1111  0.5316
 9046TIP3    H127095   0.300   0.633   5.355 -0.3966  0.4756 -0.4843
 9046TIP3    H227096   0.405   0.721   5.291  0.9005  0.0404  0.9938
 9047TIP3   OH227097   6.647   0.700   6.276  0.1020  0.2748 -0.2148
 9047TIP3    H127098   6.632   0.605   6.270  0.4395  0.2990 -2.7906
 9047TIP3    H227099   6.565   0.739   6.244  0.3124  0.8157 -0.1087
 9048TIP3   OH227100   5.964   1.169   1.454  0.1479 -0.2239  0.0216
 9048TIP3    H127101   5.945   1.154   1.362 -0.6582  0.5832  0.0414
 9048TIP3    H227102   6.025   1.100   1.478 -0.5197 -1.1371 -0.8287
 9049TIP3   OH227103   5.374   3.859   1.105  0.1445  0.3353  0.4545
 9049TIP3    H127104   5.301   3.799   1.089  1.0392 -0.5086 -0.6502
 9049TIP3    H227105   5.353   3.902   1.188 -2.0608  0.7994 -0.2812
 9050TIP3   OH227106   2.174   4.418   6.431  0.0914 -0.0417 -0.2167
 9050TIP3    H127107   2.186   4.424   6.337 -1.0443  0.3801 -0.3532
 9050TIP3    H227108   2.097   4.363   6.442  0.8534 -1.0011  0.5151
 9051TIP3   OH227109   0.773   4.382   0.979 -0.1569  0.5582  0.6315
 9051TIP3    H127110   0.776   4.293   1.013 -1.5836  0.3605  0.3131
 9051TIP3    H227111   0.766   4.437   1.057  3.6476  0.7083  1.0729
 9052TIP3   OH227112   6.665   6.813   5.973 -0.5260 -0.2816  0.1902
 9052TIP3    H127113   6.694   6.834   5.885  1.0802  0.4647  0.8499
 9052TIP3    H227114   6.582   6.767   5.961 -0.2740 -0.3185 -1.6988
 9053TIP3   OH227115   3.373   2.737   0.931 -0.4785 -0.2106  0.2541
 9053TIP3    H127116   3.410   2.792   1.000 -1.5915 -0.4187  1.0364
 9053TIP3    H227117   3.383   2.647   0.963  2.2584 -0.6367 -1.4596
 9054TIP3   OH227118   0.274   3.126   3.916  0.0874 -0.2898  0.3390
 9054TIP3    H127119   0.284   3.128   4.011  1.5050  0.7437  0.1990
 9054TIP3    H227120   0.264   3.033   3.895  1.7914 -0.7407  1.3372
 9055TIP3   OH227121   2.162   6.436   1.860  0.0365 -0.4820  0.2801
 9055TIP3    H127122   2.105   6.458   1.786 -2.0778  1.3644  2.2870
 9055TIP3    H227123   2.153   6.342   1.871 -0.5770 -0.5994 -1.0187
 9056TIP3   OH227124   2.889   2.391   2.818  0.2321  0.6073 -0.4264
 9056TIP3    H127125   2.827   2.460   2.840 -1.6357 -0.5212 -1.8692
 9056TIP3    H227126   2.971   2.437   2.799 -0.5241  2.2584  0.1480
 9057TIP3   OH227127   5.958   0.960   0.635 -0.1869 -0.2574  0.1514
 9057TIP3    H127128   5.921   0.992   0.553 -1.6176  2.0466  1.5652
 9057TIP3    H227129   6.049   0.991   0.634 -0.5620  0.9088 -0.0493
 9058TIP3   OH227130   1.154   1.744   3.167  0.1963  0.3242 -0.3074
 9058TIP3    H127131   1.088   1.773   3.230 -0.5440 -1.1989 -0.3348
 9058TIP3    H227132   1.222   1.703   3.220 -0.4278 -0.9591 -0.4793
 9059TIP3   OH227133   6.027   2.970   0.389 -0.4108 -0.1962 -0.3629
 9059TIP3    H127134   6.053   2.901   0.449 -0.2109 -0.0273 -0.2500
 9059TIP3    H227135   6.040   3.051   0.439 -1.3691 -0.1126 -0.2276
 9060TIP3   OH227136   3.208   4.210   3.167  0.0707  0.1229 -0.1277
 9060TIP3    H127137   3.284   4.267   3.175  0.0851  0.1496 -0.4635
 9060TIP3    H227138   3.166   4.215   3.253  0.5796 -0.0830  0.1387
 9061TIP3   OH227139   7.768   0.402   6.399 -0.6622 -0.1107  0.1793
 9061TIP3    H127140   7.828   0.474   6.422 -1.8123  0.2029  2.4757
 9061TIP3    H227141   7.822   0.323   6.405 -0.3343  0.2004  1.8366
 9062TIP3   OH227142   8.002   7.065   4.461  0.3612 -0.1763 -0.3703
 9062TIP3    H127143   8.011   7.158   4.439 -0.4763  0.0070  0.0292
 9062TIP3    H227144   7.954   7.064   4.544 -0.9598 -0.9831 -1.1066
 9063TIP3   OH227145   2.864   0.247   4.363 -0.1382 -0.2575 -0.0284
 9063TIP3    H127146   2.811   0.185   4.413  1.1891 -0.6865  0.9080
 9063TIP3    H227147   2.909   0.193   4.299  2.0631 -0.5524  1.6593
 9064TIP3   OH227148   4.489   4.775   1.671  0.1869  0.4948  0.0597
 9064TIP3    H127149   4.400   4.746   1.651 -0.3355  1.3404  1.0801
 9064TIP3    H227150   4.530   4.698   1.710 -0.1430  0.1452 -0.2688
 9065TIP3   OH227151   1.141   3.327   1.528 -0.6506 -0.6998 -0.3874
 9065TIP3    H127152   1.124   3.421   1.523 -0.5350 -0.5622  1.3927
 9065TIP3    H227153   1.069   3.287   1.479 -0.6255  0.3000 -1.2886
 9066TIP3   OH227154   5.183   7.371   4.256 -0.1815 -0.0263  0.4258
 9066TIP3    H127155   5.183   7.448   4.312 -0.5009  0.9833 -0.9167
 9066TIP3    H227156   5.114   7.315   4.292  0.4174  0.0496  1.7294
 9067TIP3   OH227157   4.917   6.124   1.755  0.0964  0.5285 -0.1261
 9067TIP3    H127158   4.955   6.212   1.763  0.6936  0.2221  0.5372
 9067TIP3    H227159   4.935   6.083   1.840 -0.2667 -0.2010 -0.3961
 9068TIP3   OH227160   4.081   6.692   2.922 -0.3988 -0.7975 -0.4317
 9068TIP3    H127161   4.172   6.722   2.927 -0.7659  0.3622 -0.3050
 9068TIP3    H227162   4.060   6.664   3.012 -0.8491  1.1035  0.0947
 9069TIP3   OH227163   5.689   2.632   5.304  0.6756  0.2108 -0.3363
 9069TIP3    H127164   5.664   2.698   5.369 -1.2115 -1.0091  0.2579
 9069TIP3    H227165   5.783   2.620   5.317  0.8685  2.0416  0.2169
 9070TIP3   OH227166   1.806   4.893   5.359  0.2657 -0.0454  0.3654
 9070TIP3    H127167   1.810   4.810   5.312 -0.8232 -0.4893  1.0322
 9070TIP3    H227168   1.873   4.884   5.427  0.6811 -0.0698 -0.0442
 9071TIP3   OH227169   3.906   2.070   1.553 -0.0033  0.8267 -0.3573
 9071TIP3    H127170   3.844   2.099   1.487  0.1453  0.5426 -0.6286
 9071TIP3    H227171   3.913   2.143   1.615  2.0754  2.3142 -2.2176
 9072TIP3   OH227172   1.338   4.322   3.250  0.0843 -0.7450 -0.3476
 9072TIP3    H127173   1.409   4.351   3.193 -0.2578  0.3633 -0.2310
 9072TIP3    H227174   1.377   4.319   3.338 -0.5782  2.3767  0.1755
 9073TIP3   OH227175   8.129   1.344   1.472  0.3657 -0.2932  0.1934
 9073TIP3    H127176   8.091   1.282   1.535  0.5306 -2.8045 -1.9793
 9073TIP3    H227177   8.146   1.423   1.523 -1.9510 -1.2149  2.6709
 9074TIP3   OH227178   1.194   3.008   3.466 -0.2240  0.2508 -0.1511
 9074TIP3    H127179   1.233   3.072   3.407 -0.2134  1.7280  1.3972
 9074TIP3    H227180   1.100   3.023   3.459 -0.2698 -0.1030 -0.3453
 9075TIP3   OH227181   0.243   0.998   4.709  0.1623 -0.8070  0.5344
 9075TIP3    H127182   0.217   0.982   4.619  1.9073 -0.0813 -0.1519
 9075TIP3    H227183   0.169   1.045   4.748 -0.3790 -0.6014 -0.7046
 9076TIP3   OH227184   4.166   6.812   0.624 -0.2258  0.6209 -0.3755
 9076TIP3    H127185   4.077   6.777   0.631  0.7950 -1.9973  0.7150
 9076TIP3    H227186   4.210   6.754   0.562  0.7118  1.9524 -0.9854
 9077TIP3   OH227187   3.662   1.155   4.119 -0.0711 -0.4161  0.1684
 9077TIP3    H127188   3.718   1.221   4.078 -0.1385  0.4548  1.4052
 9077TIP3    H227189   3.593   1.207   4.161 -1.1059 -1.3935 -0.2822
 9078TIP3   OH227190   3.845   3.576   1.641  0.1817 -0.3248 -0.3191
 9078TIP3    H127191   3.799   3.496   1.666  0.3308 -0.6865 -1.1543
 9078TIP3    H227192   3.923   3.578   1.696 -0.4019 -0.1524  0.5087
 9079TIP3   OH227193   5.872   0.445   0.165  0.2400  0.5023 -0.0412
 9079TIP3    H127194   5.843   0.374   0.107  1.5184 -1.2318  1.3161
 9079TIP3    H227195   5.815   0.439   0.241  0.7744  0.4616  0.3673
 9080TIP3   OH227196   6.330   5.592   4.883  0.2982  0.2949  0.3486
 9080TIP3    H127197   6.302   5.542   4.807  0.4286  1.2037 -0.3117
 9080TIP3    H227198   6.248   5.621   4.925  0.2053 -1.0043  1.1254
 9081TIP3   OH227199   2.301   3.992   0.072 -0.0698 -0.4228 -0.9392
 9081TIP3    H127200   2.331   4.082   0.082 -1.9469  0.0552  1.4271
 9081TIP3    H227201   2.365   3.952   0.014  3.7704  1.1019  1.7612
 9082TIP3   OH227202   3.434   5.316   0.667  0.2000  0.1308  0.1652
 9082TIP3    H127203   3.439   5.391   0.727 -1.8162  0.4537  0.0028
 9082TIP3    H227204   3.450   5.240   0.723  0.5589  0.5713  0.6739
 9083TIP3   OH227205   4.709   3.052   3.795 -0.2845 -0.3199 -0.6120
 9083TIP3    H127206   4.732   3.140   3.767  3.0427 -0.3038  1.5711
 9083TIP3    H227207   4.631   3.063   3.848  1.0185  1.6891  1.0381
 9084TIP3   OH227208   7.523   3.231   3.577 -0.5624  0.2158  0.1170
 9084TIP3    H127209   7.611   3.201   3.598 -1.1833 -1.8478 -0.0110
 9084TIP3    H227210   7.484   3.253   3.661  0.7438  3.3938  0.0260
 9085TIP3   OH227211   1.374   0.125   3.745 -0.1566  0.2191  0.2943
 9085TIP3    H127212   1.367   0.220   3.733  1.1910  0.3199  0.1338
 9085TIP3    H227213   1.288   0.099   3.779 -0.4110  1.5537  0.7630
 9086TIP3   OH227214   4.474   4.525   1.344  0.4299  0.5603 -0.5093
 9086TIP3    H127215   4.394   4.520   1.292  0.5242 -3.0118 -0.5462
 9086TIP3    H227216   4.442   4.532   1.434  0.1107  0.5860 -0.6201
 9087TIP3   OH227217   7.496   1.353   6.325 -0.1071 -0.1338 -0.1854
 9087TIP3    H127218   7.485   1.259   6.340  0.2894 -0.0361  0.8223
 9087TIP3    H227219   7.469   1.393   6.408 -1.2278  0.7162 -0.9318
 9088TIP3   OH227220   5.201   0.478   4.573 -0.8203  0.3454  0.3439
 9088TIP3    H127221   5.219   0.400   4.521 -1.3375 -0.0642  0.7711
 9088TIP3    H227222   5.225   0.551   4.515 -0.3396 -0.1219 -0.0577
 9089TIP3   OH227223   2.694   0.807   2.774 -0.5024  0.0141 -0.0985
 9089TIP3    H127224   2.633   0.800   2.847  0.3544  0.6022  0.6968
 9089TIP3    H227225   2.763   0.743   2.793  0.6928  1.4465  0.6068
 9090TIP3   OH227226   1.929   3.272   3.509 -0.0498  0.3781 -0.4361
 9090TIP3    H127227   1.934   3.349   3.566 -0.9687  0.1603 -0.0534
 9090TIP3    H227228   1.839   3.240   3.518 -0.4197  0.7025 -2.4970
 9091TIP3   OH227229   2.708   6.354   1.613 -0.4116 -0.2233  0.1915
 9091TIP3    H127230   2.803   6.360   1.600 -0.3492  0.0641  0.7404
 9091TIP3    H227231   2.673   6.334   1.526 -0.0311  1.7602 -0.4768
 9092TIP3   OH227232   1.606   0.566   2.668  0.3411  0.3665  0.7902
 9092TIP3    H127233   1.583   0.477   2.693 -1.8223  0.8340  0.6616
 9092TIP3    H227234   1.607   0.615   2.751  3.0977 -0.0159  1.0771
 9093TIP3   OH227235   5.682   2.270   4.708 -0.1778  0.4625  0.1010
 9093TIP3    H127236   5.643   2.327   4.774  0.6138 -0.3384  1.3257
 9093TIP3    H227237   5.773   2.260   4.737 -0.3419 -1.5567  0.0652
 9094TIP3   OH227238   1.424   4.062   3.756  0.2176 -0.5343  0.4468
 9094TIP3    H127239   1.486   4.077   3.685  2.1418 -2.7892  1.5117
 9094TIP3    H227240   1.441   4.133   3.818  1.4591 -0.8616  0.5081
 9095TIP3   OH227241   4.279   1.835   5.805  0.3289 -0.4582  0.0480
 9095TIP3    H127242   4.347   1.898   5.780  0.1885 -0.2325  0.2294
 9095TIP3    H227243   4.306   1.804   5.892  0.0806 -0.1968  0.2202
 9096TIP3   OH227244   7.202   1.146   0.879  0.2365 -0.0942  0.7097
 9096TIP3    H127245   7.214   1.241   0.873  3.2170 -0.4373 -0.4234
 9096TIP3    H227246   7.226   1.124   0.969 -1.7158  0.2862  1.3805
 9097TIP3   OH227247   6.827   2.134   5.607 -0.2241  0.0579  0.1658
 9097TIP3    H127248   6.889   2.174   5.668  0.0504  1.1134 -0.7783
 9097TIP3    H227249   6.743   2.142   5.651  0.1006 -0.0681  0.8278
 9098TIP3   OH227250   3.453   7.429   0.230 -0.2095 -0.2356  0.2656
 9098TIP3    H127251   3.402   7.410   0.151  2.0287  0.3220 -1.4293
 9098TIP3    H227252   3.448   7.524   0.239  0.6864 -0.1395 -0.0902
 9099TIP3   OH227253   8.134   2.428   0.752  0.1881 -0.1929 -0.3835
 9099TIP3    H127254   8.180   2.495   0.804 -1.4374 -0.4545  1.5099
 9099TIP3    H227255   8.069   2.477   0.702  0.0355 -0.2078 -0.1985
 9100TIP3   OH227256   3.983   5.531   1.321 -0.0772  0.3878  0.2399
 9100TIP3    H127257   4.048   5.602   1.322 -1.5674  1.8139  1.3024
 9100TIP3    H227258   4.035   5.452   1.305  1.7491  1.6033 -0.2406
 9101TIP3   OH227259   6.267   7.247   4.962  0.2226 -0.0310  0.2759
 9101TIP3    H127260   6.309   7.289   4.886 -1.5568 -1.3635 -1.5458
 9101TIP3    H227261   6.194   7.305   4.983 -0.9868 -1.0405 -0.9195
 9102TIP3   OH227262   3.273   6.481   6.375 -0.1806  0.1515 -0.0779
 9102TIP3    H127263   3.233   6.428   6.306 -1.5273  0.2396  0.5936
 9102TIP3    H227264   3.298   6.562   6.331  0.9782 -0.6277 -0.9016
 9103TIP3   OH227265   3.797   5.188   5.183 -0.4168 -0.0983 -0.0683
 9103TIP3    H127266   3.764   5.213   5.097 -0.6167  0.0102  0.0378
 9103TIP3    H227267   3.810   5.271   5.229 -2.2816 -0.1896  0.7290
 9104TIP3   OH227268   5.755   2.552   0.421  0.7277  0.1327 -0.8024
 9104TIP3    H127269   5.696   2.484   0.454  2.5556 -0.3528  1.7879
 9104TIP3    H227270   5.725   2.632   0.463  0.9641  0.1736 -0.7122
 9105TIP3   OH227271   1.087   5.446   5.449  0.1820  0.2409 -0.4281
 9105TIP3    H127272   1.015   5.392   5.482  0.4479 -0.6382 -1.2543
 9105TIP3    H227273   1.053   5.483   5.368 -0.7925  3.0898  1.1095
 9106TIP3   OH227274   2.795   4.627   0.697  0.3476 -0.7764 -0.2716
 9106TIP3    H127275   2.858   4.668   0.638  0.6543 -0.6261  0.1599
 9106TIP3    H227276   2.848   4.578   0.759  0.0538 -0.4312  0.2598
 9107TIP3   OH227277   2.939   0.859   5.785 -0.1761 -0.0484 -0.3705
 9107TIP3    H127278   2.944   0.859   5.689  1.6541 -2.1228 -0.3736
 9107TIP3    H227279   2.860   0.808   5.805 -0.2424 -0.1107 -0.7796
 9108TIP3   OH227280   1.728   0.805   4.404 -0.3698 -0.1729 -0.0035
 9108TIP3    H127281   1.658   0.777   4.344  0.6039  0.5703 -1.5577
 9108TIP3    H227282   1.809   0.785   4.357  0.5310 -1.6668  2.0557
 9109TIP3   OH227283   1.983   2.123   2.500  0.6590  0.0499 -0.0172
 9109TIP3    H127284   2.073   2.123   2.467  0.7739 -0.2568  0.2879
 9109TIP3    H227285   1.929   2.126   2.422  0.9324 -0.5952 -0.2398
 9110TIP3   OH227286   6.617   6.585  -0.010  0.0893 -0.5452 -0.0288
 9110TIP3    H127287   6.549   6.638   0.032  0.2865 -0.2198 -0.1169
 9110TIP3    H227288   6.597   6.495   0.018  0.3786 -0.3068  0.9969
 9111TIP3   OH227289   2.947   4.551   0.909  0.5558 -0.2909  0.4610
 9111TIP3    H127290   2.970   4.477   0.964  0.9776  0.5303  1.4378
 9111TIP3    H227291   2.917   4.618   0.970 -1.1392 -0.1131 -0.5146
 9112TIP3   OH227292   1.200   1.913   5.553  0.9988 -0.1013  0.2303
 9112TIP3    H127293   1.264   1.849   5.522  1.9254  1.1763 -0.5879
 9112TIP3    H227294   1.197   1.900   5.648  3.2234  0.4235  0.4258
 9113TIP3   OH227295   8.160   4.972   2.375 -0.2389 -0.3035  0.0017
 9113TIP3    H127296   8.138   4.970   2.282 -1.1603 -0.1847  0.2033
 9113TIP3    H227297   8.075   4.977   2.419  0.1916 -0.2830  0.8459
 9114TIP3   OH227298   7.432   4.901   5.646  0.2874  0.0018  0.3196
 9114TIP3    H127299   7.340   4.881   5.662 -0.0851  0.9562 -0.5738
 9114TIP3    H227300   7.480   4.839   5.702 -0.8382 -1.7953 -0.6301
 9115TIP3   OH227301   4.593   0.143   1.369  0.2287  0.6961 -0.7458
 9115TIP3    H127302   4.551   0.066   1.330  0.1386  0.7759 -0.8061
 9115TIP3    H227303   4.551   0.217   1.326  0.7148  0.7714 -1.1028
 9116TIP3   OH227304   7.210   5.969   2.656  0.5446  0.1067  0.0900
 9116TIP3    H127305   7.130   6.019   2.639  1.3036  1.7242  1.0213
 9116TIP3    H227306   7.182   5.898   2.713 -0.5283 -0.4860 -1.1090
 9117TIP3   OH227307   0.674   5.386   5.725 -0.1020 -0.0719 -0.5073
 9117TIP3    H127308   0.632   5.341   5.652 -0.6231 -0.6101  0.1117
 9117TIP3    H227309   0.732   5.451   5.684 -0.7916  0.0003 -1.3889
 9118TIP3   OH227310   2.991   4.830   4.912  0.1874 -0.3815 -0.3371
 9118TIP3    H127311   3.044   4.824   4.992 -0.8684 -3.4025  0.2538
 9118TIP3    H227312   3.050   4.803   4.842 -0.3504 -3.4969  0.2843
 9119TIP3   OH227313   3.489   1.389   5.684  0.1885 -0.5453  0.2533
 9119TIP3    H127314   3.532   1.312   5.646  1.4566 -0.6633  1.8110
 9119TIP3    H227315   3.421   1.351   5.741  0.2800 -0.4882  0.4004
 9120TIP3   OH227316   6.877   5.815   2.458 -0.9560  0.0304 -0.0159
 9120TIP3    H127317   6.927   5.765   2.394 -0.6867 -0.1131  0.3041
 9120TIP3    H227318   6.916   5.793   2.543 -1.6848 -0.2364  0.2578
 9121TIP3   OH227319   7.034   0.920   6.590  0.4315  0.2344 -0.1409
 9121TIP3    H127320   6.980   0.920   6.668  0.8341 -0.3419  0.1485
 9121TIP3    H227321   7.051   1.012   6.572  0.7130  0.3613  0.7205
 9122TIP3   OH227322   3.080   2.503   3.090 -0.4220  0.2655 -0.0155
 9122TIP3    H127323   3.010   2.440   3.069 -1.8096  1.7560 -0.0606
 9122TIP3    H227324   3.081   2.506   3.186  1.2948 -1.5237  0.0980
 9123TIP3   OH227325   1.883   7.669   1.346 -0.2614  0.1706  0.1087
 9123TIP3    H127326   1.912   7.579   1.330 -0.3336  0.4105 -1.5534
 9123TIP3    H227327   1.792   7.670   1.318 -1.1199  0.1349  2.6429
 9124TIP3   OH227328   8.007   5.864   3.370  0.4148  0.3707  0.1363
 9124TIP3    H127329   8.102   5.868   3.386  0.4274  0.4570  0.0426
 9124TIP3    H227330   7.977   5.791   3.423  0.5896  0.1137 -0.1175
 9125TIP3   OH227331   1.376   6.766   4.369 -0.2093 -0.3371  0.5790
 9125TIP3    H127332   1.282   6.772   4.386  0.0365  0.4153  1.8044
 9125TIP3    H227333   1.411   6.720   4.446  0.7165  1.5366  1.3575
 9126TIP3   OH227334   3.865   4.717   2.200  0.2094 -0.0012 -0.5007
 9126TIP3    H127335   3.885   4.708   2.107  0.5286  1.7419 -0.6390
 9126TIP3    H227336   3.773   4.692   2.207  0.0694  0.2342 -1.3594
 9127TIP3   OH227337   4.133   1.250   2.048  0.1643  0.8288  0.1045
 9127TIP3    H127338   4.098   1.278   1.963  0.5839  1.5807  0.1656
 9127TIP3    H227339   4.100   1.315   2.110 -0.2727  0.1924  0.5586
 9128TIP3   OH227340   7.284   6.093   3.926  0.4514  0.0648  0.4320
 9128TIP3    H127341   7.200   6.086   3.971  0.4464  1.6088  0.7400
 9128TIP3    H227342   7.271   6.166   3.864  0.8703 -1.1477 -1.1484
 9129TIP3   OH227343   0.974   6.973   1.772 -0.3694 -0.3879  0.2076
 9129TIP3    H127344   1.010   6.889   1.744 -0.0466 -0.0779 -0.3413
 9129TIP3    H227345   0.908   6.993   1.705  1.4644  1.0923 -1.2918
 9130TIP3   OH227346   5.221   6.905   6.143 -0.1156 -0.3598 -0.4304
 9130TIP3    H127347   5.204   6.817   6.178 -1.8991  0.0539 -0.1422
 9130TIP3    H227348   5.135   6.948   6.145  0.8727  1.7014  0.2761
 9131TIP3   OH227349   1.329   5.542   2.663  0.2573  0.0306  0.1656
 9131TIP3    H127350   1.416   5.508   2.642 -0.4129 -1.6693  0.0434
 9131TIP3    H227351   1.335   5.566   2.756  0.7181 -0.5163  0.2834
 9132TIP3   OH227352   3.344   3.817   5.886  0.0871 -0.7804 -0.9034
 9132TIP3    H127353   3.340   3.844   5.794 -0.3363 -0.6105 -0.8368
 9132TIP3    H227354   3.437   3.820   5.908 -0.0345  2.3131 -0.3983
 9133TIP3   OH227355   8.007   7.637   6.619  0.3557 -1.0138  0.0597
 9133TIP3    H127356   7.995   7.556   6.569  2.2727 -1.9082  0.9543
 9133TIP3    H227357   8.100   7.657   6.612  0.2513  0.0960  1.3637
 9134TIP3   OH227358   2.565   7.279   1.955 -0.3118  0.3903  0.4723
 9134TIP3    H127359   2.631   7.315   2.014  0.2036 -1.3071  0.9891
 9134TIP3    H227360   2.556   7.188   1.983 -1.0594 -0.0734 -1.2069
 9135TIP3   OH227361   4.323   7.608   6.093  0.0972 -0.4314 -0.6776
 9135TIP3    H127362   4.269   7.609   6.014  1.2505  2.0824 -1.5423
 9135TIP3    H227363   4.339   7.701   6.112 -2.1709 -0.7431  4.0457
 9136TIP3   OH227364   7.480   2.417   0.138  0.0475 -0.1067  0.3092
 9136TIP3    H127365   7.571   2.441   0.156  0.3927 -1.0006 -0.2167
 9136TIP3    H227366   7.430   2.494   0.164  0.9433  0.3678  0.6799
 9137TIP3   OH227367   5.921   6.131   1.581  0.1017  0.2308 -0.1169
 9137TIP3    H127368   5.888   6.112   1.668  1.4532  2.0035  0.8643
 9137TIP3    H227369   5.850   6.178   1.537 -1.0324 -1.6895 -0.4755
 9138TIP3   OH227370   7.507   7.675   5.632 -0.3118 -0.0043 -0.0132
 9138TIP3    H127371   7.560   7.740   5.587 -0.7781 -0.2894 -1.0011
 9138TIP3    H227372   7.505   7.705   5.724 -0.9154  1.6532 -0.5180
 9139TIP3   OH227373   4.186   6.354   3.470  0.2469  0.1977  0.4012
 9139TIP3    H127374   4.250   6.293   3.434 -1.0388 -0.5663 -0.6936
 9139TIP3    H227375   4.219   6.440   3.445 -0.3183 -0.2730 -2.3340
 9140TIP3   OH227376   1.042   4.980   2.524  0.2718  0.0617 -0.7865
 9140TIP3    H127377   1.102   5.045   2.488 -0.4907  0.8486 -0.6858
 9140TIP3    H227378   1.091   4.937   2.594  1.1299 -0.1856 -1.5243
 9141TIP3   OH227379   4.362   1.017   1.054 -0.2776  0.2782 -0.0437
 9141TIP3    H127380   4.395   1.078   1.120 -1.5222 -1.6611  2.5929
 9141TIP3    H227381   4.372   0.931   1.095 -1.8562 -0.9702 -2.0971
 9142TIP3   OH227382   1.698   1.713   4.417  0.3096 -0.3195 -0.1997
 9142TIP3    H127383   1.649   1.637   4.450  2.0597 -1.1227  0.7001
 9142TIP3    H227384   1.725   1.688   4.329  0.3840 -0.5018 -0.1252
 9143TIP3   OH227385   1.782   2.068   3.142 -0.1251  0.1958 -0.1132
 9143TIP3    H127386   1.835   2.085   3.065  1.2496  1.2701  0.9982
 9143TIP3    H227387   1.693   2.054   3.109  0.5160  0.1669 -1.8875
 9144TIP3   OH227388   3.907   1.095   4.768  0.0286  0.3348 -0.0323
 9144TIP3    H127389   3.978   1.033   4.755 -0.1858  0.3694 -1.5362
 9144TIP3    H227390   3.869   1.071   4.853 -0.0790 -1.6025 -0.5907
 9145TIP3   OH227391   4.614   3.499   4.066 -0.1924 -0.3747 -0.0241
 9145TIP3    H127392   4.542   3.499   4.003  0.8974  1.7578 -1.3821
 9145TIP3    H227393   4.642   3.408   4.069 -1.9995 -1.0042 -0.5524
 9146TIP3   OH227394   2.009   3.720   1.545  0.0479  0.5119  0.4705
 9146TIP3    H127395   1.951   3.791   1.516 -0.3614 -0.1824 -0.4618
 9146TIP3    H227396   1.953   3.664   1.598 -0.4118 -0.6217 -1.1298
 9147TIP3   OH227397   2.778   7.281   6.450  0.3837  0.5839 -0.2577
 9147TIP3    H127398   2.850   7.225   6.423  0.8457  1.2033 -0.3253
 9147TIP3    H227399   2.704   7.253   6.395  0.3376 -0.5951  0.3813
 9148TIP3   OH227400   6.235   3.940   1.787  0.9229  0.8701 -0.7175
 9148TIP3    H127401   6.306   3.991   1.749  0.1572  0.7645 -2.3946
 9148TIP3    H227402   6.272   3.853   1.801  1.0017  0.6369 -2.1672
 9149TIP3   OH227403   2.182   1.112   2.424  0.0837  0.2210  0.2864
 9149TIP3    H127404   2.150   1.060   2.498 -1.1098 -0.3598 -0.6066
 9149TIP3    H227405   2.113   1.176   2.407  0.8417  1.0733  0.3692
 9150TIP3   OH227406   3.298   5.062   1.055  0.2995  0.0164  0.3571
 9150TIP3    H127407   3.257   5.146   1.032  0.7903  0.8245  2.2854
 9150TIP3    H227408   3.225   5.008   1.085  0.0469 -0.1079 -0.4502
 9151TIP3   OH227409   6.643   7.032   2.591  0.1958 -0.3435  0.2389
 9151TIP3    H127410   6.677   6.954   2.634  0.2021 -0.0510  0.7826
 9151TIP3    H227411   6.600   7.081   2.662 -0.6914 -0.3400 -0.2844
 9152TIP3   OH227412   3.755   2.049   5.743 -0.0635  0.2714 -0.7333
 9152TIP3    H127413   3.771   2.115   5.811 -0.6363  0.0561 -0.3808
 9152TIP3    H227414   3.686   2.087   5.689 -1.1186 -0.4403  0.0625
 9153TIP3   OH227415   7.742   6.851   3.133 -0.2097 -0.2923  0.7129
 9153TIP3    H127416   7.665   6.878   3.083  0.1207  0.5348  0.6436
 9153TIP3    H227417   7.709   6.839   3.222 -0.4990 -0.3233  0.6047
 9154TIP3   OH227418   0.259   4.926   5.031 -0.3274 -0.4282  0.1609
 9154TIP3    H127419   0.288   4.930   4.939 -2.1528  1.1508 -0.4015
 9154TIP3    H227420   0.314   4.991   5.075 -0.0590 -0.5441  0.0032
 9155TIP3   OH227421   2.388   5.988   2.609  0.2441 -0.2142 -0.1966
 9155TIP3    H127422   2.458   6.019   2.665  1.1396 -0.4856 -1.1403
 9155TIP3    H227423   2.412   5.898   2.588 -1.5037 -1.0875  1.2214
 9156TIP3   OH227424   1.705   3.143   0.528 -0.1032  0.1358  0.3009
 9156TIP3    H127425   1.778   3.093   0.492 -0.6399 -1.4959  1.3300
 9156TIP3    H227426   1.637   3.138   0.460  0.8349  2.0603 -0.8618
 9157TIP3   OH227427   5.880   6.169   2.765  0.2133  0.3057  0.5593
 9157TIP3    H127428   5.870   6.179   2.670 -0.0219 -0.5353  0.4814
 9157TIP3    H227429   5.813   6.105   2.789  0.1125  0.6998  1.3359
 9158TIP3   OH227430   6.272   2.071   0.919  0.3229 -0.5263 -0.2744
 9158TIP3    H127431   6.281   2.085   1.013 -0.4051 -1.3458 -0.0746
 9158TIP3    H227432   6.362   2.061   0.888  0.7858  2.2223 -0.1030
 9159TIP3   OH227433   7.211   3.165   6.000 -0.2120  0.4748 -0.3884
 9159TIP3    H127434   7.196   3.071   5.999 -0.2944  0.4911 -0.9107
 9159TIP3    H227435   7.189   3.192   6.089 -0.2556  0.0133 -0.2570
 9160TIP3   OH227436   6.879   1.656   4.553 -0.0016 -0.5064 -0.2612
 9160TIP3    H127437   6.936   1.728   4.527 -0.0320 -0.3415  0.1342
 9160TIP3    H227438   6.813   1.695   4.609 -1.3774 -0.4359 -1.8599
 9161TIP3   OH227439   2.058   0.139   6.397 -0.1039  0.4489  0.2682
 9161TIP3    H127440   2.028   0.162   6.485 -0.6181  2.0754 -0.2970
 9161TIP3    H227441   2.133   0.197   6.382 -0.5918  0.8393 -0.7018
 9162TIP3   OH227442   6.105   3.866   2.573 -0.0768 -0.3635  0.8482
 9162TIP3    H127443   6.189   3.828   2.597  0.0643 -1.1960 -0.7987
 9162TIP3    H227444   6.112   3.882   2.479 -1.2313  0.9791  0.9587
 9163TIP3   OH227445   5.968   5.972   6.609 -0.1856 -0.4098 -0.2600
 9163TIP3    H127446   5.891   5.930   6.572 -0.1221 -0.4488 -0.3473
 9163TIP3    H227447   6.009   5.904   6.663 -0.5845 -0.1856  0.3286
 9164TIP3   OH227448   4.554   0.448   0.058 -0.2271 -0.3140 -0.0653
 9164TIP3    H127449   4.500   0.467  -0.018 -1.1069 -0.1775  0.5818
 9164TIP3    H227450   4.626   0.511   0.052 -1.0808  0.6849  0.0037
 9165TIP3   OH227451   2.478   5.375   1.342  0.3077 -0.4714 -0.4133
 9165TIP3    H127452   2.421   5.299   1.330 -1.9233  0.6791  1.8752
 9165TIP3    H227453   2.455   5.433   1.269  1.3793 -1.5516 -1.6588
 9166TIP3   OH227454   3.320   3.213   0.818  0.2660  0.1786  0.0852
 9166TIP3    H127455   3.353   3.124   0.808 -0.3336 -0.0601  0.1751
 9166TIP3    H227456   3.376   3.253   0.884  1.3914  0.3058 -0.9074
 9167TIP3   OH227457   5.794   5.800   0.141 -0.0804 -0.4916 -0.3457
 9167TIP3    H127458   5.817   5.892   0.134 -1.0918 -0.2114 -0.1487
 9167TIP3    H227459   5.875   5.757   0.170  0.8150  0.0995 -1.8380
 9168TIP3   OH227460   5.948   3.791   6.013  0.7631 -0.4849 -0.2933
 9168TIP3    H127461   6.044   3.792   6.005  0.7632  2.0535 -0.9321
 9168TIP3    H227462   5.917   3.795   5.922 -0.0878 -3.6390 -0.2515
 9169TIP3   OH227463   6.840   5.372   6.285 -0.1920  0.5017 -0.1042
 9169TIP3    H127464   6.875   5.445   6.234  0.9356 -0.1239 -0.2671
 9169TIP3    H227465   6.893   5.297   6.257 -1.3762 -0.3926  0.0047
 9170TIP3   OH227466   3.932   5.028   2.937  0.0378 -0.2210  0.2225
 9170TIP3    H127467   3.982   5.037   2.856  0.5189 -0.5755  0.4767
 9170TIP3    H227468   3.898   5.116   2.954 -0.2814 -0.1950 -0.4942
 9171TIP3   OH227469   6.274   2.714   0.404 -0.0903  0.5134  0.1332
 9171TIP3    H127470   6.217   2.715   0.327 -0.3344 -0.1109  0.2964
 9171TIP3    H227471   6.214   2.700   0.477  0.1578  0.9358  0.4163
 9172TIP3   OH227472   4.136   5.808   3.780 -0.1095  0.2050  0.5156
 9172TIP3    H127473   4.231   5.794   3.787 -0.0780 -1.1635 -1.6744
 9172TIP3    H227474   4.126   5.862   3.701 -1.1533  0.7924  1.0291
 9173TIP3   OH227475   3.742   5.114   0.953  0.8021  0.0190 -0.2652
 9173TIP3    H127476   3.749   5.178   0.883 -0.1729 -0.4105 -0.7687
 9173TIP3    H227477   3.819   5.058   0.942  1.1153  0.4790 -0.4480
 9174TIP3   OH227478   2.366   2.862   3.493  0.7307 -0.3614 -0.2396
 9174TIP3    H127479   2.371   2.825   3.581 -1.5946  2.5412  1.2884
 9174TIP3    H227480   2.312   2.800   3.444 -0.8241 -0.3947  1.4202
 9175TIP3   OH227481   4.056   0.822   6.168 -0.3851  0.3868 -0.2342
 9175TIP3    H127482   4.008   0.891   6.215 -0.7980 -0.0297 -0.0267
 9175TIP3    H227483   4.105   0.777   6.236 -1.5077 -0.6484 -0.0627
 9176TIP3   OH227484   6.734   6.336   1.312  0.1789  0.0993 -0.6355
 9176TIP3    H127485   6.814   6.343   1.365 -0.0175 -0.9703 -0.1680
 9176TIP3    H227486   6.679   6.408   1.343  1.2895  1.4044 -1.5903
 9177TIP3   OH227487   0.873   0.420   6.452 -0.1267  0.3506 -0.1621
 9177TIP3    H127488   0.904   0.338   6.489  4.1332  2.3584  1.4483
 9177TIP3    H227489   0.885   0.411   6.358  0.9954 -0.6366  0.0582
 9178TIP3   OH227490   5.071   6.707   0.880  0.0446 -0.0732 -0.3264
 9178TIP3    H127491   5.104   6.783   0.927  1.7981  0.6940 -2.6014
 9178TIP3    H227492   5.112   6.632   0.923  0.4951  0.4868  0.2358
 9179TIP3   OH227493   1.164   1.950   2.108  0.3134 -0.1282 -0.3605
 9179TIP3    H127494   1.195   2.036   2.136  0.3358 -0.0881 -0.5097
 9179TIP3    H227495   1.241   1.893   2.114  0.3025 -0.1350 -0.2780
 9180TIP3   OH227496   1.736   6.546   5.992 -0.0366 -0.2224 -0.3839
 9180TIP3    H127497   1.642   6.545   6.013 -0.2710  2.1791 -0.9696
 9180TIP3    H227498   1.779   6.514   6.071 -1.2752  0.4161  0.5934
 9181TIP3   OH227499   0.983   2.444   0.828  0.6759 -0.7805  0.1977
 9181TIP3    H127500   0.969   2.523   0.776  1.1175 -0.6483  0.2769
 9181TIP3    H227501   0.922   2.453   0.901  1.3623 -0.0697  0.6936
 9182TIP3   OH227502   3.886   2.213   5.221  0.2366 -0.1937 -0.0478
 9182TIP3    H127503   3.791   2.224   5.224  0.2455 -0.2707  0.6101
 9182TIP3    H227504   3.908   2.223   5.129 -0.3882  0.0228 -0.1795
 9183TIP3   OH227505   2.320   3.354   0.609 -0.0455 -0.1875 -0.1124
 9183TIP3    H127506   2.399   3.361   0.664  1.2954  0.1601 -1.9671
 9183TIP3    H227507   2.271   3.433   0.627  1.0599  0.5882 -0.3818
 9184TIP3   OH227508   5.267   0.078   6.527  0.3528 -0.1348  0.1796
 9184TIP3    H127509   5.224   0.144   6.580 -0.9442 -1.5824  1.0080
 9184TIP3    H227510   5.218   0.076   6.445 -0.6171 -1.1320  0.7630
 9185TIP3   OH227511   0.137   3.540   5.829  0.1669 -0.1505 -0.0142
 9185TIP3    H127512   0.073   3.481   5.868  1.1947 -0.4311  1.3435
 9185TIP3    H227513   0.090   3.583   5.758 -1.3771 -0.6687  0.6495
 9186TIP3   OH227514   5.972   0.295   3.219  0.6835  0.4471  0.5393
 9186TIP3    H127515   6.013   0.337   3.143  2.7129 -1.5661  0.4151
 9186TIP3    H227516   5.990   0.354   3.291  0.5272  1.4078 -0.1880
 9187TIP3   OH227517   5.044   1.599   6.409  0.2044 -0.5277 -0.0168
 9187TIP3    H127518   4.949   1.587   6.415  0.0707  0.4209 -0.1189
 9187TIP3    H227519   5.056   1.664   6.340  0.7288  1.7030  2.0549
 9188TIP3   OH227520   4.449   2.553   4.118 -0.4923  0.4583 -0.0535
 9188TIP3    H127521   4.375   2.611   4.101  0.1349  1.2747 -0.0311
 9188TIP3    H227522   4.409   2.467   4.130 -1.3593  0.7167 -0.9525
 9189TIP3   OH227523   5.966   2.240   5.527  0.6280  0.7112  0.4634
 9189TIP3    H127524   5.993   2.191   5.450 -1.8227  2.1115 -1.4528
 9189TIP3    H227525   6.044   2.289   5.553  1.8832 -0.8214 -0.2633
 9190TIP3   OH227526   1.846   5.123   2.025 -0.1198 -0.1896  0.5774
 9190TIP3    H127527   1.769   5.072   2.051  0.1942  0.4446  2.9972
 9190TIP3    H227528   1.820   5.166   1.943 -2.2125 -0.2645  1.1458
 9191TIP3   OH227529   1.942   2.456   6.176  0.3046 -0.0814  0.2473
 9191TIP3    H127530   2.007   2.440   6.107 -1.7225 -0.3685 -1.7227
 9191TIP3    H227531   1.932   2.551   6.178  1.0425 -0.0094  0.8348
 9192TIP3   OH227532   0.972   0.714   0.764  0.2083  0.2597  0.4262
 9192TIP3    H127533   0.913   0.727   0.838  0.3488  0.5796  0.4830
 9192TIP3    H227534   1.055   0.689   0.804  0.3702  0.7382  0.3915
 9193TIP3   OH227535   7.669   2.150   2.857  0.2311  0.0859 -0.0277
 9193TIP3    H127536   7.753   2.105   2.866  1.6255  2.6777  1.1786
 9193TIP3    H227537   7.662   2.171   2.764  0.9494 -0.1500 -0.1395
 9194TIP3   OH227538   1.508   0.811   3.930  0.4605 -0.4378 -0.5764
 9194TIP3    H127539   1.412   0.814   3.938  0.6112  2.0438  2.9253
 9194TIP3    H227540   1.534   0.737   3.985  0.5877 -0.3381 -0.5017
 9195TIP3   OH227541   4.143   4.338   2.972 -0.3523 -0.5228 -0.1374
 9195TIP3    H127542   4.084   4.336   3.047 -0.2499 -1.2135 -0.0684
 9195TIP3    H227543   4.089   4.368   2.899 -0.4084  0.3303  0.2422
 9196TIP3   OH227544   2.395   3.001   1.877  0.2800  0.1048  0.1224
 9196TIP3    H127545   2.353   3.002   1.963  0.3612  0.9592  0.1612
 9196TIP3    H227546   2.387   3.091   1.845 -1.1301 -0.5267 -1.4526
 9197TIP3   OH227547   4.845   1.428   3.995  0.0593  0.2503  0.1013
 9197TIP3    H127548   4.919   1.487   4.010  0.7554 -0.0795 -1.7279
 9197TIP3    H227549   4.872   1.375   3.920 -1.8241 -0.2433 -0.2728
 9198TIP3   OH227550   5.704   5.849   0.703  0.4794  0.2936  0.1150
 9198TIP3    H127551   5.759   5.908   0.755  2.2496 -0.7008 -0.5271
 9198TIP3    H227552   5.766   5.791   0.660 -1.0553 -0.1983 -1.5401
 9199TIP3   OH227553   6.863   0.160   6.020  0.1521  0.0091 -0.7023
 9199TIP3    H127554   6.805   0.086   6.035  0.3243 -0.1093 -0.6177
 9199TIP3    H227555   6.806   0.230   5.987 -0.1264  0.0734 -0.0865
 9200TIP3   OH227556   0.244   0.092   5.771  0.3952  0.3853  0.5011
 9200TIP3    H127557   0.270   0.165   5.715  1.1960  0.7099  1.2733
 9200TIP3    H227558   0.178   0.044   5.720  1.1065  0.6679 -0.7086
 9201TIP3   OH227559   3.929   2.653   6.482 -0.3031  0.3800  0.2091
 9201TIP3    H127560   3.993   2.693   6.541  0.2865  1.4007 -1.0659
 9201TIP3    H227561   3.844   2.673   6.522  0.1228 -1.8321  2.4344
 9202TIP3   OH227562   2.694   3.055   4.180 -0.6527 -0.2382 -0.1777
 9202TIP3    H127563   2.735   3.102   4.253 -1.8199 -0.6114  0.7555
 9202TIP3    H227564   2.683   3.122   4.113  0.0526  0.2164  0.1419
 9203TIP3   OH227565   1.855   0.022   1.075 -0.1459  0.4043  0.3578
 9203TIP3    H127566   1.942   0.060   1.069  0.4609 -0.5612  2.1259
 9203TIP3    H227567   1.810   0.077   1.139 -1.5354  2.0353 -1.8982
 9204TIP3   OH227568   3.979   5.030   1.549  0.3354 -0.7474 -0.0200
 9204TIP3    H127569   3.996   5.025   1.455  0.3868  1.0752 -0.1537
 9204TIP3    H227570   3.891   5.067   1.556  0.5830 -0.2555  0.6237
 9205TIP3   OH227571   3.596   6.124   2.503 -0.4167  0.7456 -0.3709
 9205TIP3    H127572   3.511   6.170   2.508 -1.4804 -0.8600 -2.4067
 9205TIP3    H227573   3.603   6.080   2.588 -1.3843  1.2876  0.0190
 9206TIP3   OH227574   3.013   4.805   3.360 -0.6187 -0.3117  0.1344
 9206TIP3    H127575   3.010   4.893   3.323 -2.7828 -1.0744 -1.7159
 9206TIP3    H227576   2.972   4.814   3.447 -0.8600  0.4998 -0.0577
 9207TIP3   OH227577   5.347   3.358   5.048  0.5762 -0.2713 -0.1855
 9207TIP3    H127578   5.255   3.336   5.029  1.1752 -0.8202 -2.8434
 9207TIP3    H227579   5.367   3.429   4.988  1.9393 -0.2622  0.2619
 9208TIP3   OH227580   5.043   2.038   2.498  0.2393  0.3391 -0.5428
 9208TIP3    H127581   5.081   1.953   2.473  0.7422  0.1367  0.8216
 9208TIP3    H227582   5.118   2.092   2.521 -0.1022  1.0843 -1.1563
 9209TIP3   OH227583   7.428   3.534   4.168 -0.6702 -0.2649 -0.0173
 9209TIP3    H127584   7.511   3.499   4.137 -2.1507 -2.4907 -1.8247
 9209TIP3    H227585   7.407   3.481   4.245 -1.2455 -1.0278 -0.6751
 9210TIP3   OH227586   4.771   7.540   0.556 -0.3220 -0.7249  0.3218
 9210TIP3    H127587   4.740   7.488   0.630  0.5327 -1.4743  0.1653
 9210TIP3    H227588   4.710   7.613   0.551  1.3968  1.2286  3.8478
 9211TIP3   OH227589   4.704   5.940   4.267 -0.1566 -0.2280  0.1280
 9211TIP3    H127590   4.754   6.007   4.313 -0.6400 -0.7946  1.5307
 9211TIP3    H227591   4.732   5.858   4.305  1.3724 -1.0075 -2.4656
 9212TIP3   OH227592   0.088   2.372   6.397 -0.1035  0.5948  0.0283
 9212TIP3    H127593   0.086   2.424   6.316 -0.6516  0.8796  0.2153
 9212TIP3    H227594  -0.005   2.354   6.415 -0.0187  0.9236  0.8353
 9213TIP3   OH227595   5.875   2.856   3.909  0.1093 -0.2269 -0.0004
 9213TIP3    H127596   5.830   2.925   3.958  0.3835 -1.0850  1.4997
 9213TIP3    H227597   5.805   2.804   3.870 -0.1649 -0.4731  0.8065
 9214TIP3   OH227598   2.757   5.207   0.989 -0.2595  0.1095 -0.5633
 9214TIP3    H127599   2.775   5.144   0.919 -1.4278 -1.2550  0.3058
 9214TIP3    H227600   2.749   5.291   0.944  1.1820 -0.3627 -1.7816
 9215TIP3   OH227601   3.701   7.196   3.132 -0.1470  0.0319 -0.2351
 9215TIP3    H127602   3.712   7.271   3.074  3.0094 -0.8450 -0.9501
 9215TIP3    H227603   3.726   7.229   3.219 -1.3415  0.4078 -0.0065
 9216TIP3   OH227604   0.926   3.230   1.394  0.2135 -0.0293 -0.2219
 9216TIP3    H127605   0.831   3.225   1.406  0.1391  0.0038 -0.7516
 9216TIP3    H227606   0.953   3.139   1.382  0.5375 -0.2433  1.9023
 9217TIP3   OH227607   2.483   7.642   6.328  0.2167  0.2311  0.0740
 9217TIP3    H127608   2.405   7.592   6.304  1.3368 -1.1893 -0.7822
 9217TIP3    H227609   2.487   7.712   6.263 -0.0523 -0.0204 -0.2201
 9218TIP3   OH227610   3.401   3.827   6.412 -0.1093 -0.1780  0.7686
 9218TIP3    H127611   3.357   3.873   6.483  2.5716  0.8053  1.9165
 9218TIP3    H227612   3.412   3.893   6.344 -0.2937 -0.3993  0.5194
 9219TIP3   OH227613   0.634   3.264   3.637  0.6326 -0.0511  0.6257
 9219TIP3    H127614   0.559   3.309   3.676  1.5643  1.1749  1.0578
 9219TIP3    H227615   0.662   3.201   3.703 -0.0968 -0.6430  0.3921
 9220TIP3   OH227616   1.820   4.398   6.056 -0.7555  1.0603 -0.0086
 9220TIP3    H127617   1.813   4.316   6.007  0.5079  0.7831  0.2309
 9220TIP3    H227618   1.766   4.383   6.134 -0.4109  0.3831  0.1128
 9221TIP3   OH227619   6.568   7.593   1.059 -0.2450  0.5632  0.1454
 9221TIP3    H127620   6.543   7.591   0.967  0.1728 -3.0570 -0.0149
 9221TIP3    H227621   6.654   7.550   1.062 -0.1406  0.8052  2.2232
 9222TIP3   OH227622   0.402   3.711   0.830  0.7336  0.1593  0.2074
 9222TIP3    H127623   0.451   3.792   0.817  1.9154 -0.4660  0.5970
 9222TIP3    H227624   0.464   3.641   0.809 -0.2937 -0.6620 -0.2344
 9223TIP3   OH227625   4.161   2.316   5.999 -0.0789 -0.1631  0.0357
 9223TIP3    H127626   4.150   2.349   6.088  0.0252  1.1701 -0.4142
 9223TIP3    H227627   4.243   2.356   5.969  0.6420 -1.7279 -0.1907
 9224TIP3   OH227628   5.548   7.642   3.800 -0.4640 -0.3617  0.1391
 9224TIP3    H127629   5.623   7.700   3.815  1.0974 -1.6891 -1.9439
 9224TIP3    H227630   5.566   7.565   3.853  0.6342 -1.4143 -1.6520
 9225TIP3   OH227631   0.381   7.615   0.425  0.2061 -0.0328 -0.1154
 9225TIP3    H127632   0.326   7.638   0.350 -0.5316 -1.0425  0.0910
 9225TIP3    H227633   0.462   7.582   0.387 -0.7093 -1.9094 -0.5461
 9226TIP3   OH227634   0.188   5.512   2.120 -0.8927 -0.1712  0.9323
 9226TIP3    H127635   0.131   5.586   2.143  1.7657  2.2677  0.3667
 9226TIP3    H227636   0.231   5.489   2.203  1.7887  2.3223  0.4155
 9227TIP3   OH227637   0.799   6.217   0.509 -0.0590 -0.0687 -0.1449
 9227TIP3    H127638   0.818   6.207   0.416  1.0607 -1.1623  0.1667
 9227TIP3    H227639   0.859   6.285   0.539  1.7721 -1.8162  0.3459
 9228TIP3   OH227640   0.790   0.715   0.163  0.3225 -0.1176 -0.4478
 9228TIP3    H127641   0.770   0.737   0.072  0.2194 -0.6185 -0.5520
 9228TIP3    H227642   0.803   0.620   0.162  1.3990  0.0175 -0.1421
 9229TIP3   OH227643   7.704   4.096   4.035  0.8756 -0.1741 -0.2088
 9229TIP3    H127644   7.749   4.014   4.053  1.4933  0.2134  0.0163
 9229TIP3    H227645   7.631   4.071   3.977  0.8655 -0.9207  0.1197
 9230TIP3   OH227646   4.566   6.651   4.345 -0.1881 -0.3740 -0.0058
 9230TIP3    H127647   4.647   6.700   4.329 -1.2978  1.5186 -0.1093
 9230TIP3    H227648   4.560   6.589   4.272  0.3348  0.6110 -0.9112
 9231TIP3   OH227649   6.168   0.734   4.733  0.6269  0.3134 -0.6527
 9231TIP3    H127650   6.215   0.679   4.671 -0.9827 -0.5818 -1.1422
 9231TIP3    H227651   6.183   0.692   4.818  0.0742 -0.4413 -0.9165
 9232TIP3   OH227652   3.436   5.883   4.704 -0.1834 -0.0446 -0.4498
 9232TIP3    H127653   3.484   5.931   4.772  0.0962 -1.0049  0.0501
 9232TIP3    H227654   3.365   5.839   4.751  0.5246 -1.4164 -0.6142
 9233TIP3   OH227655   7.881   3.467   4.919 -0.2293 -0.3073 -0.2110
 9233TIP3    H127656   7.809   3.481   4.857 -0.2778 -0.1923 -0.1291
 9233TIP3    H227657   7.848   3.500   5.002 -0.9295 -2.3545  0.3701
 9234TIP3   OH227658   1.275   6.829   6.129 -0.3498 -0.1357  0.0856
 9234TIP3    H127659   1.276   6.746   6.081  1.2778  0.6072 -1.2663
 9234TIP3    H227660   1.244   6.806   6.217  0.9044 -2.3413  0.0197
 9235TIP3   OH227661   4.797   3.816   5.449  0.5414  0.3757 -0.8291
 9235TIP3    H127662   4.760   3.894   5.408  1.5269  1.0370 -0.4922
 9235TIP3    H227663   4.729   3.787   5.510 -1.0646 -0.7794 -3.0017
 9236TIP3   OH227664   2.973   6.193   0.928  0.0322  0.2649  0.7995
 9236TIP3    H127665   3.045   6.210   0.868 -2.0645 -1.1025 -2.4330
 9236TIP3    H227666   2.928   6.277   0.937 -0.6898  0.1620 -1.2442
 9237TIP3   OH227667   5.966   2.996   2.584  0.3531 -0.1079 -0.0242
 9237TIP3    H127668   6.046   3.046   2.597  0.0873  0.3140  0.0282
 9237TIP3    H227669   5.987   2.908   2.613 -0.2585  0.7868  3.5462
 9238TIP3   OH227670   0.026   6.868   2.588  0.0791 -0.0093  0.2164
 9238TIP3    H127671   0.091   6.882   2.656  0.0825 -2.9935  0.9555
 9238TIP3    H227672  -0.054   6.847   2.635 -0.4199 -0.2071 -0.6962
 9239TIP3   OH227673   7.944   0.134   2.882  0.5099 -0.5866 -0.5965
 9239TIP3    H127674   7.938   0.124   2.977  2.4242  1.4799 -0.1736
 9239TIP3    H227675   7.978   0.222   2.869 -1.3355 -0.1652 -3.3025
 9240TIP3   OH227676   6.500   6.535   6.189 -0.0457 -0.5080  0.4116
 9240TIP3    H127677   6.442   6.475   6.235  0.7705 -0.1309  2.0181
 9240TIP3    H227678   6.579   6.537   6.243  0.7605  0.3543 -0.7678
 9241TIP3   OH227679   2.878   5.505   4.290  0.2429  0.3637 -0.3791
 9241TIP3    H127680   2.810   5.447   4.255  1.9616 -0.8329 -1.9460
 9241TIP3    H227681   2.837   5.591   4.294 -1.8667 -0.6237  0.3535
 9242TIP3   OH227682   5.059   7.215   2.939  0.7674  0.1691  0.2898
 9242TIP3    H127683   5.064   7.259   3.024  0.3445  1.6557 -0.4104
 9242TIP3    H227684   5.054   7.287   2.876  0.8613 -0.9090 -0.9803
 9243TIP3   OH227685   5.785   3.471   4.544  0.0577  0.4285 -0.2827
 9243TIP3    H127686   5.790   3.402   4.478  0.3593  1.0924 -0.9677
 9243TIP3    H227687   5.710   3.447   4.598  0.2033 -0.4705 -0.4621
 9244TIP3   OH227688   3.715   2.328   1.536 -0.1594  0.0267 -0.5255
 9244TIP3    H127689   3.650   2.313   1.604  0.6557  0.2592  0.3196
 9244TIP3    H227690   3.733   2.422   1.540 -1.2003  0.3472 -2.0950
 9245TIP3   OH227691   2.830   5.257   1.290  0.9961  0.2302 -0.3802
 9245TIP3    H127692   2.826   5.235   1.197  1.7211 -0.1407 -0.3324
 9245TIP3    H227693   2.863   5.347   1.292 -0.7026  0.8916 -0.5284
 9246TIP3   OH227694   7.039   5.571   0.288  0.0462 -0.2988  0.6578
 9246TIP3    H127695   7.127   5.537   0.275 -0.3499 -1.6486  1.3182
 9246TIP3    H227696   7.051   5.665   0.300  1.3684 -0.4442  0.5950
 9247TIP3   OH227697   6.424   1.070   1.799  0.1682 -0.4038 -0.5206
 9247TIP3    H127698   6.397   1.027   1.881  0.6386  0.0724 -0.1106
 9247TIP3    H227699   6.350   1.056   1.740 -0.6697  0.1890  0.3379
 9248TIP3   OH227700   5.429   3.727   3.076 -0.1172  0.2079 -0.0778
 9248TIP3    H127701   5.520   3.730   3.106 -0.5834  2.5348  1.3712
 9248TIP3    H227702   5.435   3.716   2.981  1.6377 -0.1138  0.0292
 9249TIP3   OH227703   2.079   5.801   2.476  0.3383  0.2625  0.4751
 9249TIP3    H127704   2.070   5.864   2.548  2.8214  1.9171 -0.5283
 9249TIP3    H227705   2.012   5.827   2.413  0.6476  1.2679  0.5384
 9250TIP3   OH227706   7.714   5.712   5.146 -0.4936  0.0740 -0.1827
 9250TIP3    H127707   7.645   5.777   5.161 -1.8494 -1.2635 -0.4023
 9250TIP3    H227708   7.687   5.635   5.196  0.8367 -0.4958 -0.2994
 9251TIP3   OH227709   2.483   5.396   0.400  0.0706 -0.2805  0.0248
 9251TIP3    H127710   2.469   5.463   0.467  0.1569 -0.4706  0.2330
 9251TIP3    H227711   2.416   5.415   0.334 -1.1190 -1.0948  0.9455
 9252TIP3   OH227712   6.154   3.722   5.638  0.1541 -0.4021 -0.0311
 9252TIP3    H127713   6.218   3.697   5.570  0.0111  0.0724 -0.3471
 9252TIP3    H227714   6.193   3.799   5.679 -0.8234  0.6924 -1.1131
 9253TIP3   OH227715   2.250   3.515   2.199  0.7884 -0.2637  0.2595
 9253TIP3    H127716   2.285   3.529   2.111  3.1349 -1.4987  0.9237
 9253TIP3    H227717   2.277   3.592   2.249  1.3562 -0.5529  0.4103
 9254TIP3   OH227718   7.772   3.657   6.060 -0.5612 -0.1193  0.3773
 9254TIP3    H127719   7.829   3.628   6.131 -1.1117  0.7035  1.1867
 9254TIP3    H227720   7.825   3.720   6.011  0.1609 -1.4126 -0.5640
 9255TIP3   OH227721   6.106   1.511   4.553  0.1813  0.2604 -0.3592
 9255TIP3    H127722   6.102   1.600   4.590 -0.0701 -0.1194  0.5429
 9255TIP3    H227723   6.092   1.453   4.628 -0.9108 -0.5235 -1.1414
 9256TIP3   OH227724   6.175   2.024   0.476 -0.5018 -0.0214  0.2023
 9256TIP3    H127725   6.164   1.997   0.384  0.9194 -2.5636  0.6694
 9256TIP3    H227726   6.270   2.037   0.485 -0.5325 -0.5752  1.4777
 9257TIP3   OH227727   0.551   0.540   3.874  0.0458  0.1604 -0.0342
 9257TIP3    H127728   0.458   0.533   3.899 -0.1456 -0.3172 -0.8499
 9257TIP3    H227729   0.597   0.543   3.958 -0.5607 -1.7377  0.4389
 9258TIP3   OH227730   4.219   5.096   2.228  0.0271 -0.0208  0.0521
 9258TIP3    H127731   4.193   5.189   2.227  0.8828  0.2870 -2.6733
 9258TIP3    H227732   4.314   5.097   2.238 -0.1054 -0.7314  1.6542
 9259TIP3   OH227733   1.881   0.039   0.412  0.5234  0.0918  0.1741
 9259TIP3    H127734   1.869   0.060   0.505  1.7891  1.6082  0.0477
 9259TIP3    H227735   1.970   0.067   0.393 -0.0150  0.6469 -1.7261
 9260TIP3   OH227736   7.015   3.433   3.715 -0.0504 -0.2064  0.2939
 9260TIP3    H127737   6.929   3.408   3.680  0.4462  1.3599 -2.3469
 9260TIP3    H227738   7.068   3.354   3.707 -0.3496 -0.2735 -1.3305
 9261TIP3   OH227739   7.427   1.238   5.025  0.0261  0.0584 -0.1370
 9261TIP3    H127740   7.404   1.148   4.999 -0.9447 -0.1834  1.4471
 9261TIP3    H227741   7.504   1.228   5.081 -0.8802  0.0438  1.1480
 9262TIP3   OH227742   0.035   4.224   2.204  0.2339  0.2781  0.3734
 9262TIP3    H127743   0.101   4.206   2.137 -0.6273 -1.3250 -0.0980
 9262TIP3    H227744   0.061   4.170   2.279 -1.4306 -1.8466 -0.4437
 9263TIP3   OH227745   1.150   2.607   0.409  0.4429  0.3895  0.7850
 9263TIP3    H127746   1.116   2.528   0.366  0.6521  0.3042  0.7745
 9263TIP3    H227747   1.096   2.616   0.488  0.1363  0.4803  0.5655
 9264TIP3   OH227748   6.636   5.237   4.117  0.2170  0.1949  0.3540
 9264TIP3    H127749   6.705   5.303   4.126  1.6797 -1.1705 -0.3255
 9264TIP3    H227750   6.580   5.251   4.194  1.7725  0.7482  1.4417
 9265TIP3   OH227751   5.137   5.481   1.081 -0.1097 -0.5893 -0.3718
 9265TIP3    H127752   5.226   5.511   1.099  0.0276 -0.0486 -1.8266
 9265TIP3    H227753   5.106   5.448   1.165  2.0478 -2.3669 -0.1584
 9266TIP3   OH227754   3.346   2.185   1.403  0.1484  0.1528  0.4041
 9266TIP3    H127755   3.361   2.109   1.347 -0.1601  1.2867 -1.3028
 9266TIP3    H227756   3.308   2.150   1.483 -2.7963 -1.2469 -1.4794
 9267TIP3   OH227757   6.630   6.085   5.787 -0.5511  0.3066  0.1464
 9267TIP3    H127758   6.594   6.009   5.741 -1.4906  0.4641  0.6129
 9267TIP3    H227759   6.567   6.104   5.856 -0.7418  1.9922 -0.4466
 9268TIP3   OH227760   6.041   1.917   6.225  0.4293 -0.2295  0.0505
 9268TIP3    H127761   6.039   1.822   6.216  1.2995 -0.2088 -0.5045
 9268TIP3    H227762   6.119   1.934   6.278 -1.2205  0.0360  2.5733
 9269TIP3   OH227763   1.775   0.882   1.646 -0.6577 -0.7587  0.5216
 9269TIP3    H127764   1.732   0.863   1.730  0.6210  0.8160  1.5772
 9269TIP3    H227765   1.708   0.927   1.595 -0.9170 -0.1549  1.3715
 9270TIP3   OH227766   7.909   0.138   1.407 -0.0737 -0.0613  0.1802
 9270TIP3    H127767   7.952   0.054   1.423 -1.2220 -0.5899  0.5965
 9270TIP3    H227768   7.925   0.188   1.487  1.9275  0.7398 -0.6527
 9271TIP3   OH227769   5.277   2.553   3.883 -0.1570 -0.6422  0.2779
 9271TIP3    H127770   5.227   2.632   3.903 -3.0476 -2.3319  0.2931
 9271TIP3    H227771   5.254   2.492   3.952 -0.8102 -2.6004 -1.5559
 9272TIP3   OH227772   1.951   3.579   0.233 -0.1736 -0.6380  0.1528
 9272TIP3    H127773   1.892   3.630   0.177  1.5234  0.7255 -0.4558
 9272TIP3    H227774   1.908   3.581   0.319 -0.7424  0.8635 -0.1214
 9273TIP3   OH227775   0.293   5.782   6.683  0.4633  0.1554 -0.1490
 9273TIP3    H127776   0.378   5.738   6.684  0.2615 -0.3449  2.5931
 9273TIP3    H227777   0.266   5.784   6.775 -2.3817  0.5420 -0.9018
 9274TIP3   OH227778   2.821   0.841   0.854 -0.1383 -0.1909 -0.5090
 9274TIP3    H127779   2.885   0.840   0.782  0.8095  1.2909  0.2355
 9274TIP3    H227780   2.843   0.921   0.902  0.0535 -1.7302  2.1229
 9275TIP3   OH227781   3.944   3.408   2.816 -0.3906 -0.0654 -0.1566
 9275TIP3    H127782   3.920   3.352   2.743 -0.1370 -0.0266 -0.2702
 9275TIP3    H227783   3.905   3.366   2.893 -2.1076  0.7827 -0.5148
 9276TIP3   OH227784   6.287   4.040   5.133  0.5314  0.0200 -0.2404
 9276TIP3    H127785   6.287   3.977   5.204  0.3267  0.3012  0.0144
 9276TIP3    H227786   6.332   4.117   5.168  1.0520 -0.0962 -0.6502
 9277TIP3   OH227787   3.375   2.240   3.068  0.2017 -0.1367 -0.5086
 9277TIP3    H127788   3.348   2.274   3.153 -0.6527  0.7945 -1.1297
 9277TIP3    H227789   3.311   2.172   3.048 -0.0473  0.1627 -0.7386
 9278TIP3   OH227790   7.099   2.427   5.248  0.0123 -0.1188 -0.1293
 9278TIP3    H127791   7.158   2.446   5.320 -0.7860  1.9071  0.0840
 9278TIP3    H227792   7.015   2.407   5.290 -0.0274 -0.6527 -0.4604
 9279TIP3   OH227793   7.553   2.809   0.962  0.5901  0.1441 -0.0652
 9279TIP3    H127794   7.509   2.763   0.891 -0.2846 -1.4667  1.4531
 9279TIP3    H227795   7.613   2.745   0.999  0.6874  0.8050  0.9521
 9280TIP3   OH227796   1.921   5.235   4.531 -0.2107 -0.3850  0.2683
 9280TIP3    H127797   1.905   5.148   4.569  0.4157 -0.4731  0.3332
 9280TIP3    H227798   1.962   5.218   4.447 -0.8637 -0.1646 -0.1056
 9281TIP3   OH227799   1.575   2.892   4.282 -0.7287  0.5717 -0.2424
 9281TIP3    H127800   1.614   2.975   4.254  1.9808 -1.0055 -1.5750
 9281TIP3    H227801   1.644   2.850   4.334 -3.2769  0.5254  3.4233
 9282TIP3   OH227802   1.341   5.236   4.050  0.2588 -0.1943 -0.4477
 9282TIP3    H127803   1.378   5.217   3.964  0.2941 -0.0138 -0.4713
 9282TIP3    H227804   1.267   5.175   4.057 -0.8560  0.9755 -1.3530
 9283TIP3   OH227805   0.768   3.485   3.878 -0.1806  0.7656  0.2248
 9283TIP3    H127806   0.828   3.436   3.821 -0.4459  0.4824  0.1840
 9283TIP3    H227807   0.777   3.443   3.963  1.1602  1.9907  0.7270
 9284TIP3   OH227808   3.635   4.020   1.100  0.2578 -0.2247 -0.0482
 9284TIP3    H127809   3.681   3.951   1.148 -0.1327  0.9011  2.0597
 9284TIP3    H227810   3.572   3.973   1.045  2.7404 -1.7159 -1.8337
 9285TIP3   OH227811   4.955   6.783   2.602 -0.1759 -0.1900  0.0659
 9285TIP3    H127812   4.915   6.770   2.687 -0.5589  0.7373  0.0342
 9285TIP3    H227813   4.982   6.875   2.601  0.7005 -0.4395 -0.4442
 9286TIP3   OH227814   3.375   4.469   5.827  0.1364  0.3833  0.3857
 9286TIP3    H127815   3.279   4.464   5.832 -0.0451  0.3925 -2.1677
 9286TIP3    H227816   3.393   4.558   5.799  0.8511  0.1001 -0.0800
 9287TIP3   OH227817   6.131   0.377   1.972  0.0738 -0.0296 -0.1293
 9287TIP3    H127818   6.094   0.463   1.955  2.0222  0.9296  0.2469
 9287TIP3    H227819   6.113   0.326   1.893  0.0260  1.1336 -0.8755
 9288TIP3   OH227820   1.306   0.699   2.169  0.3915  0.2194  0.1944
 9288TIP3    H127821   1.292   0.793   2.154  0.9998  0.1120 -1.1597
 9288TIP3    H227822   1.228   0.657   2.131  0.4374  0.1410  0.1866
 9289TIP3   OH227823   0.601   2.694   6.446  0.1788  0.3080 -0.1856
 9289TIP3    H127824   0.625   2.781   6.412 -0.3242  0.3739 -0.3823
 9289TIP3    H227825   0.676   2.639   6.424  0.3388  0.6066 -0.4111
 9290TIP3   OH227826   7.129   4.959   1.576  0.1863  0.2399  0.5522
 9290TIP3    H127827   7.091   5.022   1.515 -1.6648 -1.6887 -0.4027
 9290TIP3    H227828   7.221   4.986   1.584 -0.4292  2.7805 -0.0856
 9291TIP3   OH227829   7.477   0.968   4.702  0.3455  0.5238 -0.6687
 9291TIP3    H127830   7.540   1.031   4.738  0.2513  0.0127  0.4261
 9291TIP3    H227831   7.527   0.888   4.690 -0.2571 -0.1597  1.0574
 9292TIP3   OH227832   4.225   6.548   1.508  0.7625 -0.3052  0.1411
 9292TIP3    H127833   4.246   6.515   1.421  1.7950  0.6624  0.0110
 9292TIP3    H227834   4.181   6.632   1.492  1.5882  0.2210  0.5530
 9293TIP3   OH227835   0.076   7.230   4.902 -0.7306 -0.2411 -0.5249
 9293TIP3    H127836   0.036   7.300   4.851  0.8451  0.4896 -0.8453
 9293TIP3    H227837   0.036   7.150   4.869 -2.6209  0.4979 -0.1009
 9294TIP3   OH227838   4.942   6.671   5.088  0.2714  0.0085  0.5479
 9294TIP3    H127839   4.992   6.589   5.088  1.2752  0.5440 -1.3513
 9294TIP3    H227840   4.858   6.648   5.049 -0.3371 -0.5440  2.1266
 9295TIP3   OH227841   2.903   7.141   0.668  0.1732  0.3737 -0.0892
 9295TIP3    H127842   2.827   7.156   0.611 -0.6359  1.2479  1.1622
 9295TIP3    H227843   2.978   7.159   0.612 -0.5423 -0.1224 -1.2551
 9296TIP3   OH227844   4.400   4.332   4.726 -0.5230  0.6927 -0.5799
 9296TIP3    H127845   4.387   4.385   4.805  2.6862  1.2065 -0.2766
 9296TIP3    H227846   4.445   4.390   4.665  0.9158 -0.9399 -1.1544
 9297TIP3   OH227847   4.031   4.989   4.232 -0.4506 -0.0071  0.3818
 9297TIP3    H127848   3.997   4.982   4.321 -0.7903  0.3890  0.2880
 9297TIP3    H227849   4.110   5.042   4.240 -1.0480  0.9333  0.3215
 9298TIP3   OH227850   0.050   5.786   5.843  0.1953  0.2414  0.8988
 9298TIP3    H127851   0.019   5.787   5.752  1.1017 -0.0487  0.5756
 9298TIP3    H227852  -0.019   5.743   5.892 -0.7942  1.3734  0.5321
 9299TIP3   OH227853   7.338   6.949   2.296  0.1697  0.0718  0.3786
 9299TIP3    H127854   7.275   6.964   2.226  1.4606  1.1485 -0.6140
 9299TIP3    H227855   7.332   6.855   2.315 -3.1960  0.4523  1.8440
 9300TIP3   OH227856   5.202   3.563   5.698 -0.0894  0.3313  0.1349
 9300TIP3    H127857   5.118   3.548   5.654  1.1381 -1.9649 -1.6020
 9300TIP3    H227858   5.242   3.634   5.649 -0.4816  0.6194  0.2217
 9301TIP3   OH227859   3.817   1.407   0.499 -0.2594 -0.3051  0.2871
 9301TIP3    H127860   3.856   1.483   0.544  0.5894 -1.0063  0.7692
 9301TIP3    H227861   3.795   1.441   0.412  2.3036 -0.0567 -0.3546
 9302TIP3   OH227862   0.036   6.360   0.398  0.5061 -0.0028  0.2441
 9302TIP3    H127863   0.096   6.435   0.400 -0.8353  1.1804 -1.3685
 9302TIP3    H227864   0.022   6.343   0.305 -1.7893 -0.1078  0.5586
 9303TIP3   OH227865   1.305   0.600   3.683  0.2163 -0.1535  0.1478
 9303TIP3    H127866   1.398   0.574   3.680 -0.3164 -2.1423 -0.7285
 9303TIP3    H227867   1.285   0.605   3.777  0.8806 -1.0315  0.3478
 9304TIP3   OH227868   7.778   2.982   5.719 -0.0519  0.0466  0.3494
 9304TIP3    H127869   7.838   3.000   5.647  1.2471 -1.8855  0.8893
 9304TIP3    H227870   7.834   2.982   5.797 -0.7748 -1.4406  0.9084
 9305TIP3   OH227871   2.429   1.495   6.728 -0.0893 -0.4905 -0.3991
 9305TIP3    H127872   2.490   1.505   6.801 -0.3275 -0.0401 -0.2517
 9305TIP3    H227873   2.347   1.468   6.769 -1.4308  3.6287  0.0863
 9306TIP3   OH227874   0.339   5.617   2.851 -0.2572  0.2222  0.1407
 9306TIP3    H127875   0.289   5.632   2.771 -0.8339  0.6007  0.5618
 9306TIP3    H227876   0.329   5.523   2.869  0.2526  0.0460 -0.4713
 9307TIP3   OH227877   2.559   2.747   6.701  0.1467  0.3808  0.2813
 9307TIP3    H127878   2.573   2.810   6.772 -0.6485  0.0721  0.7194
 9307TIP3    H227879   2.631   2.685   6.709  0.2555  0.5469  0.5993
 9308TIP3   OH227880   3.088   7.250   5.882  0.0337  0.5823 -0.3063
 9308TIP3    H127881   3.092   7.250   5.978 -2.3329  1.7702 -0.1507
 9308TIP3    H227882   3.171   7.211   5.855 -0.5286 -2.8882  2.2836
 9309TIP3   OH227883   6.827   4.058   6.472  0.1736  0.2428  0.3995
 9309TIP3    H127884   6.916   4.087   6.454 -0.5099  0.6696 -2.8186
 9309TIP3    H227885   6.781   4.138   6.500  0.2569  0.5259 -0.2610
 9310TIP3   OH227886   2.704   0.529   5.040  0.0391  0.2106 -0.4185
 9310TIP3    H127887   2.610   0.518   5.053 -0.1091 -1.8926 -2.3836
 9310TIP3    H227888   2.742   0.445   5.067  1.2736  0.8099 -0.2176
 9311TIP3   OH227889   7.794   2.823   6.712  0.2352 -0.2548  0.8685
 9311TIP3    H127890   7.785   2.872   6.794  0.4431 -1.0605  1.3920
 9311TIP3    H227891   7.712   2.774   6.705 -1.5236  2.6696 -1.4233
 9312TIP3   OH227892   5.696   2.973   5.693  0.1766 -0.6968  0.1669
 9312TIP3    H127893   5.675   2.923   5.772  0.2036  1.1634  1.4110
 9312TIP3    H227894   5.757   3.040   5.723 -0.9503  0.9828 -1.1221
 9313TIP3   OH227895   0.653   5.607   3.540 -0.4004 -0.0660 -0.2922
 9313TIP3    H127896   0.689   5.535   3.488 -2.5658  0.9126 -3.4734
 9313TIP3    H227897   0.709   5.682   3.521 -1.2249  0.3064 -1.3619
 9314TIP3   OH227898   6.782   0.309   3.173 -0.6426  0.1858 -0.2856
 9314TIP3    H127899   6.687   0.299   3.165 -0.5982 -0.8180  0.2240
 9314TIP3    H227900   6.817   0.243   3.113 -0.2652  0.6965 -0.6262
 9315TIP3   OH227901   4.151   5.535   1.582 -0.2559  0.7611  0.1697
 9315TIP3    H127902   4.069   5.488   1.566  0.3139  0.5786 -2.9557
 9315TIP3    H227903   4.124   5.621   1.612 -1.4232 -0.3745  2.6246
 9316TIP3   OH227904   0.718   3.646   5.676  0.3126 -0.2930 -0.1771
 9316TIP3    H127905   0.644   3.587   5.685  0.4610 -0.4975 -0.2920
 9316TIP3    H227906   0.683   3.720   5.625  0.2080 -0.4250 -0.2998
 9317TIP3   OH227907   2.120   2.552   0.352  0.4546 -0.3056 -0.3025
 9317TIP3    H127908   2.198   2.514   0.392 -1.5654 -2.2227  2.1648
 9317TIP3    H227909   2.105   2.633   0.401 -0.0377 -0.8263  0.4215
 9318TIP3   OH227910   0.264   1.896   3.743 -0.4335  0.2446  0.1685
 9318TIP3    H127911   0.319   1.839   3.690 -0.5806  1.2614 -1.1370
 9318TIP3    H227912   0.322   1.967   3.770 -0.0403 -0.8631  2.4685
 9319TIP3   OH227913   4.482   6.224   6.161 -0.0031  0.0153  0.1485
 9319TIP3    H127914   4.460   6.155   6.224  0.8084 -1.4333 -1.0968
 9319TIP3    H227915   4.425   6.206   6.086  1.2849 -0.2578 -0.7897
 9320TIP3   OH227916   6.816   7.822   2.883  0.2960 -0.4518  0.8753
 9320TIP3    H127917   6.823   7.811   2.789 -0.3736 -0.3903  0.8133
 9320TIP3    H227918   6.725   7.845   2.898  0.8624  1.8122  1.3144
 9321TIP3   OH227919   1.275   6.326   1.439 -0.0085 -0.4125 -0.1157
 9321TIP3    H127920   1.366   6.345   1.418 -0.4868  2.5656  0.0978
 9321TIP3    H227921   1.227   6.347   1.359 -0.6590 -0.5516  0.2283
 9322TIP3   OH227922   0.470   6.501   5.525  0.6232  0.6487 -0.3422
 9322TIP3    H127923   0.394   6.510   5.467 -0.3640 -1.4436  0.5412
 9322TIP3    H227924   0.541   6.474   5.467  0.5229  1.8439 -1.0545
 9323TIP3   OH227925   4.075   3.641   4.412 -0.0012  0.1168  0.0835
 9323TIP3    H127926   4.053   3.548   4.405  2.4493 -0.7538  2.0854
 9323TIP3    H227927   4.159   3.648   4.367  0.3637  1.1098  0.8891
 9324TIP3   OH227928   6.098   6.687   0.577 -0.0840 -0.1465 -0.1166
 9324TIP3    H127929   6.057   6.669   0.661  0.5851 -3.6427 -0.3635
 9324TIP3    H227930   6.183   6.724   0.598 -0.4867  0.3529  0.6613
 9325TIP3   OH227931   4.092   4.012   2.503 -0.5279 -0.2449 -0.2678
 9325TIP3    H127932   4.095   4.106   2.486 -0.2849 -0.1437  0.3220
 9325TIP3    H227933   4.182   3.988   2.522 -0.1980 -1.0288 -2.5705
 9326TIP3   OH227934   5.509   6.335   0.866 -0.0705  1.2156 -0.0053
 9326TIP3    H127935   5.583   6.309   0.811 -0.9223 -1.8272  0.0746
 9326TIP3    H227936   5.459   6.396   0.812 -0.0747 -0.5105 -2.0913
 9327TIP3   OH227937   4.512   6.090   5.375 -0.1070 -0.7951 -0.3616
 9327TIP3    H127938   4.435   6.038   5.351 -0.0886 -1.3677  0.7637
 9327TIP3    H227939   4.573   6.078   5.303 -1.1970 -0.0410 -1.4561
 9328TIP3   OH227940   0.018   3.762   6.350 -0.0277  0.6333 -0.3097
 9328TIP3    H127941  -0.070   3.737   6.377 -0.9182  0.5180 -3.1073
 9328TIP3    H227942   0.070   3.683   6.361  0.1905  1.0821  2.7881
 9329TIP3   OH227943   2.464   5.240  -0.004 -0.0729  0.0336  0.6498
 9329TIP3    H127944   2.493   5.318  -0.051  0.1681  0.9220  2.1953
 9329TIP3    H227945   2.406   5.274   0.065  2.4448 -0.7386  3.3527
 9330TIP3   OH227946   2.216   5.282   5.238  0.1947 -0.3826 -0.0801
 9330TIP3    H127947   2.225   5.218   5.167  0.2788 -0.7290  0.2353
 9330TIP3    H227948   2.148   5.245   5.294 -1.1563  0.7649 -0.8966
 9331TIP3   OH227949   0.060   1.184   3.229  0.1212 -0.4513  0.0183
 9331TIP3    H127950   0.095   1.242   3.297  0.7708  0.3075 -0.9212
 9331TIP3    H227951   0.119   1.109   3.229  2.2624  1.0687 -1.9272
 9332TIP3   OH227952   7.894   2.252   4.742 -0.0393  0.0912  0.4372
 9332TIP3    H127953   7.932   2.262   4.655 -0.3690 -0.3872  0.2315
 9332TIP3    H227954   7.803   2.227   4.725 -0.6577  1.8522  0.9106
 9333TIP3   OH227955   1.253   4.099   3.087 -0.0820  0.0314  0.4226
 9333TIP3    H127956   1.294   4.183   3.108 -1.2669  0.3396  1.6677
 9333TIP3    H227957   1.159   4.118   3.089 -0.3417 -0.8014 -1.6581
 9334TIP3   OH227958   7.435   6.160   3.135  0.1515  0.3708  0.1719
 9334TIP3    H127959   7.353   6.204   3.115  0.0866  0.4447  0.5926
 9334TIP3    H227960   7.417   6.111   3.216 -0.2406 -1.6523 -1.0607
 9335TIP3   OH227961   3.689   2.637   6.303 -0.2355 -0.2863  0.2548
 9335TIP3    H127962   3.680   2.710   6.364  0.4714 -0.1867  0.2477
 9335TIP3    H227963   3.616   2.649   6.242  0.4394  1.0233 -0.3569
 9336TIP3   OH227964   0.710   7.060   2.407 -0.3337 -0.4775  0.1428
 9336TIP3    H127965   0.782   7.105   2.451 -1.1088  2.0872 -1.0358
 9336TIP3    H227966   0.681   6.995   2.471  1.7246 -0.2417  1.4192
 9337TIP3   OH227967   1.201   0.915   5.096 -0.3444  0.2576  0.5189
 9337TIP3    H127968   1.293   0.889   5.093  0.0661  1.2514  2.5729
 9337TIP3    H227969   1.203   1.010   5.109 -1.7172  0.5563 -0.9931
 9338TIP3   OH227970   6.888   6.785   4.610  0.1756 -0.2706 -0.4775
 9338TIP3    H127971   6.877   6.690   4.610 -1.5013 -0.1150  0.1567
 9338TIP3    H227972   6.982   6.799   4.600  0.3843 -1.9762 -1.1241
 9339TIP3   OH227973   6.696   2.231   1.897 -0.7876  0.3037  0.0893
 9339TIP3    H127974   6.640   2.243   1.974 -1.8813 -0.2003 -0.6079
 9339TIP3    H227975   6.767   2.174   1.928 -0.9962  0.4289  0.8198
 9340TIP3   OH227976   5.130   0.469   2.736 -0.2490 -0.3117 -0.0336
 9340TIP3    H127977   5.077   0.449   2.659 -0.3856 -0.7307  0.1689
 9340TIP3    H227978   5.172   0.386   2.759 -0.0331 -0.1365  0.2127
 9341TIP3   OH227979   0.246   1.121   3.993 -0.1870 -0.7274  0.6509
 9341TIP3    H127980   0.221   1.187   4.057 -1.8858  1.1569 -1.7317
 9341TIP3    H227981   0.334   1.146   3.965 -0.0180 -0.7009  1.1987
 9342TIP3   OH227982   0.813   3.011   4.186 -0.2276 -0.0589  0.1423
 9342TIP3    H127983   0.723   3.041   4.176 -0.5620 -0.6510  1.2455
 9342TIP3    H227984   0.827   3.007   4.281  0.7367 -0.6300 -0.0099
 9343TIP3   OH227985   3.793   0.483   1.302 -0.0083 -0.0668  0.1767
 9343TIP3    H127986   3.758   0.445   1.383  0.8559  0.0047  0.5943
 9343TIP3    H227987   3.802   0.576   1.321 -2.9271  0.5904 -1.1277
 9344TIP3   OH227988   2.225   3.759   3.709  0.1740  0.3319  0.4036
 9344TIP3    H127989   2.315   3.787   3.693  0.5066 -1.4626 -1.2559
 9344TIP3    H227990   2.233   3.688   3.774  0.2255 -1.0703 -1.0611
 9345TIP3   OH227991   2.864   3.229   1.699  0.0572 -0.6137 -0.6185
 9345TIP3    H127992   2.926   3.300   1.715 -0.5757 -0.4908  1.5993
 9345TIP3    H227993   2.883   3.200   1.610  0.7380  1.9104 -1.3711
 9346TIP3   OH227994   1.746   3.851   5.868  0.1522  0.1211 -0.2423
 9346TIP3    H127995   1.839   3.835   5.885  0.1629 -1.1472 -1.2706
 9346TIP3    H227996   1.739   3.849   5.773 -0.9602  0.0182 -0.1703
 9347TIP3   OH227997   1.583   1.316   1.097 -0.4112  0.3445  0.2702
 9347TIP3    H127998   1.579   1.403   1.057  0.0413 -0.4008 -1.4816
 9347TIP3    H227999   1.539   1.259   1.034 -0.7295 -0.7073  1.4086
 9348TIP3   OH228000   3.482   3.814   2.536 -0.4214  0.1720  0.1633
 9348TIP3    H128001   3.392   3.782   2.526 -0.7582  0.5916  1.6504
 9348TIP3    H228002   3.496   3.815   2.630  0.6808  1.4231 -0.0001
 9349TIP3   OH228003   3.791   7.520   1.790  0.1532  0.4884 -0.8912
 9349TIP3    H128004   3.714   7.533   1.846  0.3570  0.2092 -0.5393
 9349TIP3    H228005   3.757   7.529   1.700 -0.0595  1.5186 -0.7171
 9350TIP3   OH228006   2.134   4.349   5.867 -0.2608 -0.4472 -0.2439
 9350TIP3    H128007   2.097   4.261   5.876  1.5600 -1.2046  0.3367
 9350TIP3    H228008   2.163   4.353   5.776  1.1628 -1.1202  0.1494
 9351TIP3   OH228009   7.318   1.428   0.010 -0.4788 -0.1282 -0.1632
 9351TIP3    H128010   7.362   1.505   0.047 -0.8960  1.4256 -2.7259
 9351TIP3    H228011   7.246   1.411   0.071 -0.2305  1.3407  0.5992
 9352TIP3   OH228012   7.307   5.183   0.187 -0.1122  0.8563 -0.8648
 9352TIP3    H128013   7.359   5.152   0.113 -1.0459  1.4949 -1.8255
 9352TIP3    H228014   7.326   5.277   0.192  0.2350  0.7452 -0.0476
 9353TIP3   OH228015   8.163   7.743   5.168  0.6026 -0.1269 -0.3730
 9353TIP3    H128016   8.224   7.679   5.131  0.1147 -0.9768  0.2546
 9353TIP3    H228017   8.099   7.690   5.215  0.5970  0.8604  0.7812
 9354TIP3   OH228018   5.271   1.447   0.708  0.1379 -0.6747 -0.3933
 9354TIP3    H128019   5.265   1.459   0.614  1.3446  2.2462 -0.2057
 9354TIP3    H228020   5.330   1.372   0.719  1.4400  0.0476 -2.0063
 9355TIP3   OH228021   6.210   4.916   4.613  0.6509 -0.2600  0.0766
 9355TIP3    H128022   6.222   4.868   4.532 -0.1895 -1.7629  0.8021
 9355TIP3    H228023   6.299   4.943   4.638  1.1319 -1.2949 -0.4428
 9356TIP3   OH228024   5.994   6.940   1.267  0.2032 -0.0469  0.0288
 9356TIP3    H128025   6.034   7.012   1.317  0.4739  0.2780 -0.6465
 9356TIP3    H228026   5.901   6.960   1.267  0.4495  1.3496 -1.7503
 9357TIP3   OH228027   3.950   7.206   1.961 -0.1734  0.1472 -0.0577
 9357TIP3    H128028   3.868   7.158   1.954  0.1005 -0.3869  0.2598
 9357TIP3    H228029   4.009   7.162   1.900  0.0992  0.0253  0.2845
 9358TIP3   OH228030   4.336   4.256   5.162  0.3424  0.1993 -0.5402
 9358TIP3    H128031   4.309   4.228   5.250 -0.1687  2.9545  0.2853
 9358TIP3    H228032   4.324   4.179   5.107 -1.5503 -0.9750  1.3822
 9359TIP3   OH228033   5.707   0.883   3.157  0.2428  0.1563  0.4624
 9359TIP3    H128034   5.682   0.865   3.067 -2.1092 -0.6793  1.1869
 9359TIP3    H228035   5.747   0.970   3.155 -1.7484  1.1118 -1.1064
 9360TIP3   OH228036   0.516   0.972   3.253  0.3954 -0.1123  0.3686
 9360TIP3    H128037   0.535   0.888   3.295  0.9300 -0.5748 -0.7642
 9360TIP3    H228038   0.553   1.038   3.313  0.0256 -0.6703  1.2324
 9361TIP3   OH228039   4.069   3.212   1.135 -0.2446 -0.0894 -0.4184
 9361TIP3    H128040   4.035   3.233   1.049 -0.8569 -0.6153 -0.3081
 9361TIP3    H228041   4.144   3.270   1.146  0.3355 -0.5755 -1.6389
 9362TIP3   OH228042   7.351   2.457   2.913  0.1345 -0.7159 -0.3749
 9362TIP3    H128043   7.278   2.516   2.893  1.1951  1.0656  0.7245
 9362TIP3    H228044   7.418   2.479   2.848 -0.2439 -2.3335 -1.3703
 9363TIP3   OH228045   3.206   2.871   3.947  0.1872 -0.3771 -0.3463
 9363TIP3    H128046   3.138   2.857   3.881 -1.2127 -0.7939  1.1249
 9363TIP3    H228047   3.203   2.965   3.964  0.5835 -0.2604 -0.8770
 9364TIP3   OH228048   4.624   3.290   4.726  0.4599 -0.2470  0.1648
 9364TIP3    H128049   4.574   3.245   4.794 -3.6682 -0.5122 -2.6558
 9364TIP3    H228050   4.605   3.383   4.739  2.7628  0.1348  1.4326
 9365TIP3   OH228051   2.404   0.845   0.597  0.3769  0.0880  0.2931
 9365TIP3    H128052   2.467   0.854   0.668 -0.0607 -1.0682  0.8601
 9365TIP3    H228053   2.319   0.836   0.641 -0.1063  0.8932 -0.4351
 9366TIP3   OH228054   8.157   2.851   1.857  0.4758 -0.0084 -0.4073
 9366TIP3    H128055   8.137   2.758   1.863  0.0888  0.1441  0.8913
 9366TIP3    H228056   8.190   2.862   1.768 -0.1859 -1.2377 -0.8286
 9367TIP3   OH228057   2.058   3.721   2.838  0.3003 -0.0478 -0.9824
 9367TIP3    H128058   2.019   3.777   2.904  0.7334 -0.3004 -0.5115
 9367TIP3    H228059   2.088   3.644   2.886  2.1557  0.5072 -1.1895
 9368TIP3   OH228060   5.119   6.299   5.244 -0.5027  0.1144 -0.1885
 9368TIP3    H128061   5.157   6.385   5.229 -2.9475  1.0940 -1.3556
 9368TIP3    H228062   5.193   6.243   5.268  0.9762  2.8397  2.2094
 9369TIP3   OH228063   4.379   5.883   5.159 -0.6847  0.2904 -0.1730
 9369TIP3    H128064   4.370   5.961   5.104  1.2082  0.4706 -0.2716
 9369TIP3    H228065   4.321   5.818   5.118  0.8169  0.3518 -2.5543
 9370TIP3   OH228066   2.665   1.443   5.091  0.7154  0.1547 -0.8525
 9370TIP3    H128067   2.694   1.523   5.136  0.4717 -0.0629 -0.2989
 9370TIP3    H228068   2.569   1.450   5.088  0.6858 -0.1784 -0.6884
 9371TIP3   OH228069   7.703   4.634   6.080 -0.3424  0.1337  0.0323
 9371TIP3    H128070   7.728   4.571   6.011  0.3458  0.4543 -0.0172
 9371TIP3    H228071   7.777   4.694   6.085  0.0484 -0.4509  1.7337
 9372TIP3   OH228072   7.913   6.757   5.921 -0.0645 -0.2773  0.1500
 9372TIP3    H128073   7.908   6.727   6.012 -1.3218  0.0621  0.2124
 9372TIP3    H228074   7.949   6.682   5.873  1.2969 -0.2184  1.0140
 9373TIP3   OH228075   1.523   2.867   0.734  0.0190  0.1795  0.0820
 9373TIP3    H128076   1.613   2.896   0.744  0.0113  0.4841 -0.6028
 9373TIP3    H228077   1.527   2.795   0.671 -0.4589  2.0329 -2.2569
 9374TIP3   OH228078   4.982   0.000   2.773  0.1556 -0.2119 -0.0756
 9374TIP3    H128079   5.045   0.016   2.843 -1.2461  0.1191  1.1736
 9374TIP3    H228080   4.956   0.088   2.744  0.5215 -0.3463 -0.8494
 9375TIP3   OH228081   6.349   0.980   5.951 -0.5703 -0.0978 -0.3518
 9375TIP3    H128082   6.423   0.962   5.893 -0.8392  1.2801 -1.1714
 9375TIP3    H228083   6.300   1.048   5.906 -0.8773  0.9121  1.4324
 9376TIP3   OH228084   0.984   4.895   4.560 -0.4655  0.2758 -0.4519
 9376TIP3    H128085   1.024   4.977   4.589  0.1898  0.1582 -1.0004
 9376TIP3    H228086   0.892   4.916   4.547 -0.3436  0.8622 -0.3610
 9377TIP3   OH228087   7.488   5.486   2.925  0.5481 -0.3138  0.3422
 9377TIP3    H128088   7.515   5.567   2.882  0.3296  0.3065  1.3297
 9377TIP3    H228089   7.400   5.468   2.890  0.9321 -0.5880 -0.4949
 9378TIP3   OH228090   5.075   2.556   4.580 -0.1086 -0.6048  0.0401
 9378TIP3    H128091   5.158   2.565   4.628  0.1158 -2.7894  0.1262
 9378TIP3    H228092   5.008   2.556   4.647  0.0219 -1.2446  0.1764
 9379TIP3   OH228093   6.688   3.268   2.392  0.3309  0.5967  0.3411
 9379TIP3    H128094   6.757   3.229   2.338  0.3448  0.6601  0.3127
 9379TIP3    H228095   6.706   3.237   2.481 -0.1337 -0.1251  0.1891
 9380TIP3   OH228096   5.446   3.637   4.579 -0.0486  0.4073  0.3963
 9380TIP3    H128097   5.356   3.661   4.556  0.0466  0.0011 -0.4598
 9380TIP3    H228098   5.495   3.719   4.572 -0.0203  0.2943 -0.9423
 9381TIP3   OH228099   0.036   5.444   3.785  0.5362 -0.3189  0.4271
 9381TIP3    H128100  -0.032   5.428   3.720 -0.0823  0.0110  0.9773
 9381TIP3    H228101  -0.000   5.407   3.866  0.9072  0.0862  0.7775
 9382TIP3   OH228102   5.135   2.706   5.792 -0.5211 -0.1135  0.1158
 9382TIP3    H128103   5.094   2.786   5.757  0.0948  0.1244 -0.0766
 9382TIP3    H228104   5.218   2.736   5.828  0.2284 -0.8395 -0.9651
 9383TIP3   OH228105   2.986   1.740   1.234 -0.1567 -0.1530  0.1340
 9383TIP3    H128106   2.963   1.647   1.235 -1.0574  0.0613 -0.0543
 9383TIP3    H228107   2.902   1.785   1.227  0.1895  0.7061  1.2827
 9384TIP3   OH228108  -0.001   2.553   2.117 -0.5182  0.3131 -0.1678
 9384TIP3    H128109   0.010   2.469   2.073 -0.4007 -0.4288  1.2137
 9384TIP3    H228110   0.036   2.617   2.056 -1.7731 -0.4546 -1.8141
 9385TIP3   OH228111   2.753   1.106   0.577  0.1209  0.1594  0.3450
 9385TIP3    H128112   2.707   1.040   0.525  2.6324 -1.0029 -0.6075
 9385TIP3    H228113   2.781   1.171   0.513 -0.6738  1.1543  0.9901
 9386TIP3   OH228114   0.246   1.916   6.191 -0.1210  0.5298  0.0202
 9386TIP3    H128115   0.184   1.963   6.134 -0.6338 -0.9788 -0.7041
 9386TIP3    H228116   0.239   1.961   6.275 -2.6602  0.0866  0.1336
 9387TIP3   OH228117   7.437   1.311   4.656 -0.8001 -0.8162  0.1622
 9387TIP3    H128118   7.444   1.241   4.721  1.6409  0.4523  1.3998
 9387TIP3    H228119   7.514   1.366   4.672 -2.6444  2.2175 -0.7032
 9388TIP3   OH228120   6.664   2.153   2.378 -0.1180 -0.1929 -0.0296
 9388TIP3    H128121   6.662   2.214   2.304 -1.0558 -0.2714 -0.0825
 9388TIP3    H228122   6.610   2.196   2.445 -0.7419 -0.9277 -0.0461
 9389TIP3   OH228123   2.889   7.803   5.970 -0.5882 -0.6890 -0.0670
 9389TIP3    H128124   2.883   7.892   5.937  2.3982 -0.8221 -1.2786
 9389TIP3    H228125   2.965   7.804   6.028  0.7798 -2.7796 -1.6626
 9390TIP3   OH228126   4.327   7.508   5.418 -0.4794 -0.0952  0.1221
 9390TIP3    H128127   4.347   7.421   5.452  1.9746  0.3076 -0.1029
 9390TIP3    H228128   4.412   7.542   5.388 -1.4227  2.2456 -0.0921
 9391TIP3   OH228129   4.463   3.052   6.005  0.4553 -0.0989  0.1926
 9391TIP3    H128130   4.399   3.119   6.029 -2.3725 -2.8052  0.9704
 9391TIP3    H228131   4.440   3.028   5.916  0.9610 -0.5189  0.1735
 9392TIP3   OH228132   0.937   2.485   2.453 -0.5698  1.0927  0.2223
 9392TIP3    H128133   0.929   2.510   2.361 -1.1468  1.4686  0.3707
 9392TIP3    H228134   0.853   2.444   2.475 -0.4580  1.0557  0.6015
 9393TIP3   OH228135   7.184   4.712   5.938  0.5963  0.1648  0.3821
 9393TIP3    H128136   7.269   4.707   5.981  1.7931 -1.1391 -1.9990
 9393TIP3    H228137   7.126   4.659   5.993  2.1234 -1.6481  0.3148
 9394TIP3   OH228138   0.127   0.849   6.174 -0.0596 -0.1883 -0.1313
 9394TIP3    H128139   0.185   0.884   6.242  0.5450 -1.1233 -0.1526
 9394TIP3    H228140   0.137   0.910   6.101  0.8779 -0.3149 -0.1241
 9395TIP3   OH228141   6.991   4.933   0.821  0.0170  0.6410 -0.2083
 9395TIP3    H128142   6.912   4.985   0.830  0.1472  0.7142  0.6790
 9395TIP3    H228143   7.011   4.905   0.910 -0.7141 -1.9368 -0.7930
 9396TIP3   OH228144   7.395   0.269   5.857  0.2364 -0.0876 -0.0128
 9396TIP3    H128145   7.401   0.173   5.867  0.4688 -0.4065 -2.5742
 9396TIP3    H228146   7.481   0.295   5.824  0.3574  1.1301  1.1830
 9397TIP3   OH228147   7.466   4.508   1.995  0.0048 -0.2944  0.0442
 9397TIP3    H128148   7.436   4.419   2.011  1.0058 -0.6689 -0.1248
 9397TIP3    H228149   7.475   4.547   2.082  0.5888 -0.7030  0.1697
 9398TIP3   OH228150   1.606   7.644   1.935 -0.0777 -0.5926 -0.2593
 9398TIP3    H128151   1.600   7.717   1.997  0.6175 -0.5962 -0.1811
 9398TIP3    H228152   1.691   7.605   1.953  0.6443  0.0936 -1.9734
 9399TIP3   OH228153   1.786   2.395   4.325  0.5925  0.0410  0.5127
 9399TIP3    H128154   1.721   2.425   4.261  0.7784  1.0755  0.8008
 9399TIP3    H228155   1.757   2.431   4.408  0.8009 -0.6332  0.8903
 9400TIP3   OH228156   3.070   0.960   4.773 -0.1213  0.0911  0.0274
 9400TIP3    H128157   3.029   1.045   4.760 -0.4542  0.3306  2.2001
 9400TIP3    H228158   3.158   0.969   4.735 -0.6908  0.8643 -1.1451
 9401TIP3   OH228159   7.071   5.536   6.456  0.0955  0.2457  0.3918
 9401TIP3    H128160   7.129   5.546   6.532 -0.0169  1.7445  0.3043
 9401TIP3    H228161   7.126   5.493   6.390  0.4843 -0.2029  0.9975
 9402TIP3   OH228162   3.759   3.196   0.974  0.3651  0.0579  0.4730
 9402TIP3    H128163   3.816   3.272   0.966 -1.3348  1.3492  0.0980
 9402TIP3    H228164   3.798   3.131   0.915  0.8130  1.3192 -0.6699
 9403TIP3   OH228165   8.195   4.346   3.752 -0.4770 -0.2121  0.1239
 9403TIP3    H128166   8.180   4.290   3.676  0.3448  0.2274 -0.3863
 9403TIP3    H228167   8.193   4.435   3.716  1.5843 -0.0588  0.2796
 9404TIP3   OH228168   5.068   0.560   5.441  0.1284  0.2114 -0.3264
 9404TIP3    H128169   4.981   0.558   5.481  0.2277 -1.5598 -0.1451
 9404TIP3    H228170   5.084   0.653   5.425 -1.4499  0.6444  0.3805
 9405TIP3   OH228171   3.442   5.427   6.221  0.6269 -0.5396  0.1076
 9405TIP3    H128172   3.503   5.388   6.283  0.6093 -1.1055 -0.2242
 9405TIP3    H228173   3.437   5.364   6.149 -1.6511 -1.3081  0.8796
 9406TIP3   OH228174   1.017   3.353   2.381 -0.4721 -0.7062 -0.2789
 9406TIP3    H128175   1.046   3.386   2.296 -0.7376  1.4778  0.4157
 9406TIP3    H228176   1.002   3.431   2.434 -1.6273 -1.9535  1.3686
 9407TIP3   OH228177   1.216   7.448   1.511 -0.7386  0.0446 -0.5314
 9407TIP3    H128178   1.181   7.537   1.498  1.3430  1.1987  1.1534
 9407TIP3    H228179   1.260   7.428   1.428  0.2498  1.3606 -0.3725
 9408TIP3   OH228180   3.097   0.435   5.352  0.0900  0.3596 -0.0351
 9408TIP3    H128181   3.059   0.426   5.440 -1.6550 -0.8849 -0.8681
 9408TIP3    H228182   3.129   0.526   5.349 -1.2057  0.9027  1.3568
 9409TIP3   OH228183   6.040   1.634   6.230  0.3042  0.3734 -0.8643
 9409TIP3    H128184   6.023   1.567   6.163  0.4097 -0.0679 -0.4591
 9409TIP3    H228185   5.986   1.608   6.304  1.0307  0.2143 -0.3735
 9410TIP3   OH228186   4.393   1.286   6.533 -0.2740  0.0009  0.3451
 9410TIP3    H128187   4.420   1.293   6.441 -0.7350  1.7037  0.3049
 9410TIP3    H228188   4.459   1.337   6.581  0.6385 -1.8401  1.1384
 9411TIP3   OH228189   2.493   2.672   0.630 -0.4258  0.0721  0.0022
 9411TIP3    H128190   2.523   2.688   0.719  1.3089 -2.0104 -0.1142
 9411TIP3    H228191   2.509   2.754   0.584  0.0565  0.7086  1.2589
 9412TIP3   OH228192   0.847   7.626   4.342 -0.4234  0.1542 -0.3951
 9412TIP3    H128193   0.913   7.645   4.409 -0.3370  1.7452 -0.8926
 9412TIP3    H228194   0.780   7.577   4.389  0.2375  0.1219  0.5555
 9413TIP3   OH228195   2.631   6.143   3.235  1.0952  0.1775 -0.3059
 9413TIP3    H128196   2.537   6.125   3.235  1.2934 -1.0860 -2.0353
 9413TIP3    H228197   2.645   6.196   3.313 -0.9839  0.0505  0.2108
 9414TIP3   OH228198   0.922   4.698   5.627 -0.1199  0.5022 -0.3520
 9414TIP3    H128199   0.980   4.682   5.553 -1.3057 -1.0653 -0.9981
 9414TIP3    H228200   0.938   4.625   5.687 -0.2516  0.9521  0.2473
 9415TIP3   OH228201   7.034   3.788   3.681  0.2143 -0.3007  0.1478
 9415TIP3    H128202   7.023   3.865   3.624 -1.1563 -0.7734 -0.2535
 9415TIP3    H228203   7.077   3.723   3.625  0.7271 -0.0828  0.2784
 9416TIP3   OH228204   3.993   2.614   2.934 -0.2787  0.3324 -0.2815
 9416TIP3    H128205   4.054   2.661   2.991 -0.8183 -0.2572  0.8323
 9416TIP3    H228206   4.049   2.553   2.885 -0.0946 -2.2508  2.7584
 9417TIP3   OH228207   5.867   1.224   1.187  0.3375 -0.2399 -0.1758
 9417TIP3    H128208   5.866   1.201   1.094 -0.4308 -2.0772  0.2461
 9417TIP3    H228209   5.900   1.314   1.189  0.9845 -0.3808 -2.1649
 9418TIP3   OH228210   5.529   1.975   3.970  0.5728  0.2353 -0.1354
 9418TIP3    H128211   5.447   1.979   4.020  1.1030 -1.4692  0.9561
 9418TIP3    H228212   5.593   2.019   4.026  1.0824 -1.3401  0.5907
 9419TIP3   OH228213   6.098   0.172   2.696 -0.5229 -0.1074  0.0510
 9419TIP3    H128214   6.132   0.226   2.625 -1.7650 -0.1414 -0.5841
 9419TIP3    H228215   6.159   0.187   2.769 -1.6462  3.3642  0.4530
 9420TIP3   OH228216   7.847   7.150   1.561  0.4536 -0.3390  0.4414
 9420TIP3    H128217   7.788   7.156   1.636  0.6484 -2.1656  0.7688
 9420TIP3    H228218   7.874   7.059   1.558  0.7620 -0.2279 -1.6408
 9421TIP3   OH228219   3.272   3.687   3.210 -0.1131 -0.2719  0.3050
 9421TIP3    H128220   3.314   3.669   3.294 -0.4774 -1.5562  0.2280
 9421TIP3    H228221   3.208   3.756   3.229  0.7931  0.4684  0.7705
 9422TIP3   OH228222   3.867   3.552   2.071  0.4243  0.1003 -0.7118
 9422TIP3    H128223   3.834   3.499   2.144 -1.3157 -2.9122 -3.4192
 9422TIP3    H228224   3.847   3.642   2.096 -2.5572 -0.9760  1.3870
 9423TIP3   OH228225   3.377   6.498   3.740  0.1165 -0.4840  0.0809
 9423TIP3    H128226   3.333   6.550   3.808  1.8147 -0.1319  0.9841
 9423TIP3    H228227   3.388   6.559   3.668  1.7838  0.3767  1.0052
 9424TIP3   OH228228   1.022   0.054   4.375  0.4097  0.0151  0.0889
 9424TIP3    H128229   1.008   0.062   4.470 -0.5010  1.2902 -0.1240
 9424TIP3    H228230   1.016   0.144   4.343  0.2183 -0.4593 -1.2474
 9425TIP3   OH228231   1.263   4.502   0.953  0.2305 -0.2789 -0.0306
 9425TIP3    H128232   1.323   4.566   0.914 -0.8484  0.4064 -0.6073
 9425TIP3    H228233   1.176   4.532   0.928 -0.4197 -0.7825  1.4991
 9426TIP3   OH228234   1.091   5.027   0.791  0.3739 -0.0149 -0.2393
 9426TIP3    H128235   1.059   5.117   0.783  0.9268  0.2001 -0.0937
 9426TIP3    H228236   1.157   5.031   0.860 -0.8717 -0.8970  1.0704
 9427TIP3   OH228237   7.554   4.915   5.158  0.2503 -0.3006  0.2003
 9427TIP3    H128238   7.558   4.948   5.247  0.8936 -2.7707  1.1596
 9427TIP3    H228239   7.645   4.899   5.134 -0.0399 -1.4550 -0.1605
 9428TIP3   OH228240   3.862   5.226   6.322 -0.0014 -0.3433 -0.3981
 9428TIP3    H128241   3.767   5.210   6.322 -0.1057  0.1847  0.6813
 9428TIP3    H228242   3.887   5.221   6.230 -0.9926 -0.9755 -0.6542
 9429TIP3   OH228243   0.031   3.075   0.674  0.2457 -0.5220 -0.0269
 9429TIP3    H128244   0.088   3.152   0.674  0.5984 -0.7841 -0.0335
 9429TIP3    H228245  -0.044   3.100   0.728 -0.6014  0.5472 -1.5903
 9430TIP3   OH228246   5.116   7.841   5.169 -0.8487  0.1532 -0.0917
 9430TIP3    H128247   5.047   7.778   5.189  0.8647 -1.5776  0.6374
 9430TIP3    H228248   5.169   7.798   5.102 -2.1970  2.7990 -3.1578
 9431TIP3   OH228249   2.432   2.717   4.675  0.2018 -0.0091 -0.3425
 9431TIP3    H128250   2.360   2.660   4.704  0.4069  0.5787  1.4871
 9431TIP3    H228251   2.418   2.799   4.723  1.8108  0.2911 -0.3357
 9432TIP3   OH228252   3.267   3.422   5.842 -0.1204 -0.3256  0.4729
 9432TIP3    H128253   3.288   3.484   5.912 -1.4543  0.1532  0.4885
 9432TIP3    H228254   3.283   3.471   5.762 -0.4340 -0.2103  0.4776
 9433TIP3   OH228255   1.632   0.308   6.289  0.5081 -0.6325  0.3008
 9433TIP3    H128256   1.635   0.240   6.356  1.8836 -0.8768  0.0079
 9433TIP3    H228257   1.584   0.269   6.216 -3.1740  0.3966  1.8910
 9434TIP3   OH228258   2.921   3.781   6.808 -0.4397 -0.2587  0.0653
 9434TIP3    H128259   2.842   3.737   6.838 -1.7159  1.6743 -0.3201
 9434TIP3    H228260   2.937   3.746   6.721 -1.9149  0.5786 -0.5705
 9435TIP3   OH228261   2.141   6.083   2.544 -0.3655 -0.1762 -0.1383
 9435TIP3    H128262   2.233   6.062   2.558  0.0512  0.9253 -1.0381
 9435TIP3    H228263   2.142   6.148   2.473 -1.7321  0.7362  0.6288
 9436TIP3   OH228264   7.364   0.612   4.676 -0.1668 -0.0702 -0.1884
 9436TIP3    H128265   7.328   0.547   4.615  2.2840 -0.6541 -1.1463
 9436TIP3    H228266   7.383   0.688   4.621  1.1516 -0.2471 -0.0218
 9437TIP3   OH228267   7.670   5.214   5.680 -0.4297  0.1983 -0.3032
 9437TIP3    H128268   7.705   5.128   5.658  0.5598  0.0445  1.6259
 9437TIP3    H228269   7.604   5.197   5.748  0.7892  1.0116  1.1548
 9438TIP3   OH228270   3.521   5.511   2.824 -0.2814 -0.1552  0.3310
 9438TIP3    H128271   3.576   5.433   2.829  1.1613  0.6080 -2.1823
 9438TIP3    H228272   3.447   5.485   2.769  0.0102  0.1074 -0.1979
 9439TIP3   OH228273   6.254   5.946   1.567  0.1087  0.3427 -0.0294
 9439TIP3    H128274   6.312   5.993   1.509  0.7676 -0.6384 -0.1812
 9439TIP3    H228275   6.311   5.888   1.617 -0.7877 -1.1506 -0.6697
 9440TIP3   OH228276   3.358   1.197   2.335 -0.4395 -0.1151 -0.3740
 9440TIP3    H128277   3.441   1.204   2.381 -1.2710 -1.8170  1.5372
 9440TIP3    H228278   3.316   1.283   2.347  0.8873  0.6818 -1.1756
 9441TIP3   OH228279   5.264   3.054   4.895 -0.0723  0.3071 -0.4072
 9441TIP3    H128280   5.197   2.987   4.881 -0.4143  0.5932 -0.1712
 9441TIP3    H228281   5.220   3.120   4.949  0.5414  0.2705  0.1449
 9442TIP3   OH228282   1.232   2.966   2.498 -0.1823  0.1009  0.0221
 9442TIP3    H128283   1.305   3.027   2.510  0.8010 -0.2545 -3.2435
 9442TIP3    H228284   1.264   2.883   2.533  0.5543  0.2195 -0.3619
 9443TIP3   OH228285   3.074   3.551   1.017  0.6404  0.1780 -0.1750
 9443TIP3    H128286   3.032   3.595   0.943  2.8303 -0.0667 -1.6373
 9443TIP3    H228287   3.099   3.622   1.076 -0.4862  0.4296  0.0241
 9444TIP3   OH228288   2.422   4.376   0.701 -0.2559  0.5370  0.8489
 9444TIP3    H128289   2.439   4.449   0.761 -1.9989  1.6498  0.0594
 9444TIP3    H228290   2.508   4.335   0.689  0.8931  2.7546  0.9457
 9445TIP3   OH228291   6.077   5.078   5.090  0.1993 -0.2718  0.2735
 9445TIP3    H128292   6.025   5.015   5.040  0.4901 -1.2086  1.1291
 9445TIP3    H228293   6.084   5.154   5.032 -0.0527 -1.0607 -0.8273
 9446TIP3   OH228294   6.360   1.996   3.223  0.3480 -0.0832 -0.5003
 9446TIP3    H128295   6.348   2.075   3.170  1.0589  0.2193 -0.2221
 9446TIP3    H228296   6.441   1.957   3.191  0.2671 -0.4265 -0.2949
 9447TIP3   OH228297   1.807   2.921   3.228  0.4285  0.4522  0.1529
 9447TIP3    H128298   1.829   2.880   3.144 -0.2481 -1.1039  0.6992
 9447TIP3    H228299   1.724   2.964   3.212  0.2051 -0.0033  0.0617
 9448TIP3   OH228300   3.846   7.057   5.185  0.1998  0.7535  0.0717
 9448TIP3    H128301   3.868   7.083   5.274 -2.2758  0.3498  0.8758
 9448TIP3    H228302   3.776   7.118   5.159  1.2578  1.2186 -1.8233
 9449TIP3   OH228303   5.723   4.031   3.238  0.0901 -0.0846  0.3526
 9449TIP3    H128304   5.657   4.034   3.169  0.8127 -3.1642 -0.6473
 9449TIP3    H228305   5.806   4.042   3.192  0.4401  1.3813  1.2704
 9450TIP3   OH228306   7.160   6.818   6.169 -0.2497  0.0417 -0.1898
 9450TIP3    H128307   7.245   6.777   6.156  0.3405  1.7906 -2.4074
 9450TIP3    H228308   7.177   6.894   6.224 -0.6957 -0.4771  0.7015
 9451TIP3   OH228309   0.327   1.679   2.090  0.0709  0.2944 -0.1526
 9451TIP3    H128310   0.297   1.657   2.002  1.3717  1.5003 -0.9593
 9451TIP3    H228311   0.258   1.734   2.127 -0.3614 -0.0012 -0.5132
 9452TIP3   OH228312   0.981   0.111   6.218  0.2360 -0.2381  0.2503
 9452TIP3    H128313   0.898   0.064   6.215  0.5578 -0.7469 -2.0749
 9452TIP3    H228314   1.043   0.054   6.173  1.4350  0.9439  0.3404
 9453TIP3   OH228315   7.857   2.666   5.165  0.3715 -0.5033  0.0379
 9453TIP3    H128316   7.795   2.710   5.107  0.0072  0.3148  1.0219
 9453TIP3    H228317   7.807   2.646   5.244  1.1727 -0.4837  0.5613
 9454TIP3   OH228318   6.750   6.732   5.153 -0.0728  0.0315 -0.6567
 9454TIP3    H128319   6.815   6.698   5.092 -0.4138 -0.0215 -1.0002
 9454TIP3    H228320   6.705   6.801   5.103 -0.8128 -0.4768 -0.7048
 9455TIP3   OH228321   3.755   2.511   3.372  0.0291 -0.3524 -0.1610
 9455TIP3    H128322   3.840   2.525   3.413 -1.4255  0.5596  2.7936
 9455TIP3    H228323   3.754   2.418   3.349  1.3278 -0.6725  0.9826
 9456TIP3   OH228324   4.199   4.895   3.099  0.2433  0.2102 -0.2877
 9456TIP3    H128325   4.129   4.830   3.093 -0.5607  0.9452  0.9021
 9456TIP3    H228326   4.189   4.934   3.185  1.3355  1.2247 -0.5937
 9457TIP3   OH228327   0.832   5.415   4.071  0.1031 -0.0752  0.0078
 9457TIP3    H128328   0.774   5.433   3.998 -0.8849 -1.7127  0.3393
 9457TIP3    H228329   0.857   5.323   4.060 -0.0452 -0.3504  1.7093
 9458TIP3   OH228330   2.740   2.331   4.655  0.1514  0.4740 -0.2051
 9458TIP3    H128331   2.653   2.303   4.629  0.4304 -0.4282 -0.1974
 9458TIP3    H228332   2.766   2.394   4.587 -0.2896  0.3463 -0.4980
 9459TIP3   OH228333   1.519   2.804   1.028  0.0435 -0.4049  0.3243
 9459TIP3    H128334   1.521   2.836   0.938 -1.7584 -2.5735 -0.5807
 9459TIP3    H228335   1.441   2.843   1.066  0.5161  0.0854  0.8282
 9460TIP3   OH228336   1.212   5.317   0.897 -0.5061 -0.0235 -0.3878
 9460TIP3    H128337   1.273   5.382   0.862  1.0297 -0.0590  1.9564
 9460TIP3    H228338   1.127   5.341   0.860  0.3602  2.1037 -1.1604
 9461TIP3   OH228339   2.957   4.549   1.381 -0.6065 -0.1733  0.5624
 9461TIP3    H128340   3.019   4.479   1.365 -0.1855  0.8083 -2.9889
 9461TIP3    H228341   3.002   4.608   1.441  0.9460 -0.6592 -0.0752
 9462TIP3   OH228342   8.305   7.516   0.439  0.3944  0.2005  0.2183
 9462TIP3    H128343   8.320   7.506   0.532 -0.6086  0.4503  0.4289
 9462TIP3    H228344   8.226   7.464   0.422  0.2543  0.5974 -0.3773
 9463TIP3   OH228345   6.276   1.644   1.555  0.1514 -0.0006 -0.0876
 9463TIP3    H128346   6.224   1.566   1.537 -0.0951 -0.0031  0.6248
 9463TIP3    H228347   6.269   1.657   1.649  0.5282  0.6448 -0.1413
 9464TIP3   OH228348   0.979   2.206   1.651  0.6361  0.3892  0.2594
 9464TIP3    H128349   0.966   2.248   1.566 -0.6188  0.9133  0.6851
 9464TIP3    H228350   1.028   2.270   1.702 -0.3737  0.9285  0.5721
 9465TIP3   OH228351   0.288   7.449   1.124  0.1766 -0.2146 -0.3314
 9465TIP3    H128352   0.299   7.492   1.209  0.2452 -0.3871 -0.2524
 9465TIP3    H228353   0.204   7.403   1.131  0.4448 -0.6885 -0.1547
 9466TIP3   OH228354   6.669   5.664   5.755 -0.2171 -0.3211  0.2976
 9466TIP3    H128355   6.654   5.687   5.847  0.5406 -0.0267  0.3554
 9466TIP3    H228356   6.646   5.743   5.707 -1.8677 -0.8809  0.1014
 9467TIP3   OH228357   1.521   6.468  -0.000 -0.3011  0.1352  0.3834
 9467TIP3    H128358   1.571   6.434   0.074 -0.2109  2.2242  1.3449
 9467TIP3    H228359   1.429   6.451   0.023 -0.2020 -1.3925 -0.2025
 9468TIP3   OH228360   5.987   3.809   5.392 -0.1624  0.2937  0.0473
 9468TIP3    H128361   6.050   3.861   5.442  0.9446  0.1602 -1.1600
 9468TIP3    H228362   5.921   3.872   5.363  0.0107  0.6289  0.3823
 9469TIP3   OH228363   2.401   4.418   5.679  0.0606  0.1134  0.2283
 9469TIP3    H128364   2.410   4.341   5.736 -1.3846 -0.4237 -0.2215
 9469TIP3    H228365   2.452   4.486   5.723  1.0525 -0.9795  0.8420
 9470TIP3   OH228366   7.793   4.718   4.252 -0.6801 -0.1151  0.0629
 9470TIP3    H128367   7.759   4.800   4.218 -0.0446  2.0522  4.0164
 9470TIP3    H228368   7.875   4.742   4.296  0.0146 -3.0325  0.5982
 9471TIP3   OH228369   7.074   1.403   5.324  0.2808 -0.1428  0.2247
 9471TIP3    H128370   6.998   1.371   5.372 -0.0767  0.1359 -0.1518
 9471TIP3    H228371   7.086   1.341   5.253  1.2950 -1.0105  1.1036
 9472TIP3   OH228372   7.861   4.986   1.547 -0.0832 -0.1931  0.3418
 9472TIP3    H128373   7.772   4.976   1.512 -0.1383 -0.1688  0.4734
 9472TIP3    H228374   7.907   5.037   1.481 -0.0550 -0.5435  0.0848
 9473TIP3   OH228375   3.585   0.384   5.474 -0.5221  0.1158  0.2145
 9473TIP3    H128376   3.547   0.313   5.526  0.0995 -0.2538  0.1718
 9473TIP3    H228377   3.590   0.458   5.535 -2.4745  0.5811 -0.1148
 9474TIP3   OH228378   7.983   0.540   0.874  0.6152  0.2074 -0.2853
 9474TIP3    H128379   7.913   0.507   0.932  0.3233 -1.0283 -1.2956
 9474TIP3    H228380   7.960   0.506   0.788  1.7093  0.9989 -0.9070
 9475TIP3   OH228381   7.456   3.643   3.003 -0.0586 -0.0121 -0.1555
 9475TIP3    H128382   7.516   3.644   3.077  0.2901 -2.9321 -0.2710
 9475TIP3    H228383   7.401   3.566   3.018 -1.6876  0.7704 -1.6692
 9476TIP3   OH228384   1.643   0.367   2.286 -0.0864  0.1956 -0.6704
 9476TIP3    H128385   1.659   0.454   2.249 -1.3940  1.0555  0.6964
 9476TIP3    H228386   1.558   0.341   2.251  0.6255 -0.9105 -1.6728
 9477TIP3   OH228387   0.031   2.869   1.661 -0.1261  0.4994  0.3635
 9477TIP3    H128388   0.024   2.876   1.566  1.1184 -0.3840  0.1836
 9477TIP3    H228389   0.006   2.778   1.680 -2.2164  1.1779  1.1050
 9478TIP3   OH228390   1.434   0.728   1.593  0.4473 -0.0278  0.5905
 9478TIP3    H128391   1.374   0.707   1.665  0.6591 -2.0478  0.2356
 9478TIP3    H228392   1.391   0.799   1.546 -1.3540 -0.9631  0.7403
 9479TIP3   OH228393   2.072   7.841   6.515 -0.0455 -0.1116  0.1599
 9479TIP3    H128394   2.113   7.772   6.566 -1.2947 -3.4460 -2.8938
 9479TIP3    H228395   1.990   7.860   6.561 -0.2102 -1.5449  0.4902
 9480TIP3   OH228396   1.655   0.671   1.209 -0.0714 -0.5563 -0.0888
 9480TIP3    H128397   1.705   0.693   1.287 -1.5433  0.7470  0.5420
 9480TIP3    H228398   1.566   0.654   1.242 -0.2535 -2.0344 -1.2511
 9481TIP3   OH228399   1.693   1.965   0.335 -0.7312 -0.1099  0.4915
 9481TIP3    H128400   1.708   1.935   0.246  0.1255 -1.7421  1.1512
 9481TIP3    H228401   1.781   1.967   0.375 -1.1185  0.4154  1.3558
 9482TIP3   OH228402   3.890   2.985   0.842  0.0635 -0.0087 -0.4486
 9482TIP3    H128403   3.932   2.912   0.887 -0.5704  0.7491  1.4958
 9482TIP3    H228404   3.824   2.944   0.786 -0.4845 -0.9167  0.8277
 9483TIP3   OH228405   5.795   0.984  -0.032 -0.4852  0.7040 -0.2980
 9483TIP3    H128406   5.810   1.075  -0.008  0.5851  0.3411  0.4971
 9483TIP3    H228407   5.765   0.942   0.048 -1.9991  0.5515 -0.9102
 9484TIP3   OH228408   7.893   0.322   2.409 -0.0548 -0.1922  0.2824
 9484TIP3    H128409   7.808   0.339   2.449  0.1328  1.7443 -0.0371
 9484TIP3    H228410   7.901   0.388   2.341  1.1841 -1.1507 -0.5519
 9485TIP3   OH228411   0.499   3.990   4.562  0.0889  0.2394  0.3622
 9485TIP3    H128412   0.412   3.986   4.602  0.8483 -0.4091  2.0628
 9485TIP3    H228413   0.543   3.911   4.593  0.9876  0.0908 -1.2253
 9486TIP3   OH228414   6.426   3.035   2.094 -0.3558 -0.2819 -0.2852
 9486TIP3    H128415   6.517   3.028   2.066  0.0841  1.5155  0.5194
 9486TIP3    H228416   6.375   3.021   2.014  0.7329  1.3916 -1.3325
 9487TIP3   OH228417   3.563   7.705   3.544 -0.1001  0.1356 -0.3703
 9487TIP3    H128418   3.521   7.723   3.628 -0.8966 -1.4006 -0.3926
 9487TIP3    H228419   3.524   7.769   3.484 -1.9363 -0.7552 -0.2217
 9488TIP3   OH228420   0.111   4.261   4.629 -0.3565 -0.0747  0.1290
 9488TIP3    H128421   0.103   4.169   4.654 -0.3830 -0.7360 -2.1185
 9488TIP3    H228422   0.169   4.261   4.553 -0.7963  1.6976 -0.2576
 9489TIP3   OH228423   5.749   7.025   5.144  0.3587 -0.2892  0.5280
 9489TIP3    H128424   5.666   7.051   5.102  0.4615 -0.3544  0.2841
 9489TIP3    H228425   5.795   6.974   5.077  1.8621  2.0962 -0.3799
 9490TIP3   OH228426   3.228   7.181   5.560 -0.0523 -0.1793 -0.1890
 9490TIP3    H128427   3.253   7.133   5.638 -1.2190  1.5501  1.3373
 9490TIP3    H228428   3.311   7.204   5.518  0.6625 -0.0579  1.2382
 9491TIP3   OH228429   5.171   1.913   2.057  0.5691  0.6430  0.0236
 9491TIP3    H128430   5.259   1.875   2.047  1.0683  1.4112  1.2046
 9491TIP3    H228431   5.136   1.916   1.968  1.1162 -1.1063 -0.2962
 9492TIP3   OH228432   3.065   0.852   4.262 -0.2877  0.0212 -0.4576
 9492TIP3    H128433   3.125   0.802   4.207 -1.0291  0.3833 -1.6363
 9492TIP3    H228434   3.112   0.934   4.280 -0.1789  0.0413 -0.8375
 9493TIP3   OH228435   7.065   7.575   0.280 -0.5997 -0.2446 -0.7040
 9493TIP3    H128436   7.005   7.588   0.207 -0.5707 -0.5864 -0.7908
 9493TIP3    H228437   7.145   7.622   0.255 -0.9264  0.4635 -0.4555
 9494TIP3   OH228438   1.179   4.202   6.591  0.3270 -0.3684  0.2237
 9494TIP3    H128439   1.127   4.148   6.651  0.3247 -0.7443 -0.1118
 9494TIP3    H228440   1.257   4.224   6.641  1.3403 -2.4489 -0.3134
 9495TIP3   OH228441   3.510   1.730   4.041 -0.6497 -0.4149  0.5183
 9495TIP3    H128442   3.474   1.675   3.972 -0.4141 -1.4069  1.1679
 9495TIP3    H228443   3.435   1.751   4.097 -0.6902 -0.2938  0.4191
 9496TIP3   OH228444   4.738   6.434   0.523  0.2820 -0.0955 -0.3377
 9496TIP3    H128445   4.817   6.478   0.492  1.5428 -1.1026  1.2911
 9496TIP3    H228446   4.669   6.499   0.514  1.5015  1.1742 -0.7807
 9497TIP3   OH228447   6.477   3.144   5.985  0.1473 -0.1394  0.4742
 9497TIP3    H128448   6.502   3.073   6.044 -0.0096 -1.5903 -1.1249
 9497TIP3    H228449   6.389   3.169   6.012  0.1113 -0.7260  0.8968
 9498TIP3   OH228450   5.863   1.883   0.461 -0.2348  0.2653  0.7158
 9498TIP3    H128451   5.867   1.975   0.437  0.2481  0.7312  2.4979
 9498TIP3    H228452   5.805   1.880   0.537  1.2787 -0.6212  1.8660
 9499TIP3   OH228453   2.294   0.201   3.529  0.2272 -0.0517 -0.4084
 9499TIP3    H128454   2.201   0.221   3.515 -0.0152 -1.7552 -1.4858
 9499TIP3    H228455   2.297   0.106   3.536  1.8835 -0.0047 -0.1943
 9500TIP3   OH228456   2.788   4.293   1.176  0.1493  0.1230  0.6158
 9500TIP3    H128457   2.791   4.198   1.166 -3.0523  0.0895 -1.6724
 9500TIP3    H228458   2.875   4.323   1.150  0.3101 -2.0582 -1.7760
 9501TIP3   OH228459   5.173   1.462   6.061 -0.6618  0.5079  0.0892
 9501TIP3    H128460   5.147   1.409   6.136  1.3550 -0.7386 -0.0064
 9501TIP3    H228461   5.241   1.520   6.094 -0.7596  0.9449 -0.4593
 9502TIP3   OH228462   2.986   3.898   6.276  0.0844 -0.4548  0.0491
 9502TIP3    H128463   3.001   3.881   6.183  0.0315 -1.5927  0.2278
 9502TIP3    H228464   2.897   3.934   6.280  0.3966  0.4051 -0.4096
 9503TIP3   OH228465   4.581   6.165   3.012  0.0219 -0.7248 -0.0895
 9503TIP3    H128466   4.624   6.083   2.986  0.4223 -0.6896  0.4318
 9503TIP3    H228467   4.498   6.165   2.964  1.2618 -0.0300 -2.3670
 9504TIP3   OH228468   2.153   7.404   5.967 -0.1918 -0.3100  0.1309
 9504TIP3    H128469   2.151   7.461   5.890  1.0632 -0.3664  0.0213
 9504TIP3    H228470   2.116   7.321   5.937  2.5438 -1.1857 -1.2110
 9505TIP3   OH228471   1.322   2.393   3.839 -0.3478 -0.0489  0.1127
 9505TIP3    H128472   1.405   2.414   3.796 -1.1345 -0.4081 -1.7177
 9505TIP3    H228473   1.255   2.422   3.776 -1.6765  1.3762  2.0675
 9506TIP3   OH228474   0.923   3.494   1.335  0.0455  0.4783 -0.0034
 9506TIP3    H128475   0.923   3.400   1.351  1.0538  0.4197 -0.2600
 9506TIP3    H228476   0.995   3.528   1.388  0.2898  0.9658 -0.6199
 9507TIP3   OH228477   3.746   7.336   5.519 -0.4076 -0.3902 -0.1495
 9507TIP3    H128478   3.659   7.303   5.498 -0.4837 -1.0759  1.1464
 9507TIP3    H228479   3.794   7.331   5.437 -0.8845 -2.2679 -0.3544
 9508TIP3   OH228480   7.616   1.968   4.866 -0.1583 -0.2485  0.1398
 9508TIP3    H128481   7.693   1.996   4.916  0.8004 -0.7865 -0.9620
 9508TIP3    H228482   7.544   2.021   4.900  1.0007  1.3666  0.1913
 9509TIP3   OH228483   7.218   1.817   1.407  0.3609  0.2380 -0.2973
 9509TIP3    H128484   7.201   1.723   1.406 -0.5931  0.3909  0.4751
 9509TIP3    H228485   7.132   1.858   1.403  0.6569  1.0622  0.9554
 9510TIP3   OH228486   6.932   4.891   5.929  0.4369 -0.1484 -0.3573
 9510TIP3    H128487   7.019   4.881   5.969  0.6039  0.6137 -0.5058
 9510TIP3    H228488   6.871   4.869   5.999  0.7432 -0.0238 -0.0454
 9511TIP3   OH228489   2.311   7.333   1.514  0.1828  0.6486  0.4207
 9511TIP3    H128490   2.356   7.271   1.571 -0.1274 -0.3212 -0.3759
 9511TIP3    H228491   2.362   7.414   1.522  1.6031 -0.1890  0.1631
 9512TIP3   OH228492   1.322   2.765   3.476  0.2266  0.6142  0.3178
 9512TIP3    H128493   1.265   2.833   3.512 -0.3309  0.3949 -0.1391
 9512TIP3    H228494   1.411   2.799   3.489 -0.0634  1.8069 -0.6683
 9513TIP3   OH228495   5.903   7.789   4.270  0.1024  0.0591 -0.3159
 9513TIP3    H128496   5.918   7.808   4.363 -3.7247 -0.7149  0.6270
 9513TIP3    H228497   5.825   7.839   4.247  0.7451 -0.0305 -3.0696
 9514TIP3   OH228498   6.524   3.941   4.090 -1.0460 -0.4862  0.0492
 9514TIP3    H128499   6.598   3.907   4.141 -1.3272 -0.0748  0.7547
 9514TIP3    H228500   6.551   3.933   3.999 -0.6707 -1.5603  0.2508
 9515TIP3   OH228501   1.106   4.629   3.086  0.6784 -0.2972 -0.2090
 9515TIP3    H128502   1.201   4.636   3.076  0.3857  2.0994 -1.9516
 9515TIP3    H228503   1.073   4.614   2.997 -0.6432 -0.4089  0.2772
 9516TIP3   OH228504   0.514   7.342   1.799  0.0671 -0.0715  0.4774
 9516TIP3    H128505   0.495   7.268   1.740  2.1829 -0.8441  0.7110
 9516TIP3    H228506   0.605   7.363   1.782 -0.0705  1.5075  1.5515
 9517TIP3   OH228507   1.320   7.811   4.012 -0.7277 -0.2051  0.0970
 9517TIP3    H128508   1.308   7.750   4.085 -0.9021  1.2381  1.3163
 9517TIP3    H228509   1.381   7.766   3.954 -2.7098 -2.6095 -0.3284
 9518TIP3   OH228510   0.107   7.749   2.853  0.2980 -0.3506  0.1271
 9518TIP3    H128511   0.088   7.799   2.932 -0.6888 -0.0896 -0.2602
 9518TIP3    H228512   0.141   7.665   2.885  0.4350 -0.0419  0.8091
 9519TIP3   OH228513   7.456   1.498   6.546 -0.3718 -0.3904 -0.3081
 9519TIP3    H128514   7.375   1.547   6.561  0.4375  1.0435 -0.4727
 9519TIP3    H228515   7.526   1.559   6.566  0.7706 -2.4401  2.6198
 9520TIP3   OH228516   3.355   5.564   1.934 -0.1920  0.1106  0.1256
 9520TIP3    H128517   3.274   5.575   1.884 -0.0502 -0.3720 -0.2209
 9520TIP3    H228518   3.368   5.648   1.978 -0.8204  0.2317  0.0953
 9521TIP3   OH228519   6.846   0.413   5.709 -0.7029  0.0452 -0.1504
 9521TIP3    H128520   6.931   0.377   5.734 -0.8676  0.6690  1.3554
 9521TIP3    H228521   6.832   0.379   5.620  1.9960  1.4905 -1.2761
 9522TIP3   OH228522   2.014   5.753   1.234 -0.0989  0.1036  0.0767
 9522TIP3    H128523   2.047   5.666   1.212  0.2314  0.6928 -2.0217
 9522TIP3    H228524   2.084   5.794   1.284 -0.4883 -0.9993  1.5850
 9523TIP3   OH228525   7.858   3.364   1.437 -0.2858 -0.1835  0.1967
 9523TIP3    H128526   7.859   3.399   1.526 -3.2681  0.8635 -0.0433
 9523TIP3    H228527   7.792   3.294   1.441  0.8854 -1.3813 -0.8144
 9524TIP3   OH228528   4.512   0.282   5.455  0.1178 -0.5518  0.2259
 9524TIP3    H128529   4.503   0.288   5.551  1.5012 -2.2440  0.5132
 9524TIP3    H228530   4.441   0.225   5.427 -0.7568  0.5590  0.1135
 9525TIP3   OH228531   2.370   2.065   3.703  0.6431 -0.1424 -0.1394
 9525TIP3    H128532   2.429   2.046   3.631  0.0014 -0.5558 -0.5635
 9525TIP3    H228533   2.332   1.980   3.726 -0.0654  0.1760 -0.1185
 9526TIP3   OH228534   4.627   1.394   5.789  0.3041  0.5608 -0.4956
 9526TIP3    H128535   4.619   1.481   5.829  1.0851  0.8866 -1.0254
 9526TIP3    H228536   4.608   1.410   5.696 -1.1611 -0.1292 -0.3506
 9527TIP3   OH228537   7.693   1.457   0.124 -0.5780  0.1329  0.0769
 9527TIP3    H128538   7.711   1.522   0.057 -2.9132  1.3156  0.4759
 9527TIP3    H228539   7.650   1.506   0.195 -0.3710 -1.4666  1.3845
 9528TIP3   OH228540   3.066   3.304   0.943  1.0914 -0.4535  0.1031
 9528TIP3    H128541   3.149   3.266   0.914  1.8703  0.9921  0.3380
 9528TIP3    H228542   3.090   3.388   0.982 -0.3246 -0.6930  1.6115
 9529TIP3   OH228543   2.066   7.568   5.302  0.6293  0.2947 -0.5756
 9529TIP3    H128544   2.082   7.533   5.390 -2.1172 -0.9555 -0.4938
 9529TIP3    H228545   2.153   7.568   5.261  1.6648 -1.0345  1.4175
 9530TIP3   OH228546   3.459   5.554   3.594 -0.0689 -0.7566 -0.3081
 9530TIP3    H128547   3.449   5.642   3.558  0.3613 -1.1917 -1.5464
 9530TIP3    H228548   3.492   5.502   3.521  1.0203 -1.6457  0.7643
 9531TIP3   OH228549   7.227   2.933   5.105 -0.4895  0.1327 -0.2068
 9531TIP3    H128550   7.150   2.913   5.052 -1.0881  0.0700  0.6649
 9531TIP3    H228551   7.191   2.962   5.189  0.4361  0.4108  0.1023
 9532TIP3   OH228552   7.938   0.372   3.785  0.6423 -0.2792  0.3990
 9532TIP3    H128553   7.915   0.313   3.857 -0.1553 -0.4864 -0.0211
 9532TIP3    H228554   7.907   0.458   3.814 -0.0665 -0.4383  0.1242
 9533TIP3   OH228555   3.012   4.973   2.589 -0.6380 -0.1656  0.4785
 9533TIP3    H128556   3.101   5.005   2.576 -0.6179 -0.6911 -0.9395
 9533TIP3    H228557   2.979   5.021   2.664  1.0636 -0.4423  1.4495
 9534TIP3   OH228558   3.814   1.014   2.147  0.4591 -0.3207  0.8592
 9534TIP3    H128559   3.905   0.987   2.137  0.3999 -0.1594 -0.2554
 9534TIP3    H228560   3.794   1.064   2.068 -0.6108 -0.3964  1.0561
 9535TIP3   OH228561   6.269   0.971   1.279  0.5493  0.3764  0.5292
 9535TIP3    H128562   6.287   1.043   1.340  0.3666  1.8987 -1.1404
 9535TIP3    H228563   6.355   0.939   1.253  0.6522 -1.2770  2.6038
 9536TIP3   OH228564   1.101   2.160   5.145  0.3860 -0.5313 -0.4542
 9536TIP3    H128565   1.062   2.072   5.149 -0.2520 -0.3087 -1.4578
 9536TIP3    H228566   1.102   2.182   5.052 -2.7502  1.9127 -0.1108
 9537TIP3   OH228567   0.767   3.379   4.154 -0.1075 -0.4390  0.2327
 9537TIP3    H128568   0.812   3.463   4.149  0.6831 -0.9013 -0.9380
 9537TIP3    H228569   0.828   3.317   4.113 -0.6997 -1.5679  1.0094
 9538TIP3   OH228570   5.199   0.288   2.495  0.2233 -0.0691 -0.2472
 9538TIP3    H128571   5.252   0.255   2.567 -0.6666  0.1777  0.5485
 9538TIP3    H228572   5.120   0.234   2.496 -0.3917  0.7911 -0.1500
 9539TIP3   OH228573   7.678   4.207   4.286 -0.7316 -0.7572  0.2523
 9539TIP3    H128574   7.611   4.265   4.249  0.3287  0.0693 -0.4359
 9539TIP3    H228575   7.715   4.162   4.210 -1.4563 -2.2993  0.7667
 9540TIP3   OH228576   1.055   4.743   5.121  0.1843  0.1309 -0.4997
 9540TIP3    H128577   1.109   4.801   5.066  0.2560  2.2104  1.6079
 9540TIP3    H228578   0.970   4.787   5.126  0.0380 -0.2504  0.6591
 9541TIP3   OH228579   2.864   7.512   1.271 -0.6121 -0.6240 -0.0147
 9541TIP3    H128580   2.856   7.499   1.366 -0.6977 -2.0742 -0.2005
 9541TIP3    H228581   2.805   7.585   1.252 -0.5719 -0.2961  1.0493
 9542TIP3   OH228582   6.075   0.689   5.158  0.4576  0.2142 -0.6305
 9542TIP3    H128583   5.995   0.677   5.107  0.1124 -0.4817  0.0346
 9542TIP3    H228584   6.145   0.698   5.093 -0.0738  0.1714 -1.2173
 9543TIP3   OH228585   2.745   2.946   6.606  0.0506  0.4206  0.1311
 9543TIP3    H128586   2.689   2.878   6.569  1.7482 -1.1340  0.3251
 9543TIP3    H228587   2.713   2.958   6.695  0.7623 -1.3534  0.6582
 9544TIP3   OH228588   5.492   2.704   5.749  0.1096  0.5754  0.3868
 9544TIP3    H128589   5.552   2.685   5.821 -0.7558  2.0224  1.5438
 9544TIP3    H228590   5.427   2.763   5.787 -0.9628  0.5516 -1.3266
 9545TIP3   OH228591   5.242   2.323   4.649 -0.3387  0.1502  0.1080
 9545TIP3    H128592   5.275   2.239   4.679 -2.2398  0.0387  2.2371
 9545TIP3    H228593   5.202   2.362   4.727 -1.7872  1.8858 -1.3958
 9546TIP3   OH228594   6.211   0.037   1.984 -0.0992  0.3344 -0.2503
 9546TIP3    H128595   6.293   0.050   2.032 -0.4323  0.2347  0.3548
 9546TIP3    H228596   6.144   0.071   2.043 -0.6677 -1.1232 -0.0171
 9547TIP3   OH228597   8.205   4.975   6.716 -0.1073  0.7003 -0.5346
 9547TIP3    H128598   8.125   4.967   6.663 -0.7607  1.3245  0.3200
 9547TIP3    H228599   8.256   5.043   6.672 -0.0907  0.3729 -1.0294
 9548TIP3   OH228600   4.640   0.500   2.463 -0.1702 -0.0174 -0.3834
 9548TIP3    H128601   4.629   0.527   2.372 -1.7778 -1.1725 -0.5935
 9548TIP3    H228602   4.674   0.411   2.458  0.4459  0.1772  0.1770
 9549TIP3   OH228603   6.536   5.200   2.894  0.3169 -0.2599  0.1141
 9549TIP3    H128604   6.541   5.121   2.840 -0.9861 -0.6091  0.4544
 9549TIP3    H228605   6.452   5.191   2.941  0.1691  1.3059  0.1930
 9550TIP3   OH228606   1.769   4.055   0.934 -0.0816  0.7278  0.0887
 9550TIP3    H128607   1.842   4.117   0.929 -0.5205  1.3271  0.7929
 9550TIP3    H228608   1.695   4.109   0.963 -0.2320 -0.3212  1.7513
 9551TIP3   OH228609   0.549   3.500   4.915  0.0071 -0.5277 -0.2107
 9551TIP3    H128610   0.501   3.477   4.994  1.9106 -1.0110  0.8739
 9551TIP3    H228611   0.589   3.584   4.934 -1.9177  0.8556 -1.8545
 9552TIP3   OH228612   1.143   1.143   6.507  0.3781 -0.4484  0.1706
 9552TIP3    H128613   1.232   1.121   6.535 -0.1959 -2.0626  0.8532
 9552TIP3    H228614   1.134   1.236   6.528  1.9867 -0.1890 -0.1602
 9553TIP3   OH228615   5.638   2.905   3.476  0.9200 -0.4234 -0.4313
 9553TIP3    H128616   5.698   2.839   3.441  1.6109 -0.0033 -0.0782
 9553TIP3    H228617   5.695   2.977   3.503  0.5179 -0.9254  2.0173
 9554TIP3   OH228618   6.937   3.919   0.494  0.3403 -0.1651  0.6691
 9554TIP3    H128619   6.863   3.917   0.554  0.2064  1.4176  0.6131
 9554TIP3    H228620   7.012   3.941   0.549  0.6540 -1.0834  0.6179
 9555TIP3   OH228621   5.530   0.381   4.109  0.0893 -0.1043 -0.1596
 9555TIP3    H128622   5.558   0.393   4.019  0.6177 -0.1935 -0.0147
 9555TIP3    H228623   5.435   0.368   4.104  0.2661 -1.2955 -0.8195
 9556TIP3   OH228624   0.240   5.718   1.851  0.2298 -0.3012 -0.0564
 9556TIP3    H128625   0.234   5.726   1.946  0.5960 -0.7927  0.0145
 9556TIP3    H228626   0.149   5.722   1.821  0.2015  1.1774  0.1915
 9557TIP3   OH228627   6.712   2.084   1.673 -0.0954  0.8311  0.0969
 9557TIP3    H128628   6.652   2.009   1.666 -0.7339  1.4644 -1.9167
 9557TIP3    H228629   6.676   2.138   1.743  0.2321 -0.5842  1.4096
 9558TIP3   OH228630   5.544   6.328   2.584  0.2021 -0.5494  0.0442
 9558TIP3    H128631   5.597   6.317   2.505  0.2561 -1.3270  0.1822
 9558TIP3    H228632   5.490   6.249   2.588 -0.0236 -0.3711  0.6181
 9559TIP3   OH228633   7.356   2.463   4.640 -0.5547  0.4692 -0.0805
 9559TIP3    H128634   7.434   2.470   4.695 -0.5442  0.5399 -0.1044
 9559TIP3    H228635   7.284   2.490   4.697 -0.5545  0.4583 -0.0752
 9560TIP3   OH228636   4.463   6.359   5.752 -0.7298  0.0463 -0.2473
 9560TIP3    H128637   4.495   6.382   5.839 -0.5298  0.9420 -0.5483
 9560TIP3    H228638   4.454   6.443   5.707  0.7815 -0.4928 -1.6530
 9561TIP3   OH228639   1.707   4.579   6.645  0.6180 -0.6724 -0.0286
 9561TIP3    H128640   1.754   4.557   6.725 -1.8957  2.0384  2.4503
 9561TIP3    H228641   1.734   4.668   6.624  0.8225 -1.1461 -1.9288
 9562TIP3   OH228642   1.156   5.530   4.408 -0.0912  0.0080  0.6051
 9562TIP3    H128643   1.172   5.460   4.346  1.5471  1.6523 -0.9499
 9562TIP3    H228644   1.136   5.485   4.491  1.1076 -2.2473 -0.2514
 9563TIP3   OH228645   3.978   5.605   4.117  0.1066 -0.0006 -0.2695
 9563TIP3    H128646   4.014   5.630   4.202  0.4282 -1.5251  0.0735
 9563TIP3    H228647   3.884   5.596   4.133 -0.0214  1.0262 -0.4161
 9564TIP3   OH228648   4.527   5.576   2.253  0.0834  0.1008  0.2116
 9564TIP3    H128649   4.589   5.524   2.202  0.3812 -0.3537  1.0155
 9564TIP3    H228650   4.557   5.666   2.242 -0.1363  0.0660 -0.7809
 9565TIP3   OH228651   7.561   6.561   2.450  0.3301 -0.4923 -0.0350
 9565TIP3    H128652   7.625   6.537   2.382  0.0515 -0.2028 -0.4097
 9565TIP3    H228653   7.499   6.617   2.404 -1.2081 -2.1854 -0.1066
 9566TIP3   OH228654   8.221   3.036   2.575  0.0016 -0.4332  0.3734
 9566TIP3    H128655   8.299   2.982   2.584  1.4648  1.4833 -0.1684
 9566TIP3    H228656   8.235   3.086   2.494 -2.3872 -0.9196 -0.4425
 9567TIP3   OH228657   7.108   2.525   4.795  0.3453 -0.1098 -0.1281
 9567TIP3    H128658   7.070   2.599   4.748  4.1164  0.4911 -2.6418
 9567TIP3    H228659   7.137   2.562   4.879  0.9887  0.9713 -0.8102
 9568TIP3   OH228660   7.254   6.694   0.732 -0.2272  0.0503  0.2556
 9568TIP3    H128661   7.301   6.730   0.657 -1.0482 -1.0920 -0.8543
 9568TIP3    H228662   7.252   6.765   0.796  0.5624  1.0240 -0.7588
 9569TIP3   OH228663   1.030   7.566   3.359 -0.7396 -0.1363 -0.5486
 9569TIP3    H128664   1.089   7.628   3.316  1.2291 -0.3767  1.6054
 9569TIP3    H228665   0.987   7.617   3.427 -0.1209 -0.7802  0.3573
 9570TIP3   OH228666   4.593   5.270   3.497 -0.5698 -0.5796  0.3380
 9570TIP3    H128667   4.628   5.339   3.441 -1.5137 -0.4673 -0.1309
 9570TIP3    H228668   4.498   5.273   3.484 -0.8405 -0.4643  2.0554
 9571TIP3   OH228669   1.411   0.098   0.058 -0.2656 -0.7557  0.2963
 9571TIP3    H128670   1.402   0.155   0.134 -0.0779  0.9686 -0.9024
 9571TIP3    H228671   1.394   0.010   0.091 -0.0239 -0.0836  2.3440
 9572TIP3   OH228672   7.088   2.106   1.438  0.3227  0.3201 -0.0074
 9572TIP3    H128673   6.996   2.106   1.464  0.1016 -0.3084 -0.7826
 9572TIP3    H228674   7.126   2.179   1.487 -0.5159  0.3975  0.5514
 9573TIP3   OH228675   4.590   7.657   0.963  0.1953 -0.4692  0.0399
 9573TIP3    H128676   4.586   7.684   1.055 -0.6274 -2.7280  0.7584
 9573TIP3    H228677   4.503   7.676   0.928 -0.0182 -1.0795  0.2215
 9574TIP3   OH228678   2.005   0.779   6.658 -0.3114 -0.0614 -0.5568
 9574TIP3    H128679   1.928   0.791   6.603  0.6730 -0.4234 -2.0870
 9574TIP3    H228680   2.066   0.730   6.603  0.3485 -1.3436  1.2494
 9575TIP3   OH228681   1.254   7.475   2.431 -0.1999 -0.3017 -0.0309
 9575TIP3    H128682   1.346   7.501   2.442 -0.1535 -0.8394  0.9378
 9575TIP3    H228683   1.204   7.546   2.470 -0.2195  0.1473 -0.8495
 9576TIP3   OH228684   7.892   6.556   0.347  0.0617  0.4035  0.3030
 9576TIP3    H128685   7.967   6.540   0.404  1.0854  2.1386 -0.4714
 9576TIP3    H228686   7.928   6.555   0.258 -0.8575  1.0158 -0.0933
 9577TIP3   OH228687   2.027   5.056   4.322  0.2466  0.8515 -0.7516
 9577TIP3    H128688   2.019   4.968   4.358 -0.5146  0.9075 -0.7554
 9577TIP3    H228689   2.120   5.068   4.306  0.3803  0.1389 -0.5172
 9578TIP3   OH228690   5.130   2.741   2.860 -0.2433 -0.2960  0.5255
 9578TIP3    H128691   5.121   2.670   2.923  2.9984 -1.4475 -0.1371
 9578TIP3    H228692   5.048   2.791   2.868 -1.7238 -2.8219  2.5370
 9579TIP3   OH228693   4.582   3.383   2.308 -0.4332 -0.0063 -0.5114
 9579TIP3    H128694   4.514   3.408   2.245  0.0716  0.5476 -0.8420
 9579TIP3    H228695   4.561   3.431   2.387 -0.3027  0.3373 -0.6840
 9580TIP3   OH228696   3.225   0.465   2.738 -0.5534 -0.0838 -0.0352
 9580TIP3    H128697   3.204   0.526   2.808  0.7861  0.6654 -0.2682
 9580TIP3    H228698   3.271   0.518   2.673  0.5395 -1.3024 -0.2912
 9581TIP3   OH228699   1.006   1.811   0.280  0.4064 -1.3107 -0.3703
 9581TIP3    H128700   1.005   1.743   0.213  0.8496 -0.8389 -0.8749
 9581TIP3    H228701   0.997   1.893   0.231 -1.2478 -1.0441  0.3095
 9582TIP3   OH228702   5.740   4.212   2.964  0.2649  0.0026  0.5533
 9582TIP3    H128703   5.801   4.177   2.899 -1.6422 -0.1959 -1.2451
 9582TIP3    H228704   5.677   4.142   2.978 -0.3764  0.6990  1.2735
 9583TIP3   OH228705   7.582   2.925   2.474  0.3778 -0.3331 -0.4508
 9583TIP3    H128706   7.638   2.880   2.411  1.6961  0.2527  0.2609
 9583TIP3    H228707   7.630   3.004   2.498 -0.1465 -0.4566  1.1550
 9584TIP3   OH228708   6.823   6.453   3.587 -0.5382 -0.1543  0.3960
 9584TIP3    H128709   6.756   6.458   3.655 -1.9626  0.3779 -0.9949
 9584TIP3    H228710   6.782   6.404   3.516  0.4121  0.5058 -0.6383
 9585TIP3   OH228711   6.913   4.891   6.388  0.0658 -0.2168 -0.1660
 9585TIP3    H128712   6.834   4.915   6.437  0.1037 -2.6039  1.2331
 9585TIP3    H228713   6.879   4.851   6.308 -0.1747 -1.0595  0.3430
 9586TIP3   OH228714   2.813   1.681   4.739 -0.2377 -0.0493 -0.1443
 9586TIP3    H128715   2.839   1.665   4.830 -0.4574 -0.2234 -0.1095
 9586TIP3    H228716   2.801   1.776   4.734  1.7367  0.2211 -0.5265
 9587TIP3   OH228717   4.859   6.790   2.002 -0.2968  0.0834 -0.1995
 9587TIP3    H128718   4.774   6.835   2.002 -0.0277  0.6124 -0.7729
 9587TIP3    H228719   4.910   6.837   1.936  0.3599 -0.3882 -0.0302
 9588TIP3   OH228720   7.036   7.622   2.879 -0.3121 -0.1211  0.2116
 9588TIP3    H128721   6.999   7.606   2.793  1.4756  2.8943 -1.2770
 9588TIP3    H228722   7.093   7.547   2.895 -0.9578 -0.9131 -1.0215
 9589TIP3   OH228723   6.952   6.283   0.282  0.0764  0.4021  0.2241
 9589TIP3    H128724   7.026   6.318   0.232 -1.6839  0.1393 -2.7437
 9589TIP3    H228725   6.892   6.357   0.292 -0.6242 -0.1091 -0.1140
 9590TIP3   OH228726   3.797   0.442   6.332 -0.3394  0.3068 -0.4614
 9590TIP3    H128727   3.701   0.443   6.328 -0.3207  0.5228 -0.9473
 9590TIP3    H228728   3.818   0.499   6.407 -0.5374  2.1627 -1.7387
 9591TIP3   OH228729   7.238   5.535   3.034  0.0617  0.0928 -0.4050
 9591TIP3    H128730   7.144   5.534   3.016  0.1115  1.3436 -0.7722
 9591TIP3    H228731   7.254   5.450   3.076 -1.3446  0.1412  0.3012
 9592TIP3   OH228732   5.783   7.774   0.312 -0.1285  0.3701  0.2604
 9592TIP3    H128733   5.734   7.841   0.264 -0.4830 -0.8852 -1.2182
 9592TIP3    H228734   5.850   7.744   0.251 -1.4201 -2.2097 -0.0292
 9593TIP3   OH228735   5.415   1.195   6.563 -0.1310  0.2985 -0.0386
 9593TIP3    H128736   5.399   1.105   6.534  0.7494 -0.2813  1.1589
 9593TIP3    H228737   5.329   1.236   6.565 -0.3072  0.2728 -2.9805
 9594TIP3   OH228738   8.225   2.039   6.480  0.0436 -0.1159  0.5999
 9594TIP3    H128739   8.319   2.027   6.462 -0.5642 -1.4519 -2.4026
 9594TIP3    H228740   8.213   2.007   6.569  2.5830  1.1766  1.5165
 9595TIP3   OH228741   3.020   0.099   0.296 -0.1008 -0.0914  0.2669
 9595TIP3    H128742   3.113   0.075   0.287 -0.2648 -0.4695 -0.4632
 9595TIP3    H228743   2.974   0.016   0.300 -0.5048  0.0857 -0.4627
 9596TIP3   OH228744   2.104   4.646   0.032 -0.5627 -0.2543  0.3141
 9596TIP3    H128745   2.130   4.622  -0.057 -1.4139 -1.1817  0.3030
 9596TIP3    H228746   2.137   4.576   0.087 -0.1488  0.2537  0.7221
 9597TIP3   OH228747   5.686   3.099   1.392 -0.4589  0.4514 -0.0220
 9597TIP3    H128748   5.638   3.018   1.374  0.9994 -0.1252 -1.5063
 9597TIP3    H228749   5.651   3.129   1.476 -1.7118 -1.1893  0.0906
 9598TIP3   OH228750   1.973   7.031   0.375 -0.5919 -0.0824 -0.3226
 9598TIP3    H128751   1.881   7.054   0.383 -0.2859  1.0024  0.1502
 9598TIP3    H228752   2.005   7.083   0.301 -0.1974  0.0368 -0.0702
 9599TIP3   OH228753   2.583   6.312   2.945 -0.4174 -0.0479  0.6600
 9599TIP3    H128754   2.629   6.373   3.003 -0.9244  0.3750  0.6251
 9599TIP3    H228755   2.609   6.338   2.857  1.4403 -1.5510  0.6921
 9600TIP3   OH228756   1.625   6.566   6.334  0.5509  0.4542 -0.1377
 9600TIP3    H128757   1.668   6.483   6.317  0.3596  0.0939  1.0560
 9600TIP3    H228758   1.696   6.629   6.345  0.6951  0.4547 -1.0359
 9601TIP3   OH228759   4.033   4.228   5.748  0.5687  0.0607  0.2620
 9601TIP3    H128760   3.952   4.273   5.725  0.5333  0.1010  0.4641
 9601TIP3    H228761   4.087   4.235   5.669 -0.0070 -0.8410 -0.2258
 9602TIP3   OH228762   3.871   3.048   1.172  0.0636  0.3085 -0.1538
 9602TIP3    H128763   3.807   3.086   1.111  0.0635  1.8448  0.7573
 9602TIP3    H228764   3.952   3.097   1.156  0.4964 -0.3398  0.0104
 9603TIP3   OH228765   5.035   0.982   1.723 -0.0846  0.0705 -0.6199
 9603TIP3    H128766   4.983   1.028   1.657 -1.4593 -0.1048  0.3097
 9603TIP3    H228767   5.035   0.891   1.694 -2.1648 -0.3424  0.4552
 9604TIP3   OH228768   6.442   0.543   2.123 -0.0618  0.0380 -0.1509
 9604TIP3    H128769   6.403   0.628   2.142 -0.2697 -0.4295  1.6558
 9604TIP3    H228770   6.426   0.530   2.029 -1.0723  1.4381 -0.2059
 9605TIP3   OH228771   0.230   7.834   1.105 -0.1712 -0.2835  0.1254
 9605TIP3    H128772   0.267   7.763   1.052 -1.2744 -0.3712 -0.5548
 9605TIP3    H228773   0.214   7.794   1.191 -1.2389 -1.0215 -0.3945
 9606TIP3   OH228774   4.003   2.521   4.241  0.8179  0.8071  1.0605
 9606TIP3    H128775   4.033   2.577   4.168  1.6956 -0.3061  0.5351
 9606TIP3    H228776   3.917   2.489   4.213  1.2608  0.1773  0.3673
 9607TIP3   OH228777   0.833   0.281   3.399  0.2413 -0.8093 -0.0554
 9607TIP3    H128778   0.843   0.275   3.494 -0.9890  0.4993  0.1945
 9607TIP3    H228779   0.908   0.332   3.370 -0.2106  0.1795  0.4537
 9608TIP3   OH228780   6.150   6.322   1.551 -0.2735 -0.2068 -0.3983
 9608TIP3    H128781   6.118   6.343   1.463 -1.1324 -1.9095 -0.5162
 9608TIP3    H228782   6.099   6.246   1.578  0.5230 -0.1812  1.2760
 9609TIP3   OH228783   2.137   0.571   2.614  0.3547  0.2020  0.2265
 9609TIP3    H128784   2.193   0.543   2.686  2.0308 -1.9491 -1.7554
 9609TIP3    H228785   2.051   0.534   2.635  1.1315 -1.5238  0.5747
 9610TIP3   OH228786   4.988   5.804   5.564  0.1288 -0.6727  0.4230
 9610TIP3    H128787   4.991   5.786   5.658 -1.1816 -0.7022  0.4800
 9610TIP3    H228788   5.030   5.728   5.523  2.1290  0.0515  1.0272
 9611TIP3   OH228789   4.471   2.115   4.996  0.3309 -0.1527  0.1156
 9611TIP3    H128790   4.448   2.047   5.060 -1.1198  0.5370  0.3639
 9611TIP3    H228791   4.522   2.179   5.046  1.3206 -0.8209 -0.0161
 9612TIP3   OH228792   7.007   0.592   3.770 -0.0801  0.4807  0.1817
 9612TIP3    H128793   6.924   0.608   3.725  0.2369 -0.6164 -0.8387
 9612TIP3    H228794   6.986   0.525   3.835  0.2054 -0.6340 -0.8342
 9613TIP3   OH228795   3.731   0.040   0.250 -0.2669  0.0877 -0.3903
 9613TIP3    H128796   3.770  -0.005   0.176  1.4779 -1.2725  1.2540
 9613TIP3    H228797   3.668  -0.022   0.286  0.4979 -0.1911  0.5285
 9614TIP3   OH228798   5.071   7.502   2.011 -1.0126 -0.6032 -0.2573
 9614TIP3    H128799   5.165   7.482   2.016 -0.9951 -0.6040 -0.5910
 9614TIP3    H228800   5.064   7.594   2.036 -0.7561 -0.1852 -1.6381
 9615TIP3   OH228801   7.870   2.097   3.113 -0.2574 -0.1051 -0.2070
 9615TIP3    H128802   7.934   2.036   3.077 -0.9733 -0.5762 -0.7017
 9615TIP3    H228803   7.798   2.096   3.051 -0.6632  0.5750  0.2396
 9616TIP3   OH228804   6.726   6.763   0.459  0.5928  0.0835 -0.2580
 9616TIP3    H128805   6.670   6.835   0.488  0.6773  0.4260 -0.9206
 9616TIP3    H228806   6.801   6.765   0.518  0.6935  0.6698 -0.4054
 9617TIP3   OH228807   2.063   7.468   3.375 -0.5624  0.2777 -0.4518
 9617TIP3    H128808   2.062   7.474   3.470 -1.6038  1.5892 -0.5271
 9617TIP3    H228809   2.129   7.400   3.356 -1.7008 -1.3896  1.2486
 9618TIP3   OH228810   4.347   2.381   6.662  0.3337 -0.2747 -0.0709
 9618TIP3    H128811   4.440   2.360   6.663  0.1103 -1.2922  0.6347
 9618TIP3    H228812   4.303   2.296   6.669 -0.6343  0.2649  0.6203
 9619TIP3   OH228813   1.318   7.787   2.346 -0.1654 -0.3459 -0.0982
 9619TIP3    H128814   1.362   7.871   2.359  1.2730 -1.0848 -0.0996
 9619TIP3    H228815   1.259   7.780   2.421 -0.7573  0.9183 -0.4073
 9620TIP3   OH228816   4.970   3.599   5.431 -0.3027  0.0294  0.5709
 9620TIP3    H128817   4.935   3.679   5.472  1.6130  1.1431  0.1492
 9620TIP3    H228818   4.962   3.616   5.337 -2.4784 -1.5165  0.4077
 9621TIP3   OH228819   0.803   6.929   4.348 -0.5979 -0.0073 -0.3563
 9621TIP3    H128820   0.831   6.850   4.303  0.4765 -1.3614  2.4693
 9621TIP3    H228821   0.712   6.911   4.373 -0.6553  0.0428 -0.5289
 9622TIP3   OH228822   6.217   7.706   3.069  0.0693 -0.2919  0.2721
 9622TIP3    H128823   6.132   7.676   3.037  0.2384  0.3144 -0.7821
 9622TIP3    H228824   6.281   7.660   3.015  0.3338  2.5861 -2.1463
 9623TIP3   OH228825   2.212   2.528   4.770  0.2147  0.1407 -0.0298
 9623TIP3    H128826   2.169   2.573   4.843  0.7245  2.3146 -0.9851
 9623TIP3    H228827   2.140   2.498   4.715 -0.1788 -1.5088  1.2607
 9624TIP3   OH228828   5.476   2.290   0.950 -1.0760  0.2141 -0.2757
 9624TIP3    H128829   5.415   2.299   0.877 -1.2716 -1.3871 -0.3594
 9624TIP3    H228830   5.425   2.246   1.018 -0.3528 -0.0491  0.1032
 9625TIP3   OH228831   3.793   1.824   0.473 -0.4949 -0.3277 -0.2508
 9625TIP3    H128832   3.727   1.893   0.480  0.5373  0.6673  0.0186
 9625TIP3    H228833   3.851   1.853   0.402  0.9629  0.0091  1.0145
 9626TIP3   OH228834   7.996   2.337   4.162 -0.2584 -0.3058 -0.0115
 9626TIP3    H128835   8.079   2.382   4.177 -0.1441 -0.2934 -0.6288
 9626TIP3    H228836   7.944   2.400   4.111 -0.3480 -0.6096 -0.3001
 9627TIP3   OH228837   6.552   5.353   1.579 -0.4633  0.0930  0.0747
 9627TIP3    H128838   6.499   5.354   1.659 -3.0289 -3.0542 -1.3495
 9627TIP3    H228839   6.638   5.321   1.607 -1.2519 -0.7907  1.6090
 9628TIP3   OH228840   7.863   6.042   3.590 -0.3709  0.0264  0.7071
 9628TIP3    H128841   7.845   5.981   3.518  0.4595  1.2709 -0.5987
 9628TIP3    H228842   7.888   5.985   3.663 -1.2119 -1.2662  0.0343
 9629TIP3   OH228843   0.262   3.210   1.626  0.1380  0.2154  0.5875
 9629TIP3    H128844   0.322   3.182   1.696  2.0537 -0.3252 -1.1597
 9629TIP3    H228845   0.182   3.237   1.672  1.4209  0.2175  2.9933
 9630TIP3   OH228846   5.600   4.752   1.212  0.0096  0.1031  0.0530
 9630TIP3    H128847   5.514   4.719   1.184  0.0302  1.0144 -1.1687
 9630TIP3    H228848   5.612   4.833   1.163  0.5626  1.2388  1.9317
 9631TIP3   OH228849   3.124   7.752   1.430  0.3458  0.1404  0.4498
 9631TIP3    H128850   3.206   7.785   1.468  0.0607  0.2117  1.0111
 9631TIP3    H228851   3.135   7.657   1.429  0.3474  0.1370  0.7281
 9632TIP3   OH228852   2.409   6.556   4.127 -0.3424 -0.2005 -0.1759
 9632TIP3    H128853   2.373   6.642   4.106 -1.8692 -0.4311  1.2400
 9632TIP3    H228854   2.417   6.512   4.043 -0.4518  0.9926 -0.8309
 9633TIP3   OH228855   7.845   3.253   0.195  0.6337  0.0979  0.1490
 9633TIP3    H128856   7.939   3.247   0.178  0.6422  1.7326 -0.6009
 9633TIP3    H228857   7.812   3.312   0.127 -0.8239  0.0850  0.8005
 9634TIP3   OH228858   7.718   5.769   4.003  0.0044 -0.3334  0.9254
 9634TIP3    H128859   7.625   5.770   4.025  0.0927 -0.9067  1.3577
 9634TIP3    H228860   7.731   5.845   3.946 -0.7841 -0.4161  0.6316
 9635TIP3   OH228861   6.457   5.949   0.520 -0.7210  0.3910  0.8476
 9635TIP3    H128862   6.466   5.857   0.543 -1.6059  0.1687  0.3546
 9635TIP3    H228863   6.468   5.996   0.602  2.3617  0.0505  0.7316
 9636TIP3   OH228864   1.214   1.692   1.715  0.4598 -0.2378  0.1972
 9636TIP3    H128865   1.189   1.780   1.687 -0.9379 -0.1530  1.5622
 9636TIP3    H228866   1.190   1.635   1.642  0.9388  0.4479 -0.5067
 9637TIP3   OH228867   4.959   1.217   3.863  0.5345  0.3374  0.0595
 9637TIP3    H128868   4.914   1.179   3.788  2.0972 -0.4488 -0.5148
 9637TIP3    H228869   5.047   1.179   3.861  0.3710 -0.4542  2.8092
 9638TIP3   OH228870   0.968   0.522   0.494  0.3977  0.7320  0.2024
 9638TIP3    H128871   0.991   0.598   0.441  1.2686  0.2699 -0.0977
 9638TIP3    H228872   0.956   0.557   0.582  2.2980  1.0223  0.3951
 9639TIP3   OH228873   0.324   5.735   4.056  0.0767 -0.1025 -0.1704
 9639TIP3    H128874   0.249   5.709   4.110  0.2923  0.0469  0.2019
 9639TIP3    H228875   0.348   5.655   4.009 -1.8385  0.4120 -2.1672
 9640TIP3   OH228876   0.988   1.096   5.939  0.2238 -0.3299  0.0826
 9640TIP3    H128877   0.922   1.166   5.936 -0.8479 -1.1901  2.0967
 9640TIP3    H228878   0.950   1.025   5.888  1.0742  0.2748 -1.4911
 9641TIP3   OH228879   7.479   5.493   3.197  0.0576  1.0016 -0.3116
 9641TIP3    H128880   7.489   5.507   3.103  0.3186 -0.6225 -0.5604
 9641TIP3    H228881   7.401   5.439   3.205  1.4231 -0.9963  0.1555
 9642TIP3   OH228882   5.746   2.894   0.394  0.2567 -0.0201 -0.2650
 9642TIP3    H128883   5.838   2.920   0.390  0.5951 -1.0525  0.3563
 9642TIP3    H228884   5.709   2.946   0.465  0.9256 -1.1727  0.9784
 9643TIP3   OH228885   1.548   5.412   2.422 -0.1035 -0.4874  0.4569
 9643TIP3    H128886   1.614   5.353   2.385 -0.8320 -1.6794  0.9827
 9643TIP3    H228887   1.576   5.426   2.512  1.5591  2.2496 -0.3682
 9644TIP3   OH228888   8.197   4.105   0.414  0.3991 -0.1522  0.2827
 9644TIP3    H128889   8.122   4.113   0.473  1.0498  1.6435  0.9083
 9644TIP3    H228890   8.262   4.168   0.447  2.0557 -1.3726 -0.4576
 9645TIP3   OH228891   4.016   3.597   1.244 -0.5650  0.0697 -0.0646
 9645TIP3    H128892   4.104   3.627   1.268 -0.8423  1.1755 -0.3679
 9645TIP3    H228893   4.010   3.613   1.150 -1.0499 -0.0963 -0.0649
 9646TIP3   OH228894   3.259   1.374   6.085  0.5735  0.3492 -0.1269
 9646TIP3    H128895   3.259   1.374   6.181  0.8615 -1.3160 -0.1099
 9646TIP3    H228896   3.350   1.386   6.060  0.3845  1.7717 -0.2334
 9647TIP3   OH228897   0.731   5.950   6.606  0.1886  0.0719 -0.1192
 9647TIP3    H128898   0.682   5.961   6.524 -1.0608 -1.6989  0.3219
 9647TIP3    H228899   0.698   6.019   6.664 -0.0083  0.3951 -0.6102
 9648TIP3   OH228900   4.435   0.834   2.415  0.5407  0.5711  0.2476
 9648TIP3    H128901   4.434   0.855   2.322  1.8071  2.1120  0.5294
 9648TIP3    H228902   4.396   0.910   2.458 -1.2395 -0.6617  0.9363
 9649TIP3   OH228903   4.695   7.782   4.930  0.1441  0.6231 -0.5623
 9649TIP3    H128904   4.636   7.770   4.855 -0.2940  0.4310 -0.1899
 9649TIP3    H228905   4.773   7.731   4.907  0.8831  2.2010 -1.8089
 9650TIP3   OH228906   1.279   7.579   0.781 -0.0688 -0.1179  0.1443
 9650TIP3    H128907   1.331   7.609   0.856  1.1539  0.9208 -1.0572
 9650TIP3    H228908   1.331   7.604   0.705 -1.4133 -0.8834 -1.0715
 9651TIP3   OH228909   6.430   1.430   2.786  0.2059 -0.5596 -0.1652
 9651TIP3    H128910   6.354   1.372   2.795 -0.7399  0.7756  0.6775
 9651TIP3    H228911   6.454   1.422   2.693  0.4591 -2.6987  0.0402
 9652TIP3   OH228912   1.813   1.372   2.725  0.0633 -0.3967  0.1872
 9652TIP3    H128913   1.859   1.453   2.749  0.0314  0.3176 -1.9233
 9652TIP3    H228914   1.883   1.309   2.710  0.2694  0.0328 -0.7616
 9653TIP3   OH228915   5.725   1.422   3.770 -0.5707  0.3711  0.1680
 9653TIP3    H128916   5.808   1.454   3.736 -0.9034 -0.5055 -1.5734
 9653TIP3    H228917   5.658   1.474   3.724 -1.0435 -1.2699 -1.1200
 9654TIP3   OH228918   1.106   2.679   1.089  0.1827  0.3184  0.6368
 9654TIP3    H128919   1.198   2.652   1.079  0.4593  1.1638  0.8344
 9654TIP3    H228920   1.058   2.623   1.028  0.6718 -0.9261  1.3491
 9655TIP3   OH228921   3.313   0.986   2.134  0.2203  0.0354  0.1657
 9655TIP3    H128922   3.348   1.041   2.204 -1.3747  2.0356 -0.5222
 9655TIP3    H228923   3.226   0.959   2.165 -0.3083  0.5474 -0.8291
 9656TIP3   OH228924   0.348   6.457   3.135 -0.6427 -0.1166 -0.4833
 9656TIP3    H128925   0.274   6.510   3.162 -0.1135  0.1817  0.4063
 9656TIP3    H228926   0.414   6.470   3.203  0.2363 -0.3589 -1.2631
 9657TIP3   OH228927   2.206   4.100   5.146 -0.3900  0.4516  0.1471
 9657TIP3    H128928   2.288   4.085   5.194 -0.9378 -1.3600  0.6073
 9657TIP3    H228929   2.176   4.012   5.123 -1.9424  1.1168 -0.4687
 9658TIP3   OH228930   6.437   1.684   1.928  0.3589  0.1338 -0.0902
 9658TIP3    H128931   6.361   1.628   1.920 -0.2098  0.8355  0.2695
 9658TIP3    H228932   6.502   1.630   1.973  0.2566 -0.6314 -0.8470
 9659TIP3   OH228933   5.577   7.140   4.911 -0.2823 -0.4633 -0.0609
 9659TIP3    H128934   5.654   7.144   4.855  0.2710  0.4758  0.7309
 9659TIP3    H228935   5.530   7.062   4.882  0.7261 -0.7906 -0.8636
 9660TIP3   OH228936   8.121   6.868   1.081  0.2290  0.4282  0.3301
 9660TIP3    H128937   8.092   6.781   1.054  1.4113 -0.3637  1.5037
 9660TIP3    H228938   8.040   6.918   1.091 -0.5920 -1.0207  1.2329
 9661TIP3   OH228939   7.135   6.876   0.397  0.0644 -0.2871 -0.7735
 9661TIP3    H128940   7.086   6.795   0.410  0.0643 -0.1987 -0.2167
 9661TIP3    H228941   7.107   6.907   0.310 -1.1528 -0.0428 -0.3172
 9662TIP3   OH228942   5.990   6.877   0.404 -0.9670  0.2420 -0.1094
 9662TIP3    H128943   5.946   6.833   0.332 -0.1537  0.1286 -0.5426
 9662TIP3    H228944   6.013   6.807   0.465 -0.9799  0.2477 -0.0979
 9663TIP3   OH228945   2.195   4.114   2.647 -0.5002  0.0120  0.4923
 9663TIP3    H128946   2.107   4.144   2.626 -0.2572  0.6531  0.3675
 9663TIP3    H228947   2.236   4.189   2.690  0.3671  0.1298 -0.5053
 9664TIP3   OH228948   7.003   5.155   1.730 -0.3602 -0.2688 -0.1801
 9664TIP3    H128949   7.064   5.090   1.695  1.6327  0.7693  1.1216
 9664TIP3    H228950   7.024   5.160   1.824 -1.8084  0.8444  0.1285
 9665TIP3   OH228951   7.900   3.125   5.945  0.2673  0.0126  0.1183
 9665TIP3    H128952   7.821   3.178   5.942  1.6113  2.0944 -1.7114
 9665TIP3    H228953   7.900   3.085   6.032 -3.1412 -0.7401 -0.1096
 9666TIP3   OH228954   2.549   0.823   6.262  0.4984  0.0048 -0.0550
 9666TIP3    H128955   2.504   0.766   6.200 -1.8667  1.0411  0.5833
 9666TIP3    H228956   2.640   0.793   6.261  0.4232 -0.4563 -3.4504
 9667TIP3   OH228957   5.690   1.952   6.705 -0.5959  0.4174 -0.2364
 9667TIP3    H128958   5.672   1.905   6.786 -1.4517  1.5020  0.2215
 9667TIP3    H228959   5.704   1.883   6.640 -0.4449 -0.4611  0.7043
 9668TIP3   OH228960   8.239   2.851   5.370 -0.4791 -0.0233  0.3768
 9668TIP3    H128961   8.213   2.853   5.277 -0.0168 -2.5987  0.1309
 9668TIP3    H228962   8.168   2.897   5.415 -1.7196 -0.4341 -1.0559
 9669TIP3   OH228963   1.473   6.487   0.325 -0.4179 -0.2869 -0.3981
 9669TIP3    H128964   1.518   6.417   0.278 -0.1236 -0.7526  0.5418
 9669TIP3    H228965   1.380   6.466   0.316 -0.3773 -0.2087 -1.0096
 9670TIP3   OH228966   5.858   3.631   4.058 -0.6310  0.2717 -0.4435
 9670TIP3    H128967   5.914   3.645   4.134  0.5090 -0.9362 -1.0099
 9670TIP3    H228968   5.815   3.546   4.075 -1.5551  0.7213 -0.4623
 9671TIP3   OH228969   6.332   7.781   5.652 -0.0224 -0.0027  0.1518
 9671TIP3    H128970   6.303   7.690   5.657 -0.1328  0.0282  0.0509
 9671TIP3    H228971   6.270   7.824   5.594 -1.9900  0.9134  2.7458
 9672TIP3   OH228972   4.406   0.393   2.586  0.0623  0.6233 -0.0317
 9672TIP3    H128973   4.469   0.455   2.548 -1.0141  1.3265 -0.7168
 9672TIP3    H228974   4.441   0.307   2.562  2.0010  0.8854  1.6097
 9673TIP3   OH228975   6.769   5.325   2.497 -0.1551  0.1414  0.6740
 9673TIP3    H128976   6.812   5.243   2.472  1.6688  0.7935  1.5174
 9673TIP3    H228977   6.783   5.383   2.423 -1.5518 -0.3175  0.0262
 9674TIP3   OH228978   1.709   0.508   6.517 -0.6559 -0.3309  0.3292
 9674TIP3    H128979   1.783   0.506   6.577  0.7715  4.8124 -0.7890
 9674TIP3    H228980   1.633   0.525   6.573 -0.2956 -1.0104  1.0480
 9675TIP3   OH228981   8.150   5.643   5.902  0.5046 -0.0186 -0.5232
 9675TIP3    H128982   8.096   5.683   5.835  1.6550  1.6218 -0.5238
 9675TIP3    H228983   8.094   5.640   5.980 -0.4829 -0.9613 -1.2387
 9676TIP3   OH228984   1.286   7.105   3.935  0.3474  0.0349  0.2406
 9676TIP3    H128985   1.319   7.052   3.863 -0.3718 -1.6959  1.1252
 9676TIP3    H228986   1.343   7.182   3.937  0.7047 -0.1225 -1.8102
 9677TIP3   OH228987   7.901   1.201   0.316 -0.0452 -0.0540  0.0333
 9677TIP3    H128988   7.908   1.264   0.244 -0.0735  0.4769  0.4817
 9677TIP3    H228989   7.818   1.222   0.359 -1.0170 -1.6602 -0.9518
 9678TIP3   OH228990   0.067   4.535   1.944 -0.4490 -0.3728  0.4490
 9678TIP3    H128991   0.157   4.524   1.976 -0.7065  1.8913  2.2078
 9678TIP3    H228992   0.025   4.451   1.960  0.7937 -0.8058  1.5604
 9679TIP3   OH228993   7.393   7.601   1.127  0.1963 -0.5878 -0.2765
 9679TIP3    H128994   7.482   7.580   1.156  0.0698 -0.0073  0.5845
 9679TIP3    H228995   7.400   7.688   1.090 -0.2232 -0.0316  0.9077
 9680TIP3   OH228996   3.260   0.424   4.288  0.1894 -0.2710 -0.2682
 9680TIP3    H128997   3.227   0.440   4.200 -0.3329 -0.4291 -0.1010
 9680TIP3    H228998   3.190   0.452   4.347 -0.0510 -1.5091  0.0714
 9681TIP3   OH228999   7.691   0.176   3.433  0.0491  0.2312 -0.2140
 9681TIP3    H129000   7.690   0.095   3.484  0.6042  0.3521  0.0042
 9681TIP3    H229001   7.744   0.236   3.485  0.3958  0.4451 -0.8012
 9682TIP3   OH229002   4.643   5.611   1.516 -0.0352 -0.3799 -0.5583
 9682TIP3    H129003   4.667   5.704   1.510 -0.9063 -0.1401 -0.4308
 9682TIP3    H229004   4.549   5.609   1.500 -0.1022 -1.1934 -0.1122
 9683TIP3   OH229005   2.751   3.642   6.167  0.0406  0.4152 -0.1356
 9683TIP3    H129006   2.845   3.626   6.162 -0.0454 -1.2891  2.0699
 9683TIP3    H229007   2.714   3.559   6.197 -2.0714  1.2984 -0.1040
 9684TIP3   OH229008   4.225   2.226   4.945  0.4209 -0.1456 -0.2141
 9684TIP3    H129009   4.306   2.178   4.961  0.6965  0.1332 -0.7236
 9684TIP3    H229010   4.213   2.222   4.850 -0.4991 -0.7102 -0.0902
 9685TIP3   OH229011   0.653   4.809   0.544  0.6185  0.1730  0.0856
 9685TIP3    H129012   0.625   4.718   0.528 -1.8474  0.5943  1.4366
 9685TIP3    H229013   0.704   4.804   0.624  1.8856 -0.2104 -0.7269
 9686TIP3   OH229014   4.226   6.890   6.535 -0.7546  0.8908  0.0046
 9686TIP3    H129015   4.223   6.824   6.466  0.1272  1.5595 -0.6853
 9686TIP3    H229016   4.308   6.872   6.582 -1.3764  0.3985  0.9322
 9687TIP3   OH229017   2.612   0.111   4.970 -0.3543  0.2655  0.0813
 9687TIP3    H129018   2.621   0.053   5.046  0.2984 -0.0077 -0.1934
 9687TIP3    H229019   2.532   0.161   4.987 -0.7453 -0.4804  0.4812
 9688TIP3   OH229020   1.404   7.304   4.192  0.3996 -0.2677 -1.0371
 9688TIP3    H129021   1.449   7.296   4.107  0.2425 -2.4627 -0.9823
 9688TIP3    H229022   1.363   7.218   4.205 -1.1172  0.6225  0.4324
 9689TIP3   OH229023   4.920   4.050   5.225 -0.2289 -0.0796  0.6820
 9689TIP3    H129024   4.918   4.093   5.140 -0.6625 -0.0010  0.7319
 9689TIP3    H229025   4.901   4.120   5.288  2.9334  0.5296  1.1273
 9690TIP3   OH229026   7.997   5.101   1.320 -0.4206 -0.0433 -0.0612
 9690TIP3    H129027   8.014   5.106   1.226 -0.2279  0.3027 -0.0101
 9690TIP3    H229028   7.927   5.165   1.334 -0.6585 -0.3124 -0.0161
 9691TIP3   OH229029   0.593   2.198   4.702  0.1496  0.3524 -0.5303
 9691TIP3    H129030   0.653   2.271   4.685  0.5332  0.0955 -0.3034
 9691TIP3    H229031   0.520   2.236   4.750  0.2403  0.6279 -0.6126
 9692TIP3   OH229032   2.557   0.316   1.719  0.0263 -0.0130 -0.2002
 9692TIP3    H129033   2.504   0.390   1.748  1.5582  0.4260  1.6552
 9692TIP3    H229034   2.507   0.238   1.742  0.6114  0.3582  2.6391
 9693TIP3   OH229035   7.797   2.989   4.134  0.2066 -0.3273 -0.5522
 9693TIP3    H129036   7.878   3.031   4.163  2.2395 -3.3547 -1.3332
 9693TIP3    H229037   7.786   2.915   4.194 -0.0589 -1.9024 -2.4499
 9694TIP3   OH229038   8.256   1.786   1.039  0.1532  0.9014 -0.1500
 9694TIP3    H129039   8.177   1.744   1.006 -0.5347  1.3452  0.8746
 9694TIP3    H229040   8.313   1.714   1.065 -0.3695  0.5932  0.1407
 9695TIP3   OH229041   8.113   1.123   3.230  0.2493 -0.5129 -0.3433
 9695TIP3    H129042   8.108   1.058   3.300  0.0729  0.8032  0.9215
 9695TIP3    H229043   8.207   1.134   3.215  0.4376  0.9032  1.4315
 9696TIP3   OH229044   0.334   0.205   0.928  0.5975 -0.1517 -0.0414
 9696TIP3    H129045   0.255   0.168   0.967  0.0787  0.8302 -0.1177
 9696TIP3    H229046   0.305   0.289   0.893  1.6988  0.2496 -0.0061
 9697TIP3   OH229047   3.000   5.621   2.481  0.2378  0.4466 -0.1444
 9697TIP3    H129048   3.071   5.574   2.436  0.5074  1.0294 -0.3307
 9697TIP3    H229049   3.032   5.710   2.490 -1.2392  1.2312 -1.9821
 9698TIP3   OH229050   3.436   1.191   6.691  0.3101 -0.3257  0.5470
 9698TIP3    H129051   3.381   1.253   6.737  1.2517  0.1751  1.0188
 9698TIP3    H229052   3.455   1.234   6.607 -0.2935 -0.6531  0.2350
 9699TIP3   OH229053   7.411   2.690   0.166  0.7032  0.4689  0.1473
 9699TIP3    H129054   7.469   2.764   0.146 -0.1422  1.6627  1.9009
 9699TIP3    H229055   7.329   2.712   0.123  1.0858 -0.5571 -1.1726
 9700TIP3   OH229056   0.619   5.799   1.203  0.1874 -0.2825  0.0508
 9700TIP3    H129057   0.682   5.826   1.136  0.1190 -0.1566  0.0380
 9700TIP3    H229058   0.649   5.842   1.283  0.3662 -0.5670  0.1387
 9701TIP3   OH229059   2.232   0.480   4.413  0.0970 -0.0652  0.0749
 9701TIP3    H129060   2.260   0.571   4.407 -0.7381  0.2405  0.5982
 9701TIP3    H229061   2.201   0.459   4.325  0.7216 -0.0015 -0.1688
 9702TIP3   OH229062   1.459   2.260   4.429 -0.9674  0.5846 -0.1836
 9702TIP3    H129063   1.518   2.272   4.503  0.9098  1.4551 -1.7458
 9702TIP3    H229064   1.474   2.169   4.402 -0.6005  0.6890 -0.3429
 9703TIP3   OH229065   5.733   0.692   3.743 -0.2577 -0.1989 -0.0369
 9703TIP3    H129066   5.753   0.703   3.836 -1.6397 -1.8806  0.5046
 9703TIP3    H229067   5.642   0.661   3.741 -1.7532  3.5675 -2.1620
 9704TIP3   OH229068   4.733   7.804   6.334  0.4779 -0.3182 -0.1193
 9704TIP3    H129069   4.699   7.871   6.393  0.0827 -0.0206 -0.6827
 9704TIP3    H229070   4.681   7.726   6.354  1.7393 -0.8414  1.3977
 9705TIP3   OH229071   8.173   2.768   6.153  0.4423  0.3103 -0.3900
 9705TIP3    H129072   8.086   2.761   6.114  1.5827 -1.2608 -2.8998
 9705TIP3    H229073   8.168   2.716   6.234 -0.9899  0.4101 -0.4040
 9706TIP3   OH229074   1.991   5.140   6.727  0.0766  0.3462 -0.3693
 9706TIP3    H129075   1.975   5.176   6.639 -0.8933  1.1087  0.0988
 9706TIP3    H229076   2.018   5.215   6.779  3.1803 -0.4910 -0.5437
 9707TIP3   OH229077   7.325   2.935   0.331 -0.1444  0.4280 -0.2142
 9707TIP3    H129078   7.317   2.886   0.413 -1.8556 -1.3452 -1.3799
 9707TIP3    H229079   7.418   2.930   0.309  0.0613 -0.4824  0.7813
 9708TIP3   OH229080   4.804   0.546   1.996  0.1232 -0.0656 -0.6410
 9708TIP3    H129081   4.826   0.529   1.905  0.3486 -0.7436 -0.4683
 9708TIP3    H229082   4.889   0.546   2.041  0.0843  1.0229 -0.5439
 9709TIP3   OH229083   2.702   5.318   4.174  0.4167 -0.0964  0.3007
 9709TIP3    H129084   2.622   5.291   4.130 -0.0875 -0.8877  1.6500
 9709TIP3    H229085   2.685   5.303   4.267  1.0091  2.5930  0.9302
 9710TIP3   OH229086   2.425   2.121   5.480 -0.1811  0.0171  0.0089
 9710TIP3    H129087   2.475   2.202   5.481 -1.7371  1.0067  0.2906
 9710TIP3    H229088   2.386   2.118   5.393 -2.3485  1.0208  0.8830
 9711TIP3   OH229089   2.919   2.120   2.879  0.5811 -0.3618  0.3913
 9711TIP3    H129090   2.885   2.091   2.795 -2.2974 -0.8208  1.5730
 9711TIP3    H229091   2.916   2.216   2.875  0.6132 -0.3841 -0.1049
 9712TIP3   OH229092   7.364   2.853   4.142 -0.1480 -0.6986  0.5569
 9712TIP3    H129093   7.360   2.785   4.210  0.5546 -0.5674  0.7386
 9712TIP3    H229094   7.428   2.916   4.175  2.5106 -2.1090 -1.5155
 9713TIP3   OH229095   4.219   0.119   0.504  0.3625  0.1872  0.1748
 9713TIP3    H129096   4.181   0.148   0.421 -1.3860  1.0240  1.2208
 9713TIP3    H229097   4.290   0.181   0.520 -0.9509  1.6623  0.5460
 9714TIP3   OH229098   7.428   2.177   0.596 -0.4798 -0.5620 -0.3244
 9714TIP3    H129099   7.341   2.213   0.579 -0.8547 -0.7849  1.0439
 9714TIP3    H229100   7.479   2.252   0.627 -0.9193 -0.9204  1.3440
 9715TIP3   OH229101   2.144   6.837   0.484  0.4443  0.0881 -0.1761
 9715TIP3    H129102   2.197   6.867   0.558 -0.6174  1.9065 -0.0884
 9715TIP3    H229103   2.078   6.905   0.473 -1.3388 -1.6489 -0.8495
 9716TIP3   OH229104   3.620   2.729   6.540  0.3670 -0.5346 -0.0207
 9716TIP3    H129105   3.633   2.814   6.582  0.8868 -0.5166 -0.2110
 9716TIP3    H229106   3.571   2.678   6.603  0.8408 -0.3925  0.4696
 9717TIP3   OH229107   3.283   5.255   3.725  0.4299 -0.4473  0.1344
 9717TIP3    H129108   3.356   5.219   3.674  0.7489 -0.4896  0.6220
 9717TIP3    H229109   3.230   5.303   3.660  0.6891 -0.7210 -0.2846
 9718TIP3   OH229110   6.261   0.158   0.865  0.6167  0.1748 -0.1393
 9718TIP3    H129111   6.274   0.163   0.770  0.1678  1.8336 -0.1321
 9718TIP3    H229112   6.349   0.141   0.900  0.6724 -1.2032 -0.8705
 9719TIP3   OH229113   3.763   5.716   5.890 -0.6145 -0.2859 -0.1790
 9719TIP3    H129114   3.695   5.673   5.942  0.4281 -0.6110  0.9841
 9719TIP3    H229115   3.825   5.750   5.956  0.3030  0.0559 -1.1927
 9720TIP3   OH229116   7.426   5.307   2.335  0.5089 -0.6462  0.1798
 9720TIP3    H129117   7.342   5.298   2.380  0.9843  0.1475  1.2623
 9720TIP3    H229118   7.417   5.385   2.281  0.4904 -0.6597  0.1633
 9721TIP3   OH229119   1.895   1.366   4.879  0.2578  0.0151 -0.3611
 9721TIP3    H129120   1.854   1.302   4.937  0.8062 -0.7199 -0.7682
 9721TIP3    H229121   1.900   1.446   4.932 -1.3177  0.0199 -0.1685
 9722TIP3   OH229122   4.487   0.211   0.524 -0.2677  0.5266  0.4045
 9722TIP3    H129123   4.533   0.241   0.602 -0.7691 -0.2387  1.0088
 9722TIP3    H229124   4.524   0.263   0.453  1.9916 -0.4697  0.7647
 9723TIP3   OH229125   1.790   4.820   0.110 -0.4077  0.7705  0.2619
 9723TIP3    H129126   1.871   4.857   0.143  0.0591 -0.7454  0.8867
 9723TIP3    H229127   1.722   4.859   0.164  0.3912 -2.4536  3.9851
 9724TIP3   OH229128   3.770   2.829   2.092  0.4439 -0.2587 -0.3575
 9724TIP3    H129129   3.816   2.745   2.094  1.1169  0.1063  0.0044
 9724TIP3    H229130   3.698   2.816   2.031 -2.0587 -2.4118  2.7547
 9725TIP3   OH229131   1.034   2.143   2.577 -0.1659 -0.1364  0.2815
 9725TIP3    H129132   0.989   2.152   2.492 -2.1898  2.0117  1.4678
 9725TIP3    H229133   1.086   2.223   2.585 -1.1968  0.4341  1.6811
 9726TIP3   OH229134   7.029   7.750   6.692 -0.0155  0.2572 -0.0753
 9726TIP3    H129135   7.061   7.669   6.732  0.1858  0.0374 -0.6822
 9726TIP3    H229136   6.940   7.730   6.666  0.2427  0.0234 -0.8008
 9727TIP3   OH229137   3.805   6.437   1.612  0.4770 -0.4136 -0.1390
 9727TIP3    H129138   3.836   6.385   1.538  0.6549  0.7490 -0.9036
 9727TIP3    H229139   3.879   6.437   1.673  1.2530  0.6254 -1.0429
 9728TIP3   OH229140   3.507   6.590   5.166 -0.4105  0.5117  0.0407
 9728TIP3    H129141   3.475   6.607   5.254 -0.4021 -1.1029  0.3960
 9728TIP3    H229142   3.494   6.672   5.119  2.1805  2.3700  2.2513
 9729TIP3   OH229143   4.442   5.652   1.959  0.2512  0.3585  0.3791
 9729TIP3    H129144   4.519   5.697   1.924  1.0650 -1.6217 -0.5110
 9729TIP3    H229145   4.398   5.615   1.882 -1.8878  1.7992  0.8104
 9730TIP3   OH229146   5.030   2.280   4.845  0.0773  0.4462  0.0663
 9730TIP3    H129147   5.020   2.261   4.938  0.3036 -3.2705 -0.4987
 9730TIP3    H229148   5.010   2.373   4.836  0.4511  1.0166  3.8400
 9731TIP3   OH229149   4.998   6.294   3.322 -0.1127  0.5540  0.3193
 9731TIP3    H129150   4.919   6.338   3.352 -0.1288  1.6320 -1.1701
 9731TIP3    H229151   4.974   6.201   3.319 -1.2335  0.8348  0.1613
 9732TIP3   OH229152   2.290   5.904   1.755  0.3291 -0.1304  0.4859
 9732TIP3    H129153   2.261   5.826   1.802 -0.9512 -0.2532 -0.4672
 9732TIP3    H229154   2.210   5.955   1.741  0.9484  0.7169 -0.0704
 9733TIP3   OH229155   0.904   3.810   3.571 -0.8179  0.0975 -0.1078
 9733TIP3    H129156   0.833   3.749   3.552 -1.0571  0.9181 -2.1837
 9733TIP3    H229157   0.865   3.897   3.556  0.3585  0.5966 -0.3640
 9734TIP3   OH229158   0.230   3.422   3.528 -0.7257  0.0188 -0.5653
 9734TIP3    H129159   0.242   3.425   3.433  0.0974  0.2497 -0.4593
 9734TIP3    H229160   0.197   3.510   3.550  0.8603  0.6103 -0.4203
 9735TIP3   OH229161  -0.019   4.741   0.352 -0.0069 -0.0865 -0.0950
 9735TIP3    H129162   0.075   4.744   0.334 -0.0694  0.9180 -0.2914
 9735TIP3    H229163  -0.046   4.833   0.357 -0.7153 -0.3394  1.3674
 9736TIP3   OH229164   3.546   3.271   5.616  0.0255 -0.5427  0.1284
 9736TIP3    H129165   3.471   3.242   5.668 -0.9533 -0.3397 -1.1260
 9736TIP3    H229166   3.570   3.194   5.564  0.6677 -0.5882  0.4768
 9737TIP3   OH229167   5.900   5.308   0.963 -0.4943 -0.5372 -0.1709
 9737TIP3    H129168   5.881   5.288   1.055 -1.3390 -0.9244 -0.4201
 9737TIP3    H229169   5.824   5.275   0.915 -0.0731 -0.3140 -1.0105
 9738TIP3   OH229170   5.454   2.867   4.367 -0.2204  1.3988 -0.0144
 9738TIP3    H129171   5.448   2.854   4.461  1.3154 -1.6326 -0.2203
 9738TIP3    H229172   5.536   2.913   4.353 -0.2623  1.5075  0.1001
 9739TIP3   OH229173   2.635   0.283   3.617 -0.4032  0.1249  0.5992
 9739TIP3    H129174   2.592   0.326   3.691  2.1386  1.0639  1.6331
 9739TIP3    H229175   2.604   0.331   3.540  1.5260  3.3021  1.6242
 9740TIP3   OH229176   0.835   1.524   2.696  0.0617  0.3538  0.5861
 9740TIP3    H129177   0.880   1.488   2.620  0.5774 -1.3018  1.6257
 9740TIP3    H229178   0.752   1.558   2.661  1.2702  1.7818 -1.0580
 9741TIP3   OH229179   5.710   2.936   2.718  0.4445 -0.2569 -0.3608
 9741TIP3    H129180   5.788   2.955   2.665  1.2369 -0.3211  0.7510
 9741TIP3    H229181   5.686   3.021   2.756  1.3289 -0.6060  1.0645
 9742TIP3   OH229182   0.634   1.594   1.888  0.2066  0.1069 -0.3109
 9742TIP3    H129183   0.582   1.675   1.893  0.2089  0.1063 -0.2747
 9742TIP3    H229184   0.718   1.622   1.851  0.9487  0.4903  1.5436
 9743TIP3   OH229185   3.193   4.649   1.063  0.4092  0.0724  0.7726
 9743TIP3    H129186   3.227   4.692   1.142  2.2110  1.2086 -0.5478
 9743TIP3    H229187   3.099   4.668   1.064  0.1477 -0.9660  3.2226
 9744TIP3   OH229188   8.214   0.712   6.106  0.1418  0.2244 -0.7490
 9744TIP3    H129189   8.248   0.634   6.062  0.4025  0.1017 -0.3396
 9744TIP3    H229190   8.285   0.775   6.102 -0.3188  0.6917 -1.6917
 9745TIP3   OH229191   2.471   6.556   0.037 -0.3780  0.0794  0.2738
 9745TIP3    H129192   2.387   6.519   0.008 -0.6625 -0.2279  1.4528
 9745TIP3    H229193   2.537   6.509  -0.015 -0.8035 -1.2761  0.9278
 9746TIP3   OH229194   3.335   7.481   0.502  0.0602  0.2586  0.0607
 9746TIP3    H129195   3.340   7.431   0.421 -0.0527 -0.2187  0.3495
 9746TIP3    H229196   3.426   7.503   0.522  0.0109  1.3667 -0.8014
 9747TIP3   OH229197   6.311   5.300   4.724  0.7156  0.1020  0.1168
 9747TIP3    H129198   6.372   5.368   4.697 -0.6771  1.4110  0.1635
 9747TIP3    H229199   6.264   5.276   4.644  0.7016 -0.2863  0.2396
 9748TIP3   OH229200   2.160   4.477   0.246 -0.3742 -0.1169  0.0147
 9748TIP3    H129201   2.097   4.435   0.304  0.4525 -0.1237  0.9327
 9748TIP3    H229202   2.238   4.489   0.300 -0.1068  1.2934 -0.6390
 9749TIP3   OH229203   0.913   1.449   5.555 -0.0296 -0.0940 -0.1675
 9749TIP3    H129204   0.822   1.428   5.532 -0.1458 -0.0242  0.2077
 9749TIP3    H229205   0.907   1.537   5.593  0.1810 -0.1258 -0.0627
 9750TIP3   OH229206   5.787   1.816   0.968 -1.0282  0.2125 -0.4807
 9750TIP3    H129207   5.726   1.890   0.973 -0.8128  0.3361  0.4736
 9750TIP3    H229208   5.780   1.785   0.878 -2.0754  0.5895 -0.5416
 9751TIP3   OH229209   3.916   1.971   4.228 -0.3331  0.2820  0.3346
 9751TIP3    H129210   3.930   2.013   4.313 -2.2939 -0.6071  1.1585
 9751TIP3    H229211   4.001   1.935   4.205  0.2445  0.5488  1.9105
 9752TIP3   OH229212   2.793   5.087   4.679  0.0723 -0.1617  0.0113
 9752TIP3    H129213   2.832   5.173   4.692  1.4507 -0.7815  0.2036
 9752TIP3    H229214   2.815   5.065   4.588  1.6590 -1.2033  0.6061
 9753TIP3   OH229215   0.513   6.758   0.592 -0.0102  0.6036  0.1528
 9753TIP3    H129216   0.512   6.843   0.546 -0.4763  0.0174 -0.9490
 9753TIP3    H229217   0.453   6.770   0.665 -1.4018  0.7263 -0.9621
 9754TIP3   OH229218   3.921   7.814   1.083  0.4553  0.2903  0.0513
 9754TIP3    H129219   3.988   7.869   1.121  1.5945 -1.6608  1.0008
 9754TIP3    H229220   3.966   7.764   1.015 -0.0042 -1.0095  0.6627
 9755TIP3   OH229221   3.371   6.435   0.853 -0.6816 -0.2448 -0.1386
 9755TIP3    H129222   3.306   6.486   0.902  0.1020  0.5585  0.1072
 9755TIP3    H229223   3.372   6.474   0.766 -0.3032 -0.0433 -0.0454
 9756TIP3   OH229224   5.585   3.833   4.964 -0.0252  0.6120 -0.1368
 9756TIP3    H129225   5.678   3.813   4.955 -0.1302 -0.1286  0.3702
 9756TIP3    H229226   5.582   3.906   5.026  0.0584 -1.7792  2.9284
 9757TIP3   OH229227   5.962   5.364   1.299  0.0279 -0.0071 -0.3292
 9757TIP3    H129228   5.945   5.356   1.393  0.2691 -0.9563 -0.3516
 9757TIP3    H229229   5.935   5.453   1.277 -0.6817 -0.0012  0.5048
 9758TIP3   OH229230   5.719   7.030   6.531 -0.5646 -0.5928  0.3879
 9758TIP3    H129231   5.779   7.057   6.601 -2.0996  1.1504  1.1080
 9758TIP3    H229232   5.632   7.052   6.564 -1.4737 -1.2050 -1.4497
 9759TIP3   OH229233   3.432   3.912   1.851  0.1011  0.1249 -0.1334
 9759TIP3    H129234   3.487   3.835   1.864  1.3972  0.8992 -0.8281
 9759TIP3    H229235   3.477   3.963   1.784 -0.3093  1.8468  0.8263
 9760TIP3   OH229236   3.335   0.092   4.856 -0.7959  0.0694 -0.0532
 9760TIP3    H129237   3.365   0.174   4.894 -0.0749 -0.3914  0.4025
 9760TIP3    H229238   3.282   0.051   4.924 -1.8090  0.5124 -0.5670
 9761TIP3   OH229239   0.457   0.513   2.051 -0.2529 -0.2882  0.8864
 9761TIP3    H129240   0.459   0.577   1.980 -1.0363  2.9786  3.5472
 9761TIP3    H229241   0.528   0.453   2.031  0.6796  1.4968 -1.7274
 9762TIP3   OH229242   4.817   0.048   2.295 -0.1584 -0.2489  0.2131
 9762TIP3    H129243   4.736  -0.002   2.291 -1.4392  1.7122  0.0118
 9762TIP3    H229244   4.830   0.080   2.205  0.6624 -0.2683  0.3121
 9763TIP3   OH229245   4.144   3.388   4.390  0.0933  0.0395 -0.3118
 9763TIP3    H129246   4.184   3.401   4.303 -0.7026  0.7233 -0.5921
 9763TIP3    H229247   4.218   3.366   4.447  1.2137  2.9651 -0.4265
 9764TIP3   OH229248   0.559   5.628   4.492 -0.6649  0.4478  0.0161
 9764TIP3    H129249   0.650   5.657   4.492 -0.9093  1.2684  0.5572
 9764TIP3    H229250   0.543   5.597   4.403  0.4300 -0.6830  0.1941
 9765TIP3   OH229251   7.934   5.584   5.027  0.4186 -0.8746 -0.1533
 9765TIP3    H129252   7.983   5.662   5.001  1.0301 -1.4994 -0.9532
 9765TIP3    H229253   7.854   5.618   5.068 -0.2930  0.2093 -2.2641
 9766TIP3   OH229254   2.311   1.753   3.591 -0.5399 -0.5986 -0.1873
 9766TIP3    H129255   2.256   1.757   3.669 -0.9160 -0.4862 -0.4556
 9766TIP3    H229256   2.392   1.711   3.621 -0.1570  0.6074  0.5717
 9767TIP3   OH229257   2.488   5.739   2.564  0.1394 -0.2295 -0.2633
 9767TIP3    H129258   2.579   5.711   2.555  0.1698 -0.7135  1.2730
 9767TIP3    H229259   2.437   5.660   2.547  0.0259 -0.0854 -0.5953
 9768TIP3   OH229260   1.477   1.076   0.703  0.0445  0.2366 -0.3668
 9768TIP3    H129261   1.419   1.080   0.779  0.5340 -2.4055  0.2483
 9768TIP3    H229262   1.528   1.158   0.707 -0.6638  0.6288  1.5271
 9769TIP3   OH229263   6.473   2.731   1.670  0.7955 -0.1447  0.1987
 9769TIP3    H129264   6.464   2.655   1.613  1.9262  0.7389 -1.2176
 9769TIP3    H229265   6.384   2.767   1.675  0.6817 -0.2018 -1.0827
 9770TIP3   OH229266   5.117   4.668   6.582 -0.2359  0.5366  0.0650
 9770TIP3    H129267   5.166   4.749   6.570 -1.6095  1.1123 -2.1173
 9770TIP3    H229268   5.161   4.605   6.525  0.2244 -0.0013  0.9960
 9771TIP3   OH229269   5.739   5.848   4.699  0.2965  0.1332 -0.2298
 9771TIP3    H129270   5.688   5.920   4.737 -0.9382 -1.1826  0.7112
 9771TIP3    H229271   5.804   5.827   4.767  0.1130 -0.1811 -0.1502
 9772TIP3   OH229272   6.002   4.235   1.654  0.2872 -1.0504 -0.1294
 9772TIP3    H129273   6.079   4.236   1.597 -0.7345 -0.5531 -1.5731
 9772TIP3    H229274   6.015   4.308   1.715 -0.9663  1.9898 -3.1763
 9773TIP3   OH229275   4.428   2.915   2.496 -0.4940 -0.2336 -0.4804
 9773TIP3    H129276   4.350   2.904   2.441 -1.4966  3.1422  0.0532
 9773TIP3    H229277   4.482   2.978   2.449  0.3003  0.0431  0.7555
 9774TIP3   OH229278   5.282   7.274   6.708  0.2626 -0.0732  0.4382
 9774TIP3    H129279   5.261   7.362   6.677 -1.6093  0.1600  2.1595
 9774TIP3    H229280   5.214   7.254   6.772  2.1175 -1.7505  2.0397
 9775TIP3   OH229281   0.876   3.108   5.164 -0.1527  0.0579  0.1972
 9775TIP3    H129282   0.924   3.064   5.235 -0.5579  0.4157  0.7019
 9775TIP3    H229283   0.883   3.048   5.090  1.0246  0.0853  0.2713
 9776TIP3   OH229284   6.104   2.093   5.331 -0.4762 -0.1226 -0.6169
 9776TIP3    H129285   6.151   2.169   5.296 -0.5084  1.1163  1.7862
 9776TIP3    H229286   6.168   2.022   5.328  0.2586  0.5345 -0.9888
 9777TIP3   OH229287   7.334   3.534   4.957 -0.1892  0.1220 -0.0755
 9777TIP3    H129288   7.275   3.549   4.883  0.4152 -1.6064 -0.9594
 9777TIP3    H229289   7.330   3.439   4.971  0.4988  0.2963  1.4621
 9778TIP3   OH229290   2.233   5.014   6.619 -0.1005 -0.3186 -0.6854
 9778TIP3    H129291   2.182   5.055   6.550  1.1028 -0.0594 -1.4634
 9778TIP3    H229292   2.186   5.034   6.700 -0.4597  1.1194 -1.2229
 9779TIP3   OH229293   4.371   1.414   2.119 -0.3163  0.1574 -0.0883
 9779TIP3    H129294   4.404   1.324   2.119 -1.5895 -0.4102  2.2706
 9779TIP3    H229295   4.281   1.406   2.150 -0.8650  2.1516 -1.0265
 9780TIP3   OH229296   7.202   6.259   2.198  0.1928 -0.2499  0.0183
 9780TIP3    H129297   7.204   6.179   2.251 -0.2511  0.2335  0.7752
 9780TIP3    H229298   7.222   6.329   2.260 -0.9417  0.3859 -0.3180
 9781TIP3   OH229299   2.022   4.886   2.574  0.0000 -0.0909 -0.9603
 9781TIP3    H129300   1.981   4.856   2.655  0.5363  1.2212 -0.1795
 9781TIP3    H229301   1.955   4.871   2.507 -0.4076 -1.3107 -0.3233
 9782TIP3   OH229302   6.040   6.195   0.112  0.0520  1.1201 -0.2012
 9782TIP3    H129303   6.123   6.217   0.154  0.0857  0.6712 -0.0315
 9782TIP3    H229304   6.021   6.106   0.141  0.1907  0.7077 -1.3175
 9783TIP3   OH229305   8.039   3.238   2.875  0.0143  0.0163  0.1952
 9783TIP3    H129306   8.036   3.292   2.954  2.0242 -0.6663  0.7987
 9783TIP3    H229307   8.132   3.225   2.859 -0.3444  0.3573 -2.4792
 9784TIP3   OH229308   0.767   7.337   5.630  0.0217  0.5125 -0.1832
 9784TIP3    H129309   0.786   7.362   5.720  1.7778 -2.4007  0.4019
 9784TIP3    H229310   0.852   7.333   5.588 -0.5966  0.0880 -1.4478
 9785TIP3   OH229311   5.291   0.953   3.968 -0.3264 -0.4292  0.1686
 9785TIP3    H129312   5.262   1.010   3.897  2.2576 -0.7495 -1.2449
 9785TIP3    H229313   5.222   0.962   4.035 -1.2515  2.3802 -1.0050
 9786TIP3   OH229314   5.910   4.122   0.750 -0.0518 -0.0697  0.0536
 9786TIP3    H129315   5.996   4.080   0.743  0.4034  0.8008  0.3520
 9786TIP3    H229316   5.860   4.064   0.808  1.0025  0.4832  1.5655
 9787TIP3   OH229317   3.808   5.044   2.090 -0.6866 -0.0183  0.1636
 9787TIP3    H129318   3.814   5.025   1.996  1.7655  1.7920 -0.1249
 9787TIP3    H229319   3.862   5.121   2.103 -2.0703  0.6196  2.8945
 9788TIP3   OH229320   3.434   6.492   2.856  0.4835 -0.1739  0.5834
 9788TIP3    H129321   3.479   6.535   2.783 -1.0182  0.6024  0.0785
 9788TIP3    H229322   3.382   6.561   2.897  0.2738 -0.8917  1.5832
 9789TIP3   OH229323   3.304   2.737   4.680  0.8966 -0.1420 -0.3664
 9789TIP3    H129324   3.213   2.758   4.702  1.0527 -0.8866  1.0945
 9789TIP3    H229325   3.304   2.730   4.585 -0.0510  2.2266 -0.6043
 9790TIP3   OH229326   0.491   4.746   4.330 -0.3530  0.2936  0.5229
 9790TIP3    H129327   0.487   4.697   4.249 -0.9607  0.0783  0.6808
 9790TIP3    H229328   0.415   4.804   4.327 -0.3304  0.3473  0.8960
 9791TIP3   OH229329   2.950   2.211   3.240  0.1520  0.3981 -0.0782
 9791TIP3    H129330   2.902   2.202   3.322 -0.0059 -0.2167 -0.2345
 9791TIP3    H229331   2.934   2.129   3.193 -1.7497  1.6158 -1.7907
 9792TIP3   OH229332   7.216   2.240   4.692  0.3741 -0.2590  0.5478
 9792TIP3    H129333   7.205   2.292   4.772 -2.4666 -0.7038  0.5625
 9792TIP3    H229334   7.234   2.305   4.624  0.3281  0.3935  1.1482
 9793TIP3   OH229335   6.576   3.531   0.391  1.1281 -0.1180  0.2080
 9793TIP3    H129336   6.597   3.521   0.484  2.0711  0.0676  0.0164
 9793TIP3    H229337   6.480   3.539   0.390  1.0730 -0.4971  1.1256
 9794TIP3   OH229338   4.561   7.242   4.737 -0.3052 -0.3280 -0.1673
 9794TIP3    H129339   4.600   7.161   4.769 -0.6723 -0.9253 -1.1707
 9794TIP3    H229340   4.500   7.269   4.806 -0.1055 -0.8495  0.2214
 9795TIP3   OH229341   1.235   5.991   3.040  0.2227  0.0281 -0.2901
 9795TIP3    H129342   1.250   5.909   2.992  0.0989  0.8734 -1.8307
 9795TIP3    H229343   1.190   5.963   3.120  0.7589 -1.4694 -0.4698
 9796TIP3   OH229344   2.951   0.049   4.183 -0.3418 -0.1106 -0.5511
 9796TIP3    H129345   2.991  -0.006   4.115 -0.4243  0.8876 -1.4194
 9796TIP3    H229346   3.002   0.029   4.262  1.4469  0.5958 -1.4683
 9797TIP3   OH229347   3.587   7.204   3.613  0.6097  0.2171  0.5202
 9797TIP3    H129348   3.544   7.177   3.532  0.2421 -0.0225  0.7908
 9797TIP3    H229349   3.676   7.228   3.586  0.3149  0.7233 -0.0479
 9798TIP3   OH229350   0.319   2.676   5.853  0.1310 -0.1633 -0.2011
 9798TIP3    H129351   0.350   2.738   5.787 -0.4471  1.1179  0.6686
 9798TIP3    H229352   0.394   2.619   5.870  0.9373  0.7703 -0.5069
 9799TIP3   OH229353   1.731   6.638   2.897 -0.1532  0.3606 -0.1468
 9799TIP3    H129354   1.783   6.706   2.939  1.0783 -0.7957  0.3143
 9799TIP3    H229355   1.661   6.619   2.958 -1.6460  2.4653 -1.1041
 9800TIP3   OH229356   2.150   0.516   1.405  0.4859  1.3211  0.2610
 9800TIP3    H129357   2.166   0.459   1.481  3.1250  2.7360  0.8881
 9800TIP3    H229358   2.082   0.471   1.356 -1.3448  0.3090  3.4091
 9801TIP3   OH229359   7.083   5.247   2.747 -0.1126 -0.2666  0.4671
 9801TIP3    H129360   7.037   5.194   2.812 -0.5543  0.7240  0.9908
 9801TIP3    H229361   7.033   5.329   2.743  1.8536  1.1072  1.4841
 9802TIP3   OH229362   3.416   2.516   2.764 -0.5496  0.2041  0.2963
 9802TIP3    H129363   3.328   2.480   2.772 -0.6620  0.6521  1.2524
 9802TIP3    H229364   3.455   2.505   2.851  0.4232 -0.1768 -0.1634
 9803TIP3   OH229365   6.910   1.062   2.253 -0.6122  0.8741  0.2222
 9803TIP3    H129366   6.864   0.979   2.264 -0.1363  0.8612  2.7055
 9803TIP3    H229367   6.877   1.098   2.171 -1.8250 -1.1243 -0.2181
 9804TIP3   OH229368   4.141   5.094   4.528  0.0210  0.4820 -0.6698
 9804TIP3    H129369   4.196   5.122   4.601 -0.5570 -0.0559 -0.0074
 9804TIP3    H229370   4.055   5.080   4.568  0.1073 -1.5081 -1.0843
 9805TIP3   OH229371   6.749   6.948   3.954 -0.1594 -0.1942  0.9112
 9805TIP3    H129372   6.730   7.031   3.910 -0.0846 -0.7280 -0.1730
 9805TIP3    H229373   6.716   6.881   3.893 -0.1319 -0.9572  1.7249
 9806TIP3   OH229374   4.291   4.301   3.372 -0.0372  0.4588 -0.2249
 9806TIP3    H129375   4.376   4.293   3.415  0.5186 -0.2363 -1.4169
 9806TIP3    H229376   4.272   4.395   3.372 -0.5567  0.4331  2.4287
 9807TIP3   OH229377   7.956   1.439   3.677  0.2619 -0.8424  0.0239
 9807TIP3    H129378   7.997   1.378   3.738 -0.5014 -0.2083  1.2205
 9807TIP3    H229379   8.000   1.523   3.693  0.4955 -0.8155 -0.7549
 9808TIP3   OH229380   8.267   0.427   3.133 -0.2357 -0.6071 -0.2289
 9808TIP3    H129381   8.262   0.382   3.217 -1.0538  1.9680  1.2211
 9808TIP3    H229382   8.340   0.489   3.144 -1.8839  1.4687 -0.4250
 9809TIP3   OH229383   0.803   4.317   6.702 -0.8084  0.2973 -0.6295
 9809TIP3    H129384   0.837   4.242   6.653 -1.3290  0.8600 -1.8679
 9809TIP3    H229385   0.873   4.338   6.764 -0.2343 -0.5731 -0.9639
 9810TIP3   OH229386   3.729   0.139   4.651 -0.3963 -0.0990 -0.8064
 9810TIP3    H129387   3.709   0.100   4.737  0.3027  0.2651 -0.4690
 9810TIP3    H229388   3.648   0.183   4.625 -0.1839  1.0856  0.3891
 9811TIP3   OH229389   4.880   5.203   0.505 -0.1218  0.1774 -0.0410
 9811TIP3    H129390   4.886   5.220   0.411  2.3159  0.4947  0.1124
 9811TIP3    H229391   4.842   5.115   0.511 -2.7787  1.1351 -1.1789
 9812TIP3   OH229392   3.421   5.375   1.006  0.3426 -0.4530  1.1964
 9812TIP3    H129393   3.485   5.393   1.075  2.1415 -2.4902  0.1532
 9812TIP3    H229394   3.422   5.455   0.952  0.2756  0.4331  2.4552
 9813TIP3   OH229395   5.801   3.966   5.348 -0.4943  0.3850  0.3691
 9813TIP3    H129396   5.823   4.059   5.343  1.8081 -0.1529 -1.2344
 9813TIP3    H229397   5.753   3.948   5.267  3.0359 -0.6201 -1.7027
 9814TIP3   OH229398   4.098   6.172   6.621  0.3630 -0.2058  0.0435
 9814TIP3    H129399   4.086   6.077   6.617 -1.9278 -0.0406  1.3166
 9814TIP3    H229400   4.112   6.190   6.714  0.4130  0.7353 -0.1371
 9815TIP3   OH229401   4.114   0.323   1.449 -0.1478  0.1356 -0.0623
 9815TIP3    H129402   4.048   0.369   1.503 -0.8428  0.8827 -1.4841
 9815TIP3    H229403   4.178   0.291   1.512 -1.2396  0.4485  1.2678
 9816TIP3   OH229404   1.576   0.976   5.982 -0.6773  0.3487  0.4391
 9816TIP3    H129405   1.548   1.067   5.992 -0.2893  0.3911  1.1693
 9816TIP3    H229406   1.663   0.973   6.021  0.3197  0.1900 -1.6777
 9817TIP3   OH229407   8.157   2.000   2.902  0.0401  0.6901  0.4180
 9817TIP3    H129408   8.183   2.087   2.933  0.5056 -0.1044  2.4245
 9817TIP3    H229409   8.220   1.940   2.942 -0.4408 -0.6192 -0.6863
 9818TIP3   OH229410   2.626   5.176   6.198  0.1345  0.0402 -0.7530
 9818TIP3    H129411   2.540   5.202   6.230  0.0933 -0.0457 -0.7922
 9818TIP3    H229412   2.656   5.109   6.260 -0.1227 -0.4222 -1.1165
 9819TIP3   OH229413   4.657   1.466   2.036 -0.2682  0.2597  0.6355
 9819TIP3    H129414   4.568   1.483   2.068 -0.4709 -0.8083  0.6858
 9819TIP3    H229415   4.692   1.552   2.015 -0.5313  0.9002  2.6485
 9820TIP3   OH229416   7.555   4.758   1.537  0.1557 -0.0441 -0.8193
 9820TIP3    H129417   7.574   4.780   1.446  0.3394  0.5048 -0.6579
 9820TIP3    H229418   7.515   4.671   1.534  1.0217 -0.4350 -1.3405
 9821TIP3   OH229419   6.403   6.769   5.439  0.0565 -0.0815 -0.1636
 9821TIP3    H129420   6.454   6.689   5.450  1.9259  1.0193 -0.4567
 9821TIP3    H229421   6.390   6.776   5.344 -0.6278 -0.3207 -0.0957
 9822TIP3   OH229422   2.101   0.072   2.572 -0.5225  0.4643  0.0089
 9822TIP3    H129423   2.169   0.107   2.629 -0.9490  1.7122 -0.2046
 9822TIP3    H229424   2.089   0.140   2.505 -1.8145  0.1884 -0.0674
 9823TIP3   OH229425   3.448   5.467   0.438 -0.7339  0.3079 -0.0618
 9823TIP3    H129426   3.426   5.450   0.529 -2.1157  3.5149  0.3265
 9823TIP3    H229427   3.536   5.504   0.440  0.6486 -2.6504 -0.5042
 9824TIP3   OH229428   6.474   3.763   2.036  0.3436 -0.2538 -0.2253
 9824TIP3    H129429   6.484   3.669   2.049 -3.2208 -0.8729 -0.8349
 9824TIP3    H229430   6.413   3.771   1.963 -1.9503  2.3854  1.7322
 9825TIP3   OH229431   8.008   5.535   5.681  0.3919 -0.3021 -0.0846
 9825TIP3    H129432   7.930   5.587   5.664  0.9928  0.0954 -1.7709
 9825TIP3    H229433   7.980   5.444   5.668  0.4752 -0.0927 -1.9866
 9826TIP3   OH229434   6.813   5.466   4.192  0.2072 -0.3121  0.2753
 9826TIP3    H129435   6.830   5.468   4.287 -0.8005  1.9498  0.4703
 9826TIP3    H229436   6.889   5.509   4.153 -0.3137  0.6372  0.2712
 9827TIP3   OH229437   0.767   7.252   1.961 -0.1730 -0.1567 -0.2643
 9827TIP3    H129438   0.788   7.242   1.868  1.5140  0.3570  0.0106
 9827TIP3    H229439   0.785   7.166   2.000  1.6263  0.2651 -0.0396
 9828TIP3   OH229440   7.729   4.840   1.752  0.0549 -0.1368  0.1113
 9828TIP3    H129441   7.790   4.892   1.700  0.9600 -0.6048  0.6715
 9828TIP3    H229442   7.673   4.797   1.688 -0.1509  0.8533 -0.3833
 9829TIP3   OH229443   5.593   4.693   4.228  0.6939 -0.7464 -0.4474
 9829TIP3    H129444   5.566   4.690   4.320  0.9286 -0.2258 -0.3573
 9829TIP3    H229445   5.688   4.700   4.232  0.8968 -2.7214 -0.7626
 9830TIP3   OH229446   4.174   4.325   6.340 -0.6225 -0.2574  0.7726
 9830TIP3    H129447   4.220   4.396   6.385  1.3605 -0.3847 -0.9300
 9830TIP3    H229448   4.135   4.367   6.264  1.5156 -1.0835 -0.8760
 9831TIP3   OH229449   6.801   0.546   3.310  0.2949 -0.6100 -0.3323
 9831TIP3    H129450   6.815   0.461   3.267 -0.6064 -1.6034  1.2319
 9831TIP3    H229451   6.873   0.554   3.372 -0.8192 -1.3466  1.1247
 9832TIP3   OH229452   2.106   1.630   3.108 -0.3684 -0.3094 -0.3186
 9832TIP3    H129453   2.147   1.543   3.111  0.5083  0.1296  1.0032
 9832TIP3    H229454   2.136   1.674   3.188 -1.1552  1.0591 -0.7460
 9833TIP3   OH229455   2.945   0.349   2.136 -0.5701 -0.1477 -1.1450
 9833TIP3    H129456   2.859   0.381   2.163  0.1028  0.5198  0.3398
 9833TIP3    H229457   2.986   0.423   2.093 -0.5242 -0.2950 -1.3572
 9834TIP3   OH229458   6.019   1.404   6.076 -0.2577 -0.2450  0.1394
 9834TIP3    H129459   6.093   1.359   6.118 -1.5624 -2.1981  0.4964
 9834TIP3    H229460   6.020   1.371   5.986 -0.3624  0.1524 -0.0064
 9835TIP3   OH229461   2.357   5.264   6.325 -0.0473  0.1668  0.0924
 9835TIP3    H129462   2.349   5.358   6.311  0.5952 -0.1189 -2.6882
 9835TIP3    H229463   2.281   5.226   6.280 -0.7550 -0.6491  1.8844
 9836TIP3   OH229464   6.835   7.685   4.524  0.3331 -0.1240  0.1169
 9836TIP3    H129465   6.920   7.683   4.569  0.4207  2.5327  0.2146
 9836TIP3    H229466   6.771   7.693   4.594  0.1904  0.2607 -0.0556
 9837TIP3   OH229467   0.136   7.423   0.226  0.3930 -0.0035 -0.4248
 9837TIP3    H129468   0.055   7.403   0.180  0.3413 -1.6969  0.3423
 9837TIP3    H229469   0.107   7.459   0.310  0.4444 -0.2174 -0.3158
 9838TIP3   OH229470   4.056   6.863   4.038 -0.3274  0.0185  0.6200
 9838TIP3    H129471   4.133   6.846   4.092  1.3572 -0.6648 -1.8305
 9838TIP3    H229472   4.090   6.870   3.949 -2.7860  2.3203 -0.2822
 9839TIP3   OH229473   6.013   6.852   4.513  0.4887  0.7104 -0.3942
 9839TIP3    H129474   5.935   6.798   4.524  0.1021  0.6807 -2.7594
 9839TIP3    H229475   6.085   6.795   4.539 -0.1511  0.1957  0.2939
 9840TIP3   OH229476   4.611   3.201   4.077 -0.2830 -0.1338  0.1315
 9840TIP3    H129477   4.584   3.113   4.051 -1.5416 -0.2132  1.6043
 9840TIP3    H229478   4.633   3.194   4.170 -1.1263  1.2522  0.4676
 9841TIP3   OH229479   7.122   7.248   3.421 -0.1877  0.4030  0.1174
 9841TIP3    H129480   7.160   7.275   3.338  1.2706  1.0816  0.9793
 9841TIP3    H229481   7.056   7.315   3.440  0.8060  1.3251  0.4139
 9842TIP3   OH229482   6.913   2.975   5.398 -0.1603  0.4347  0.0113
 9842TIP3    H129483   6.837   2.949   5.451  0.8565  0.5717  1.6054
 9842TIP3    H229484   6.920   3.070   5.411  0.8298  0.2872  0.6442
 9843TIP3   OH229485   2.570   7.099   4.397  0.3340  0.2657 -0.2624
 9843TIP3    H129486   2.488   7.055   4.420  0.4536  0.2305  0.1043
 9843TIP3    H229487   2.618   7.035   4.345  0.2472  0.1859 -0.2442
 9844TIP3   OH229488   3.915   0.280   4.845  0.0721  0.0481  0.0770
 9844TIP3    H129489   3.901   0.185   4.852  0.6273 -0.0693 -0.3403
 9844TIP3    H229490   3.995   0.289   4.793 -0.8242  0.7748 -1.2208
 9845TIP3   OH229491   0.392   4.834   4.708  0.1972  0.5109 -0.2477
 9845TIP3    H129492   0.366   4.750   4.744  0.5471  0.2928 -0.5008
 9845TIP3    H229493   0.471   4.816   4.656 -0.7056  0.6709 -1.7466
 9846TIP3   OH229494   7.651   4.373   5.939  0.3395  0.1127 -0.0032
 9846TIP3    H129495   7.619   4.418   5.861  1.4633  2.3859  0.7541
 9846TIP3    H229496   7.585   4.305   5.956 -0.6091  0.4045 -2.1315
 9847TIP3   OH229497   2.778   5.177   3.578 -0.3486  0.1255  0.4200
 9847TIP3    H129498   2.685   5.194   3.593 -0.2280  2.4607 -0.8741
 9847TIP3    H229499   2.791   5.195   3.485  1.0645 -2.0742  0.1177
 9848TIP3   OH229500   4.751   4.356   2.725 -0.0693  0.7330  0.0131
 9848TIP3    H129501   4.759   4.315   2.811 -0.5705  0.0897 -0.2360
 9848TIP3    H229502   4.738   4.449   2.743 -1.3023  0.4418  0.6805
 9849TIP3   OH229503   0.849   1.433   1.093 -0.3705 -0.2192 -0.4089
 9849TIP3    H129504   0.851   1.521   1.131  2.1618 -0.5518  0.4020
 9849TIP3    H229505   0.794   1.382   1.153  0.7804  0.0822  0.9498
 9850TIP3   OH229506   6.740   3.870   2.779 -0.3482  0.8775  0.3072
 9850TIP3    H129507   6.644   3.869   2.786 -0.4378 -0.2185 -0.8136
 9850TIP3    H229508   6.758   3.911   2.695  0.0941 -0.1968 -0.1460
 9851TIP3   OH229509   0.565   5.529   1.624  0.3722  0.3088 -0.5856
 9851TIP3    H129510   0.593   5.460   1.563 -0.9902  0.1197 -1.0460
 9851TIP3    H229511   0.565   5.487   1.710 -0.9922 -0.4763 -0.9342
 9852TIP3   OH229512   7.678   6.934   5.071 -0.2282  0.1557 -0.7851
 9852TIP3    H129513   7.738   6.942   5.145  2.3450  1.6312 -2.8365
 9852TIP3    H229514   7.610   6.999   5.087  0.1636  0.2919  0.3977
 9853TIP3   OH229515   2.891   4.677   1.146 -0.6305  0.2087  0.3378
 9853TIP3    H129516   2.918   4.620   1.218 -0.6441 -1.1064 -0.6738
 9853TIP3    H229517   2.842   4.748   1.189 -1.3818 -1.0033  1.5454
 9854TIP3   OH229518   0.747   3.682   2.466 -0.0039 -0.8795  0.0281
 9854TIP3    H129519   0.712   3.614   2.524 -0.8946 -0.4345  0.0237
 9854TIP3    H229520   0.678   3.748   2.462  0.5321 -0.3465 -0.6030
 9855TIP3   OH229521   6.841   7.516   0.984  0.0440  0.6183  0.1267
 9855TIP3    H129522   6.830   7.449   0.918 -0.8221  1.6690 -0.8391
 9855TIP3    H229523   6.867   7.595   0.936 -1.2997  1.5969  0.8999
 9856TIP3   OH229524   4.509   4.810   2.643 -0.2958 -0.7711  0.3859
 9856TIP3    H129525   4.446   4.745   2.673  0.2496 -1.4929 -0.0066
 9856TIP3    H229526   4.547   4.772   2.564 -1.7788  1.1194 -1.3308
 9857TIP3   OH229527   2.396   6.793   3.290 -0.1965  0.2448 -0.5653
 9857TIP3    H129528   2.368   6.745   3.211 -0.6878  0.5157 -0.5589
 9857TIP3    H229529   2.479   6.753   3.314 -0.8474 -0.9601 -0.2575
 9858TIP3   OH229530   6.360   1.383   2.223  0.1616 -0.1950 -0.1395
 9858TIP3    H129531   6.423   1.453   2.242  0.2945 -0.4877  0.4958
 9858TIP3    H229532   6.411   1.303   2.227 -0.2105 -0.4176  0.1630
 9859TIP3   OH229533   6.052   6.252   5.994  0.0527  0.0999  0.1395
 9859TIP3    H129534   5.974   6.305   6.009 -0.4807 -0.5261 -0.3382
 9859TIP3    H229535   6.103   6.302   5.931 -0.6098 -0.0951 -0.5725
 9860TIP3   OH229536   6.721   1.488   4.901 -0.5899  0.9905 -0.7418
 9860TIP3    H129537   6.767   1.500   4.819 -1.3313  1.5976 -1.0873
 9860TIP3    H229538   6.669   1.409   4.888 -1.6747  1.7736 -1.3417
 9861TIP3   OH229539   5.073   0.536   2.013 -0.3708  0.0566 -0.0580
 9861TIP3    H129540   5.105   0.610   2.064 -3.0287  0.1055  1.7386
 9861TIP3    H229541   5.151   0.487   1.990  1.3035  2.3994  0.2928
 9862TIP3   OH229542   6.515   0.502   2.427 -0.0485 -0.5747  0.4673
 9862TIP3    H129543   6.457   0.555   2.372 -0.1162  0.1528  1.2147
 9862TIP3    H229544   6.458   0.435   2.465 -0.0094 -1.0484 -0.3111
 9863TIP3   OH229545   4.195   2.702   1.254 -0.4343 -0.0438  0.3663
 9863TIP3    H129546   4.125   2.655   1.209 -1.2294  0.4236  1.0909
 9863TIP3    H229547   4.250   2.633   1.292 -0.8291 -0.4025  0.2896
 9864TIP3   OH229548   4.957   6.395   4.023 -0.1944 -0.4856 -0.3466
 9864TIP3    H129549   5.049   6.380   4.002  0.4807  2.2092  0.2677
 9864TIP3    H229550   4.934   6.324   4.083  1.4211 -1.2811 -0.6151
 9865TIP3   OH229551   3.031   5.824   6.175  0.1670 -0.2440  0.4423
 9865TIP3    H129552   3.060   5.818   6.084  0.7954 -0.6262  0.6547
 9865TIP3    H229553   3.112   5.837   6.225 -0.1620 -0.1192  0.9526
 9866TIP3   OH229554   5.024   1.009   4.111  0.1221 -0.3771 -0.5404
 9866TIP3    H129555   4.975   0.941   4.158  1.0355 -0.7339 -0.0819
 9866TIP3    H229556   4.962   1.082   4.103 -1.0530 -1.4471 -1.5277
 9867TIP3   OH229557   5.730   0.342   6.612 -0.4693  0.2314  0.2412
 9867TIP3    H129558   5.692   0.390   6.686  0.0950  1.1480 -0.0482
 9867TIP3    H229559   5.729   0.250   6.640  0.4345  0.6374  1.6968
 9868TIP3   OH229560   4.596   3.827   6.398  0.6003 -0.4027 -0.3210
 9868TIP3    H129561   4.607   3.776   6.478 -2.3751  0.6597  0.9245
 9868TIP3    H229562   4.681   3.869   6.384  0.8708  0.5406  3.1565
 9869TIP3   OH229563   4.134   3.592   5.293  0.3601 -0.3441  0.3179
 9869TIP3    H129564   4.055   3.562   5.248  0.7258  0.6697 -1.1076
 9869TIP3    H229565   4.169   3.514   5.335 -0.2924 -1.2535 -0.7544
 9870TIP3   OH229566   8.136   5.563   0.849 -0.2977  0.5245 -0.0411
 9870TIP3    H129567   8.189   5.607   0.916 -0.1123 -0.4317  0.4522
 9870TIP3    H229568   8.124   5.474   0.882  2.0650 -0.8334 -2.4415
 9871TIP3   OH229569   5.870   4.711   6.438  0.3002  0.0083  0.1222
 9871TIP3    H129570   5.926   4.788   6.435 -0.8843  0.8799 -0.9199
 9871TIP3    H229571   5.927   4.639   6.412  1.5381  0.4307  1.5464
 9872TIP3   OH229572   1.777   6.145   2.088 -0.3441 -0.0314 -0.0095
 9872TIP3    H129573   1.832   6.106   2.019  1.8266  1.4191  0.8214
 9872TIP3    H229574   1.735   6.219   2.045  1.1063  0.9503  0.2101
 9873TIP3   OH229575   6.504   5.203   5.975 -0.5883  0.3340 -0.0804
 9873TIP3    H129576   6.530   5.253   5.898 -2.7628  1.5313 -0.1145
 9873TIP3    H229577   6.475   5.119   5.940  0.6152 -0.0321 -0.2781
 9874TIP3   OH229578   4.502   0.581   1.522  0.0435  0.2803  0.4524
 9874TIP3    H129579   4.480   0.674   1.519  0.4886  0.3778  0.1275
 9874TIP3    H229580   4.439   0.540   1.461  0.1437  0.4298  0.2474
 9875TIP3   OH229581   6.544   2.667   5.446  0.2807 -0.4059  0.0266
 9875TIP3    H129582   6.492   2.738   5.410 -0.7143 -0.7276  0.8001
 9875TIP3    H229583   6.508   2.588   5.406  0.9490 -0.5480 -0.3215
 9876TIP3   OH229584   3.016   0.694   1.197 -0.3606  0.2566 -0.3216
 9876TIP3    H129585   3.082   0.657   1.255 -1.4667 -1.1840  0.0939
 9876TIP3    H229586   3.062   0.760   1.146  1.1036  0.1306  0.7865
 9877TIP3   OH229587   5.965   0.596   1.957 -0.2055  0.1831 -0.5354
 9877TIP3    H129588   5.907   0.627   1.887 -2.2314 -1.1886  0.4329
 9877TIP3    H229589   5.909   0.594   2.035  1.6416  0.4233  0.8619
 9878TIP3   OH229590   6.910   1.362   6.136  0.1499 -0.7978 -0.0257
 9878TIP3    H129591   6.980   1.298   6.150  0.1758 -1.0698 -1.3087
 9878TIP3    H229592   6.931   1.403   6.052 -0.7167 -0.2053  0.0340
 9879TIP3   OH229593   0.650   7.120   2.795  0.7184  0.3442 -0.8137
 9879TIP3    H129594   0.706   7.144   2.869 -1.3285 -1.5173  1.5451
 9879TIP3    H229595   0.578   7.183   2.799 -0.5259 -1.0526  0.3016
 9880TIP3   OH229596   0.406   1.912   5.840 -0.6246  0.4274  0.3926
 9880TIP3    H129597   0.471   1.907   5.769  0.9385  0.3532  1.7721
 9880TIP3    H229598   0.360   1.828   5.836  0.0950  0.0355  0.0458
 9881TIP3   OH229599   3.673   3.166   3.564 -0.2403 -0.4606 -0.1298
 9881TIP3    H129600   3.717   3.251   3.569 -2.3119  0.8056 -1.7795
 9881TIP3    H229601   3.721   3.111   3.626  1.5024  1.7375  0.6212
 9882TIP3   OH229602   0.115   2.500   6.765  0.0251  0.3905  0.5330
 9882TIP3    H129603   0.098   2.560   6.838 -1.4590  0.3350  0.2603
 9882TIP3    H229604   0.145   2.557   6.694 -0.2133  0.6513  0.6420
 9883TIP3   OH229605   0.299   4.571   5.438 -0.4729  0.4092 -0.2458
 9883TIP3    H129606   0.289   4.476   5.445 -0.8549  0.4270 -0.5473
 9883TIP3    H229607   0.327   4.586   5.347  1.7132  0.4109  0.3750
 9884TIP3   OH229608   1.354   3.869   6.469 -0.3215 -0.4964 -0.1569
 9884TIP3    H129609   1.365   3.812   6.393 -0.1204 -0.2038 -0.3504
 9884TIP3    H229610   1.392   3.953   6.442 -2.0115  0.2135 -0.4430
 9885TIP3   OH229611   3.870   3.604   3.995 -0.2235  0.4476 -0.1694
 9885TIP3    H129612   3.915   3.621   4.078 -1.0943 -0.6278  0.5561
 9885TIP3    H229613   3.923   3.649   3.929  0.7210  0.9731  0.9133
 9886TIP3   OH229614   6.866   4.713   3.364 -0.3111  0.3158 -0.2866
 9886TIP3    H129615   6.941   4.745   3.313 -1.4700 -0.5401 -2.6861
 9886TIP3    H229616   6.797   4.777   3.346 -0.5728  0.3390  0.7649
 9887TIP3   OH229617   7.514   4.329   6.300 -0.2465 -0.0011  0.7688
 9887TIP3    H129618   7.437   4.385   6.286  0.7250  1.1480 -0.2373
 9887TIP3    H229619   7.518   4.274   6.222 -0.4421 -0.5449  1.1419
 9888TIP3   OH229620   6.668   3.387   5.426 -0.6515 -1.0105  0.4910
 9888TIP3    H129621   6.594   3.358   5.480 -1.4072 -1.8383 -0.9407
 9888TIP3    H229622   6.653   3.347   5.341  1.0016 -0.4794 -0.0912
 9889TIP3   OH229623   0.181   3.580   2.766 -0.0737  0.0743  0.5723
 9889TIP3    H129624   0.265   3.590   2.811 -0.0680 -0.6136  0.7371
 9889TIP3    H229625   0.194   3.621   2.681 -0.5752  2.8598  1.7250
 9890TIP3   OH229626   7.411   2.849   5.853 -0.1049 -0.1085  0.1129
 9890TIP3    H129627   7.445   2.938   5.857  1.1098 -0.4006 -1.8581
 9890TIP3    H229628   7.476   2.796   5.900 -0.3481 -0.0626  0.4979
 9891TIP3   OH229629   5.934   0.167   6.436  0.2290  0.0018  0.4406
 9891TIP3    H129630   5.934   0.127   6.349  2.7370 -1.0736  0.8353
 9891TIP3    H229631   5.846   0.203   6.446 -1.0224 -2.2160 -1.4546
 9892TIP3   OH229632   3.922   6.370   3.407 -0.0669 -0.2831  0.4637
 9892TIP3    H129633   3.914   6.305   3.337 -0.3675 -2.0107  2.0237
 9892TIP3    H229634   4.015   6.371   3.428 -0.0720 -0.2776  0.4865
 9893TIP3   OH229635   3.581   6.621   0.023  0.6024  0.2251 -0.3762
 9893TIP3    H129636   3.622   6.603   0.107  1.1265  0.5911 -0.5448
 9893TIP3    H229637   3.616   6.554  -0.036  0.5593  0.2220 -0.3987
 9894TIP3   OH229638   5.668   6.595   2.399  0.2768  0.1917  0.8661
 9894TIP3    H129639   5.738   6.588   2.463  0.6694 -0.5369  0.3724
 9894TIP3    H229640   5.588   6.577   2.449  0.4858  0.5745  1.3386
 9895TIP3   OH229641   4.811   1.600   1.102  0.5108  0.2832 -0.2762
 9895TIP3    H129642   4.773   1.536   1.042 -1.1331  0.4057  0.5752
 9895TIP3    H229643   4.904   1.577   1.107  0.0329 -1.7853 -0.3124
 9896TIP3   OH229644   7.783   6.805   1.092  0.3211 -0.0566 -0.1336
 9896TIP3    H129645   7.762   6.877   1.150  1.4214  1.1000 -1.1119
 9896TIP3    H229646   7.794   6.846   1.006  1.4141 -1.3226 -0.6279
 9897TIP3   OH229647   2.067   1.789   4.972 -0.5221 -0.1987 -0.0632
 9897TIP3    H129648   1.995   1.849   4.952  0.5587  0.5818 -1.8451
 9897TIP3    H229649   2.145   1.845   4.970  0.6186 -1.7302 -2.5138
 9898TIP3   OH229650   1.914   7.212   4.111  0.8427  0.4699 -0.0194
 9898TIP3    H129651   1.883   7.167   4.033  0.2925  0.8614 -0.0281
 9898TIP3    H229652   1.855   7.184   4.180  0.8816  0.6921  0.1046
 9899TIP3   OH229653   4.569   2.003   2.545  0.0230  0.5146 -0.0148
 9899TIP3    H129654   4.515   2.074   2.579 -0.0060 -0.4606  2.1096
 9899TIP3    H229655   4.507   1.931   2.530  0.3137  0.3563 -0.4834
 9900TIP3   OH229656   8.228   6.345   4.759 -0.0712 -0.2245 -0.0423
 9900TIP3    H129657   8.303   6.361   4.816  1.5623 -1.2621 -1.7737
 9900TIP3    H229658   8.215   6.250   4.762 -0.1906 -0.2502 -1.0823
 9901TIP3   OH229659   3.649   2.574   4.378  0.4445  0.0275  0.4994
 9901TIP3    H129660   3.683   2.601   4.293  0.0285 -0.0269  0.3113
 9901TIP3    H229661   3.555   2.559   4.363  0.5455 -0.9119  0.7423
 9902TIP3   OH229662   0.252   7.140   1.088  0.5637  0.3211 -0.4696
 9902TIP3    H129663   0.234   7.076   1.020 -0.5251  1.0357 -0.8787
 9902TIP3    H229664   0.327   7.189   1.056  0.5333  0.1551 -0.7956
 9903TIP3   OH229665   7.448   7.018   6.500 -0.3379  0.4319 -0.0195
 9903TIP3    H129666   7.463   7.109   6.476 -0.4579  0.0422 -1.6484
 9903TIP3    H229667   7.536   6.984   6.520 -0.0388  0.4064 -1.3022
 9904TIP3   OH229668   7.603   6.572   3.862 -0.4962  0.2118  0.5858
 9904TIP3    H129669   7.661   6.533   3.928  1.1164  1.2624 -0.1540
 9904TIP3    H229670   7.587   6.500   3.800 -0.2966 -0.1956  0.9971
 9905TIP3   OH229671   0.036   6.293   3.076  0.4636  0.2875  0.1370
 9905TIP3    H129672  -0.044   6.322   3.119  1.5767  0.8436  1.9762
 9905TIP3    H229673   0.066   6.219   3.130  1.3087  0.2248 -0.3947
 9906TIP3   OH229674   1.470   5.253   3.189  0.3687 -0.3831  0.2794
 9906TIP3    H129675   1.519   5.295   3.119  0.3344  0.3650  0.7003
 9906TIP3    H229676   1.378   5.269   3.167  0.2679 -1.8488 -0.5500
 9907TIP3   OH229677   5.260   4.512   3.585  0.2216  0.6204 -0.1547
 9907TIP3    H129678   5.321   4.492   3.656 -0.3792  0.6385  0.3735
 9907TIP3    H229679   5.179   4.537   3.629 -0.6824 -0.9431 -0.8141
 9908TIP3   OH229680   4.408   6.258   3.340 -0.4099 -0.2665 -0.5128
 9908TIP3    H129681   4.388   6.327   3.275 -1.5870  2.1555  2.1888
 9908TIP3    H229682   4.475   6.297   3.396  0.3766 -2.1883 -0.0457
 9909TIP3   OH229683   0.200   2.796   2.377  0.4212 -0.3106  0.4853
 9909TIP3    H129684   0.182   2.768   2.467 -0.2288 -1.6279 -0.0337
 9909TIP3    H229685   0.116   2.790   2.332  0.6466  0.7691 -0.1260
 9910TIP3   OH229686   2.940   1.067   5.091 -0.2680  0.4429 -0.1185
 9910TIP3    H129687   2.941   1.154   5.130  0.4483  0.5144 -0.2697
 9910TIP3    H229688   3.000   1.016   5.145 -3.2678 -0.9765  2.1334
 9911TIP3   OH229689   7.152   1.808   2.754 -0.0399  0.2505  0.0046
 9911TIP3    H129690   7.059   1.790   2.741  0.0597 -3.3556  2.8475
 9911TIP3    H229691   7.155   1.858   2.835  0.5242  0.1582  0.0421
 9912TIP3   OH229692   8.266   7.664   6.488 -0.3417 -0.1429  0.3087
 9912TIP3    H129693   8.330   7.649   6.557  1.9090 -0.6900 -1.7712
 9912TIP3    H229694   8.259   7.580   6.443 -2.1211  0.0721  0.1240
 9913TIP3   OH229695   7.820   5.806   0.345 -0.0003 -0.2699 -0.2639
 9913TIP3    H129696   7.763   5.732   0.367  3.2231 -2.8941  0.1171
 9913TIP3    H229697   7.822   5.807   0.249  1.5404 -2.1833 -0.3124
 9914TIP3   OH229698   7.335   0.765   4.415 -0.7353 -0.0807 -0.0507
 9914TIP3    H129699   7.419   0.736   4.378 -0.4449  1.8448 -1.0607
 9914TIP3    H229700   7.305   0.833   4.354 -1.9925  0.7389  1.4133
 9915TIP3   OH229701   5.230   1.196   3.805 -0.0603 -0.0359  0.1389
 9915TIP3    H129702   5.248   1.213   3.712 -0.5708  1.6050  0.3151
 9915TIP3    H229703   5.302   1.240   3.851 -0.7449  0.6525  0.5705
 9916TIP3   OH229704   2.204   3.077   2.440  0.5098 -0.5237 -0.1593
 9916TIP3    H129705   2.169   3.142   2.379  1.8905  0.7118  0.2873
 9916TIP3    H229706   2.299   3.077   2.422  0.8293 -0.7166  1.4248
 9917TIP3   OH229707   7.535   1.863   5.689 -0.1060  0.4053  0.7930
 9917TIP3    H129708   7.574   1.782   5.721  0.4777  0.0806 -0.6647
 9917TIP3    H229709   7.470   1.886   5.755 -0.8596 -1.6770  0.8524
 9918TIP3   OH229710   8.327   0.260   6.231 -0.3270  0.1269 -0.1039
 9918TIP3    H129711   8.272   0.308   6.293 -0.2495 -1.1888  1.0267
 9918TIP3    H229712   8.271   0.188   6.200  0.3715 -0.5594  0.1988
 9919TIP3   OH229713   2.301   4.799   3.040  0.4562  0.1868  0.6451
 9919TIP3    H129714   2.317   4.890   3.068 -0.5677  0.3015  0.9037
 9919TIP3    H229715   2.243   4.807   2.965 -0.3490 -0.2720  1.2006
 9920TIP3   OH229716   5.167   4.698   5.386  0.1087  0.3261 -0.4426
 9920TIP3    H129717   5.224   4.646   5.442  0.2310  0.1906 -0.6875
 9920TIP3    H229718   5.148   4.640   5.312  1.0595  0.9840 -1.2198
 9921TIP3   OH229719   5.155   6.085   1.020  0.5752  0.0271 -0.4310
 9921TIP3    H129720   5.178   6.021   1.087 -0.9064  0.4214  0.5274
 9921TIP3    H229721   5.109   6.154   1.069 -0.3794  0.4173 -1.8233
 9922TIP3   OH229722   6.736   3.953   3.884 -0.0823  0.1781 -1.0611
 9922TIP3    H129723   6.811   3.895   3.899  0.1089  0.3877 -1.1932
 9922TIP3    H229724   6.772   4.026   3.833 -0.4172  0.1934 -1.2789
 9923TIP3   OH229725   6.203   0.718   2.074 -0.3019  0.2925 -0.4444
 9923TIP3    H129726   6.178   0.695   2.164  1.4499 -2.1265 -0.4646
 9923TIP3    H229727   6.124   0.703   2.022 -0.8377 -0.0408  0.4404
 9924TIP3   OH229728   5.523   3.391   5.880 -0.4163  0.3856 -0.0311
 9924TIP3    H129729   5.594   3.378   5.817 -1.1712  0.1347 -0.8551
 9924TIP3    H229730   5.558   3.454   5.943 -0.2793  2.1756 -1.7857
 9925TIP3   OH229731   5.716   3.942   0.853  0.0301 -0.2451 -0.4073
 9925TIP3    H129732   5.689   3.860   0.813 -0.0946 -0.4284  0.0558
 9925TIP3    H229733   5.635   3.988   0.872  0.0893 -0.1673 -0.3429
 9926TIP3   OH229734   0.881   6.170   1.758  0.0304  0.2014 -0.4817
 9926TIP3    H129735   0.872   6.084   1.718  1.2240 -0.2912  0.2524
 9926TIP3    H229736   0.808   6.176   1.820 -0.1056 -0.2475 -0.6009
 9927TIP3   OH229737   3.097   7.613   2.341  0.0703  0.0750 -0.0709
 9927TIP3    H129738   3.072   7.571   2.259 -2.0571 -0.4880  0.8026
 9927TIP3    H229739   3.057   7.700   2.338  2.7510  1.3857 -0.9808
 9928TIP3   OH229740   1.141   1.101   2.860  0.3503 -0.0969  0.4495
 9928TIP3    H129741   1.225   1.085   2.819  1.1525 -0.6591  2.1863
 9928TIP3    H229742   1.083   1.034   2.823  1.5784 -1.9212  1.6441
 9929TIP3   OH229743   1.007   4.525   6.213  0.2244  0.2036  0.2764
 9929TIP3    H129744   0.927   4.577   6.222  1.0533  1.6952 -0.4897
 9929TIP3    H229745   1.030   4.501   6.303 -0.2090  1.1624  0.6586
 9930TIP3   OH229746   1.403   3.310   3.423  0.3974  0.1652 -1.0193
 9930TIP3    H129747   1.339   3.359   3.371 -0.0194 -0.4877 -1.1286
 9930TIP3    H229748   1.419   3.231   3.373  0.8004  0.0256 -0.6693
 9931TIP3   OH229749   7.171   7.474   4.122  0.5132  0.3508 -0.2712
 9931TIP3    H129750   7.264   7.490   4.133  0.3818 -0.1153  2.1825
 9931TIP3    H229751   7.128   7.533   4.185 -0.7664 -0.0938 -0.6824
 9932TIP3   OH229752   1.212   7.581   0.119  0.2130  0.5079  0.1316
 9932TIP3    H129753   1.198   7.486   0.112 -0.8624  0.6296  0.4704
 9932TIP3    H229754   1.229   7.595   0.212 -0.3525  0.7362  0.2008
 9933TIP3   OH229755   3.429   3.520   6.064  0.3114 -0.0530  0.1048
 9933TIP3    H129756   3.482   3.594   6.036 -0.5581  0.2133 -0.9009
 9933TIP3    H229757   3.474   3.443   6.029 -0.1753  0.2035 -1.1368
 9934TIP3   OH229758   0.779   5.780   6.387 -0.2007  0.1722 -0.2169
 9934TIP3    H129759   0.704   5.754   6.334  1.0152 -1.8911 -1.0331
 9934TIP3    H229760   0.740   5.819   6.466 -2.1021 -0.4906 -0.7765
 9935TIP3   OH229761   7.103   1.942   6.626  0.0711  0.3462 -0.3179
 9935TIP3    H129762   7.013   1.913   6.643 -0.6748  1.6704 -1.7280
 9935TIP3    H229763   7.107   2.031   6.662 -0.2048  1.4935 -2.8927
 9936TIP3   OH229764   5.413   1.040   1.256  0.4007 -0.4842  0.0044
 9936TIP3    H129765   5.438   0.991   1.179  0.6288  0.8868 -0.8359
 9936TIP3    H229766   5.473   1.114   1.258 -1.7096  1.3791 -0.4857
 9937TIP3   OH229767   5.830   3.119   5.872 -0.4341  1.4175 -0.3076
 9937TIP3    H129768   5.922   3.143   5.866 -0.3653  1.5622  0.9827
 9937TIP3    H229769   5.790   3.190   5.922 -1.0270  0.8314  0.0689
 9938TIP3   OH229770   8.054   4.803   2.883  0.0684  0.2397  0.1932
 9938TIP3    H129771   8.123   4.804   2.817  2.5148  1.6409  2.5505
 9938TIP3    H229772   8.061   4.718   2.926  1.4895  0.9379  1.4401
 9939TIP3   OH229773   8.059   2.148   0.920 -0.1644  0.5055  0.9207
 9939TIP3    H129774   8.115   2.209   0.871 -1.4091  2.6984  2.0758
 9939TIP3    H229775   8.025   2.088   0.854  2.0518  0.2357 -0.0883
 9940TIP3   OH229776   4.464   1.203   1.395 -0.2088  0.1729 -0.1118
 9940TIP3    H129777   4.477   1.111   1.370 -1.9096 -0.0850 -0.1328
 9940TIP3    H229778   4.490   1.206   1.488 -0.4908 -0.4057 -0.0082
 9941TIP3   OH229779   6.541   7.148   2.206  0.0945 -0.2370  0.2298
 9941TIP3    H129780   6.489   7.091   2.263 -1.8924  1.1819 -0.0471
 9941TIP3    H229781   6.484   7.166   2.132  1.4565  0.4656 -0.6865
 9942TIP3   OH229782   3.506   4.968   5.930 -0.2633 -0.3834  0.2863
 9942TIP3    H129783   3.496   4.956   6.024  0.5363 -2.8161  0.1359
 9942TIP3    H229784   3.601   4.967   5.916 -0.3918 -0.6727 -0.5950
 9943TIP3   OH229785   4.588   0.718   2.640 -0.3812 -0.3753 -0.2799
 9943TIP3    H129786   4.552   0.767   2.566 -0.7181 -1.7390 -1.0629
 9943TIP3    H229787   4.603   0.630   2.604 -1.4732 -1.3497  1.5235
 9944TIP3   OH229788   0.492   1.199   3.904 -0.2746  0.4006 -0.1522
 9944TIP3    H129789   0.550   1.274   3.919 -0.4674  0.2632  1.4271
 9944TIP3    H229790   0.548   1.134   3.861  1.5085 -0.6173  3.3197
 9945TIP3   OH229791   5.878   1.070   0.411  0.5363  0.0550 -0.0035
 9945TIP3    H129792   5.945   1.012   0.374  0.4130  0.3455 -0.7065
 9945TIP3    H229793   5.884   1.149   0.357 -0.4563  0.0389 -0.1527
 9946TIP3   OH229794   4.775   3.095   0.841  0.5576  0.6359  0.2067
 9946TIP3    H129795   4.798   3.015   0.889 -1.1713 -0.5807 -0.8494
 9946TIP3    H229796   4.682   3.106   0.857  0.1852  0.8600 -1.8628
 9947TIP3   OH229797   3.913   6.060   5.877  0.1582  0.1606 -0.0063
 9947TIP3    H129798   3.992   6.012   5.850  0.6892  1.5530 -1.0406
 9947TIP3    H229799   3.882   6.013   5.954  0.0292 -2.4904 -1.5498
 9948TIP3   OH229800   2.271   7.293   2.712  0.0479  0.0978 -0.6407
 9948TIP3    H129801   2.234   7.265   2.796 -0.0413  1.7345 -0.0901
 9948TIP3    H229802   2.221   7.245   2.646 -1.3706  0.3789  0.1789
 9949TIP3   OH229803   7.453   0.555   6.748 -0.1254 -0.2426  0.6005
 9949TIP3    H129804   7.496   0.622   6.802  0.1593  0.0144  0.0560
 9949TIP3    H229805   7.475   0.578   6.658 -1.7577  0.1706  0.2667
 9950TIP3   OH229806   5.369   1.232   5.966 -0.1994 -0.5806  0.2062
 9950TIP3    H129807   5.363   1.319   5.927  1.1159 -0.2642  0.6753
 9950TIP3    H229808   5.295   1.227   6.026 -0.0902  0.3440  0.4255
 9951TIP3   OH229809   3.597   0.608   0.075  0.5007 -1.0957  0.5893
 9951TIP3    H129810   3.603   0.664  -0.003 -0.7860 -1.0324  0.5098
 9951TIP3    H229811   3.688   0.591   0.100  0.9263  1.0940  0.6709
 9952TIP3   OH229812   7.505   5.645   4.449  0.6015  0.4261  0.1750
 9952TIP3    H129813   7.585   5.602   4.418  0.8031 -0.3654  1.6844
 9952TIP3    H229814   7.439   5.576   4.445  0.0141  1.0213 -0.8594
 9953TIP3   OH229815   1.813   6.281   6.694 -0.0943  0.1893 -0.0581
 9953TIP3    H129816   1.855   6.289   6.780 -0.7094  0.9456  0.1829
 9953TIP3    H229817   1.792   6.371   6.669 -0.3767 -0.0697 -0.7809
 9954TIP3   OH229818   0.298   0.422   0.028  0.2099 -0.2284  0.0137
 9954TIP3    H129819   0.377   0.394   0.074  0.0860 -2.3845 -0.9917
 9954TIP3    H229820   0.233   0.431   0.098  0.6280 -1.1637  0.5505
 9955TIP3   OH229821   1.499   6.781   5.250  0.2136 -0.0703  0.0489
 9955TIP3    H129822   1.464   6.796   5.338 -0.6537  2.3653 -0.6369
 9955TIP3    H229823   1.581   6.830   5.247  0.3348 -0.2920 -0.4488
 9956TIP3   OH229824   4.109   1.579   3.588 -0.3816  0.8418 -0.0798
 9956TIP3    H129825   4.062   1.625   3.518 -0.9446  0.7268  0.2133
 9956TIP3    H229826   4.198   1.614   3.585 -0.4976  1.0952 -0.6217
 9957TIP3   OH229827   1.946   2.342   3.990 -0.4062 -0.0170 -0.3890
 9957TIP3    H129828   2.004   2.355   3.915 -0.9158 -0.0618 -0.7964
 9957TIP3    H229829   1.952   2.423   4.039  0.0918 -0.0641 -0.3649
 9958TIP3   OH229830   2.113   7.443   5.546 -0.9893 -0.6887 -0.2026
 9958TIP3    H129831   2.118   7.356   5.587  0.9228 -0.8490 -0.6721
 9958TIP3    H229832   2.188   7.491   5.582 -1.2783  0.3302 -0.9147
 9959TIP3   OH229833   0.966   4.247   5.276  0.1198  0.0886  0.5666
 9959TIP3    H129834   0.988   4.325   5.226  2.6478 -1.5011 -1.0736
 9959TIP3    H229835   0.982   4.271   5.367 -0.8793  1.9351  0.3057
 9960TIP3   OH229836   1.563   6.513   2.508  0.4710  0.2298 -0.4077
 9960TIP3    H129837   1.506   6.505   2.432 -0.7321  0.2114  0.4700
 9960TIP3    H229838   1.615   6.433   2.508 -0.1573 -0.1860 -0.7121
 9961TIP3   OH229839   7.474   4.086   0.739 -0.0607 -0.5412  0.1389
 9961TIP3    H129840   7.544   4.107   0.677  0.9373 -0.0977  1.3846
 9961TIP3    H229841   7.421   4.165   0.743 -1.3758 -1.2536 -1.6836
 9962TIP3   OH229842   0.161   6.311   1.952  0.4593 -0.2310 -0.0714
 9962TIP3    H129843   0.136   6.261   2.030  1.4600 -1.0615 -0.2577
 9962TIP3    H229844   0.172   6.400   1.983 -2.0442  0.0697  0.1348
 9963TIP3   OH229845   1.290   2.412   3.364 -0.2597 -0.0357  0.1189
 9963TIP3    H129846   1.385   2.397   3.367 -0.1941  0.3785  0.1387
 9963TIP3    H229847   1.258   2.348   3.301  0.1563  0.4422 -0.5953
 9964TIP3   OH229848   5.037   7.716   4.910  0.0514  0.1540 -0.4008
 9964TIP3    H129849   5.120   7.718   4.958 -0.7417 -0.8582  1.0944
 9964TIP3    H229850   5.024   7.806   4.880  1.1418  0.5626  0.2962
 9965TIP3   OH229851   4.324   5.093   0.901 -0.6047  0.2274 -0.1010
 9965TIP3    H129852   4.295   5.027   0.838  2.0220 -0.7930 -0.3782
 9965TIP3    H229853   4.364   5.161   0.847 -0.3259  0.4304  0.3590
 9966TIP3   OH229854   7.609   5.889   3.762 -0.0497  0.2082 -0.0301
 9966TIP3    H129855   7.680   5.886   3.698 -0.7079  0.1312 -0.7671
 9966TIP3    H229856   7.561   5.807   3.749  1.0907 -0.8943  2.0868
 9967TIP3   OH229857   0.204   5.654   4.543  0.3194  0.3779 -0.2015
 9967TIP3    H129858   0.139   5.723   4.525 -0.5405 -0.4252 -0.2730
 9967TIP3    H229859   0.162   5.598   4.608  0.8631 -0.2823 -0.4119
 9968TIP3   OH229860   7.998   3.219   4.875  0.1049 -0.3368 -0.1963
 9968TIP3    H129861   7.972   3.308   4.851  1.3342  0.1949  0.3058
 9968TIP3    H229862   8.007   3.222   4.970  0.2851 -0.9629 -0.1898
 9969TIP3   OH229863   1.095   2.873   6.075  0.0212 -0.3902 -0.4276
 9969TIP3    H129864   1.060   2.788   6.047 -0.1771  0.4623 -3.0275
 9969TIP3    H229865   1.065   2.934   6.008  0.1069  1.7916  1.3948
 9970TIP3   OH229866   5.219   3.503   1.758  0.3612  0.2095  0.2638
 9970TIP3    H129867   5.157   3.573   1.737 -2.2680 -1.5143  1.7743
 9970TIP3    H229868   5.282   3.545   1.817 -1.7299  1.1324  1.9556
 9971TIP3   OH229869   1.474   0.940   0.243 -0.1726  0.2587  0.1870
 9971TIP3    H129870   1.401   0.961   0.301 -0.4528  1.2001 -0.4847
 9971TIP3    H229871   1.552   0.954   0.297 -0.4527  0.1403  0.6308
 9972TIP3   OH229872   0.547   6.763   0.130  0.1876  0.9481 -0.1793
 9972TIP3    H129873   0.497   6.838   0.162  0.2040  0.5118  0.9444
 9972TIP3    H229874   0.518   6.690   0.185  0.9965  0.3793 -0.4838
 9973TIP3   OH229875   0.191   2.532   3.788 -0.4026 -0.1596  0.2563
 9973TIP3    H129876   0.249   2.473   3.836  1.1151  0.6442 -0.5283
 9973TIP3    H229877   0.146   2.581   3.856 -1.2498 -1.7564  0.9117
 9974TIP3   OH229878   3.567   5.610   5.688  0.8663 -0.2674  0.0206
 9974TIP3    H129879   3.640   5.642   5.742  0.1437  2.5026 -0.4948
 9974TIP3    H229880   3.591   5.520   5.667  2.6816 -0.4281  2.3207
 9975TIP3   OH229881   1.107   2.676   2.866 -0.8299 -0.2086  0.0082
 9975TIP3    H129882   1.128   2.618   2.939 -1.7714 -0.6144 -0.0208
 9975TIP3    H229883   1.012   2.688   2.872 -0.8362  0.2135 -0.8062
 9976TIP3   OH229884   0.924   3.760   0.000 -0.2348 -0.5339  0.0290
 9976TIP3    H129885   0.924   3.839   0.055 -1.1295 -1.3513  1.2473
 9976TIP3    H229886   1.017   3.746  -0.019 -0.1518  1.9178 -1.9318
 9977TIP3   OH229887   7.922   0.109   4.295  0.4302 -0.1597 -0.0356
 9977TIP3    H129888   7.973   0.028   4.306  2.2798  1.0871  1.2888
 9977TIP3    H229889   7.968   0.156   4.226  1.2156  1.0159  1.2227
 9978TIP3   OH229890   1.548   7.401   5.509 -0.5001 -0.5456  0.5299
 9978TIP3    H129891   1.502   7.316   5.508 -0.8620 -0.3606 -0.5888
 9978TIP3    H229892   1.583   7.409   5.420  0.2429  0.1076  0.8766
 9979TIP3   OH229893   5.889   2.507   0.972 -0.3838 -0.5129 -0.0174
 9979TIP3    H129894   5.896   2.535   1.064  1.8701 -0.8540 -0.0457
 9979TIP3    H229895   5.945   2.567   0.924 -0.4478 -1.2010 -0.9719
 9980TIP3   OH229896   4.920   2.645   3.775 -0.0702  0.0957 -0.2861
 9980TIP3    H129897   4.907   2.724   3.722  0.2527 -0.2948 -0.9698
 9980TIP3    H229898   4.939   2.678   3.863  1.6146  0.8407 -0.8743
 9981TIP3   OH229899   1.464   2.809   1.701 -0.6435  0.3344  0.0923
 9981TIP3    H129900   1.441   2.865   1.775 -2.5966 -0.1418 -0.0908
 9981TIP3    H229901   1.474   2.722   1.739 -0.4976  0.2925 -0.0413
 9982TIP3   OH229902   2.711   2.457   3.197  0.2256 -0.0809 -0.7520
 9982TIP3    H129903   2.641   2.520   3.176  0.7344  0.3436 -1.2055
 9982TIP3    H229904   2.768   2.504   3.257  0.7232 -0.0236 -1.2589
 9983TIP3   OH229905   3.204   0.941   5.147 -0.3475 -0.4065 -0.1995
 9983TIP3    H129906   3.261   0.876   5.105 -0.4239  0.2220 -1.3119
 9983TIP3    H229907   3.206   1.016   5.088 -0.9466  0.2814  0.6390
 9984TIP3   OH229908   3.307   5.791   3.915  0.4150  0.6280 -0.5484
 9984TIP3    H129909   3.368   5.859   3.886  0.7912  1.7479  2.5329
 9984TIP3    H229910   3.357   5.710   3.911  0.9729  1.0057 -1.3202
 9985TIP3   OH229911   3.417   0.501   3.553  0.4530 -0.0356  0.4903
 9985TIP3    H129912   3.435   0.494   3.647  0.1745  0.7509  0.6084
 9985TIP3    H229913   3.500   0.528   3.515 -0.2629  3.1989  0.9864
 9986TIP3   OH229914   3.198   6.552   5.204  0.1594 -0.1210  0.3295
 9986TIP3    H129915   3.293   6.543   5.211  0.2035  0.2854  0.2968
 9986TIP3    H229916   3.174   6.495   5.131  0.2498 -0.9778  0.9454
 9987TIP3   OH229917   1.809   7.395   2.308 -0.1879  0.1695 -0.9075
 9987TIP3    H129918   1.793   7.423   2.218  0.6247 -0.7231 -1.3599
 9987TIP3    H229919   1.737   7.336   2.328 -2.4736  3.1441  0.4050
 9988TIP3   OH229920   2.946   2.970   0.028  0.0890  0.2295  0.0161
 9988TIP3    H129921   2.958   3.016   0.111 -2.2662  0.1893  0.4426
 9988TIP3    H229922   2.874   3.016  -0.015  0.4082 -0.5570 -1.4276
 9989TIP3   OH229923   1.732   0.378   0.391  0.4878  0.4437 -0.3025
 9989TIP3    H129924   1.663   0.444   0.401 -0.5248 -0.4370 -1.2272
 9989TIP3    H229925   1.734   0.360   0.297 -0.0870 -1.7013  0.0599
 9990TIP3   OH229926   0.355   5.326   5.656  0.1107 -0.2075 -0.7128
 9990TIP3    H129927   0.424   5.318   5.590  1.1935 -0.3804  0.4019
 9990TIP3    H229928   0.298   5.251   5.640 -1.4281  1.3733 -3.3730
 9991TIP3   OH229929   6.050   2.689   0.565  0.1147 -0.3997 -0.2240
 9991TIP3    H129930   6.009   2.751   0.625  0.4242 -0.5430  0.1367
 9991TIP3    H229931   5.979   2.662   0.506 -0.0365  0.2468 -0.3474
 9992TIP3   OH229932   6.215   0.432   0.873 -0.4623 -0.0950 -0.8893
 9992TIP3    H129933   6.133   0.482   0.876 -0.9941 -0.9266  2.3473
 9992TIP3    H229934   6.191   0.348   0.833 -1.1097 -0.1787 -0.3363
 9993TIP3   OH229935   6.337   5.613   5.206 -0.5419  0.4626 -0.0637
 9993TIP3    H129936   6.367   5.614   5.115 -1.9662  2.8738 -0.5777
 9993TIP3    H229937   6.292   5.529   5.216  1.0551 -0.5635 -1.0370
 9994TIP3   OH229938   6.446   6.978   3.336 -0.2547  0.4837  0.8648
 9994TIP3    H129939   6.515   7.041   3.355 -0.2947  0.1712  2.1048
 9994TIP3    H229940   6.391   6.978   3.414 -0.6907 -0.5330  0.5779
 9995TIP3   OH229941   0.457   0.653   1.537 -0.2124 -0.2835 -0.4340
 9995TIP3    H129942   0.411   0.731   1.506 -0.1872  0.7705  1.9632
 9995TIP3    H229943   0.389   0.585   1.541 -0.9108  0.4422  0.2714
 9996TIP3   OH229944   4.017   5.940   3.322 -0.0067 -0.3894 -0.0160
 9996TIP3    H129945   4.077   5.977   3.257 -1.7769  1.3415 -0.7574
 9996TIP3    H229946   4.035   5.846   3.319  3.0705  0.0667  0.2988
 9997TIP3   OH229947   3.457   5.544   5.113 -0.2394 -0.5640 -0.9277
 9997TIP3    H129948   3.551   5.565   5.118 -0.7436  1.6881  1.3006
 9997TIP3    H229949   3.454   5.449   5.116  1.9745 -0.6961 -0.7145
 9998TIP3   OH229950   1.581   7.643   5.222  0.2330  0.4314 -0.0203
 9998TIP3    H129951   1.608   7.551   5.228  0.0743  0.2600 -1.4661
 9998TIP3    H229952   1.615   7.683   5.302 -0.2127 -1.0021  0.9322
 9999TIP3   OH229953   3.176   5.522   6.316 -0.3568  0.4278 -0.4555
 9999TIP3    H129954   3.270   5.514   6.306 -0.5197 -0.8817 -1.0586
 9999TIP3    H229955   3.156   5.612   6.288  0.6279  0.5124 -0.9114
10000TIP3   OH229956   5.809   1.364   3.194  0.2417  0.1792 -0.0962
10000TIP3    H129957   5.857   1.443   3.219 -1.1442  0.3790  2.1430
10000TIP3    H229958   5.799   1.314   3.275 -0.6016 -1.3831 -1.0987
10001TIP3   OH229959   2.732   0.580   1.882 -0.3778  0.4237  0.2266
10001TIP3    H129960   2.679   0.540   1.813 -0.3864  1.0572 -0.1359
10001TIP3    H229961   2.682   0.657   1.909  0.6705  1.4333 -0.6135
10002TIP3   OH229962   1.465   4.269   0.083  0.1021  0.1253  0.1254
10002TIP3    H129963   1.498   4.192   0.037  0.9809 -0.2549  1.3362
10002TIP3    H229964   1.506   4.343   0.039  0.3832 -0.1886 -0.1483
10003TIP3   OH229965   7.580   1.765   6.062 -1.1204  0.1831  0.7844
10003TIP3    H129966   7.629   1.733   5.986 -1.6471 -0.1038  0.5589
10003TIP3    H229967   7.609   1.710   6.135 -1.1406 -0.0233  0.6394
10004TIP3   OH229968   6.197   0.509   1.221  0.0200 -0.6228 -0.6404
10004TIP3    H129969   6.103   0.489   1.220  0.1964 -1.4865 -0.1271
10004TIP3    H229970   6.203   0.592   1.174 -1.0942 -0.1729 -0.0465
10005TIP3   OH229971   6.140   1.734   4.107 -0.3515 -0.3733 -0.3982
10005TIP3    H129972   6.184   1.736   4.021  2.2327  0.9645  0.8267
10005TIP3    H229973   6.071   1.801   4.100 -1.1888 -1.3302 -1.8601
10006TIP3   OH229974   5.935   4.761   2.504 -0.0992  0.0061 -0.1609
10006TIP3    H129975   5.923   4.854   2.483 -1.9520 -0.5000 -1.5700
10006TIP3    H229976   6.027   4.755   2.531 -0.1398  2.3710  0.7542
10007TIP3   OH229977   3.951   6.193   0.369  0.3206 -0.0826  0.5867
10007TIP3    H129978   4.017   6.259   0.349 -3.1311  2.8715 -2.8359
10007TIP3    H229979   3.937   6.200   0.463  2.6688  1.3135  0.9107
10008TIP3   OH229980   6.654   3.708   2.454  0.1702  0.2581  0.5819
10008TIP3    H129981   6.644   3.685   2.546  0.3907 -0.0615  0.5241
10008TIP3    H229982   6.689   3.629   2.413 -0.1969  0.3050  0.1728
10009TIP3   OH229983   4.512   6.879   0.803  0.4448  0.1393 -0.3487
10009TIP3    H129984   4.484   6.790   0.783  0.4215 -0.0127  0.3411
10009TIP3    H229985   4.605   6.871   0.824  0.3235  0.1949  0.2223
10010TIP3   OH229986   6.388   6.967   3.597  0.0042 -0.3683  0.3279
10010TIP3    H129987   6.464   6.928   3.639 -0.0371 -0.4850  0.2942
10010TIP3    H229988   6.313   6.927   3.642 -0.0332  0.2572  0.8300
10011TIP3   OH229989   2.812   2.422   4.915 -0.1278 -0.0935  0.8666
10011TIP3    H129990   2.796   2.504   4.868 -0.7218  0.2046  1.5729
10011TIP3    H229991   2.741   2.365   4.887 -0.4549  0.0685  1.3507
10012TIP3   OH229992   5.233   2.036   0.069 -0.2565 -0.5563 -0.2109
10012TIP3    H129993   5.278   2.003  -0.009 -0.7730 -1.1347 -0.2749
10012TIP3    H229994   5.300   2.033   0.138  0.2177  0.0175 -0.6410
10013TIP3   OH229995   7.538   1.659   2.057 -0.5605  0.5111 -0.4582
10013TIP3    H129996   7.593   1.616   2.123  0.1848  0.7046 -0.9326
10013TIP3    H229997   7.484   1.720   2.107 -0.3107  0.3411  0.0251
10014TIP3   OH229998   6.765   6.452   1.056 -0.1088  0.0693  0.0696
10014TIP3    H129999   6.703   6.525   1.057  1.4319  1.4532  1.6386
10014TIP3    H230000   6.747   6.404   1.136  0.9738  0.6307  0.6681
10015TIP3   OH230001   4.373   4.853   3.470 -0.3262  0.3468 -0.1557
10015TIP3    H130002   4.425   4.881   3.395 -2.1544 -1.4644 -2.2280
10015TIP3    H230003   4.373   4.757   3.464 -2.7461  0.2493  0.5493
10016TIP3   OH230004   3.494   3.137   0.446  0.4856 -0.4691  0.0997
10016TIP3    H130005   3.503   3.067   0.511 -1.3800 -1.4230 -0.6034
10016TIP3    H230006   3.563   3.119   0.382  2.4466  0.5621  1.7948
10017TIP3   OH230007   3.969   4.666   2.611  0.1955  0.1410  0.3716
10017TIP3    H130008   3.877   4.646   2.598 -0.2237  1.0263  1.7625
10017TIP3    H230009   3.996   4.708   2.530 -0.0137 -2.0358 -0.9141
10018TIP3   OH230010   3.361   4.967   5.289 -0.2807  0.1482  0.0111
10018TIP3    H130011   3.397   4.937   5.373  1.8187 -0.7614 -1.1431
10018TIP3    H230012   3.435   4.965   5.229 -1.7215  0.8233 -1.8806
10019TIP3   OH230013   0.136   4.126   2.762  0.3127 -0.5924  0.9033
10019TIP3    H130014   0.126   4.073   2.683 -0.2581  0.2613  0.3864
10019TIP3    H230015   0.214   4.180   2.745 -0.3553  0.2806  0.4909
10020TIP3   OH230016   5.386   7.602   4.199  0.1062 -0.6267 -0.3675
10020TIP3    H130017   5.314   7.569   4.145  0.6545 -0.7396 -1.0417
10020TIP3    H230018   5.459   7.542   4.181 -0.5324 -2.6426  2.8613
10021TIP3   OH230019   3.771   5.481   1.078  0.2665 -0.9366  0.0127
10021TIP3    H130020   3.847   5.532   1.107 -0.7297 -0.0773  1.2180
10021TIP3    H230021   3.792   5.455   0.988  0.9655  1.3024 -0.5159
10022TIP3   OH230022   2.280   5.599   6.804  0.0101 -0.0621  0.2063
10022TIP3    H130023   2.229   5.657   6.747 -0.2802 -0.0383  0.4840
10022TIP3    H230024   2.349   5.564   6.748  0.3143  0.7170  0.0897
10023TIP3   OH230025   2.108   2.868   3.652  1.0307  0.0352 -0.3716
10023TIP3    H130026   2.201   2.858   3.672  1.0263 -0.7483 -0.7302
10023TIP3    H230027   2.090   2.960   3.671  2.0929  0.4279 -1.1661
10024TIP3   OH230028   0.424   1.005   6.004  0.4900  0.4102 -0.3817
10024TIP3    H130029   0.424   0.910   6.020  0.3824  0.7616  2.0509
10024TIP3    H230030   0.334   1.025   5.978  1.0436 -0.4259 -3.2801
10025TIP3   OH230031   0.672   3.898   5.529  0.1202  0.2383 -0.5827
10025TIP3    H130032   0.721   3.948   5.463  0.5983 -0.0533 -0.4558
10025TIP3    H230033   0.584   3.890   5.493 -0.2125  1.9033 -0.2209
10026TIP3   OH230034   4.236   4.412   6.059 -0.7581 -0.2221  0.4184
10026TIP3    H130035   4.248   4.322   6.027 -0.5370  0.8192 -2.7802
10026TIP3    H230036   4.153   4.441   6.021  0.1270  1.5216 -0.3378
10027TIP3   OH230037   7.530   7.097   4.804  0.2861  0.0251 -0.0885
10027TIP3    H130038   7.525   7.014   4.757  0.2335  0.5373 -1.0215
10027TIP3    H230039   7.453   7.097   4.860 -0.2246 -0.1589 -0.7699
10028TIP3   OH230040   7.844   4.880   5.997  0.2530  0.0154 -0.0950
10028TIP3    H130041   7.860   4.971   6.022  0.1111 -0.2893  1.1666
10028TIP3    H230042   7.911   4.862   5.930 -0.1865  1.2448 -0.9031
10029TIP3   OH230043   0.072   6.071   0.465 -0.1591  0.1202 -0.1326
10029TIP3    H130044   0.054   6.077   0.559  0.3441 -0.1243 -0.0189
10029TIP3    H230045   0.075   6.161   0.435 -0.6122  0.1929  0.0307
10030TIP3   OH230046   6.279   7.795   6.213  0.3650  0.3981  0.7205
10030TIP3    H130047   6.276   7.776   6.119  1.1801  3.3412  0.0132
10030TIP3    H230048   6.188   7.816   6.235 -0.1594 -1.9511  1.0587
10031TIP3   OH230049   4.027   1.872   6.125  0.6172  0.5386  0.7873
10031TIP3    H130050   4.016   1.824   6.042 -1.7987  3.3475 -0.7140
10031TIP3    H230051   4.114   1.910   6.119  1.4330 -1.2461  0.7167
10032TIP3   OH230052   6.313   2.990   5.738 -0.1163  0.1491 -0.8001
10032TIP3    H130053   6.377   3.057   5.712 -0.4463  1.1296  0.8130
10032TIP3    H230054   6.301   3.003   5.832  0.1917 -2.5244 -0.3152
10033TIP3   OH230055   4.769   1.788   4.658  0.0824 -0.1274 -0.3295
10033TIP3    H130056   4.754   1.818   4.569 -1.3709 -2.5679 -1.0007
10033TIP3    H230057   4.687   1.804   4.704 -0.0580 -1.1582 -0.1778
10034TIP3   OH230058   2.011   1.427   6.764  0.0501 -0.4583  0.7284
10034TIP3    H130059   1.993   1.514   6.729 -1.9652 -0.1279  2.3986
10034TIP3    H230060   1.955   1.368   6.713  0.5533 -0.6430  0.3738
10035TIP3   OH230061   0.354   5.957   2.377 -0.0839 -0.2434 -0.0856
10035TIP3    H130062   0.382   5.865   2.373  0.1741 -0.2306  0.9190
10035TIP3    H230063   0.423   6.005   2.331 -0.4131 -0.5842 -0.9475
10036TIP3   OH230064   7.585   0.535   2.957  0.2479 -0.2739  0.2258
10036TIP3    H130065   7.522   0.572   2.895  0.3423 -0.9134 -0.2620
10036TIP3    H230066   7.542   0.543   3.042  0.2347  0.8719  0.1227
10037TIP3   OH230067   0.152   1.699   1.540 -0.3265  0.1303  0.0906
10037TIP3    H130068   0.228   1.653   1.577  0.1106 -0.0053 -0.9439
10037TIP3    H230069   0.190   1.765   1.482 -0.9502 -1.9286 -2.8813
10038TIP3   OH230070   5.081   3.341   6.571  0.3341  0.4234  0.1497
10038TIP3    H130071   5.106   3.430   6.598  0.1012  0.6144 -0.2538
10038TIP3    H230072   4.987   3.337   6.587  0.2836  0.3676 -0.1527
10039TIP3   OH230073   1.052   4.040   2.036  0.0178 -0.9168  0.1982
10039TIP3    H130074   0.982   4.075   1.981  0.4518  0.4920  0.4861
10039TIP3    H230075   1.009   3.978   2.094 -1.3215  1.0029  1.3881
10040TIP3   OH230076   6.910   2.714   1.526 -0.0709 -0.0987  0.4965
10040TIP3    H130077   6.992   2.764   1.526  0.4449 -0.8257 -1.8737
10040TIP3    H230078   6.937   2.625   1.547 -0.3956 -0.1570  0.6645
10041TIP3   OH230079   8.024   5.017   0.571  0.0814  0.2712 -0.1943
10041TIP3    H130080   8.000   4.957   0.642  1.7414 -0.0943  0.0851
10041TIP3    H230081   7.944   5.067   0.555 -1.4432 -2.0588 -0.5148
10042TIP3   OH230082   8.182   2.045   6.194  0.4111  0.3965  0.3926
10042TIP3    H130083   8.200   2.036   6.287 -0.5934  0.8404  0.6476
10042TIP3    H230084   8.119   1.975   6.175  2.1473 -1.0308 -0.4378
10043TIP3   OH230085   5.063   5.321   1.683 -0.2573  0.3889  0.2483
10043TIP3    H130086   5.002   5.313   1.757 -0.3008  1.6022  0.3681
10043TIP3    H230087   5.024   5.267   1.614 -0.7708  0.0896  0.7594
10044TIP3   OH230088   1.635   3.767   0.562 -0.4181 -0.0434  0.2958
10044TIP3    H130089   1.631   3.767   0.658 -0.1922  2.2490  0.3790
10044TIP3    H230090   1.544   3.784   0.535 -0.1908  1.2173  0.2266
10045TIP3   OH230091   0.678   0.492   1.525 -0.1279 -0.0070 -0.0681
10045TIP3    H130092   0.595   0.538   1.509 -0.6671 -0.4545  1.2766
10045TIP3    H230093   0.702   0.516   1.614  1.3193  0.2661 -0.5073
10046TIP3   OH230094   3.920   1.246   3.980  0.1563  0.1318 -0.6890
10046TIP3    H130095   3.988   1.234   4.047 -1.4906 -0.0030  1.0624
10046TIP3    H230096   3.942   1.329   3.938  0.5155  0.9186  0.9566
10047TIP3   OH230097   2.778   7.349   2.587  0.2674  0.6219  0.1635
10047TIP3    H130098   2.873   7.353   2.574  0.0255  1.0409 -1.6506
10047TIP3    H230099   2.741   7.403   2.517 -1.4198 -1.3423 -0.5678
10048TIP3   OH230100   5.030   5.488   6.695  0.1048 -0.0194  0.1954
10048TIP3    H130101   5.071   5.496   6.609  0.3099  1.7111  0.4228
10048TIP3    H230102   5.003   5.396   6.700 -1.4925  0.2062 -2.4140
10049TIP3   OH230103   1.586   2.596   4.244  0.0223  0.0497 -0.2751
10049TIP3    H130104   1.500   2.609   4.284  0.3397  2.0418 -0.1607
10049TIP3    H230105   1.647   2.644   4.300  1.3810 -1.9488  0.0734
10050TIP3   OH230106   4.818   7.309   6.353 -0.4216 -0.2940  0.4627
10050TIP3    H130107   4.879   7.293   6.281 -2.1315 -0.5904 -0.9647
10050TIP3    H230108   4.874   7.339   6.425  1.2818  0.5237 -1.1244
10051TIP3   OH230109   4.393   1.548   0.154  0.3691  0.0711 -0.0928
10051TIP3    H130110   4.312   1.572   0.109 -0.2556 -0.7723  0.5521
10051TIP3    H230111   4.442   1.499   0.089  0.1036  0.0813 -0.3043
10052TIP3   OH230112   2.070   7.628   1.684  0.2052  0.0770  0.3176
10052TIP3    H130113   2.079   7.565   1.612  0.4116 -1.3592  1.5487
10052TIP3    H230114   2.087   7.713   1.643 -0.2972 -0.6090 -1.4522
10053TIP3   OH230115   4.916   5.651   1.029 -0.1103 -0.1432 -0.5070
10053TIP3    H130116   4.859   5.600   0.972 -0.5414 -1.5648  1.1292
10053TIP3    H230117   4.991   5.595   1.046  0.5718  0.7166 -0.5631
10054TIP3   OH230118   0.102   2.658   0.131  0.1270 -0.2382 -0.0758
10054TIP3    H130119   0.036   2.640   0.064 -0.5016  1.1702  0.1288
10054TIP3    H230120   0.182   2.619   0.096 -0.8458 -2.2741 -0.1812
10055TIP3   OH230121   4.073   7.435   5.531  0.3425  0.3822  0.4889
10055TIP3    H130122   4.041   7.525   5.530  0.5996  0.5694  2.7092
10055TIP3    H230123   4.161   7.441   5.495 -0.1659  0.7337 -0.7670
10056TIP3   OH230124   0.839   7.488   5.857 -0.2828  0.1340  0.3739
10056TIP3    H130125   0.811   7.500   5.947 -0.2417  1.9541  0.1940
10056TIP3    H230126   0.864   7.576   5.828 -0.5179 -0.3631 -1.4855
10057TIP3   OH230127   2.391   2.490   5.969  0.4376  0.1583 -0.2061
10057TIP3    H130128   2.427   2.555   6.029  0.1770  1.1784 -1.1393
10057TIP3    H230129   2.301   2.519   5.952 -0.3127 -1.4198  0.7448
10058TIP3   OH230130   0.993   1.763   1.432 -0.0863 -0.3265  0.3154
10058TIP3    H130131   0.911   1.773   1.383 -0.6882 -1.5278  1.0216
10058TIP3    H230132   1.011   1.669   1.429  0.2477 -0.3220  1.7724
10059TIP3   OH230133   0.573   6.718   5.237  0.1821 -0.2454  0.5230
10059TIP3    H130134   0.510   6.776   5.280  1.2425  0.8734  0.5922
10059TIP3    H230135   0.648   6.773   5.218  1.3299 -1.6558  0.8040
10060TIP3   OH230136   2.184   5.250   3.394  0.5978  0.0960 -0.1569
10060TIP3    H130137   2.275   5.234   3.369  0.5267  0.8169 -0.9063
10060TIP3    H230138   2.139   5.167   3.377  1.1307 -0.3035  0.3445
10061TIP3   OH230139   2.712   0.036   3.562  0.0368  0.6186  0.4254
10061TIP3    H130140   2.695  -0.002   3.649 -0.0701  1.5505  0.8219
10061TIP3    H230141   2.680   0.126   3.569 -0.1629  0.6379 -0.6525
10062TIP3   OH230142   8.032   5.526   3.751 -0.0138  0.1004 -0.4294
10062TIP3    H130143   8.088   5.601   3.770  2.0625 -1.6340  0.7454
10062TIP3    H230144   7.952   5.543   3.801 -0.1133  2.0722 -1.1788
10063TIP3   OH230145   2.625   4.012   0.821 -0.4872 -0.2670  0.0455
10063TIP3    H130146   2.584   4.071   0.758 -1.7115 -2.0563 -0.9123
10063TIP3    H230147   2.619   3.925   0.781  1.3667 -1.0763  1.3377
10064TIP3   OH230148   0.207   4.173   3.642 -0.0322  0.7857 -0.4797
10064TIP3    H130149   0.258   4.239   3.596 -1.1043  1.6539 -0.4594
10064TIP3    H230150   0.119   4.180   3.606 -0.1863 -0.6371 -0.4630
10065TIP3   OH230151   7.878   3.421   0.856 -0.6364 -0.0696  0.5161
10065TIP3    H130152   7.832   3.373   0.787  2.0836  0.7682 -2.0900
10065TIP3    H230153   7.840   3.508   0.854 -2.1372 -0.6642  1.7469
10066TIP3   OH230154   4.773   1.996   0.080 -0.0997 -0.1865  0.4466
10066TIP3    H130155   4.862   1.977   0.112  0.7895  0.1185 -1.7037
10066TIP3    H230156   4.785   2.071   0.021 -1.9316  0.3466  0.7007
10067TIP3   OH230157   4.839   6.169   4.143  0.7099  0.0087  0.2347
10067TIP3    H130158   4.787   6.182   4.223 -1.0565  0.4642 -0.9178
10067TIP3    H230159   4.786   6.109   4.091 -0.4415  3.0830 -2.4411
10068TIP3   OH230160   2.038   7.422   0.518 -0.0495 -0.2891  0.9010
10068TIP3    H130161   2.021   7.399   0.427 -2.1389 -2.0927  1.6808
10068TIP3    H230162   1.953   7.448   0.553  0.6005 -0.2025  2.5091
10069TIP3   OH230163   6.627   1.991   5.384 -0.1440  0.2507 -0.3380
10069TIP3    H130164   6.694   2.044   5.427 -0.8651  0.9492 -0.0488
10069TIP3    H230165   6.650   1.901   5.405 -0.4538  0.5629  1.5235
10070TIP3   OH230166   0.995   5.941   6.567 -0.0264  0.1738  0.2625
10070TIP3    H130167   1.004   5.978   6.479 -0.0764 -2.1108 -0.7709
10070TIP3    H230168   0.901   5.943   6.584 -0.0003  0.7899  0.3505
10071TIP3   OH230169   0.534   7.321   5.183 -0.1143  0.8779 -0.5511
10071TIP3    H130170   0.453   7.318   5.133  0.6424 -0.9540 -1.7863
10071TIP3    H230171   0.595   7.266   5.133  1.3768  0.8455  1.1963
10072TIP3   OH230172   7.028   6.726   3.769 -0.3832  0.2301 -0.0181
10072TIP3    H130173   6.977   6.725   3.850  0.5747  0.2432  0.6010
10072TIP3    H230174   7.062   6.815   3.763  2.5536 -0.6681  1.5339
10073TIP3   OH230175   1.931   0.498   6.698 -0.4707  0.2552 -0.2453
10073TIP3    H130176   2.013   0.548   6.698 -0.1996 -0.1877  0.3775
10073TIP3    H230177   1.923   0.465   6.787 -1.1059 -0.0748 -0.4233
10074TIP3   OH230178   4.897   5.386   3.565  0.1540 -0.3499  0.0050
10074TIP3    H130179   4.870   5.294   3.563  1.1056 -0.6363 -0.0593
10074TIP3    H230180   4.834   5.430   3.507 -1.5925 -0.5784  1.6370
10075TIP3   OH230181   8.273   1.893   5.843  0.0515  0.0214  0.2756
10075TIP3    H130182   8.249   1.961   5.780  1.1261 -0.1226 -0.3139
10075TIP3    H230183   8.279   1.813   5.791  1.2189 -0.0522  0.4887
10076TIP3   OH230184   4.692   2.753   1.593  0.4914  0.4556 -0.1139
10076TIP3    H130185   4.606   2.713   1.604  0.8664 -0.5914 -0.7947
10076TIP3    H230186   4.679   2.820   1.526  0.1890  0.3677 -0.1443
10077TIP3   OH230187   3.603   7.071   4.076  0.7094 -0.3027  0.6567
10077TIP3    H130188   3.634   7.129   4.145  2.1085 -0.7067  0.3954
10077TIP3    H230189   3.578   6.991   4.122  0.9996 -0.3284  0.7716
10078TIP3   OH230190   7.292   0.146   5.589  0.4472 -0.2512 -0.0913
10078TIP3    H130191   7.304   0.240   5.603  1.2382  0.0041 -2.1304
10078TIP3    H230192   7.203   0.129   5.617  0.4721  0.9982  0.8331
10079TIP3   OH230193   4.656   6.039   1.109  0.2722 -0.0602 -0.2813
10079TIP3    H130194   4.655   5.996   1.195 -1.8864 -0.2775 -0.3682
10079TIP3    H230195   4.723   6.107   1.117  3.1271 -2.7184  0.1781
10080TIP3   OH230196   2.665   1.065   5.285 -0.3464 -0.0285  0.1575
10080TIP3    H130197   2.637   1.150   5.250 -0.6035 -0.1854 -0.0178
10080TIP3    H230198   2.711   1.023   5.212  2.1416  1.0482  1.0163
10081TIP3   OH230199   2.467   0.709   5.449 -0.5542 -0.5757  0.2344
10081TIP3    H130200   2.471   0.746   5.361  0.7655 -0.3228  0.3774
10081TIP3    H230201   2.505   0.777   5.505 -1.8864 -0.5034  1.1013
10082TIP3   OH230202   6.445   5.446   6.423  0.2415  0.4222  0.0300
10082TIP3    H130203   6.477   5.394   6.496 -1.3009 -0.6576 -0.0251
10082TIP3    H230204   6.506   5.428   6.351  1.2393  0.7932  0.7638
10083TIP3   OH230205   6.815   6.998   6.487  0.0778  0.3588  0.0003
10083TIP3    H130206   6.783   6.962   6.569 -0.6311 -0.6402 -0.6893
10083TIP3    H230207   6.769   6.949   6.419  2.9410 -1.1440 -1.0592
10084TIP3   OH230208   6.716   6.883   6.710 -0.2461  0.1086 -0.0682
10084TIP3    H130209   6.627   6.860   6.684  0.4125 -2.7191 -0.1256
10084TIP3    H230210   6.713   6.884   6.806 -0.2732 -0.3083 -0.0636
10085TIP3   OH230211   1.564   3.141   4.162 -0.4604  0.0564  0.3781
10085TIP3    H130212   1.642   3.197   4.166 -0.2628 -0.1176 -0.7366
10085TIP3    H230213   1.496   3.193   4.205  0.7003 -0.6131  3.3291
10086TIP3   OH230214   5.981   0.827   5.528  0.5272 -0.7194 -0.0068
10086TIP3    H130215   5.965   0.866   5.442  0.8432 -0.9540 -0.1755
10086TIP3    H230216   5.947   0.738   5.520  1.1633 -0.9611 -0.1114
10087TIP3   OH230217   5.853   3.642   1.550  0.7738 -0.6358 -0.2836
10087TIP3    H130218   5.888   3.648   1.640  0.8452 -0.0095 -0.3446
10087TIP3    H230219   5.928   3.665   1.495  0.3904  0.2779 -0.4382
10088TIP3   OH230220   7.729   7.155   0.252 -0.0675 -0.5180  0.8989
10088TIP3    H130221   7.742   7.244   0.221  1.0214 -0.7959  0.4706
10088TIP3    H230222   7.750   7.100   0.176 -2.5153 -1.1205  0.5942
10089TIP3   OH230223   1.584   3.047   1.589  0.1203 -0.0742 -0.5725
10089TIP3    H130224   1.542   3.002   1.516 -0.9824  2.4163 -1.6191
10089TIP3    H230225   1.612   3.131   1.553  0.4547  0.8445  1.6237
10090TIP3   OH230226   4.191   2.045   3.678  0.0356  0.3993 -0.6492
10090TIP3    H130227   4.164   2.107   3.745 -1.1147  1.4835 -2.0444
10090TIP3    H230228   4.172   1.959   3.716  0.5568  0.9180  0.8541
10091TIP3   OH230229   1.148   7.370   3.495  0.6291  0.3483  0.1288
10091TIP3    H130230   1.181   7.435   3.557 -1.4802 -1.0055  2.8279
10091TIP3    H230231   1.114   7.423   3.422  0.3624  2.2088  1.5175
10092TIP3   OH230232   6.145   5.307   4.955  0.1502  0.3582 -0.1895
10092TIP3    H130233   6.199   5.291   4.877 -0.1712 -0.5392 -0.2424
10092TIP3    H230234   6.064   5.343   4.920  0.6357  1.5612 -0.1223
10093TIP3   OH230235   6.983   5.967   1.303 -0.0928  0.5718  0.7156
10093TIP3    H130236   6.893   5.935   1.295 -0.0545  0.5928  0.1713
10093TIP3    H230237   7.005   5.956   1.396 -0.2297 -0.5910  0.6223
10094TIP3   OH230238   0.581   5.999   3.188  0.5495 -0.1731 -0.4460
10094TIP3    H130239   0.505   5.941   3.183 -0.1929  0.7999 -0.7710
10094TIP3    H230240   0.557   6.074   3.133  0.7556  1.2595  1.3372
10095TIP3   OH230241   0.891   6.070   2.059 -0.3801  0.4574  0.2433
10095TIP3    H130242   0.890   6.164   2.043 -0.7850  0.6067  1.1099
10095TIP3    H230243   0.811   6.037   2.018 -0.3976  0.5400  0.2121
10096TIP3   OH230244   0.887   2.598   2.219 -0.5431  0.1708 -0.0586
10096TIP3    H130245   0.865   2.688   2.195 -1.3697 -0.1145 -0.4177
10096TIP3    H230246   0.817   2.545   2.180  0.0687 -0.6526 -0.0684
10097TIP3   OH230247   3.991   2.057   3.879 -0.4518  0.1005  0.3271
10097TIP3    H130248   3.929   2.067   3.806 -0.5491  0.4660  0.4599
10097TIP3    H230249   3.935   2.040   3.955 -0.3996  0.5656  0.4727
10098TIP3   OH230250   6.053   6.357   2.691  0.5132  0.1996 -0.2243
10098TIP3    H130251   6.001   6.408   2.629  0.7365  0.2400 -0.3783
10098TIP3    H230252   5.990   6.295   2.729 -0.6437  2.7871  2.5382
10099TIP3   OH230253   2.183   4.867   4.109 -0.6055 -0.0518 -0.4848
10099TIP3    H130254   2.227   4.906   4.184 -0.6905  0.2132 -0.5699
10099TIP3    H230255   2.122   4.803   4.146  2.0303 -2.7833 -0.4400
10100TIP3   OH230256   4.388   5.169   4.269 -0.2931  0.5113 -0.1839
10100TIP3    H130257   4.315   5.186   4.328 -0.4663 -0.0391 -0.2320
10100TIP3    H230258   4.453   5.236   4.291  1.1448 -1.6613  3.1328
10101TIP3   OH230259   4.781   2.265   4.481 -0.4822 -0.0689 -0.1722
10101TIP3    H130260   4.691   2.280   4.454 -0.2067  2.3003  0.0265
10101TIP3    H230261   4.831   2.335   4.440  1.0501 -0.5118  0.8392
10102TIP3   OH230262   7.406   6.338   6.665  0.2089  0.0192 -0.0168
10102TIP3    H130263   7.317   6.303   6.661 -0.6836  2.1354 -0.1656
10102TIP3    H230264   7.462   6.261   6.677 -1.3637 -1.6978 -2.6682
10103TIP3   OH230265   0.913   2.993   3.433  0.0294 -0.3754  0.4755
10103TIP3    H130266   0.873   2.947   3.360  2.8632  1.0447 -2.2293
10103TIP3    H230267   0.873   3.080   3.433 -0.0841 -0.4281  0.6964
10104TIP3   OH230268   3.476   2.506   3.042  0.0283  0.0605  0.7691
10104TIP3    H130269   3.450   2.419   3.073 -0.7435  0.1987  0.5387
10104TIP3    H230270   3.561   2.521   3.082  1.8405 -2.2121 -1.8245
10105TIP3   OH230271   4.638   6.847   5.825 -0.3253  0.1379 -0.0180
10105TIP3    H130272   4.704   6.906   5.788  1.1991 -1.1563  0.4635
10105TIP3    H230273   4.596   6.898   5.894 -0.0073  1.0929 -0.5099
10106TIP3   OH230274   7.038   6.063   6.180 -0.1145  0.1848  0.3160
10106TIP3    H130275   7.113   6.100   6.226 -0.5520  1.9954 -0.3365
10106TIP3    H230276   6.995   6.139   6.139 -0.9820 -1.0858 -1.2421
10107TIP3   OH230277   5.127   7.496   6.484  0.1105  0.1176  0.2040
10107TIP3    H130278   5.088   7.583   6.488  3.2485  1.6187  3.0039
10107TIP3    H230279   5.072   7.442   6.541 -0.6439  0.8113  0.1537
10108TIP3   OH230280   4.532   2.949   6.481  0.8216 -0.3125  0.1520
10108TIP3    H130281   4.498   2.869   6.442  0.0777  0.9086 -1.8715
10108TIP3    H230282   4.557   3.003   6.406  2.8185  0.7320  1.4921
10109TIP3   OH230283   0.542   0.153   1.822 -0.1978 -0.1567  0.6163
10109TIP3    H130284   0.506   0.076   1.866  0.8380  0.0107  1.8287
10109TIP3    H230285   0.581   0.205   1.892  1.8232 -0.0292 -0.5008
10110TIP3   OH230286   7.150   7.567   2.256 -0.2252 -0.0987  0.4641
10110TIP3    H130287   7.117   7.615   2.180  0.2686  1.0533  0.9581
10110TIP3    H230288   7.100   7.485   2.256  0.8413 -0.8418 -2.0099
10111TIP3   OH230289   8.070   6.410   0.477  0.0610 -0.5663  0.2451
10111TIP3    H130290   8.031   6.335   0.431 -0.7599  0.4218 -0.7527
10111TIP3    H230291   8.164   6.392   0.477  0.0762 -0.7220 -1.6807
10112TIP3   OH230292   1.534   5.611   2.010 -0.5937  0.1984 -0.3220
10112TIP3    H130293   1.494   5.686   1.966 -2.5547  0.5487  1.8671
10112TIP3    H230294   1.478   5.537   1.987 -0.0530 -0.1331 -0.5754
10113TIP3   OH230295   5.990   2.394   2.756 -0.3527  0.4868  0.9474
10113TIP3    H130296   5.908   2.403   2.708 -0.9293 -0.4353  1.7284
10113TIP3    H230297   6.056   2.433   2.699 -1.2002  0.4618 -0.0690
10114TIP3   OH230298   1.519   6.729   3.751 -0.2837 -0.0941 -0.7993
10114TIP3    H130299   1.504   6.674   3.828  2.5678 -0.0164 -0.0901
10114TIP3    H230300   1.556   6.669   3.686  2.0512  0.6980 -0.3049
10115TIP3   OH230301   6.489   0.880   1.101  0.9546 -0.3959  0.5644
10115TIP3    H130302   6.538   0.956   1.069 -0.4782  0.8518  1.2036
10115TIP3    H230303   6.548   0.839   1.164  0.9802  1.4673  1.8390
10116TIP3   OH230304   6.094   0.195   1.288  0.1419  0.1650  0.4390
10116TIP3    H130305   6.028   0.167   1.225 -1.4775 -0.2235  2.2122
10116TIP3    H230306   6.164   0.232   1.234 -0.7251 -0.9886 -1.6085
10117TIP3   OH230307   1.857   4.943   0.571  0.2345 -0.4584  0.0355
10117TIP3    H130308   1.875   4.861   0.617  0.0788  0.5562  2.0076
10117TIP3    H230309   1.761   4.949   0.568  0.1282  0.9655  2.6032
10118TIP3   OH230310   3.379   1.755   4.857  0.1290 -0.1014 -0.1681
10118TIP3    H130311   3.304   1.765   4.798 -0.3139  1.8218  0.6560
10118TIP3    H230312   3.417   1.842   4.863  1.9873 -0.8737  0.0663
10119TIP3   OH230313   5.242   1.822   3.801 -0.9545 -0.3483  0.0792
10119TIP3    H130314   5.275   1.894   3.749  0.0507 -0.6861  0.2319
10119TIP3    H230315   5.320   1.777   3.833 -1.5375 -0.2930  1.6754
10120TIP3   OH230316   6.204   1.165   5.551 -0.3408  0.1533  0.2427
10120TIP3    H130317   6.231   1.156   5.643  1.3934  0.2922 -0.2177
10120TIP3    H230318   6.146   1.090   5.536  0.3515 -0.5871  1.1233
10121TIP3   OH230319   6.006   0.483   5.982  0.3432  0.0636 -0.1781
10121TIP3    H130320   6.069   0.412   5.991  1.3165  1.0404  0.9840
10121TIP3    H230321   5.946   0.453   5.913  1.4074 -1.3623 -0.5302
10122TIP3   OH230322   7.578   3.677   4.898  0.0613 -0.3259 -0.1773
10122TIP3    H130323   7.592   3.674   4.803  0.3562 -1.1137 -0.1208
10122TIP3    H230324   7.515   3.607   4.915 -0.4034  0.1637  0.1480
10123TIP3   OH230325   7.483   5.960   5.869  0.6361 -0.0292 -0.0360
10123TIP3    H130326   7.429   6.013   5.928 -1.9326  0.0046 -2.2192
10123TIP3    H230327   7.442   5.874   5.870  0.5803 -0.0500 -1.6655
10124TIP3   OH230328   7.820   2.995   4.444  0.0275 -0.1850 -0.1025
10124TIP3    H130329   7.859   2.937   4.510  0.4616 -0.1384 -0.3173
10124TIP3    H230330   7.890   3.055   4.420 -0.1073 -0.2444 -0.6605
10125TIP3   OH230331   7.336   3.623   0.415 -0.3992 -0.1491  0.4960
10125TIP3    H130332   7.386   3.566   0.474  0.5295  0.2919  0.1454
10125TIP3    H230333   7.283   3.562   0.364  1.1662 -0.7986 -0.4242
10126TIP3   OH230334   6.341   2.512   4.697  0.3110 -0.2322  0.6783
10126TIP3    H130335   6.345   2.440   4.633  1.3409  0.9979 -0.7094
10126TIP3    H230336   6.409   2.572   4.669 -3.0370  3.3092 -0.6892
10127TIP3   OH230337   3.401   4.665   6.267  0.6832  0.0313  0.4210
10127TIP3    H130338   3.369   4.575   6.277 -1.2355  0.3727 -1.7047
10127TIP3    H230339   3.370   4.710   6.345  0.0907 -0.7689  0.6698
10128TIP3   OH230340   7.987   6.223   1.419  0.2221 -0.4975  0.3209
10128TIP3    H130341   8.053   6.225   1.350 -0.6320 -0.8853 -0.5191
10128TIP3    H230342   7.979   6.130   1.442  1.1690 -0.2925  1.6220
10129TIP3   OH230343   3.797   0.940   2.522 -0.3739 -0.0354 -0.0739
10129TIP3    H130344   3.755   0.854   2.513  0.1456 -0.2957 -0.0532
10129TIP3    H230345   3.869   0.924   2.583 -0.0821  0.3502 -0.3178
10130TIP3   OH230346   7.713   6.176   3.101  0.4302  0.1498 -0.1700
10130TIP3    H130347   7.619   6.158   3.093  0.1241  2.1137 -1.9747
10130TIP3    H230348   7.755   6.093   3.081 -0.9276 -0.4884 -0.5054
10131TIP3   OH230349   0.663   3.367   6.200 -0.3739 -0.1049 -0.3781
10131TIP3    H130350   0.739   3.329   6.244 -0.5562  1.4410  1.4222
10131TIP3    H230351   0.691   3.454   6.174 -1.5577  0.5453  0.4507
10132TIP3   OH230352   2.576   6.771   5.409  0.2086  0.4777  0.5806
10132TIP3    H130353   2.575   6.784   5.314  1.0000  3.5920  0.8698
10132TIP3    H230354   2.666   6.748   5.430 -0.2119 -1.3327  0.5152
10133TIP3   OH230355   4.590   6.556   1.458 -0.2071 -0.0518 -0.6093
10133TIP3    H130356   4.551   6.572   1.544  0.7101  2.0332 -0.5196
10133TIP3    H230357   4.517   6.526   1.404 -1.1701  0.3400  0.4356
10134TIP3   OH230358   0.317   1.051   6.374 -0.2618 -0.0338 -0.2488
10134TIP3    H130359   0.272   1.086   6.451  0.0290 -1.2785  0.5188
10134TIP3    H230360   0.359   1.127   6.335  1.7203  0.3175  2.2667
10135TIP3   OH230361   2.319   5.548   2.539 -0.1980  0.0163 -0.4365
10135TIP3    H130362   2.347   5.474   2.485 -0.3161  0.1790 -0.7276
10135TIP3    H230363   2.227   5.530   2.559 -0.7863  0.9462 -2.0336
10136TIP3   OH230364   8.179   5.156   0.176 -0.2432  0.0064 -0.4503
10136TIP3    H130365   8.231   5.144   0.097 -1.6424  0.7627 -1.5404
10136TIP3    H230366   8.205   5.084   0.233  1.8809  0.3017 -0.9634
10137TIP3   OH230367   7.656   1.001   3.327 -0.5338 -0.0287  0.3358
10137TIP3    H130368   7.708   0.936   3.374 -2.2414  0.7323  3.6012
10137TIP3    H230369   7.687   1.085   3.360 -1.2340  0.6152 -0.5889
10138TIP3   OH230370   1.543   2.848   2.466  0.2365 -0.4043  0.2939
10138TIP3    H130371   1.517   2.774   2.411 -1.7466 -0.6669  1.5155
10138TIP3    H230372   1.632   2.827   2.494  0.0514 -1.8624 -0.1336
10139TIP3   OH230373   2.405   4.328   1.985 -0.3502  0.2120 -0.1915
10139TIP3    H130374   2.389   4.236   1.965  0.6094 -0.1847  0.8056
10139TIP3    H230375   2.489   4.329   2.030 -0.7264  1.4880  0.5344
10140TIP3   OH230376   1.073   4.925   0.535 -0.3922 -0.3000  0.0444
10140TIP3    H130377   1.068   4.945   0.628 -0.5806 -1.1570  0.2224
10140TIP3    H230378   1.066   5.011   0.492 -1.7580 -0.0133  0.7677
10141TIP3   OH230379   0.925   2.620   1.296 -0.0553  0.2478  0.5468
10141TIP3    H130380   0.868   2.696   1.294  0.9966  1.0659 -1.0731
10141TIP3    H230381   0.985   2.634   1.223  0.9644 -1.5309  0.9892
10142TIP3   OH230382   2.517   2.390   6.205  0.6527  0.2457 -0.1836
10142TIP3    H130383   2.537   2.327   6.275 -0.0620 -1.4892 -1.4525
10142TIP3    H230384   2.602   2.409   6.166  1.1506  1.7401  1.4961
10143TIP3   OH230385   4.034   5.826   1.152  0.1931  0.1188 -0.0722
10143TIP3    H130386   4.091   5.876   1.211 -0.2274 -0.5131  0.8857
10143TIP3    H230387   4.095   5.784   1.090  0.5392  2.0124 -1.0870
10144TIP3   OH230388   3.978   1.475   3.797  0.2454 -1.2422  0.0259
10144TIP3    H130389   3.923   1.549   3.822  0.0950 -1.8229  1.5098
10144TIP3    H230390   4.035   1.509   3.729  0.6892  0.4761  1.1996
10145TIP3   OH230391   6.081   2.792   5.829  0.3213  0.4707  0.1522
10145TIP3    H130392   6.159   2.818   5.879  1.5578 -0.0930 -1.4179
10145TIP3    H230393   6.059   2.870   5.778 -0.3273  0.7142  0.7865
10146TIP3   OH230394   1.469   4.126   6.411 -0.0375  0.5824  0.0449
10146TIP3    H130395   1.564   4.130   6.400 -0.0591 -0.2759 -0.4796
10146TIP3    H230396   1.448   4.204   6.463  0.9485  0.7758  0.1687
10147TIP3   OH230397   4.915   4.203   6.705  0.2429  0.2184 -0.1186
10147TIP3    H130398   4.956   4.278   6.661  1.6230 -0.3382  0.1424
10147TIP3    H230399   4.962   4.196   6.788  0.2046 -0.9888 -0.1803
10148TIP3   OH230400   4.777   6.782   2.838 -0.3357 -0.1630 -0.1678
10148TIP3    H130401   4.789   6.871   2.805 -0.9948 -0.5590 -1.5152
10148TIP3    H230402   4.694   6.785   2.887  1.0026  0.6039  2.2121
10149TIP3   OH230403   5.878   7.605   6.354 -0.1269  0.1768  1.2061
10149TIP3    H130404   5.843   7.518   6.373 -0.9943 -0.2641 -1.7601
10149TIP3    H230405   5.818   7.641   6.288  2.4845  1.2454 -0.7923
10150TIP3   OH230406   8.065   7.306   5.317 -0.1920 -0.1447  0.3211
10150TIP3    H130407   8.016   7.315   5.399 -1.7862  0.2410 -0.6412
10150TIP3    H230408   8.013   7.245   5.265  0.7747 -0.3392 -0.4410
10151TIP3   OH230409   4.207   1.019   2.993  0.2291 -0.2905 -0.6242
10151TIP3    H130410   4.299   1.043   2.984  0.6530 -1.4401  0.3532
10151TIP3    H230411   4.205   0.924   2.980 -1.0024 -0.1346 -1.8144
10152TIP3   OH230412   3.323   6.399   5.786  0.4366  0.4579 -0.0002
10152TIP3    H130413   3.305   6.469   5.849  1.7932  0.6098  0.2614
10152TIP3    H230414   3.396   6.433   5.734  1.2185 -0.7959  0.2263
10153TIP3   OH230415   2.666   1.573   1.684  0.1296 -0.2296 -0.4135
10153TIP3    H130416   2.725   1.523   1.741  0.8883  0.5501 -0.4828
10153TIP3    H230417   2.725   1.616   1.622 -0.6551 -0.6807 -1.4878
10154TIP3   OH230418   3.741   7.158   5.855 -0.3634  0.6740  0.4025
10154TIP3    H130419   3.679   7.218   5.813  1.0657  0.4088 -2.3331
10154TIP3    H230420   3.825   7.180   5.815  0.3191 -2.7975 -0.3791
10155TIP3   OH230421   0.186   7.296   1.799 -0.1549 -0.2877 -0.6840
10155TIP3    H130422   0.243   7.281   1.874 -0.1842  1.1792 -0.3499
10155TIP3    H230423   0.180   7.210   1.756 -0.0186 -1.1069  0.8826
10156TIP3   OH230424   7.989   1.080   4.794  0.2068 -0.0660 -0.4522
10156TIP3    H130425   8.003   1.120   4.880 -2.1812  0.9296 -0.4553
10156TIP3    H230426   7.943   0.998   4.814 -0.7798  0.3991 -0.7953
10157TIP3   OH230427   8.216   4.616   5.608  0.4603  0.0944  0.2432
10157TIP3    H130428   8.291   4.571   5.647  0.4301 -1.1966 -1.0973
10157TIP3    H230429   8.233   4.613   5.513 -0.8932  0.4688 -0.0340
10158TIP3   OH230430   4.369   7.416   2.878 -0.2567  0.2198 -0.0823
10158TIP3    H130431   4.453   7.385   2.844  0.1179  0.0506  0.9484
10158TIP3    H230432   4.313   7.339   2.879 -0.3581  0.2822 -0.5439
10159TIP3   OH230433   1.544   4.567   1.108 -0.0340  0.2504 -0.4006
10159TIP3    H130434   1.456   4.604   1.096 -0.8114 -0.6701  1.7811
10159TIP3    H230435   1.582   4.618   1.179  1.0970  0.4415 -1.1291
10160TIP3   OH230436   8.192   0.535   1.497 -0.2594  0.3652  0.5552
10160TIP3    H130437   8.178   0.532   1.402  1.0100  0.2969  0.3543
10160TIP3    H230438   8.103   0.533   1.534 -0.8187 -4.4485 -0.4344
10161TIP3   OH230439   0.740   1.199   2.249 -0.1151 -0.0798 -0.0428
10161TIP3    H130440   0.744   1.213   2.343 -1.3712 -1.5589  0.2586
10161TIP3    H230441   0.647   1.202   2.228  0.1172 -0.2718 -1.1579
10162TIP3   OH230442   4.139   4.785   2.788  0.6140 -0.3102  0.3151
10162TIP3    H130443   4.220   4.743   2.759  0.3780 -1.6907  1.5201
10162TIP3    H230444   4.072   4.751   2.729  0.8064  0.3755 -0.3106
10163TIP3   OH230445   7.369   5.234   3.536 -0.1186  0.1564 -0.4366
10163TIP3    H130446   7.285   5.269   3.506  0.0891  2.0409  0.9578
10163TIP3    H230447   7.402   5.300   3.597  2.2142 -0.7179 -0.6389
10164TIP3   OH230448   0.638   1.436   4.916 -0.1093  0.2852 -0.1457
10164TIP3    H130449   0.733   1.439   4.907 -0.1184 -0.4448 -0.5419
10164TIP3    H230450   0.622   1.376   4.988 -0.2916 -0.2828 -0.6524
10165TIP3   OH230451   5.957   4.002   6.552  0.0525  0.1602 -0.0529
10165TIP3    H130452   5.979   3.972   6.464 -1.9598 -0.8291 -0.2578
10165TIP3    H230453   5.890   3.941   6.582 -1.3313  2.1411  1.0754
10166TIP3   OH230454   7.125   1.960   1.190  0.0349 -0.0176 -0.0535
10166TIP3    H130455   7.147   1.989   1.279 -0.2815  0.0297  0.0105
10166TIP3    H230456   7.110   1.866   1.199  0.0214 -0.0162 -0.0620
10167TIP3   OH230457   5.190   3.069   3.396  0.0203  0.0041  0.2350
10167TIP3    H130458   5.168   3.107   3.311 -0.2895 -0.5919  0.0419
10167TIP3    H230459   5.125   3.106   3.456  1.0947  1.5344  0.5169
10168TIP3   OH230460   3.748   1.298   6.380  0.5691  0.3955  0.5018
10168TIP3    H130461   3.741   1.266   6.290  3.8517 -0.8106  0.5629
10168TIP3    H230462   3.691   1.376   6.381 -1.7108 -1.0564 -1.7783
10169TIP3   OH230463   1.013   4.280   2.944  0.4350  0.0173  0.0482
10169TIP3    H130464   0.981   4.200   2.985 -0.9841  0.0678 -0.8754
10169TIP3    H230465   0.939   4.340   2.947  1.3237  1.1400  0.2855
10170TIP3   OH230466   7.995   2.605   3.263  0.0993  0.0390 -0.0918
10170TIP3    H130467   7.959   2.516   3.261  1.0257 -0.3413 -2.6357
10170TIP3    H230468   7.987   2.637   3.173 -1.3796  3.0792  0.9844
10171TIP3   OH230469   7.852   4.978   2.938 -0.0068  0.3152  0.1558
10171TIP3    H130470   7.915   4.911   2.910 -0.2937 -0.4742  1.3249
10171TIP3    H230471   7.821   4.948   3.024 -0.9615  1.3915  0.2168
10172TIP3   OH230472   0.683   0.328   6.752  0.0282 -0.4272  0.5357
10172TIP3    H130473   0.715   0.345   6.663  0.1150 -0.5194  0.5487
10172TIP3    H230474   0.761   0.335   6.807 -0.1704  0.4544  0.7148
10173TIP3   OH230475   1.796   3.733   3.779 -0.4611  0.1351 -0.1536
10173TIP3    H130476   1.707   3.756   3.755 -1.2109  1.1207  3.0549
10173TIP3    H230477   1.851   3.778   3.716 -2.1888  0.1180 -1.7408
10174TIP3   OH230478   3.931   2.754   4.058  0.3487  0.3168  0.0208
10174TIP3    H130479   3.922   2.703   3.977  1.7190 -0.2842  0.2204
10174TIP3    H230480   4.024   2.773   4.065  0.0785  1.4867  0.8053
10175TIP3   OH230481   1.805   5.148   0.233  0.0280  0.1609 -0.1882
10175TIP3    H130482   1.754   5.069   0.253 -0.4410  0.6497  0.5898
10175TIP3    H230483   1.796   5.158   0.138  1.0475 -1.3499 -0.4718
10176TIP3   OH230484   8.229   1.989   3.735 -0.0474 -0.5226 -0.2543
10176TIP3    H130485   8.166   1.946   3.792 -0.7813 -0.3592 -0.9093
10176TIP3    H230486   8.212   1.951   3.648 -0.9677  1.2778 -0.9264
10177TIP3   OH230487   7.321   4.243   4.514 -0.4905 -0.1635  0.2919
10177TIP3    H130488   7.400   4.280   4.553 -0.9138  1.0542  0.0423
10177TIP3    H230489   7.352   4.168   4.463  0.4003 -0.1492  0.8070
10178TIP3   OH230490   1.720   0.719   3.631  0.0443 -0.5478  0.1511
10178TIP3    H130491   1.690   0.810   3.630 -0.6795 -0.7760  0.3564
10178TIP3    H230492   1.732   0.699   3.724  0.5934 -0.5401  0.0838
10179TIP3   OH230493   7.253   1.542   2.835  0.1394  0.4411 -0.0821
10179TIP3    H130494   7.185   1.486   2.799 -0.6217  0.6253  1.0070
10179TIP3    H230495   7.217   1.631   2.829  1.0531  0.7623 -1.1721
10180TIP3   OH230496   1.336   5.736   4.397  0.6348  0.0969  0.2609
10180TIP3    H130497   1.296   5.823   4.404  1.0506  0.3200 -0.1079
10180TIP3    H230498   1.262   5.676   4.405  0.4705  0.4464  1.6038
10181TIP3   OH230499   6.201   2.524   6.061 -1.0914  0.1756  0.2933
10181TIP3    H130500   6.197   2.605   6.112  0.7680  0.2354  0.4180
10181TIP3    H230501   6.168   2.456   6.119  0.2514  0.3722  1.3415
10182TIP3   OH230502   1.156   4.755   6.142 -0.0328 -0.3435 -0.1155
10182TIP3    H130503   1.120   4.675   6.178  1.4993 -2.2900 -2.5840
10182TIP3    H230504   1.080   4.812   6.129 -1.4132 -2.0447  0.1132
10183TIP3   OH230505   7.932   2.401   5.116 -0.1779 -0.0308 -0.0949
10183TIP3    H130506   7.969   2.402   5.204  2.2713  1.3556 -1.0657
10183TIP3    H230507   7.919   2.493   5.094 -2.8895 -0.3921 -0.4429
10184TIP3   OH230508   0.021   5.097   2.582  0.2767  0.2509 -0.7233
10184TIP3    H130509   0.088   5.161   2.603  0.0458  0.6635 -1.2110
10184TIP3    H230510  -0.043   5.104   2.653  0.2264  0.5986 -0.8043
10185TIP3   OH230511   6.789   3.934   0.262 -0.1529 -0.2479 -0.3600
10185TIP3    H130512   6.832   3.956   0.344 -0.4981  2.9447 -0.9128
10185TIP3    H230513   6.853   3.882   0.214  1.4456  0.8113  0.5464
10186TIP3   OH230514   5.724   0.901   4.124  0.5195  0.2243  0.2833
10186TIP3    H130515   5.815   0.931   4.115  0.4383  0.0310 -1.4829
10186TIP3    H230516   5.679   0.939   4.049 -0.8136  0.0679  0.9791
10187TIP3   OH230517   5.880   4.655   3.172  0.0363 -0.0173  0.3824
10187TIP3    H130518   5.831   4.612   3.102  2.1400 -0.8229 -0.6965
10187TIP3    H230519   5.817   4.665   3.243 -1.3187 -2.3258 -0.3736
10188TIP3   OH230520   3.598   3.798   3.808  0.3432  0.1639 -0.2461
10188TIP3    H130521   3.653   3.722   3.793 -1.0302 -0.5541 -2.1379
10188TIP3    H230522   3.642   3.869   3.760 -0.6083 -0.5629 -2.3323
10189TIP3   OH230523   1.726   2.205   1.923 -0.7693 -0.7046  0.6151
10189TIP3    H130524   1.669   2.267   1.879 -1.6370 -1.8019  0.1260
10189TIP3    H230525   1.815   2.240   1.911 -1.1830  0.1015 -0.1585
10190TIP3   OH230526   6.100   3.986   3.726  0.0353  0.3379 -0.5553
10190TIP3    H130527   6.052   3.937   3.793  0.9519 -0.2850 -0.3380
10190TIP3    H230528   6.057   4.071   3.724  1.1150  1.0558  2.1463
10191TIP3   OH230529   3.031   6.302   1.618 -0.1751 -0.6687  0.0507
10191TIP3    H130530   3.088   6.300   1.695 -0.2573 -1.0415  0.1046
10191TIP3    H230531   3.052   6.384   1.574  0.2910 -0.7309  0.1533
10192TIP3   OH230532   0.877   7.714   5.117 -0.4502  0.4043  0.0973
10192TIP3    H130533   0.962   7.759   5.124 -0.8082  1.0696  0.3009
10192TIP3    H230534   0.823   7.756   5.183 -0.8323 -0.2716  0.2152
10193TIP3   OH230535   6.246   5.019   3.929  0.9733 -0.0858 -0.1425
10193TIP3    H130536   6.277   5.109   3.918 -1.7344  0.7955 -1.5277
10193TIP3    H230537   6.310   4.965   3.884  3.9546  0.7657  2.6847
10194TIP3   OH230538   4.294   0.852   3.861  0.2820  1.0650 -0.2024
10194TIP3    H130539   4.263   0.811   3.942  1.6676 -2.2410 -1.1762
10194TIP3    H230540   4.358   0.917   3.890 -3.1014  4.0420  1.4933
10195TIP3   OH230541   1.504   5.384   6.669  0.0879 -0.3613 -0.4926
10195TIP3    H130542   1.569   5.314   6.663 -0.5278 -1.1549  1.2854
10195TIP3    H230543   1.556   5.464   6.674  0.9578 -0.9668  0.7721
10196TIP3   OH230544   0.181   0.244   5.318 -0.2055 -0.4449 -0.4654
10196TIP3    H130545   0.165   0.153   5.343  0.0351 -0.7307 -1.3347
10196TIP3    H230546   0.209   0.240   5.227  0.7739  0.4097 -0.2238
10197TIP3   OH230547   7.497   2.300   1.812  0.1830  0.0929  0.6092
10197TIP3    H130548   7.486   2.219   1.763 -1.2032  0.9766 -0.6445
10197TIP3    H230549   7.420   2.305   1.869  0.8719 -0.0411  1.5808
10198TIP3   OH230550   2.418   4.341   5.402 -0.0162  0.1240 -0.0872
10198TIP3    H130551   2.400   4.418   5.457  0.1544  0.4066 -0.4188
10198TIP3    H230552   2.510   4.352   5.377  0.3772 -0.8310  0.8625
10199TIP3   OH230553   1.220   4.881   2.267  0.1103 -0.3209 -0.1320
10199TIP3    H130554   1.177   4.833   2.196  0.3593  0.2994 -0.7129
10199TIP3    H230555   1.175   4.965   2.270  1.4958  0.5075 -1.0261
10200TIP3   OH230556   5.233   7.067   0.939 -0.3222 -0.5106 -0.5516
10200TIP3    H130557   5.252   7.158   0.915 -0.5305 -0.5372 -0.8170
10200TIP3    H230558   5.307   7.042   0.995 -0.9271  0.2459  0.6257
10201TIP3   OH230559   5.070   0.175   1.815  0.5878 -0.3096  0.0875
10201TIP3    H130560   5.080   0.257   1.767 -1.7933 -0.0132  0.0168
10201TIP3    H230561   5.135   0.117   1.776  1.5119  1.1556 -0.6652
10202TIP3   OH230562   2.585   3.957   2.351 -0.8993 -0.1304 -0.2411
10202TIP3    H130563   2.627   3.881   2.392 -0.8062  0.5551  0.9751
10202TIP3    H230564   2.494   3.953   2.381 -0.8217  0.4049  0.0689
10203TIP3   OH230565   0.086   1.589   0.662  0.3768  0.0734 -0.0580
10203TIP3    H130566   0.022   1.622   0.598  0.0085  0.2022  0.3739
10203TIP3    H230567   0.045   1.511   0.699  1.4980 -1.2790 -1.5149
10204TIP3   OH230568   1.201   6.578   4.033 -0.4222  0.1885  0.1211
10204TIP3    H130569   1.106   6.563   4.039 -0.5515  0.7424 -0.4277
10204TIP3    H230570   1.213   6.619   3.947  0.6348 -2.4805 -1.1520
10205TIP3   OH230571   0.420   3.121   6.437  0.3364 -0.1433  0.3870
10205TIP3    H130572   0.329   3.106   6.464 -0.0748 -0.6593 -1.1372
10205TIP3    H230573   0.472   3.081   6.506 -0.5637  0.8764  1.6990
10206TIP3   OH230574   5.098   2.951   0.509 -0.1246 -0.0368  0.1452
10206TIP3    H130575   5.139   3.004   0.577 -0.7276  0.1681  0.3558
10206TIP3    H230576   5.170   2.900   0.472  0.2472  0.0064  0.7886
10207TIP3   OH230577   6.686   6.948   4.726 -0.3170 -0.4605  0.3079
10207TIP3    H130578   6.706   7.038   4.699  0.9364 -0.6629  0.4841
10207TIP3    H230579   6.763   6.898   4.699  0.4686 -0.9071  3.0812
10208TIP3   OH230580   5.701   3.755   1.336 -0.4637 -0.1024  0.4281
10208TIP3    H130581   5.729   3.749   1.427 -0.6670  1.4968  0.6360
10208TIP3    H230582   5.629   3.693   1.329  0.9765 -1.8780  0.7394
10209TIP3   OH230583   5.688   7.682   2.884  0.1255 -0.1691 -0.2696
10209TIP3    H130584   5.652   7.754   2.936  1.0661  0.3102 -0.2596
10209TIP3    H230585   5.625   7.669   2.813  0.7331  1.7637 -1.2118
10210TIP3   OH230586   1.644   4.812   0.824 -0.1790 -0.0467  0.8334
10210TIP3    H130587   1.694   4.892   0.806  0.6944 -0.9001 -0.8605
10210TIP3    H230588   1.708   4.754   0.866 -0.1480 -0.6264  0.0041
10211TIP3   OH230589   8.177   3.383   5.374  0.7721  0.2790  0.4497
10211TIP3    H130590   8.221   3.300   5.356  2.1538  1.0265  0.1870
10211TIP3    H230591   8.084   3.363   5.371  1.0142 -0.7384 -2.1363
10212TIP3   OH230592   0.253   1.940   3.380  0.0474 -0.2617 -0.0232
10212TIP3    H130593   0.304   1.865   3.410 -1.0943 -0.7871  0.6804
10212TIP3    H230594   0.271   2.008   3.446  0.2686 -0.2537 -0.0894
10213TIP3   OH230595   5.813   4.079   3.655  0.5447 -0.2649 -0.5330
10213TIP3    H130596   5.757   4.106   3.727  0.8891 -0.7516 -0.0747
10213TIP3    H230597   5.771   4.115   3.577 -0.9181 -1.4134 -0.3147
10214TIP3   OH230598   5.821   3.052   3.229  0.3006  0.1355 -0.0119
10214TIP3    H130599   5.751   3.117   3.220 -0.7757 -0.8220  1.1066
10214TIP3    H230600   5.854   3.064   3.318 -1.7684 -2.5419  1.2654
10215TIP3   OH230601   0.627   6.887   6.167 -0.0955  0.1469 -0.4463
10215TIP3    H130602   0.606   6.837   6.246  0.7240 -0.8919 -0.8496
10215TIP3    H230603   0.716   6.859   6.144  0.7216  2.4065 -0.2534
10216TIP3   OH230604   2.485   6.529   5.913 -0.5931 -0.5245  0.9104
10216TIP3    H130605   2.519   6.484   5.990  0.4731 -0.4949  0.4686
10216TIP3    H230606   2.542   6.502   5.841  0.1168  1.5330  0.6338
10217TIP3   OH230607   7.924   5.933   1.244 -0.2891 -1.0748  0.6983
10217TIP3    H130608   7.904   5.883   1.164 -0.6674  1.2183 -0.7309
10217TIP3    H230609   7.850   5.992   1.255  2.0952  2.4500 -0.4570
10218TIP3   OH230610   3.254   5.505   2.660  0.0899  0.0379  0.0577
10218TIP3    H130611   3.175   5.496   2.607 -0.3529 -0.0910  0.7308
10218TIP3    H230612   3.245   5.438   2.728  0.6114  0.2568  0.3456
10219TIP3   OH230613   2.414   2.944   6.407 -0.0062 -0.1261 -0.4933
10219TIP3    H130614   2.432   2.849   6.405 -1.7016 -0.4635 -1.3834
10219TIP3    H230615   2.339   2.953   6.465 -0.9735  0.4533 -1.8004
10220TIP3   OH230616   6.355   5.845   0.915 -0.0105  0.1523  0.0996
10220TIP3    H130617   6.334   5.890   0.997 -0.1705  0.6786 -0.2275
10220TIP3    H230618   6.422   5.900   0.874  2.1344 -1.5225  1.1557
10221TIP3   OH230619   1.998   0.221   5.284  0.4435 -0.0929 -0.2211
10221TIP3    H130620   1.935   0.152   5.264  1.5954 -0.3611 -3.4024
10221TIP3    H230621   2.083   0.176   5.289  0.6792  0.4499  2.7107
10222TIP3   OH230622   0.382   0.117   4.824  0.0342 -0.4226  1.1685
10222TIP3    H130623   0.417   0.093   4.738 -0.2611 -0.3551  1.0282
10222TIP3    H230624   0.426   0.058   4.886  0.3361 -0.3905  0.9842
10223TIP3   OH230625   2.888   4.072   0.870  0.2553 -0.0742  0.4038
10223TIP3    H130626   2.878   4.135   0.798  0.1564 -0.6378 -0.0811
10223TIP3    H230627   2.799   4.040   0.886  0.3368 -0.2454  0.5117
10224TIP3   OH230628   2.166   5.565   0.887  0.1251 -0.0487  0.6994
10224TIP3    H130629   2.217   5.522   0.955 -2.1385 -2.0463  1.2566
10224TIP3    H230630   2.212   5.543   0.805  0.5973 -1.1241  1.2311
10225TIP3   OH230631   6.651   1.853   1.067 -0.2271  0.4166 -0.1282
10225TIP3    H130632   6.681   1.934   1.025  0.3832 -0.2079 -0.9327
10225TIP3    H230633   6.625   1.880   1.155  0.3731  1.4112 -0.2371
10226TIP3   OH230634   3.915   5.449   2.630  0.1746 -0.2212  0.4712
10226TIP3    H130635   3.980   5.407   2.686  0.7677  0.8143  0.5796
10226TIP3    H230636   3.945   5.431   2.541  0.7405  0.4294  0.5224
10227TIP3   OH230637   5.172   3.638   4.745  0.2514 -0.0020 -0.4362
10227TIP3    H130638   5.151   3.670   4.658 -1.6370 -0.8626 -0.3633
10227TIP3    H230639   5.159   3.543   4.739  1.5031 -0.2466  0.4235
10228TIP3   OH230640   0.320   3.525   3.992 -0.7595 -0.1123  0.5219
10228TIP3    H130641   0.399   3.494   4.038  0.3585  0.2033 -1.0868
10228TIP3    H230642   0.332   3.493   3.903 -1.6508  1.3651 -0.1483
10229TIP3   OH230643   7.827   6.364   2.882 -0.0752  0.1405  0.4933
10229TIP3    H130644   7.792   6.277   2.904 -1.6254  0.1884 -1.4877
10229TIP3    H230645   7.806   6.418   2.958 -1.9185 -0.5154  0.5108
10230TIP3   OH230646   6.994   6.624   5.769  0.1380  0.3111 -0.1221
10230TIP3    H130647   6.990   6.676   5.849  0.2842  0.9795 -0.5437
10230TIP3    H230648   7.077   6.650   5.728  1.7111 -2.3572  1.0848
10231TIP3   OH230649   5.403   1.785   6.400  0.5005  0.4806  0.3556
10231TIP3    H130650   5.419   1.749   6.488  2.2199  1.7599  0.6120
10231TIP3    H230651   5.404   1.709   6.343  1.6353 -0.1546  1.1784
10232TIP3   OH230652   1.506   3.358   0.861 -0.3375  0.2756  0.6093
10232TIP3    H130653   1.495   3.410   0.941 -1.0218  1.1274 -0.0163
10232TIP3    H230654   1.468   3.412   0.792  2.9660  0.9664 -0.8607
10233TIP3   OH230655   2.198   3.385   6.795  0.8727 -0.0143 -0.0091
10233TIP3    H130656   2.280   3.395   6.843  1.1753  0.0189 -0.5252
10233TIP3    H230657   2.219   3.326   6.723 -0.1988 -2.2013  1.3625
10234TIP3   OH230658   3.405   2.438   1.289  0.5709  0.1077  0.2268
10234TIP3    H130659   3.481   2.457   1.233 -0.2586 -1.5988 -1.6187
10234TIP3    H230660   3.413   2.345   1.308 -1.2016 -0.1876 -0.2792
10235TIP3   OH230661   0.231   5.750   0.668  0.2888  0.4413 -0.3736
10235TIP3    H130662   0.202   5.732   0.578 -0.7850 -0.6571  0.1734
10235TIP3    H230663   0.187   5.684   0.721  1.0141  0.9996  0.9591
10236TIP3   OH230664   3.322   4.906   2.256 -0.4141 -0.1222 -0.0693
10236TIP3    H130665   3.415   4.930   2.257  0.1748 -2.0943 -1.3053
10236TIP3    H230666   3.277   4.985   2.226  1.1306  0.2137 -1.6781
10237TIP3   OH230667   7.390   4.468   0.323 -0.0055 -0.1954  1.1351
10237TIP3    H130668   7.383   4.497   0.232 -0.0019 -2.1323  0.4694
10237TIP3    H230669   7.409   4.547   0.372 -1.5886  1.1896 -0.3316
10238TIP3   OH230670   1.731   1.911   1.095 -0.2808  0.4143 -0.0236
10238TIP3    H130671   1.730   1.978   1.163 -0.5184  0.2633  0.1243
10238TIP3    H230672   1.697   1.955   1.017 -0.4923  0.4475  0.0888
10239TIP3   OH230673   7.976   4.319   4.714 -0.1609 -0.5632 -0.1168
10239TIP3    H130674   7.990   4.402   4.668  0.0964 -0.2447  0.5201
10239TIP3    H230675   7.987   4.252   4.647 -0.5025 -0.0769 -0.6689
10240TIP3   OH230676   1.290   0.528   2.367 -0.1230 -0.0328  0.1837
10240TIP3    H130677   1.298   0.442   2.326 -3.0483  0.2118 -1.1718
10240TIP3    H230678   1.310   0.589   2.297  0.1655  0.3934  0.6355
10241TIP3   OH230679   4.081   2.085   0.914  0.5267  0.2834  0.1753
10241TIP3    H130680   4.081   2.072   0.819 -0.9064  0.9973  0.0483
10241TIP3    H230681   4.064   1.998   0.951  1.2610 -0.0271 -0.2089
10242TIP3   OH230682   1.010   6.501   5.578 -0.2510  0.2822  0.2341
10242TIP3    H130683   1.098   6.520   5.547 -0.7619  2.0394 -0.2255
10242TIP3    H230684   0.992   6.566   5.645  0.4856 -2.8927  3.8745
10243TIP3   OH230685   7.870   0.650   2.395  0.0104 -0.3083  0.0067
10243TIP3    H130686   7.943   0.698   2.356 -0.9492  0.8144 -0.4572
10243TIP3    H230687   7.904   0.617   2.478  1.4551 -0.9693 -0.8066
10244TIP3   OH230688   6.993   6.624   4.264  0.1279 -0.0954 -0.2681
10244TIP3    H130689   7.047   6.565   4.210  0.6303  0.3097 -0.2242
10244TIP3    H230690   6.941   6.566   4.319 -2.1139 -0.6317 -2.7472
10245TIP3   OH230691   1.711   6.031   5.552 -0.1486 -0.4628 -0.1515
10245TIP3    H130692   1.791   6.025   5.604  0.1575 -1.0858 -0.6872
10245TIP3    H230693   1.736   6.001   5.465 -0.7495  0.2228 -0.5688
10246TIP3   OH230694   1.861   2.545   6.641  0.0936 -0.0290  0.0991
10246TIP3    H130695   1.916   2.532   6.564 -0.2242 -0.0229 -0.1300
10246TIP3    H230696   1.777   2.575   6.606  0.0575  0.3066  0.4706
10247TIP3   OH230697   1.752   3.539   6.533  0.0200  0.1223 -0.1592
10247TIP3    H130698   1.780   3.597   6.462  0.6090  0.4662  0.3356
10247TIP3    H230699   1.770   3.590   6.613  3.0055 -1.6965  0.4631
10248TIP3   OH230700   3.351   4.396   2.489 -0.2167  0.2049 -0.0860
10248TIP3    H130701   3.344   4.473   2.546 -0.5919  0.3906 -0.3816
10248TIP3    H230702   3.308   4.422   2.408  3.5261  1.3283 -1.9320
10249TIP3   OH230703   8.281   6.402   4.436 -0.3918  0.3042 -0.1363
10249TIP3    H130704   8.326   6.484   4.415 -0.2664  0.2343 -0.1376
10249TIP3    H230705   8.190   6.418   4.411 -0.4369  0.5638  0.1938
10250TIP3   OH230706   0.970   6.245   0.247  0.0559 -0.2483 -0.4627
10250TIP3    H130707   0.917   6.306   0.196 -1.1200 -1.1703 -0.4034
10250TIP3    H230708   0.933   6.159   0.226  2.1275 -1.0534 -1.1323
10251TIP3   OH230709   6.929   4.258   5.497 -0.0105 -0.3107 -0.0329
10251TIP3    H130710   6.842   4.235   5.464 -1.1153  0.3470  2.2747
10251TIP3    H230711   6.935   4.216   5.583  1.2325  1.1197  0.6338
10252TIP3   OH230712   6.517   0.109   1.280 -0.4363 -0.2302  0.4327
10252TIP3    H130713   6.435   0.156   1.266  0.0781  0.3733 -0.6563
10252TIP3    H230714   6.534   0.065   1.197  0.8842  0.5517  0.2594
10253TIP3   OH230715   3.344   4.696   4.169 -0.2358  0.0698  0.6053
10253TIP3    H130716   3.346   4.602   4.149  0.6479 -0.3362  2.3716
10253TIP3    H230717   3.413   4.708   4.235  0.0472  2.0737  0.0120
10254TIP3   OH230718   1.263   5.572   0.273  0.6733  0.5354 -0.5004
10254TIP3    H130719   1.318   5.494   0.267  0.6891  0.1675  2.6046
10254TIP3    H230720   1.173   5.538   0.274  0.5987  0.7172 -0.8391
10255TIP3   OH230721   5.732   0.951   5.357  0.8430 -0.1469 -0.5254
10255TIP3    H130722   5.641   0.969   5.333  0.6246 -1.3994 -0.7265
10255TIP3    H230723   5.764   1.033   5.393  0.1141  0.7777 -1.8889
10256TIP3   OH230724   1.919   4.388   3.980  0.5532  0.0136 -0.3677
10256TIP3    H130725   1.982   4.448   3.940  3.3848 -1.8155  1.0855
10256TIP3    H230726   1.939   4.302   3.942 -0.5015 -0.7748  0.7551
10257TIP3   OH230727   5.589   4.925   0.476 -0.4728 -0.0675  0.1378
10257TIP3    H130728   5.538   5.004   0.459  0.4981  0.7814  1.0720
10257TIP3    H230729   5.531   4.854   0.449 -0.1735  0.9877 -3.9233
10258TIP3   OH230730   7.997   6.700   6.213 -0.0868  0.1550 -0.0496
10258TIP3    H130731   8.048   6.621   6.198 -3.4072 -2.4683  1.1731
10258TIP3    H230732   7.997   6.711   6.309 -1.9690 -0.1839  0.0425
10259TIP3   OH230733   3.791   4.385   6.472 -0.3229 -0.5963 -0.2086
10259TIP3    H130734   3.767   4.319   6.407  0.1202 -0.2027 -0.7759
10259TIP3    H230735   3.709   4.431   6.491 -0.3670 -0.4235 -0.8144
10260TIP3   OH230736   3.918   5.190   0.047 -0.1662  0.0260 -0.1669
10260TIP3    H130737   3.902   5.261  -0.016  0.0468  0.6388  0.4620
10260TIP3    H230738   4.008   5.163   0.030 -0.5335 -0.6995 -1.0020
10261TIP3   OH230739   0.837   5.781   3.464 -0.3588 -0.2626  0.4923
10261TIP3    H130740   0.917   5.812   3.507 -0.4138 -0.2217  0.5664
10261TIP3    H230741   0.849   5.803   3.372 -0.0169 -0.8093  0.4004
10262TIP3   OH230742   6.738   4.691   5.169 -0.4236 -0.7182 -0.0184
10262TIP3    H130743   6.818   4.688   5.116 -1.4860 -2.6718 -1.6097
10262TIP3    H230744   6.671   4.722   5.109 -1.5378 -2.3779  0.3131
10263TIP3   OH230745   1.352   3.113   4.740 -0.4442  0.4118 -0.2315
10263TIP3    H130746   1.305   3.033   4.721 -0.1214  0.3158 -0.6561
10263TIP3    H230747   1.398   3.096   4.822  0.1352 -0.0734 -0.6464
10264TIP3   OH230748   1.034   6.883   3.528 -0.6985  0.4861 -0.1540
10264TIP3    H130749   0.986   6.966   3.528 -1.0337  0.3057  0.6492
10264TIP3    H230750   1.032   6.855   3.619 -0.4589 -0.3325 -0.3928
10265TIP3   OH230751   7.684   6.287   0.144  0.4616  1.0030  0.4209
10265TIP3    H130752   7.647   6.216   0.196 -1.1528  1.3284 -0.2341
10265TIP3    H230753   7.757   6.320   0.197 -0.2324  0.3910  1.8003
10266TIP3   OH230754   1.276   0.913   3.036  0.2914  0.2761  0.2968
10266TIP3    H130755   1.317   0.930   3.121  0.2496  0.4805  0.2775
10266TIP3    H230756   1.244   0.999   3.008 -2.8186 -0.3006  1.6830
10267TIP3   OH230757   0.570   3.883   2.329 -0.3186 -0.4510 -0.6322
10267TIP3    H130758   0.475   3.885   2.341 -0.4892  1.1647 -1.9921
10267TIP3    H230759   0.597   3.974   2.331  1.3934 -0.9196  0.7510
10268TIP3   OH230760   7.502   3.863   5.088  0.3710 -0.3729 -0.1650
10268TIP3    H130761   7.547   3.803   5.029 -0.1700 -1.4193  0.4449
10268TIP3    H230762   7.433   3.809   5.128  0.0433  0.5930  0.6031
10269TIP3   OH230763   7.351   1.645   5.481 -0.6553 -0.0694 -0.0624
10269TIP3    H130764   7.375   1.567   5.531 -2.5229 -1.0816 -0.6414
10269TIP3    H230765   7.422   1.655   5.417  0.6308 -0.0646  1.3233
10270TIP3   OH230766   0.880   4.850   1.312  0.3449  0.2023  0.1932
10270TIP3    H130767   0.914   4.924   1.363  1.4337  1.4540 -2.1932
10270TIP3    H230768   0.958   4.797   1.293  0.1259  0.2916 -0.9706
10271TIP3   OH230769   7.900   6.839   0.430 -0.1707  0.0409 -0.0715
10271TIP3    H130770   7.856   6.761   0.397 -0.6561 -0.5657  1.8619
10271TIP3    H230771   7.846   6.867   0.504  1.5170  0.5440  1.0293
10272TIP3   OH230772   7.018   1.652   5.380 -0.5375 -0.0426  0.1679
10272TIP3    H130773   7.101   1.655   5.427 -0.8662  0.9860  0.7185
10272TIP3    H230774   7.029   1.582   5.316  0.3203 -0.7294  1.0339
10273TIP3   OH230775   0.873   1.451   3.806  0.1940 -0.0661  0.3955
10273TIP3    H130776   0.875   1.544   3.827 -0.8917  0.0467  0.0667
10273TIP3    H230777   0.820   1.412   3.877 -1.3334 -0.0649 -0.6978
10274TIP3   OH230778   7.471   6.207   1.094  0.1234  0.2315 -0.4295
10274TIP3    H130779   7.556   6.199   1.136  0.2695  0.1823 -0.7331
10274TIP3    H230780   7.488   6.254   1.013  0.1406 -1.1535 -1.2713
10275TIP3   OH230781   7.476   2.852   1.429 -0.0936 -0.0865 -0.2776
10275TIP3    H130782   7.531   2.930   1.419  0.3122 -0.1171  1.3767
10275TIP3    H230783   7.396   2.873   1.381  0.6923  0.6309 -1.3284
10276TIP3   OH230784   7.928   2.254   0.109  0.0089  0.6448  0.1450
10276TIP3    H130785   7.985   2.185   0.078  1.4668  1.5065  0.7869
10276TIP3    H230786   7.943   2.257   0.204 -0.0552  1.8000  0.1336
10277TIP3   OH230787   2.925   6.782   6.390 -0.0693  0.2056 -0.5311
10277TIP3    H130788   2.928   6.704   6.335 -0.7705 -0.0821 -0.1609
10277TIP3    H230789   2.843   6.775   6.438  0.5915  0.3996  0.6519
10278TIP3   OH230790   4.020   6.987   0.167  0.7586 -0.4537 -0.0158
10278TIP3    H130791   4.030   7.001   0.073  2.5685 -0.1771  0.1914
10278TIP3    H230792   3.955   7.051   0.194  2.6388  1.8296 -0.5451
10279TIP3   OH230793   7.853   5.766   2.522 -0.6521  0.0518 -0.3879
10279TIP3    H130794   7.943   5.752   2.551 -0.8919 -0.1202  0.2842
10279TIP3    H230795   7.831   5.686   2.474  0.4245  1.1476 -2.8510
10280TIP3   OH230796   0.029   5.844   4.469 -0.0099  0.2737 -0.5479
10280TIP3    H130797  -0.064   5.851   4.444 -0.1873  0.7547  0.2162
10280TIP3    H230798   0.065   5.931   4.453 -0.4365  1.0063  1.9648
10281TIP3   OH230799   2.153   7.571   1.949 -0.0108 -0.0214 -0.0298
10281TIP3    H130800   2.231   7.627   1.949 -1.2019  1.7548  1.1441
10281TIP3    H230801   2.107   7.595   1.868  0.4914 -0.8840 -0.5921
10282TIP3   OH230802   1.363   3.714   3.358  0.5941  0.0537  0.3111
10282TIP3    H130803   1.292   3.750   3.411  1.0968  0.9403  0.3975
10282TIP3    H230804   1.339   3.622   3.345 -0.3726  0.2476  0.6570
10283TIP3   OH230805   7.568   2.568   1.445  0.0311 -0.0695 -0.4108
10283TIP3    H130806   7.600   2.496   1.391  1.5597  1.6466 -1.9159
10283TIP3    H230807   7.563   2.643   1.385  1.0640  1.7442  1.6441
10284TIP3   OH230808   2.394   3.242   2.603 -0.3026 -0.0700 -0.3688
10284TIP3    H130809   2.360   3.329   2.585  0.0786  0.3233  0.7121
10284TIP3    H230810   2.426   3.210   2.518  1.0334  1.5051 -0.5002
10285TIP3   OH230811   1.391   0.076   4.245  0.2058 -0.3232  0.0425
10285TIP3    H130812   1.300   0.049   4.237 -0.0089 -0.1245  1.3982
10285TIP3    H230813   1.410   0.123   4.164 -0.4136 -1.6682 -0.9092
10286TIP3   OH230814   1.124   7.232   2.366 -0.1536 -0.0791 -0.0598
10286TIP3    H130815   1.089   7.281   2.291 -0.8622  0.0058  0.3130
10286TIP3    H230816   1.188   7.291   2.405  0.3461 -0.1875 -0.6884
10287TIP3   OH230817   5.054   5.352   5.480  0.2021 -0.2110  0.4038
10287TIP3    H130818   5.086   5.320   5.396 -0.8682 -0.3441  0.0371
10287TIP3    H230819   4.977   5.405   5.458 -0.3608 -0.6149  1.3289
10288TIP3   OH230820   3.527   0.729   5.143 -0.1773  0.8068 -0.3324
10288TIP3    H130821   3.490   0.756   5.227  0.5062 -1.5159  0.7842
10288TIP3    H230822   3.455   0.739   5.081 -0.3423  3.7922  0.1875
10289TIP3   OH230823   0.221   3.664   2.477  0.2581  0.5878 -0.0301
10289TIP3    H130824   0.276   3.601   2.431  1.5239  1.0006  0.8518
10289TIP3    H230825   0.192   3.725   2.408 -0.6875 -0.7196 -0.8223
10290TIP3   OH230826   6.500   1.586   5.182 -0.0608 -0.5421 -0.0556
10290TIP3    H130827   6.484   1.561   5.273 -1.8568 -0.2490 -0.2613
10290TIP3    H230828   6.414   1.581   5.140 -0.0144  2.8699 -0.8367
10291TIP3   OH230829   3.378   5.310   0.237  0.4986 -0.4728  0.1593
10291TIP3    H130830   3.382   5.351   0.324  0.8829  0.5325 -0.3198
10291TIP3    H230831   3.464   5.327   0.199  0.4203 -1.1388 -0.3198
10292TIP3   OH230832   6.990   0.124   2.902 -0.1505  0.3325  0.0212
10292TIP3    H130833   7.028   0.117   2.814 -1.2100  0.8536 -0.4898
10292TIP3    H230834   7.064   0.107   2.961 -0.1294 -3.8413 -0.9159
10293TIP3   OH230835   1.493   1.477   2.208  0.2164 -0.2550 -0.4599
10293TIP3    H130836   1.499   1.470   2.113 -0.1139 -0.8709 -0.4417
10293TIP3    H230837   1.551   1.550   2.231  1.3659 -0.9841 -0.9994
10294TIP3   OH230838   2.346   3.617  -0.016 -0.3181 -0.8315 -0.6270
10294TIP3    H130839   2.287   3.566   0.040 -1.1483  0.7983  0.0493
10294TIP3    H230840   2.410   3.654   0.045 -0.9540  0.5828 -0.7754
10295TIP3   OH230841   5.931   1.551   3.639  0.4555  0.2169 -0.1618
10295TIP3    H130842   5.919   1.555   3.544  1.2548 -0.3660 -0.2919
10295TIP3    H230843   6.006   1.608   3.657  0.2063  0.4573  0.1519
10296TIP3   OH230844   1.699   4.512   6.275  0.5442 -0.1036 -0.1156
10296TIP3    H130845   1.622   4.531   6.222  1.3817 -0.9821 -1.7167
10296TIP3    H230846   1.756   4.588   6.263  1.2973 -0.8740 -1.5882
10297TIP3   OH230847   5.470   6.732   4.576  1.3100  0.3096 -0.7607
10297TIP3    H130848   5.465   6.811   4.630 -3.6214  0.1459 -0.4839
10297TIP3    H230849   5.471   6.660   4.640  0.7592  0.1444 -0.9348
10298TIP3   OH230850   5.402   1.604   5.674 -0.2779  0.0587 -0.2164
10298TIP3    H130851   5.343   1.531   5.695 -1.0939  0.8493  0.2995
10298TIP3    H230852   5.354   1.656   5.610  1.1221 -0.8998 -2.1704
10299TIP3   OH230853   7.984   2.838   0.610 -0.1661  0.1013  0.1167
10299TIP3    H130854   7.989   2.743   0.602 -2.1045  0.0226 -0.5109
10299TIP3    H230855   8.057   2.870   0.557  0.5389 -1.0184  0.3639
10300TIP3   OH230856   6.045   7.498   4.433 -0.1500  0.3969 -0.0742
10300TIP3    H130857   6.070   7.560   4.364 -2.3922  0.8482 -0.5526
10300TIP3    H230858   6.083   7.415   4.406  0.9867  1.0634 -0.6036
10301TIP3   OH230859   0.463   4.339   4.632  0.1492 -0.0211 -0.1369
10301TIP3    H130860   0.465   4.433   4.615 -0.1262 -0.1192 -0.7493
10301TIP3    H230861   0.449   4.331   4.726 -1.5535  0.5513 -0.3244
10302TIP3   OH230862   4.948   3.478   3.721 -0.1028  0.0864  0.1980
10302TIP3    H130863   5.014   3.434   3.774 -0.3549 -1.1081 -0.4481
10302TIP3    H230864   4.992   3.498   3.638  0.0817  1.2934  0.5750
10303TIP3   OH230865   0.137   6.436   3.514 -0.4286 -0.5770 -0.1348
10303TIP3    H130866   0.106   6.464   3.428 -1.3735 -2.1273 -0.3306
10303TIP3    H230867   0.233   6.442   3.508 -0.5323  1.5233 -0.4836
10304TIP3   OH230868   2.053   3.845   2.001 -0.4672 -0.2338  0.1256
10304TIP3    H130869   2.001   3.768   2.023  1.2929 -1.6336 -0.3777
10304TIP3    H230870   2.072   3.887   2.085 -1.7254 -0.1389  0.3708
10305TIP3   OH230871   0.993   5.215   3.474 -0.4236  0.6745  0.1150
10305TIP3    H130872   0.978   5.202   3.568 -0.9292  1.7431  0.2027
10305TIP3    H230873   1.056   5.148   3.450 -0.9608 -0.1926  1.0316
10306TIP3   OH230874   4.727   0.663   3.262 -0.4039 -0.1498 -0.2511
10306TIP3    H130875   4.816   0.685   3.292 -0.4224 -1.0351  0.5097
10306TIP3    H230876   4.740   0.606   3.187 -0.3324 -0.1587 -0.2319
10307TIP3   OH230877   5.508   5.834   1.800  0.3945 -0.0632 -0.2984
10307TIP3    H130878   5.449   5.783   1.855 -0.2921  1.6168  0.5753
10307TIP3    H230879   5.591   5.834   1.847  0.2243  0.1288  0.0033
10308TIP3   OH230880   1.451   3.124   5.672 -0.0001 -0.2474  0.0622
10308TIP3    H130881   1.413   3.148   5.756 -2.3149 -2.2422 -0.3063
10308TIP3    H230882   1.520   3.062   5.694 -2.4103 -2.9874  0.5401
10309TIP3   OH230883   2.447   4.314   3.158  0.8199 -0.2376  0.1044
10309TIP3    H130884   2.507   4.350   3.223  0.3558  0.2825  0.2481
10309TIP3    H230885   2.441   4.381   3.090  0.3900 -0.2802  0.0955
10310TIP3   OH230886   4.602   5.173   1.228  0.1943  0.1785 -0.3535
10310TIP3    H130887   4.582   5.180   1.321 -0.2186  0.7669 -0.4837
10310TIP3    H230888   4.638   5.258   1.204  1.2306 -0.2850 -0.5231
10311TIP3   OH230889   5.415   5.526   3.610  0.3442  0.1404  0.3461
10311TIP3    H130890   5.437   5.465   3.681  0.0877 -1.2555 -0.7318
10311TIP3    H230891   5.323   5.510   3.591  0.5592  0.0291 -0.7074
10312TIP3   OH230892   5.075   6.250   4.367  0.3789 -0.2128  0.0866
10312TIP3    H130893   5.001   6.246   4.306  0.7399 -0.2061 -0.3589
10312TIP3    H230894   5.052   6.321   4.428 -1.0710 -1.7481  1.4287
10313TIP3   OH230895   5.358   6.521   0.733  0.0613  0.1785 -0.2394
10313TIP3    H130896   5.336   6.575   0.657 -1.3654  0.7279  0.5307
10313TIP3    H230897   5.327   6.433   0.709  1.9750 -0.2680 -1.3078
10314TIP3   OH230898   1.624   5.548   5.467  0.2780 -0.5697 -0.7670
10314TIP3    H130899   1.647   5.455   5.478  0.0111 -0.5487  0.0207
10314TIP3    H230900   1.557   5.564   5.534  1.6844  0.6693  0.4005
10315TIP3   OH230901   6.936   6.026   0.181  0.4348 -0.0938 -0.0342
10315TIP3    H130902   6.921   6.116   0.210 -1.4672  0.2785 -1.9285
10315TIP3    H230903   6.963   6.035   0.090 -0.5101 -1.4520 -0.4740
10316TIP3   OH230904   1.714   7.124   2.856 -0.0326  0.5281 -0.3215
10316TIP3    H130905   1.778   7.082   2.798  1.4779  1.1024  0.8490
10316TIP3    H230906   1.637   7.137   2.801 -0.3566 -3.0649 -0.9325
10317TIP3   OH230907   5.731   4.058   4.144  0.2224 -0.1426 -0.0909
10317TIP3    H130908   5.806   4.003   4.169  1.0039  0.8664 -0.1449
10317TIP3    H230909   5.732   4.130   4.207 -1.9196 -1.1083  1.1639
10318TIP3   OH230910   7.056   0.218   2.188 -0.1780  0.0055  0.0263
10318TIP3    H130911   7.084   0.171   2.266  0.0452 -1.1922 -0.7482
10318TIP3    H230912   7.029   0.304   2.220  1.9998  0.3388  1.1387
10319TIP3   OH230913   6.732   4.188   1.996  0.2903 -0.1153 -0.1358
10319TIP3    H130914   6.784   4.160   1.921  1.1506  1.6338 -0.2507
10319TIP3    H230915   6.785   4.257   2.037 -1.2176  0.5954  0.6998
10320TIP3   OH230916   4.295   3.351   2.172 -0.1888 -0.3669 -0.1186
10320TIP3    H130917   4.361   3.295   2.131  1.0288 -1.7047  3.3019
10320TIP3    H230918   4.220   3.292   2.186 -1.2606  0.5215 -1.8077
10321TIP3   OH230919   3.385   7.409   6.261  0.1550  0.2026  0.0844
10321TIP3    H130920   3.462   7.421   6.316  0.0717 -2.0225  0.7747
10321TIP3    H230921   3.420   7.385   6.175  0.2326  0.3539  0.0727
10322TIP3   OH230922   4.446   3.459   2.556 -0.4638  0.0281 -0.3192
10322TIP3    H130923   4.517   3.464   2.619  0.4593 -0.4337 -1.2935
10322TIP3    H230924   4.403   3.375   2.575 -1.2756  0.6684  0.7870
10323TIP3   OH230925   1.806   7.862   4.805  0.2552  0.1619 -0.3240
10323TIP3    H130926   1.811   7.768   4.788  0.1737  0.1301 -0.1737
10323TIP3    H230927   1.758   7.869   4.887  0.6135  0.3150 -0.1236
10324TIP3   OH230928   1.839   2.238   6.557 -0.1275 -0.5364  0.6364
10324TIP3    H130929   1.825   2.332   6.572  2.7352  0.2221 -0.7628
10324TIP3    H230930   1.815   2.225   6.465 -3.3847 -1.9499  1.5232
10325TIP3   OH230931   0.163   1.412   3.456 -0.1839  0.6569 -0.6138
10325TIP3    H130932   0.236   1.427   3.516  0.4357 -1.3603 -0.7681
10325TIP3    H230933   0.085   1.414   3.511  0.0593  1.8665 -0.2848
10326TIP3   OH230934   3.586   5.140   6.312 -0.3970 -0.2577  0.2087
10326TIP3    H130935   3.527   5.125   6.386 -0.6765 -1.2277 -0.1996
10326TIP3    H230936   3.572   5.066   6.254 -0.7465  0.8534 -1.2056
10327TIP3   OH230937   7.280   7.260   6.125 -0.0682  0.0018 -0.1262
10327TIP3    H130938   7.205   7.298   6.079  0.5683 -0.7340 -1.8991
10327TIP3    H230939   7.350   7.324   6.112 -0.0676  0.1158  0.4406
10328TIP3   OH230940   1.311   2.960   4.312 -0.2522 -0.3727 -0.5503
10328TIP3    H130941   1.403   2.937   4.297 -0.6399 -1.2229 -1.8171
10328TIP3    H230942   1.282   2.999   4.230 -1.2537 -0.9028 -0.4680
10329TIP3   OH230943   5.120   2.720   3.552  0.0066 -0.4167 -0.2836
10329TIP3    H130944   5.044   2.773   3.573 -1.1142 -1.7221 -0.8419
10329TIP3    H230945   5.186   2.782   3.520 -0.0781  0.9759  2.0496
10330TIP3   OH230946   0.872   4.979   5.145 -0.2114 -0.3454 -0.5197
10330TIP3    H130947   0.847   5.020   5.062 -0.6817  0.8239  0.1628
10330TIP3    H230948   0.795   4.928   5.170 -1.1712  1.4440  0.4640
10331TIP3   OH230949   4.630   4.326   6.571  1.1920  0.3455  0.4447
10331TIP3    H130950   4.553   4.268   6.565 -0.9053  2.3716  3.9151
10331TIP3    H230951   4.698   4.271   6.611  0.4913 -0.6991  0.2403
10332TIP3   OH230952   6.268   6.432   3.460  0.1902 -0.0594 -0.6795
10332TIP3    H130953   6.281   6.474   3.376  1.3287  0.9240 -0.0394
10332TIP3    H230954   6.320   6.351   3.455 -0.1064 -0.2254 -1.0772
10333TIP3   OH230955   0.891   4.742   1.668 -0.5961  0.0068 -0.3850
10333TIP3    H130956   0.807   4.748   1.623 -1.5880 -1.6690  1.1124
10333TIP3    H230957   0.878   4.674   1.734  2.3673 -1.2365 -0.9594
10334TIP3   OH230958   2.606   3.987   0.177  0.4724 -0.4405 -0.6595
10334TIP3    H130959   2.650   3.963   0.095 -0.2621 -1.1166 -0.8645
10334TIP3    H230960   2.518   4.014   0.150  0.1718 -0.8236 -0.0852
10335TIP3   OH230961   1.967   6.398   4.903 -0.4096  0.3611  0.1573
10335TIP3    H130962   2.012   6.417   4.821 -0.1296 -0.0292  0.2151
10335TIP3    H230963   1.942   6.483   4.938 -2.2121  0.4650 -1.2454
10336TIP3   OH230964   2.218   3.322   6.489 -0.3321 -0.7655 -0.5160
10336TIP3    H130965   2.273   3.400   6.500 -0.1292 -0.9018 -0.5668
10336TIP3    H230966   2.144   3.353   6.437 -0.8458 -0.3291  0.4595
10337TIP3   OH230967   4.068   1.547   6.079  0.3541 -0.3321 -0.5295
10337TIP3    H130968   4.078   1.523   6.171 -0.7439 -2.8952 -0.9811
10337TIP3    H230969   3.974   1.561   6.068  0.7260  2.5284 -0.7852
10338TIP3   OH230970   1.287   4.319   6.026  0.4135 -0.0854  0.2675
10338TIP3    H130971   1.363   4.274   6.063 -0.2040 -0.6442  0.8968
10338TIP3    H230972   1.212   4.267   6.055 -0.2254  0.5432 -0.2101
10339TIP3   OH230973   3.951   6.231   1.913 -0.4058  0.2425 -0.0702
10339TIP3    H130974   4.003   6.309   1.893  0.8072 -0.5581 -0.0824
10339TIP3    H230975   3.954   6.179   1.833 -0.7279 -0.0908  0.1344
10340TIP3   OH230976   7.460   4.468   1.494  0.7421 -0.7963  0.2261
10340TIP3    H130977   7.523   4.408   1.453  0.4047  0.0329 -1.6108
10340TIP3    H230978   7.415   4.414   1.559  1.5144 -2.1137 -0.2922
10341TIP3   OH230979   6.213   6.568   1.659  0.2359  0.5685  0.1591
10341TIP3    H130980   6.308   6.573   1.657  0.3474 -0.4114  1.3618
10341TIP3    H230981   6.192   6.482   1.624 -0.1367  0.4052  0.7582
10342TIP3   OH230982   0.515   7.257   2.273 -0.4195 -0.0510 -0.1764
10342TIP3    H130983   0.575   7.325   2.245 -0.1391 -0.1860  0.0912
10342TIP3    H230984   0.563   7.207   2.339 -0.9086  0.0006  0.2342
10343TIP3   OH230985   6.034   1.285   0.733 -0.0435  0.3148 -0.1211
10343TIP3    H130986   6.115   1.250   0.695  0.2384 -0.9833  1.5560
10343TIP3    H230987   6.053   1.377   0.752  0.3263  0.5622 -1.5957
10344TIP3   OH230988   7.680   0.088   4.722  0.2402 -0.6208  0.3633
10344TIP3    H130989   7.714   0.175   4.704  0.2079 -0.6496  0.1602
10344TIP3    H230990   7.595   0.086   4.678  1.6443 -1.8914 -2.5419
10345TIP3   OH230991   5.543   3.956   6.439  0.3637  0.2545 -0.3724
10345TIP3    H130992   5.548   4.009   6.519 -0.9755 -1.4252  0.9033
10345TIP3    H230993   5.629   3.914   6.432  0.6134  0.7064 -0.0337
10346TIP3   OH230994   2.037   3.121   1.338 -0.2004 -0.6597 -0.2423
10346TIP3    H130995   2.037   3.168   1.421  0.6415  0.2557 -0.7345
10346TIP3    H230996   1.959   3.066   1.341 -0.4669 -0.2414  0.9250
10347TIP3   OH230997   0.656   1.806   3.940  0.1126  0.4096 -0.0468
10347TIP3    H130998   0.750   1.791   3.930  0.0098 -0.4255  0.1059
10347TIP3    H230999   0.616   1.728   3.901 -0.6007  1.8116 -2.2708
10348TIP3   OH231000   3.352   2.730   2.974 -0.6230  1.0474  0.5810
10348TIP3    H131001   3.354   2.739   2.878 -0.7923  0.2345  0.4980
10348TIP3    H231002   3.394   2.646   2.991  1.1912  2.0608  1.3612
10349TIP3   OH231003   3.860   6.319  -0.006  0.2542 -0.1779 -0.2328
10349TIP3    H131004   3.868   6.272   0.077  1.1727 -1.9982 -1.2799
10349TIP3    H231005   3.899   6.259  -0.071 -1.6313  0.5930 -2.1881
10350TIP3   OH231006   6.780   7.505   1.279  0.5321  0.6243 -0.3793
10350TIP3    H131007   6.803   7.545   1.195 -1.0357  1.1121 -0.6066
10350TIP3    H231008   6.736   7.423   1.255 -0.6708  1.1608 -0.0931
10351TIP3   OH231009   5.326   7.105   2.867  0.2650 -0.3985 -0.5323
10351TIP3    H131010   5.230   7.102   2.860  0.3477 -0.7650 -1.5847
10351TIP3    H231011   5.356   7.133   2.781  1.0486  1.3792  0.2627
10352TIP3   OH231012   2.189   3.978   2.277  0.5807 -0.5436 -0.7000
10352TIP3    H131013   2.231   4.064   2.279  3.0892 -1.6727 -0.6346
10352TIP3    H231014   2.246   3.922   2.331 -2.2261 -1.7747  1.2419
10353TIP3   OH231015   0.306   7.803   0.600  0.2886 -0.0604 -0.3300
10353TIP3    H131016   0.328   7.726   0.548  0.2775  0.4663 -1.1423
10353TIP3    H231017   0.231   7.776   0.654 -0.0572 -0.4555 -0.9977
10354TIP3   OH231018   4.935   5.775   5.867 -0.4871  0.5149 -0.7077
10354TIP3    H131019   5.009   5.725   5.900 -0.4032 -0.4962 -2.2890
10354TIP3    H231020   4.866   5.760   5.931 -0.2251 -1.0457 -0.7313
10355TIP3   OH231021   6.332   6.366   2.590 -0.2337 -0.0519  0.0948
10355TIP3    H131022   6.239   6.386   2.604 -0.1995 -0.0551  0.3307
10355TIP3    H231023   6.362   6.334   2.675 -0.2874 -1.1064 -0.2675
10356TIP3   OH231024   5.195   5.075   2.419 -0.4255  0.5520 -0.4390
10356TIP3    H131025   5.239   5.116   2.344 -0.4572 -1.5853 -1.7229
10356TIP3    H231026   5.248   4.998   2.439 -2.4515 -1.0453 -0.8018
10357TIP3   OH231027   4.911   2.866   6.377  0.3527 -0.0856  0.2689
10357TIP3    H131028   4.932   2.958   6.362  0.9580  0.1777  2.3041
10357TIP3    H231029   4.949   2.820   6.303  1.1119  1.2014 -0.1752
10358TIP3   OH231030   4.943   7.725   5.610 -0.3842 -0.0312 -0.2786
10358TIP3    H131031   4.877   7.766   5.667  2.1496  1.3462  1.8676
10358TIP3    H231032   4.973   7.649   5.659  1.9011  1.2235  0.4390
10359TIP3   OH231033   2.250   7.082   1.132  0.4817 -0.5033  0.3552
10359TIP3    H131034   2.316   7.152   1.128 -0.2225  0.2298  1.1855
10359TIP3    H231035   2.210   7.092   1.218 -0.2233 -1.4056  0.1454
10360TIP3   OH231036   0.411   3.633   1.684 -0.3175  0.3640  0.4254
10360TIP3    H131037   0.451   3.547   1.676  0.9233  1.0945 -2.9241
10360TIP3    H231038   0.333   3.629   1.628 -0.4617  1.2875  0.5402
10361TIP3   OH231039   1.769   2.747   0.462 -0.2768  0.1167 -0.2201
10361TIP3    H131040   1.857   2.782   0.479  1.3724 -3.2362 -0.9659
10361TIP3    H231041   1.742   2.710   0.546 -0.4900  0.1333 -0.2803
10362TIP3   OH231042   4.542   4.073   1.263 -0.1447  0.2439  0.4560
10362TIP3    H131043   4.557   4.157   1.220 -0.7084  0.0288 -0.1902
10362TIP3    H231044   4.486   4.025   1.201  0.1475 -0.5882  0.8287
10363TIP3   OH231045   2.234   7.485   0.883  0.6018  0.1685  0.5077
10363TIP3    H131046   2.146   7.520   0.900 -0.1734 -2.1484  1.6762
10363TIP3    H231047   2.248   7.501   0.790 -1.5186 -0.2948  0.0438
10364TIP3   OH231048   7.731   2.676   2.560 -0.0101 -0.5840  0.0776
10364TIP3    H131049   7.780   2.605   2.600 -0.9207  0.0286  2.3982
10364TIP3    H231050   7.753   2.753   2.612 -0.9612  0.3429 -0.8404
10365TIP3   OH231051   1.889   6.084   1.240 -0.2319 -0.4484  0.2028
10365TIP3    H131052   1.929   6.071   1.154  0.1757  0.7867  0.1962
10365TIP3    H231053   1.836   6.005   1.253  1.0296 -1.4554 -0.4282
10366TIP3   OH231054   7.334   2.756   6.251 -0.4243 -0.2354  0.7247
10366TIP3    H131055   7.385   2.835   6.267  1.7120 -0.7299 -2.5707
10366TIP3    H231056   7.392   2.684   6.277 -1.8488 -0.8115  2.4876
10367TIP3   OH231057   1.435   4.671   0.170  0.6793  0.5446 -0.3475
10367TIP3    H131058   1.350   4.630   0.185  1.3557 -1.3364 -1.4051
10367TIP3    H231059   1.416   4.745   0.113 -0.3927  0.9301  0.4646
10368TIP3   OH231060   1.083   4.803   3.743  0.4135  0.0391  0.1463
10368TIP3    H131061   1.089   4.761   3.657 -0.9631  0.0640  0.0102
10368TIP3    H231062   1.162   4.776   3.789  1.4758  0.4886 -1.3196
10369TIP3   OH231063   2.038   6.626   2.785 -0.1459 -0.0702 -0.0249
10369TIP3    H131064   1.966   6.590   2.733 -2.0149  2.1333  0.8738
10369TIP3    H231065   2.057   6.558   2.849 -1.6191 -0.6133 -0.1260
10370TIP3   OH231066   2.225   7.235   3.771 -0.2283  0.5702  0.3596
10370TIP3    H131067   2.255   7.323   3.748  0.4344  0.3120  0.2040
10370TIP3    H231068   2.186   7.201   3.690  2.3260 -0.4330 -0.5720
10371TIP3   OH231069   4.265   1.678   4.910 -0.8388 -0.3527 -0.1063
10371TIP3    H131070   4.206   1.707   4.840 -1.5723 -1.3429  0.0756
10371TIP3    H231071   4.218   1.699   4.991  0.1629  1.1136  0.1169
10372TIP3   OH231072   6.374   4.077   3.749 -0.3359  0.4073 -0.1595
10372TIP3    H131073   6.288   4.036   3.750  0.3832 -1.2355  1.4987
10372TIP3    H231074   6.389   4.106   3.839  1.3687 -0.6543 -0.0346
10373TIP3   OH231075   3.250   5.096   2.645 -0.2923 -0.0943 -0.3014
10373TIP3    H131076   3.318   5.044   2.686 -0.7612 -1.5004 -1.2412
10373TIP3    H231077   3.291   5.133   2.566 -0.2228  0.2102 -0.1234
10374TIP3   OH231078   6.049   4.193   2.545 -0.0343 -0.7172 -0.2448
10374TIP3    H131079   6.014   4.125   2.601  3.5045 -2.0230  0.6595
10374TIP3    H231080   6.026   4.165   2.456  0.4435 -2.5899  0.1784
10375TIP3   OH231081   6.862   5.338   5.151 -0.1596 -0.2404 -0.9096
10375TIP3    H131082   6.920   5.368   5.222  1.3712 -1.5819 -1.5302
10375TIP3    H231083   6.803   5.412   5.136  1.6508  1.3680 -0.5163
10376TIP3   OH231084   2.595   6.825   2.012  0.0096 -0.4672  0.2179
10376TIP3    H131085   2.553   6.888   2.071 -0.4875 -0.2953 -0.3095
10376TIP3    H231086   2.669   6.874   1.975  0.2885 -0.5571  0.6447
10377TIP3   OH231087   3.902   1.075   3.085  0.0962  0.3767 -0.0310
10377TIP3    H131088   3.940   1.145   3.137 -0.2195 -0.2076  1.0216
10377TIP3    H231089   3.939   1.086   2.998  0.5131  1.4771  0.2789
10378TIP3   OH231090   4.348   5.994   3.830 -0.9496  0.7535 -0.1167
10378TIP3    H131091   4.386   6.079   3.852  1.1609 -0.0229 -0.5471
10378TIP3    H231092   4.282   6.014   3.763  0.1145  1.9836 -0.8433
10379TIP3   OH231093   2.400   4.438   0.395  0.0029  0.0285 -0.1618
10379TIP3    H131094   2.349   4.396   0.464 -0.7485  0.5952 -0.3589
10379TIP3    H231095   2.465   4.491   0.441  0.5789 -0.8753  0.0909
10380TIP3   OH231096   5.948   3.917   4.258  0.6720  0.3722 -0.3482
10380TIP3    H131097   5.953   3.828   4.292 -0.8073  0.3609 -0.1036
10380TIP3    H231098   5.978   3.972   4.329 -1.1826  0.2564  0.5800
10381TIP3   OH231099   8.087   7.654   1.522 -0.0995 -0.0117 -0.0250
10381TIP3    H131100   8.101   7.748   1.512  2.6182 -0.2050  1.1917
10381TIP3    H231101   8.044   7.646   1.607 -1.2855  0.1453 -0.5856
10382TIP3   OH231102   7.480   4.560   0.975 -0.2703 -0.0669  0.2749
10382TIP3    H131103   7.550   4.608   0.930  0.1132 -1.2180 -0.4080
10382TIP3    H231104   7.407   4.560   0.914 -0.7238  0.7218  0.7950
10383TIP3   OH231105   7.239   2.171   1.757 -0.2944 -0.0272 -0.0399
10383TIP3    H131106   7.240   2.170   1.853  0.0797  0.6404 -0.0262
10383TIP3    H231107   7.252   2.080   1.732  1.5975  0.0190  0.5646
10384TIP3   OH231108   7.334   6.675   2.327 -1.1425  0.0596  0.5964
10384TIP3    H131109   7.312   6.670   2.234  0.6366  0.6774  0.0960
10384TIP3    H231110   7.319   6.586   2.360 -1.9359 -0.1318 -0.2372
10385TIP3   OH231111   4.715   7.010   4.905  0.0049  0.1233  0.6454
10385TIP3    H131112   4.789   7.067   4.926 -1.2898  1.2986  2.2350
10385TIP3    H231113   4.669   6.998   4.988 -3.2960  1.9442 -0.7185
10386TIP3   OH231114   0.131   1.220   2.391 -0.8214 -0.7250  0.1467
10386TIP3    H131115   0.102   1.230   2.300  0.5839 -0.0278 -0.2636
10386TIP3    H231116   0.159   1.129   2.398  0.8357 -0.3237 -0.7138
10387TIP3   OH231117   4.597   5.108   4.542  0.1882  0.3389  0.1568
10387TIP3    H131118   4.596   5.014   4.559  1.1526  0.3254  0.1634
10387TIP3    H231119   4.650   5.118   4.464  0.2127  0.8977  0.2412
10388TIP3   OH231120   4.809   2.948   2.857 -0.2452 -0.6616  0.0709
10388TIP3    H131121   4.725   2.956   2.812 -0.4298 -0.7106  0.3966
10388TIP3    H231122   4.871   2.922   2.789 -0.2115  0.6971 -0.4343
10389TIP3   OH231123   3.479   5.659   4.367 -0.4773  0.0592 -0.3255
10389TIP3    H131124   3.416   5.731   4.355  0.1534  0.3447 -2.2854
10389TIP3    H231125   3.449   5.591   4.307  0.5317 -0.1626 -0.6024
10390TIP3   OH231126   2.805   5.613   3.957 -0.2142  0.5661 -0.3007
10390TIP3    H131127   2.718   5.574   3.970 -0.3505  0.7891 -0.5384
10390TIP3    H231128   2.866   5.546   3.987 -0.4545  0.2348 -0.5516
10391TIP3   OH231129   5.716   0.545   2.951  0.5515  0.2468  0.6239
10391TIP3    H131130   5.794   0.599   2.961  0.3028  0.2642  3.0261
10391TIP3    H231131   5.646   0.606   2.929  1.0487  0.3290 -0.7793
10392TIP3   OH231132   0.355   0.518   3.528 -0.0989  0.6785 -0.1210
10392TIP3    H131133   0.425   0.465   3.489 -0.2716  0.0890  0.3698
10392TIP3    H231134   0.302   0.456   3.578 -0.5516  1.2442  0.1107
10393TIP3   OH231135   4.408   7.384   6.476  0.7752 -0.1703 -0.1243
10393TIP3    H131136   4.446   7.371   6.389 -0.5286  1.1599 -0.9380
10393TIP3    H231137   4.334   7.324   6.480 -1.0153  1.8532 -1.1746
10394TIP3   OH231138   1.009   7.591   4.818  0.1899 -0.6093 -0.0662
10394TIP3    H131139   0.978   7.681   4.807  0.3050 -0.7367 -1.5245
10394TIP3    H231140   1.074   7.597   4.888  0.1446  0.4232 -0.0992
10395TIP3   OH231141   2.825   5.914   1.985  0.0763 -0.2758  0.5860
10395TIP3    H131142   2.857   5.861   2.058  1.4729 -0.3326 -0.0186
10395TIP3    H231143   2.734   5.933   2.006  0.3357 -0.6384  2.1292
10396TIP3   OH231144   3.407   4.116   6.230  0.1291  0.5311  0.7306
10396TIP3    H131145   3.315   4.142   6.235 -0.3627 -0.7827 -0.6326
10396TIP3    H231146   3.451   4.191   6.191 -0.0722  1.7118  2.6585
10397TIP3   OH231147   0.607   5.633   5.459 -0.7111 -0.3668 -0.1085
10397TIP3    H131148   0.530   5.619   5.514 -1.0688 -0.9514 -0.7403
10397TIP3    H231149   0.571   5.643   5.371 -0.1897  1.0759 -0.1837
10398TIP3   OH231150   3.909   1.260   3.609 -0.3937 -0.6382  0.1061
10398TIP3    H131151   3.948   1.328   3.664  1.4746 -0.3942 -1.4276
10398TIP3    H231152   3.972   1.188   3.610 -0.4531 -0.7406 -1.4482
10399TIP3   OH231153   1.082   4.696  -0.005  0.2810  0.2610  0.4203
10399TIP3    H131154   1.025   4.768   0.024 -1.5122 -1.4480  1.3745
10399TIP3    H231155   1.127   4.668   0.075  1.2105  0.4980 -0.0065
10400TIP3   OH231156   1.380   0.330   2.199 -0.1881 -0.1615 -0.4447
10400TIP3    H131157   1.305   0.278   2.227  0.9583 -0.9983  1.2880
10400TIP3    H231158   1.360   0.355   2.109 -3.0220  0.6203  0.3129
10401TIP3   OH231159   1.549   6.316   1.412 -0.3868 -0.4192 -0.1290
10401TIP3    H131160   1.589   6.369   1.342  1.5823 -2.3234 -0.5601
10401TIP3    H231161   1.598   6.340   1.491 -1.2674  0.2800  0.2172
10402TIP3   OH231162   2.037   5.562   6.325  0.0085 -0.0824 -0.0032
10402TIP3    H131163   1.973   5.566   6.396  0.6938 -0.9992  0.6896
10402TIP3    H231164   2.001   5.619   6.256 -0.7135  0.7392  1.0286
10403TIP3   OH231165   4.010   4.914   5.103  0.5020 -0.2339 -0.2163
10403TIP3    H131166   3.925   4.904   5.059  0.2769  2.7560 -0.6405
10403TIP3    H231167   4.072   4.926   5.031  1.4849 -2.8737  0.0640
10404TIP3   OH231168   5.066   7.289   0.736 -0.5473 -0.4383  0.7397
10404TIP3    H131169   5.049   7.373   0.694 -0.6676 -0.3614  0.9411
10404TIP3    H231170   5.160   7.287   0.751 -0.5302 -0.3868  0.6317
10405TIP3   OH231171   5.116   5.086   3.597 -0.1793 -0.0162  0.2313
10405TIP3    H131172   5.106   4.995   3.626  1.5792 -1.4332 -3.1469
10405TIP3    H231173   5.027   5.113   3.574 -0.9515 -0.2756  2.5885
10406TIP3   OH231174   5.560   5.727   5.762 -0.1045 -0.0074  0.2399
10406TIP3    H131175   5.501   5.674   5.816 -0.0140 -0.8436 -0.4660
10406TIP3    H231176   5.562   5.812   5.806  0.5713 -0.8769  2.0078
10407TIP3   OH231177   4.000   5.524   6.103  0.1095 -0.0210  0.3676
10407TIP3    H131178   4.071   5.482   6.152  0.7878 -0.1157 -0.6420
10407TIP3    H231179   4.041   5.549   6.020 -1.2152 -0.7555 -0.5538
10408TIP3   OH231180   7.395   7.555   5.334 -0.1206  0.5946  0.5775
10408TIP3    H131181   7.358   7.578   5.419  0.3877 -1.0266  1.2768
10408TIP3    H231182   7.367   7.465   5.318 -0.8838  1.1164 -1.3798
10409TIP3   OH231183   0.521   5.349   3.184  0.0517  0.1348 -0.2762
10409TIP3    H131184   0.576   5.382   3.114 -2.3278  0.6473 -2.0444
10409TIP3    H231185   0.548   5.258   3.196  1.3529  0.4140 -0.9631
10410TIP3   OH231186   1.735   5.012   6.328 -0.4654 -0.1415 -0.2116
10410TIP3    H131187   1.646   5.048   6.333 -0.0607  0.7971  0.7375
10410TIP3    H231188   1.786   5.082   6.286 -0.5827 -1.5809 -2.9909
10411TIP3   OH231189   2.803   0.511   1.202 -0.4754  0.5388 -0.8497
10411TIP3    H131190   2.880   0.566   1.217  1.3094 -2.2225  1.0764
10411TIP3    H231191   2.753   0.518   1.283  0.3763 -1.4672 -0.1074
10412TIP3   OH231192   2.251   4.523   1.897 -0.2528 -0.1210  0.5795
10412TIP3    H131193   2.163   4.493   1.920 -0.1874 -0.7838  0.0100
10412TIP3    H231194   2.309   4.454   1.930  0.0177  0.0805  0.5310
10413TIP3   OH231195   1.889   6.227   2.837 -0.3430  0.1296 -0.3140
10413TIP3    H131196   1.918   6.154   2.782  1.1250 -0.9113  1.7270
10413TIP3    H231197   1.852   6.185   2.914  0.4296  1.5250  0.8570
10414TIP3   OH231198   3.001   1.083   3.248  0.2182 -0.4270 -0.4959
10414TIP3    H131199   3.024   1.150   3.313  0.0704 -0.2441 -0.6325
10414TIP3    H231200   2.945   1.129   3.185  0.0146 -0.7093 -0.5202
10415TIP3   OH231201   4.870   2.691   0.796 -0.4221  0.0614  0.6593
10415TIP3    H131202   4.928   2.743   0.851  1.4261 -1.0057 -0.1948
10415TIP3    H231203   4.797   2.667   0.854  0.5724  0.4480  2.1262
10416TIP3   OH231204   5.593   5.625   3.971  0.2759 -0.4051  0.3809
10416TIP3    H131205   5.634   5.560   4.028  0.7422 -1.0513 -0.6618
10416TIP3    H231206   5.570   5.576   3.892  1.1913  0.8141 -0.6746
10417TIP3   OH231207   5.426   0.551   4.785  0.0481 -0.2141 -0.0224
10417TIP3    H131208   5.344   0.583   4.746 -0.8764 -0.2717  1.7770
10417TIP3    H231209   5.410   0.458   4.800  0.4176 -0.2036  0.4443
10418TIP3   OH231210   7.011   7.101   0.980  0.2032 -0.2849  0.0048
10418TIP3    H131211   7.077   7.169   0.995 -0.2045  0.4226 -1.2519
10418TIP3    H231212   6.940   7.146   0.934 -1.3986 -0.9240  1.7367
10419TIP3   OH231213   8.026   1.420   2.136  0.7316 -0.1564 -0.0871
10419TIP3    H131214   8.105   1.453   2.094  0.5550  1.4253  0.7617
10419TIP3    H231215   8.053   1.337   2.176  1.8039  0.0818 -0.2907
10420TIP3   OH231216   0.955   2.761   4.188 -0.2965 -0.4775 -0.4669
10420TIP3    H131217   0.915   2.848   4.184  0.9223  0.1626  0.5722
10420TIP3    H231218   0.884   2.701   4.162 -1.2449  0.7792 -0.8998
10421TIP3   OH231219   4.396   3.243   3.684 -0.7951  0.4102  0.2479
10421TIP3    H131220   4.404   3.166   3.628 -1.0395  0.2414  0.4482
10421TIP3    H231221   4.363   3.311   3.625 -3.0608 -0.2877  0.6148
10422TIP3   OH231222   0.913   6.067   4.131 -0.7461 -0.3910 -0.1107
10422TIP3    H131223   0.989   6.051   4.075 -0.5408 -1.9615  0.5662
10422TIP3    H231224   0.927   6.154   4.168  1.3844 -1.1399  0.9838
10423TIP3   OH231225   5.864   6.940   4.297 -0.1736 -0.7368  0.1919
10423TIP3    H131226   5.901   6.979   4.376 -0.9307  2.1965 -0.7946
10423TIP3    H231227   5.934   6.884   4.263  1.4462  0.6561  1.0843
10424TIP3   OH231228   3.831   0.198   6.460  0.4758  0.0345  0.3811
10424TIP3    H131229   3.815   0.265   6.394 -0.8845 -1.0031 -0.4161
10424TIP3    H231230   3.885   0.132   6.415  0.1791 -0.3161  0.5301
10425TIP3   OH231231   6.873   6.140   4.229 -0.2734  0.6618 -0.0701
10425TIP3    H131232   6.951   6.142   4.284 -0.8152 -0.5173  0.7727
10425TIP3    H231233   6.832   6.056   4.248 -1.6168  1.1496 -0.6934
10426TIP3   OH231234   3.039   2.201   1.806 -0.3983  0.4963 -0.1097
10426TIP3    H131235   2.986   2.271   1.845  0.5193  1.3897 -0.4290
10426TIP3    H231236   3.003   2.190   1.718 -2.7432 -1.8092  1.0173
10427TIP3   OH231237   1.007   0.749   3.388 -0.5272 -0.0343  0.2652
10427TIP3    H131238   1.025   0.776   3.297 -0.9589  0.2640  0.2637
10427TIP3    H231239   1.076   0.791   3.439  0.2129 -0.8698 -0.0104
10428TIP3   OH231240   6.468   4.970   4.533  0.3100  0.2031  0.6214
10428TIP3    H131241   6.560   4.954   4.555  0.4872 -0.2837 -0.4151
10428TIP3    H231242   6.466   4.969   4.438 -0.9197 -0.6424  0.6401
10429TIP3   OH231243   4.571   4.591   6.569  0.1474 -0.0551  0.0083
10429TIP3    H131244   4.605   4.503   6.552 -0.5728 -0.1146 -1.3183
10429TIP3    H231245   4.584   4.605   6.662  2.0514 -0.7916 -0.1106
10430TIP3   OH231246   0.578   4.402   6.428  0.0291 -0.0065  0.0097
10430TIP3    H131247   0.646   4.338   6.405 -1.3940 -1.8439  0.5895
10430TIP3    H231248   0.604   4.436   6.513  2.1570  2.2510 -1.4116
10431TIP3   OH231249   2.928   5.854   3.181  0.0280 -0.1930 -0.1967
10431TIP3    H131250   3.024   5.848   3.180 -0.0118 -1.5963  0.6817
10431TIP3    H231251   2.908   5.923   3.118  1.5833 -0.3475 -0.9360
10432TIP3   OH231252   2.880   6.003   1.089  0.6709  0.4355 -0.0638
10432TIP3    H131253   2.968   5.989   1.122  0.9211  0.3864 -0.7392
10432TIP3    H231254   2.889   6.074   1.025  0.0236  1.2527  0.7194
10433TIP3   OH231255   4.865   4.009   1.300 -0.3661 -0.4682 -0.2870
10433TIP3    H131256   4.900   4.093   1.269  1.7078 -1.3274 -0.4860
10433TIP3    H231257   4.788   4.032   1.351  1.0811  1.7454  1.0704
10434TIP3   OH231258   0.470   1.851   1.670 -0.3758  0.3338 -0.1396
10434TIP3    H131259   0.554   1.894   1.652 -1.0844  1.7000 -0.3399
10434TIP3    H231260   0.439   1.823   1.585  0.5142 -1.4808  0.0893
10435TIP3   OH231261   5.595   6.708   5.681 -0.7387  0.2414 -0.0401
10435TIP3    H131262   5.507   6.680   5.654 -1.9975  3.3235  0.4793
10435TIP3    H231263   5.640   6.725   5.599 -1.3037  0.5019 -0.3044
10436TIP3   OH231264   3.780   6.850   5.756 -0.3555  0.5140  0.2637
10436TIP3    H131265   3.845   6.804   5.810  0.2707  1.5804  0.4595
10436TIP3    H231266   3.795   6.943   5.775 -1.5999  0.8073 -0.0957
10437TIP3   OH231267   4.771   3.840   5.096  0.1598  0.0752 -0.1755
10437TIP3    H131268   4.810   3.918   5.135  0.4200  0.2903 -0.8426
10437TIP3    H231269   4.829   3.768   5.122 -0.9661 -0.1648  1.7895
10438TIP3   OH231270   8.225   1.945   2.091 -0.4054  0.2992 -0.3313
10438TIP3    H131271   8.148   1.888   2.086 -1.3443  1.5273 -0.3274
10438TIP3    H231272   8.207   2.004   2.164  2.0540 -1.4862  1.8970
10439TIP3   OH231273   3.961   7.490   3.768 -0.3789  0.1417  0.1456
10439TIP3    H131274   3.867   7.507   3.772 -0.3017  0.5498  0.2791
10439TIP3    H231275   4.001   7.567   3.808  0.0613  0.5719 -1.0755
10440TIP3   OH231276   1.100   1.431   5.846  0.3686 -0.3805 -0.1180
10440TIP3    H131277   1.129   1.487   5.918 -0.6284 -0.6228  0.4953
10440TIP3    H231278   1.005   1.444   5.842 -0.0205 -2.6240  0.5834
10441TIP3   OH231279   4.252   4.461   0.769  0.1357 -0.0922  0.2406
10441TIP3    H131280   4.322   4.429   0.712  0.1315  0.6327 -0.1839
10441TIP3    H231281   4.177   4.404   0.749  0.0793  0.2669 -0.6316
10442TIP3   OH231282   0.227   5.052   0.098 -0.7236 -0.0735  0.3919
10442TIP3    H131283   0.163   5.107   0.053 -1.5687 -0.3409  1.2246
10442TIP3    H231284   0.309   5.067   0.051 -1.1065  1.2722  0.0931
10443TIP3   OH231285   0.894   1.198   5.668 -0.1620  0.2224 -0.1559
10443TIP3    H131286   0.971   1.142   5.667  0.5954  1.2250  0.1018
10443TIP3    H231287   0.929   1.287   5.661 -1.1324  0.8814  2.4053
10444TIP3   OH231288   5.871   2.113   6.277 -0.0467  0.1079  0.2226
10444TIP3    H131289   5.915   2.033   6.246 -1.3780  0.3825 -2.7657
10444TIP3    H231290   5.936   2.182   6.266  1.2546 -0.4824  3.2073
10445TIP3   OH231291   6.356   4.160   2.462  0.0275  0.5887 -0.1584
10445TIP3    H131292   6.401   4.076   2.455 -1.4398 -0.1526 -1.4290
10445TIP3    H231293   6.267   4.137   2.489 -0.2755  1.7812 -0.0791
10446TIP3   OH231294   6.546   1.188   0.277  0.3661 -0.0079  0.2973
10446TIP3    H131295   6.549   1.100   0.315 -1.8907 -0.1984  0.1838
10446TIP3    H231296   6.472   1.185   0.216 -0.0261  2.1016  0.5935
10447TIP3   OH231297   7.012   1.738   6.085  0.0821  0.0552 -0.2228
10447TIP3    H131298   6.932   1.701   6.047  0.3461  0.6264 -1.3626
10447TIP3    H231299   7.072   1.664   6.091 -0.0055 -0.0662 -0.8119
10448TIP3   OH231300   1.341   1.648   3.328  0.2343  0.1015 -0.6023
10448TIP3    H131301   1.427   1.666   3.289 -0.3468  3.9403 -0.5174
10448TIP3    H231302   1.359   1.584   3.397  2.9835  0.5879 -0.7472
10449TIP3   OH231303   0.406   0.883   4.048  0.2016  0.1234 -0.1475
10449TIP3    H131304   0.327   0.937   4.051  0.4283  0.4275  0.4369
10449TIP3    H231305   0.415   0.860   3.955  0.4477  1.5934 -0.5054
10450TIP3   OH231306   7.550   0.169   2.993  0.0083 -0.0552  0.1631
10450TIP3    H131307   7.606   0.227   2.941  1.0369  0.5672  1.8719
10450TIP3    H231308   7.536   0.217   3.075 -1.4513 -1.0520  0.5318
10451TIP3   OH231309   2.057   0.683   5.168 -0.3713  0.1393  0.0694
10451TIP3    H131310   2.135   0.720   5.209 -0.0133  0.5090 -0.9209
10451TIP3    H231311   1.990   0.751   5.180  0.2608  1.1133 -1.6640
10452TIP3   OH231312   5.872   3.663   1.149 -0.0914  0.2675  0.7013
10452TIP3    H131313   5.830   3.578   1.140  0.0596  0.2488  0.1316
10452TIP3    H231314   5.819   3.710   1.213  0.5938 -0.7274  2.0496
10453TIP3   OH231315   1.911   3.231   4.027 -0.4687  0.2952 -0.2571
10453TIP3    H131316   1.840   3.244   4.090 -0.0242  1.2511  0.0657
10453TIP3    H231317   1.983   3.196   4.079 -1.2494 -2.5186 -0.9044
10454TIP3   OH231318   2.891   4.690   2.101 -0.3923 -0.4127  0.7628
10454TIP3    H131319   2.933   4.759   2.153 -2.9853  1.9658 -0.0767
10454TIP3    H231320   2.923   4.705   2.012 -2.2417  0.8919  0.2690
10455TIP3   OH231321   2.962   0.681   3.943 -0.5658 -0.1165 -0.4538
10455TIP3    H131322   3.029   0.734   3.898  0.3858 -1.1407 -0.2797
10455TIP3    H231323   2.908   0.745   3.989  0.4904  0.7170 -0.3387
10456TIP3   OH231324   7.518   1.361   0.985  0.1552 -0.0150  0.6993
10456TIP3    H131325   7.499   1.336   0.895  1.6236 -0.5013  0.5060
10456TIP3    H231326   7.613   1.363   0.990  0.1243 -0.9242  2.4839
10457TIP3   OH231327   4.007   3.286   5.853  0.1721  0.2061  0.2254
10457TIP3    H131328   3.918   3.251   5.855  0.0215  0.6128  0.7207
10457TIP3    H231329   4.061   3.216   5.891 -0.1130  0.4575  1.1215
10458TIP3   OH231330   3.735   0.747   6.104 -0.0118  0.1806  0.5805
10458TIP3    H131331   3.816   0.695   6.101  1.0956  1.8378 -0.6926
10458TIP3    H231332   3.745   0.803   6.181 -0.0755  0.1935  0.5793
10459TIP3   OH231333   6.189   2.526   4.141  0.2380 -0.0542 -0.2960
10459TIP3    H131334   6.260   2.564   4.193 -1.5839  1.6323  1.0911
10459TIP3    H231335   6.221   2.529   4.051  1.7758  1.0224  0.2478
10460TIP3   OH231336   4.312   3.415   2.889 -1.0660 -0.8570  0.1239
10460TIP3    H131337   4.256   3.457   2.823  3.1708  1.1332 -2.6431
10460TIP3    H231338   4.307   3.322   2.869 -1.2391 -0.4515 -1.9713
10461TIP3   OH231339   3.767   6.621   1.996 -0.0650  0.0393  0.2819
10461TIP3    H131340   3.862   6.624   2.012  0.2899 -0.0155 -1.5728
10461TIP3    H231341   3.732   6.696   2.044  1.0284  0.4695  0.4420
10462TIP3   OH231342   1.366   5.348   4.750 -0.4243 -0.0179  0.2306
10462TIP3    H131343   1.305   5.395   4.807 -1.6909 -0.4222 -0.7481
10462TIP3    H231344   1.418   5.417   4.708 -0.6143  0.3641  0.6226
10463TIP3   OH231345   5.547   7.297   4.324  0.5649  0.1080  0.0748
10463TIP3    H131346   5.594   7.381   4.321  1.5260 -0.3687  1.1677
10463TIP3    H231347   5.595   7.245   4.389 -1.6765 -0.2750  1.5277
10464TIP3   OH231348   7.599   5.100   2.761  0.4782  0.0747 -0.5931
10464TIP3    H131349   7.545   5.021   2.757 -0.9568  0.8702  1.2236
10464TIP3    H231350   7.577   5.148   2.682 -1.2529  0.1813 -0.0971
10465TIP3   OH231351   1.835   3.365   0.919 -0.0858  0.5892 -0.1467
10465TIP3    H131352   1.803   3.385   0.831  0.0192  2.4755  0.2106
10465TIP3    H231353   1.755   3.350   0.970 -0.1305 -1.4371 -0.7116
10466TIP3   OH231354   4.342   1.068   2.507  0.6489  0.4107 -0.3401
10466TIP3    H131355   4.343   1.051   2.601 -0.5521 -2.0673 -0.7020
10466TIP3    H231356   4.288   1.147   2.498  0.7451  0.6623  1.0273
10467TIP3   OH231357   0.896   3.817   4.714  0.2401 -0.2970 -0.3625
10467TIP3    H131358   0.984   3.854   4.728 -0.5644  0.5774  3.0962
10467TIP3    H231359   0.905   3.725   4.738 -0.1480  0.2420  2.1051
10468TIP3   OH231360   0.842   1.429   0.702  0.4633  0.1433 -0.2014
10468TIP3    H131361   0.869   1.521   0.693 -1.0290  0.5345 -1.1012
10468TIP3    H231362   0.919   1.379   0.678  1.3891  1.1472  0.5647
10469TIP3   OH231363   3.160   7.200   3.200  0.2231  0.4502  0.1415
10469TIP3    H131364   3.128   7.255   3.272  1.1411  0.3960  0.6165
10469TIP3    H231365   3.137   7.111   3.226  0.4298  0.4442  0.3142
10470TIP3   OH231366   3.688   2.014   3.137 -0.1457 -0.4462  0.5372
10470TIP3    H131367   3.750   2.029   3.065  0.3819 -1.8567  0.6679
10470TIP3    H231368   3.603   2.035   3.099  0.2392 -0.0610 -0.1429
10471TIP3   OH231369   1.294   3.590   6.191 -0.7337  0.3733  0.2304
10471TIP3    H131370   1.271   3.677   6.156  1.7737  0.7515 -0.6628
10471TIP3    H231371   1.365   3.607   6.252  0.7977 -1.1665 -1.0348
10472TIP3   OH231372   6.647   1.589   5.738 -0.2326  0.4472 -0.5695
10472TIP3    H131373   6.571   1.647   5.733  0.8548  1.9068 -0.9259
10472TIP3    H231374   6.721   1.645   5.715  0.8604 -1.1366 -1.0889
10473TIP3   OH231375   3.022   5.636   0.121 -0.0005  0.2140  0.0093
10473TIP3    H131376   3.117   5.627   0.117 -0.0187 -0.2450  0.5607
10473TIP3    H231377   2.992   5.562   0.173 -0.6377  0.5073  0.0790
10474TIP3   OH231378   3.060   1.997   6.317  0.1461  0.0590 -0.3767
10474TIP3    H131379   3.048   1.997   6.412  1.0724  2.5642 -0.2025
10474TIP3    H231380   3.145   1.954   6.303  1.0590  1.6352  0.1430
10475TIP3   OH231381   3.361   6.541   4.386 -0.2466  0.4834 -0.0746
10475TIP3    H131382   3.288   6.602   4.375 -0.3296  0.5410  0.7284
10475TIP3    H231383   3.337   6.488   4.462  0.0237 -0.2669 -0.4981
10476TIP3   OH231384   2.733   2.962   4.567 -0.2429 -0.3414  0.1157
10476TIP3    H131385   2.820   2.979   4.533 -0.0504 -0.8453  0.3409
10476TIP3    H231386   2.711   2.875   4.534  0.3426 -1.2806  2.0358
10477TIP3   OH231387   0.771   5.984   5.421  0.2262 -0.1591 -0.1403
10477TIP3    H131388   0.701   6.022   5.369 -0.7119 -0.2280  1.0518
10477TIP3    H231389   0.776   6.038   5.499 -0.2504 -1.6892  0.9850
10478TIP3   OH231390   5.392   0.797   2.027 -0.5387  0.1114 -0.0916
10478TIP3    H131391   5.325   0.797   2.095  0.4637  1.0505  0.9276
10478TIP3    H231392   5.363   0.865   1.966  0.1279  1.4409  1.0340
10479TIP3   OH231393   1.987   1.368   1.513  0.0063  0.3743 -0.0476
10479TIP3    H131394   2.050   1.435   1.540  2.1905 -1.1149 -1.1369
10479TIP3    H231395   1.963   1.324   1.594  0.9275  0.5322  0.3237
10480TIP3   OH231396   0.656   3.133   0.576  0.3565  0.5196 -0.1289
10480TIP3    H131397   0.628   3.089   0.496  2.0998 -1.4792  0.2622
10480TIP3    H231398   0.586   3.116   0.639  0.3856 -0.5957 -0.3745
10481TIP3   OH231399   7.414   4.980   1.616 -0.1918 -0.0453 -0.0792
10481TIP3    H131400   7.472   5.028   1.557 -1.1687  1.5062  0.1572
10481TIP3    H231401   7.457   4.896   1.628  0.7411  0.1078 -1.8866
10482TIP3   OH231402   1.596   4.117   2.175  0.3686 -0.2957 -0.8295
10482TIP3    H131403   1.658   4.045   2.186 -1.3107 -1.7240 -0.1484
10482TIP3    H231404   1.515   4.075   2.145 -0.4095  1.4311 -1.2942
10483TIP3   OH231405   2.259   6.696   1.998 -0.0115  0.3356  0.5078
10483TIP3    H131406   2.323   6.712   2.067 -0.9438  1.7236  1.0873
10483TIP3    H231407   2.312   6.682   1.919  1.0108  0.8433  1.0842
10484TIP3   OH231408   0.582   3.331   5.779  0.0848  0.9508 -0.0815
10484TIP3    H131409   0.519   3.280   5.829 -0.1781  1.9724  0.6668
10484TIP3    H231410   0.667   3.311   5.819  0.2553 -0.3815 -1.0545
10485TIP3   OH231411   4.213   2.694   1.814 -0.2886  0.2365  0.0618
10485TIP3    H131412   4.232   2.636   1.741 -0.7175 -0.0531  0.1763
10485TIP3    H231413   4.142   2.650   1.862  0.3257  0.1748  0.9372
10486TIP3   OH231414   6.057   0.924   1.433  0.2323 -0.2058  1.1000
10486TIP3    H131415   6.128   0.926   1.369  1.0612 -2.5328  1.8631
10486TIP3    H231416   5.992   0.865   1.394 -0.6045  0.6653  1.1274
10487TIP3   OH231417   0.431   0.937   0.281  0.1755 -0.4105  0.0778
10487TIP3    H131418   0.524   0.916   0.275 -0.1557 -1.7110 -0.9665
10487TIP3    H231419   0.388   0.853   0.298 -0.8573  0.1034  0.1017
10488TIP3   OH231420   0.149   6.563   2.078  0.0858  0.4511 -0.8012
10488TIP3    H131421   0.061   6.593   2.099  0.2006  0.5221 -0.4268
10488TIP3    H231422   0.204   6.640   2.087  0.3006  0.2451 -0.3222
10489TIP3   OH231423   0.086   2.441   6.136 -0.1456  0.4357  0.3054
10489TIP3    H131424  -0.006   2.414   6.132 -0.1994  0.4283  1.4707
10489TIP3    H231425   0.095   2.503   6.064 -0.6597 -0.7224 -0.8022
10490TIP3   OH231426   5.013   5.168   2.127  0.6243 -0.4879 -0.0332
10490TIP3    H131427   5.042   5.257   2.150  0.4935 -0.1143 -1.2439
10490TIP3    H231428   5.093   5.116   2.129  0.5970 -0.5069  1.3543
10491TIP3   OH231429   1.342   6.666   6.364  0.3138  1.3992  0.4164
10491TIP3    H131430   1.288   6.587   6.362 -1.6663  2.6766 -1.5829
10491TIP3    H231431   1.425   6.639   6.325 -0.3213  0.2790 -0.2254
10492TIP3   OH231432   1.181   0.387   0.615  0.0416 -0.7238  0.0990
10492TIP3    H131433   1.215   0.452   0.676  1.1865 -1.4792  0.3059
10492TIP3    H231434   1.096   0.421   0.588  0.7112  0.9649  0.0137
10493TIP3   OH231435   0.068   5.318   0.969  0.8955 -0.0758  0.1556
10493TIP3    H131436   0.009   5.266   0.914  0.2361  2.1482 -1.3771
10493TIP3    H231437   0.143   5.338   0.913  2.8364 -2.1586  1.8205
10494TIP3   OH231438   4.538   7.832   6.620  0.5323  0.2506  0.3819
10494TIP3    H131439   4.626   7.854   6.649  1.3522 -1.1774 -0.8661
10494TIP3    H231440   4.548   7.747   6.576 -1.1649  0.7617 -1.1109
10495TIP3   OH231441   6.710   1.694   5.429 -0.0072 -0.1815  0.3069
10495TIP3    H131442   6.778   1.628   5.421  0.1745 -0.4442  3.0014
10495TIP3    H231443   6.629   1.645   5.446 -0.3808  0.2237 -0.2397
10496TIP3   OH231444   2.592   6.799   1.393  0.4341 -0.0520  0.0197
10496TIP3    H131445   2.602   6.749   1.474  0.1218  1.8717  1.3348
10496TIP3    H231446   2.628   6.885   1.414 -1.4500  1.1252 -1.2367
10497TIP3   OH231447   7.854   0.823   2.746 -0.0124 -0.0783  0.5385
10497TIP3    H131448   7.947   0.839   2.761 -0.2692  1.3901  0.8150
10497TIP3    H231449   7.850   0.737   2.705  1.6100  0.5354 -1.0229
10498TIP3   OH231450   1.747   1.701   6.502  0.3909  0.4552  0.6215
10498TIP3    H131451   1.716   1.663   6.420 -2.6865 -1.0902  2.3186
10498TIP3    H231452   1.714   1.791   6.501 -3.1916 -0.6953  1.6945
10499TIP3   OH231453   1.493   5.116   6.221 -0.4893 -0.3568 -0.3407
10499TIP3    H131454   1.444   5.195   6.198 -1.1123 -0.7082 -0.2287
10499TIP3    H231455   1.427   5.048   6.229  0.0422 -0.8848 -0.3920
10500TIP3   OH231456   6.978   0.741   4.675  0.3790  0.5322  0.4073
10500TIP3    H131457   7.003   0.805   4.608  0.7027  0.1033  0.1103
10500TIP3    H231458   6.986   0.656   4.632 -0.1669  0.2931  0.7603
10501TIP3   OH231459   6.419   6.082   1.373 -0.2838 -0.1811 -0.1343
10501TIP3    H131460   6.423   6.178   1.376  1.1198 -0.2333  1.3447
10501TIP3    H231461   6.510   6.055   1.359 -0.0313 -1.3098  2.9370
10502TIP3   OH231462   4.323   0.144   2.310  0.3001  0.0622 -0.2136
10502TIP3    H131463   4.362   0.090   2.379  0.1654  0.5462  0.2498
10502TIP3    H231464   4.327   0.234   2.344 -1.0370  0.1497 -0.2270
10503TIP3   OH231465   5.789   0.045   2.913  0.3743  0.2875 -0.2110
10503TIP3    H131466   5.809   0.070   3.003  0.5267  0.2138 -0.2240
10503TIP3    H231467   5.738  -0.036   2.921 -1.1232  1.1976 -0.1145
10504TIP3   OH231468   1.420   1.662   5.773  0.2691  0.4699 -0.4117
10504TIP3    H131469   1.327   1.674   5.754  0.4740  1.2706 -0.9424
10504TIP3    H231470   1.422   1.593   5.840 -0.8569  2.1430  1.4330
10505TIP3   OH231471   6.841   4.324   1.224 -0.2609 -0.1399 -0.8043
10505TIP3    H131472   6.831   4.414   1.257 -0.5398  0.3625 -2.1906
10505TIP3    H231473   6.929   4.321   1.188  0.9894 -1.4319  2.0601
10506TIP3   OH231474   0.377   2.950   1.065  0.0672 -0.2565 -0.4775
10506TIP3    H131475   0.330   2.963   0.983  0.0124  0.9810 -0.2698
10506TIP3    H231476   0.440   2.881   1.046 -0.0586 -0.1076 -1.5088
10507TIP3   OH231477   8.220   7.135   0.978 -0.2373 -0.1091 -0.2368
10507TIP3    H131478   8.303   7.090   0.960 -0.2286 -0.4990  0.7582
10507TIP3    H231479   8.154   7.066   0.976 -0.5279  0.1849 -0.9077
10508TIP3   OH231480   7.897   5.157   2.717 -0.2948  0.6159  0.2276
10508TIP3    H131481   7.981   5.144   2.761  0.8760  2.2739 -1.3838
10508TIP3    H231482   7.832   5.119   2.777  1.4407  0.6219  2.2054
10509TIP3   OH231483   7.430   1.622   0.142  0.0088  0.4249 -0.0036
10509TIP3    H131484   7.384   1.706   0.142 -1.4658 -0.2825  2.2862
10509TIP3    H231485   7.459   1.611   0.233 -0.7515 -1.9780  0.0113
10510TIP3   OH231486   8.044   6.570   5.769  0.0117  0.6031 -0.4463
10510TIP3    H131487   8.112   6.611   5.715  0.2548  0.2038 -0.4481
10510TIP3    H231488   8.040   6.479   5.738 -0.5021  0.6155 -0.4248
10511TIP3   OH231489   8.098   5.799   4.934  0.0677  0.3699  0.0439
10511TIP3    H131490   8.090   5.859   5.008  0.1897 -0.3649  0.6698
10511TIP3    H231491   8.069   5.850   4.858 -0.5314  0.9874  0.6687
10512TIP3   OH231492   2.712   5.936   2.576 -0.2236 -0.2096 -0.2302
10512TIP3    H131493   2.733   5.934   2.669 -1.9806  0.5531  0.2160
10512TIP3    H231494   2.719   5.845   2.548 -0.4588 -0.5714  0.8428
10513TIP3   OH231495   3.985   0.727   6.544 -0.2509 -0.0942 -0.3583
10513TIP3    H131496   3.985   0.688   6.632 -0.9654  1.6930  0.4800
10513TIP3    H231497   3.896   0.761   6.533  0.1366  0.6645 -1.3425
10514TIP3   OH231498   1.778   4.214   3.233 -0.1099 -0.2178  0.7388
10514TIP3    H131499   1.867   4.192   3.204  0.4205  1.2012  1.2174
10514TIP3    H231500   1.782   4.307   3.255 -2.0786  0.2612 -0.6253
10515TIP3   OH231501   3.718   7.524   0.304  0.2852 -0.2062 -0.1789
10515TIP3    H131502   3.630   7.488   0.298  0.3877 -0.5652  0.4270
10515TIP3    H231503   3.705   7.614   0.334  0.1943 -0.7045  1.3426
10516TIP3   OH231504   6.946   1.127   3.197  0.0116  0.1141 -0.1730
10516TIP3    H131505   6.914   1.211   3.166 -0.0414 -0.2349 -1.0808
10516TIP3    H231506   7.010   1.150   3.265  0.3440  0.9054 -0.7288
10517TIP3   OH231507   3.144   3.289   6.485  0.1489 -0.0017  0.6498
10517TIP3    H131508   3.161   3.281   6.579 -0.4722  0.9327  0.8574
10517TIP3    H231509   3.067   3.234   6.470  0.4644 -0.4401  0.6084
10518TIP3   OH231510   6.425   0.394   4.000  0.2234  0.6163 -0.1640
10518TIP3    H131511   6.330   0.390   4.011  0.2676 -0.0068 -0.0239
10518TIP3    H231512   6.439   0.368   3.909  0.1800  1.8264 -0.5411
10519TIP3   OH231513   2.662   2.091   5.745 -0.0837 -0.4095 -0.6118
10519TIP3    H131514   2.581   2.141   5.757 -0.6438 -1.2067 -1.0154
10519TIP3    H231515   2.673   2.086   5.650  0.9060  0.4156 -0.5584
10520TIP3   OH231516   1.140   2.598   4.740 -0.2037 -0.2623 -0.1982
10520TIP3    H131517   1.212   2.628   4.797  0.9773  0.1076 -1.7963
10520TIP3    H231518   1.181   2.532   4.684 -0.7536  0.8298 -1.9702
10521TIP3   OH231519   4.835   1.413   6.145 -0.0385 -0.0902 -0.0687
10521TIP3    H131520   4.855   1.366   6.064 -0.0728 -0.4686  0.1414
10521TIP3    H231521   4.890   1.491   6.141  1.1105 -0.8636  0.2569
10522TIP3   OH231522   4.099   4.552   6.738 -0.1447  0.1119  0.5976
10522TIP3    H131523   4.090   4.532   6.645 -1.5418  0.2546  0.6788
10522TIP3    H231524   4.163   4.489   6.771 -1.8001 -1.9246  0.1223
10523TIP3   OH231525   2.211   7.232   6.429  0.1987 -0.6256 -0.2144
10523TIP3    H131526   2.168   7.318   6.429  1.5103  0.1092  1.6725
10523TIP3    H231527   2.269   7.234   6.353 -0.1962 -0.0732 -0.5117
10524TIP3   OH231528   0.499   2.326   6.619  0.1942 -0.6924 -0.1442
10524TIP3    H131529   0.594   2.323   6.610  0.2802  1.7689 -0.7464
10524TIP3    H231530   0.467   2.326   6.529 -0.4976 -2.8625  0.0583
10525TIP3   OH231531   0.354   5.858   6.412 -0.3179  0.1034  0.5280
10525TIP3    H131532   0.404   5.778   6.402  1.0877  0.7072  2.1361
10525TIP3    H231533   0.307   5.847   6.495 -0.7131  0.6317  0.3833
10526TIP3   OH231534   5.727   7.151   5.708  0.3738 -0.3456 -0.6587
10526TIP3    H131535   5.799   7.184   5.762 -0.5091  0.8034 -0.1225
10526TIP3    H231536   5.676   7.229   5.687 -1.1084 -1.2185 -0.4268
10527TIP3   OH231537   0.345   2.151   5.238 -0.5864 -0.5327 -0.3111
10527TIP3    H131538   0.440   2.161   5.241 -0.5003 -1.1820 -0.5667
10527TIP3    H231539   0.313   2.192   5.318  0.1856 -3.1931  1.4743
10528TIP3   OH231540   3.812   3.905   3.193  1.0333  0.1899  0.0287
10528TIP3    H131541   3.863   3.984   3.206  1.5175 -0.1201  0.0536
10528TIP3    H231542   3.737   3.915   3.251  1.3134  0.4365  0.3524
10529TIP3   OH231543   7.612   1.104   4.096 -0.1780  0.0285  0.4546
10529TIP3    H131544   7.573   1.123   4.181 -0.0600  0.1197  0.4897
10529TIP3    H231545   7.633   1.191   4.060 -1.4356  0.0773 -0.2465
10530TIP3   OH231546   6.896   6.693   0.700  0.1845 -0.8387  0.8579
10530TIP3    H131547   6.955   6.649   0.639  0.1917  2.0451 -1.4059
10530TIP3    H231548   6.828   6.628   0.719  0.5030 -2.0591 -1.7410
10531TIP3   OH231549   5.585   4.838   6.573  0.1163  0.3656 -0.6862
10531TIP3    H131550   5.559   4.788   6.496  0.3489 -2.4234  0.9325
10531TIP3    H231551   5.638   4.778   6.625 -0.1046  2.0893  1.7263
10532TIP3   OH231552   4.138   1.448   5.517  0.4171 -0.0894  0.6751
10532TIP3    H131553   4.189   1.378   5.478 -0.2226 -1.0242  1.4779
10532TIP3    H231554   4.049   1.434   5.486  0.4153  0.8468  0.2120
10533TIP3   OH231555   5.721   6.921   3.513 -0.3051  0.6419  0.2991
10533TIP3    H131556   5.705   6.948   3.423  0.0118 -0.6473 -0.1613
10533TIP3    H231557   5.660   6.848   3.527 -0.9812  1.3848  1.4306
10534TIP3   OH231558   6.131   6.481   1.196 -0.5040  0.1658  0.4735
10534TIP3    H131559   6.072   6.552   1.170 -0.5232 -0.3824 -1.1475
10534TIP3    H231560   6.073   6.415   1.235 -0.4369  1.1419  2.3373
10535TIP3   OH231561   5.641   2.876   5.093  0.1572  0.1605  0.1003
10535TIP3    H131562   5.622   2.964   5.061 -0.5696  0.0903  0.3059
10535TIP3    H231563   5.718   2.886   5.149  1.2929  0.3211 -1.4518
10536TIP3   OH231564   6.460   1.139   5.083  0.4563  0.2953 -0.7700
10536TIP3    H131565   6.522   1.175   5.019  0.3056  0.4113 -0.8519
10536TIP3    H231566   6.389   1.103   5.030 -0.5432  1.9829 -0.6268
10537TIP3   OH231567   6.603   4.289   1.479  0.0525 -0.4324 -0.3072
10537TIP3    H131568   6.555   4.342   1.416  1.3974  0.0809 -0.9106
10537TIP3    H231569   6.637   4.351   1.543 -0.3293 -0.8266  0.2888
10538TIP3   OH231570   5.338   6.465   2.798  0.5249  0.0219  0.0123
10538TIP3    H131571   5.267   6.496   2.743 -0.3102 -0.3750  0.8383
10538TIP3    H231572   5.295   6.431   2.876  1.5945 -0.6590  0.3271
10539TIP3   OH231573   7.004   6.992   4.868 -0.0920 -0.1555 -0.3580
10539TIP3    H131574   6.950   7.071   4.859  0.2435  0.2725  1.0937
10539TIP3    H231575   6.950   6.932   4.920 -0.5622 -1.1313 -1.8993
10540TIP3   OH231576   3.494   7.262   1.563 -0.1648  0.4712 -0.1146
10540TIP3    H131577   3.486   7.215   1.480 -0.3395  0.1223  0.0977
10540TIP3    H231578   3.403   7.282   1.588 -0.1232  0.3848  0.1020
10541TIP3   OH231579   4.071   5.335   4.427  0.5981  0.5321  0.3542
10541TIP3    H131580   4.099   5.248   4.456  0.1318  0.6365  1.1388
10541TIP3    H231581   4.049   5.322   4.334  0.1542 -0.2867  0.5612
10542TIP3   OH231582   7.890   6.417   2.627  0.3110  0.2638  0.1863
10542TIP3    H131583   7.861   6.409   2.717  2.1199  0.0090  0.7937
10542TIP3    H231584   7.905   6.327   2.598  0.9354  0.3894  0.0854
10543TIP3   OH231585   4.659   7.031   6.420  0.9002 -0.0758  0.2490
10543TIP3    H131586   4.752   7.045   6.400  0.7052  0.1338 -0.5450
10543TIP3    H231587   4.660   6.967   6.492  1.6922  1.2593  1.4858
10544TIP3   OH231588   8.059   1.663   6.325 -0.9004  0.0739 -0.0168
10544TIP3    H131589   8.059   1.727   6.254 -1.1553  0.4141  0.2857
10544TIP3    H231590   8.025   1.711   6.401 -1.6163 -0.5622  0.0803
10545TIP3   OH231591   0.601   5.262   6.192  0.7197  0.2834  0.2564
10545TIP3    H131592   0.643   5.280   6.107 -0.3600  0.4127 -0.2652
10545TIP3    H231593   0.634   5.176   6.217  1.1879  0.3213 -0.2024
10546TIP3   OH231594   4.765   0.457   5.249 -0.5241  0.4617 -0.5263
10546TIP3    H131595   4.695   0.392   5.251 -0.7264  0.6268 -1.6470
10546TIP3    H231596   4.846   0.406   5.250 -0.6671  0.2365 -0.2822
10547TIP3   OH231597   1.298   1.166   5.121 -0.5222 -0.3915  0.5073
10547TIP3    H131598   1.334   1.150   5.208  0.7557 -2.1841 -0.2784
10547TIP3    H231599   1.303   1.261   5.109 -0.3714 -0.1645  2.2310
10548TIP3   OH231600   2.300   5.156   5.991 -0.1073 -0.0762  0.2541
10548TIP3    H131601   2.342   5.242   5.998  1.9506 -1.0305  0.5070
10548TIP3    H231602   2.371   5.097   5.964 -1.2448 -1.8567  0.9604
10549TIP3   OH231603   4.180   7.689   0.278 -0.0567 -0.5008  0.0171
10549TIP3    H131604   4.238   7.652   0.212  0.3408 -0.1623  0.1666
10549TIP3    H231605   4.103   7.632   0.278  0.5218 -1.2939  0.2124
10550TIP3   OH231606   1.223   0.479   5.080 -0.2668 -0.4053  0.3887
10550TIP3    H131607   1.218   0.551   5.017  1.1623  0.0390  0.7448
10550TIP3    H231608   1.262   0.407   5.031 -0.7098 -0.6001  0.3202
10551TIP3   OH231609   4.577   6.729   3.017  0.0229 -0.6330 -0.1439
10551TIP3    H131610   4.494   6.769   3.042 -0.5665 -0.9827 -1.4623
10551TIP3    H231611   4.638   6.755   3.087 -1.2792 -0.7321  1.0719
10552TIP3   OH231612   7.708   2.993   2.094  0.7433 -0.0348  0.4181
10552TIP3    H131613   7.756   2.994   2.011 -0.5595  0.6412 -0.3504
10552TIP3    H231614   7.664   2.907   2.095  1.2904 -0.3186  0.7406
10553TIP3   OH231615   0.305   2.835   3.953 -0.1863 -0.3933 -0.0853
10553TIP3    H131616   0.240   2.782   4.001 -0.6270 -0.7413 -1.0393
10553TIP3    H231617   0.388   2.813   3.995 -0.7610  0.8354  1.8526
10554TIP3   OH231618   2.929   6.170   4.996 -0.0770  0.4458  0.9811
10554TIP3    H131619   2.932   6.180   4.901  1.4028 -0.5994  0.8790
10554TIP3    H231620   3.017   6.193   5.025 -0.2594 -0.0999  1.9916
10555TIP3   OH231621   5.992   6.836   2.271  0.3963 -0.0523 -0.5365
10555TIP3    H131622   6.059   6.768   2.267  1.4690  1.0078 -1.1424
10555TIP3    H231623   6.004   6.886   2.191  0.6080  1.7412  0.5616
10556TIP3   OH231624   3.433   6.339   4.889  0.1422 -0.4150 -0.3689
10556TIP3    H131625   3.429   6.356   4.983 -0.8745  1.2938 -0.6694
10556TIP3    H231626   3.373   6.265   4.875 -1.2541  0.5866  0.1137
10557TIP3   OH231627   1.145   4.385   4.769 -0.1175 -0.3800  0.1153
10557TIP3    H131628   1.171   4.293   4.763 -1.2654 -0.6747 -0.6309
10557TIP3    H231629   1.155   4.407   4.862  0.0692 -1.2897  0.3157
10558TIP3   OH231630   4.170   3.317   5.092  0.2829 -0.0437 -0.3340
10558TIP3    H131631   4.157   3.279   5.006  0.8314  0.2119 -0.5332
10558TIP3    H231632   4.144   3.248   5.153 -0.6476 -0.0293 -0.7000
10559TIP3   OH231633   1.993   5.007   0.949 -0.0295  0.1639  0.1229
10559TIP3    H131634   1.907   5.042   0.928  0.0230 -0.9271 -2.2635
10559TIP3    H231635   1.975   4.931   1.004 -0.4282  1.1001  1.3235
10560TIP3   OH231636   3.848   0.988   3.896  0.1222 -0.4017 -0.0683
10560TIP3    H131637   3.878   1.078   3.908 -2.1664  0.4167  0.0682
10560TIP3    H231638   3.928   0.938   3.879  1.3902  1.7940 -1.0848
10561TIP3   OH231639   1.048   4.959   0.031  0.6212 -0.1298  0.3935
10561TIP3    H131640   1.038   4.987  -0.060 -0.7154  0.6267  0.7381
10561TIP3    H231641   1.006   5.029   0.082 -0.4251 -1.4834  1.4627
10562TIP3   OH231642   4.266   6.087   4.863 -0.0280 -0.1067 -0.3563
10562TIP3    H131643   4.327   6.134   4.920  0.4134 -3.2578  2.0216
10562TIP3    H231644   4.180   6.112   4.895  0.1653 -0.2777  0.2997
10563TIP3   OH231645   8.066   3.512   3.051  0.2734  0.0027 -0.5028
10563TIP3    H131646   8.024   3.570   3.116 -1.5519  0.2756 -1.8474
10563TIP3    H231647   8.037   3.547   2.967  1.7039 -1.0172 -1.4366
10564TIP3   OH231648   6.724   6.751   3.180 -0.1908  0.3302 -0.7933
10564TIP3    H131649   6.708   6.788   3.266 -0.8344  1.5271 -1.4012
10564TIP3    H231650   6.715   6.825   3.120  0.3167 -0.4588 -1.8844
10565TIP3   OH231651   0.998   3.436   4.539  0.5738 -0.6228 -0.3192
10565TIP3    H131652   1.029   3.367   4.480  0.7989 -1.6825  0.9800
10565TIP3    H231653   1.007   3.398   4.626 -1.3223  0.2580  0.3200
10566TIP3   OH231654   3.795   1.370   5.880 -0.4022  0.1554  0.0797
10566TIP3    H131655   3.867   1.428   5.860 -0.2458 -0.1361 -0.2099
10566TIP3    H231656   3.778   1.322   5.798  0.3906 -1.2095  0.6740
10567TIP3   OH231657   8.283   1.480   1.684  0.6022 -0.6206  0.2109
10567TIP3    H131658   8.296   1.452   1.774 -1.4727 -0.8341  0.4821
10567TIP3    H231659   8.268   1.575   1.691  0.6425 -0.6020  0.0517
10568TIP3   OH231660   6.094   2.558   2.139 -0.5239 -0.2159 -0.3561
10568TIP3    H131661   6.148   2.488   2.176 -1.0668 -0.4752 -0.0342
10568TIP3    H231662   6.023   2.570   2.203 -0.6820  0.3230 -0.6229
10569TIP3   OH231663   6.796   3.731   6.146  0.5873 -0.0859 -0.3033
10569TIP3    H131664   6.803   3.826   6.155 -2.1345  0.2411 -0.7698
10569TIP3    H231665   6.875   3.706   6.098  1.9290  1.7414  0.8145
10570TIP3   OH231666   0.252   7.501   6.361  0.4221 -0.0335 -0.6452
10570TIP3    H131667   0.332   7.449   6.354  0.3395 -0.2021 -0.3494
10570TIP3    H231668   0.263   7.552   6.441  0.0331 -0.4099 -0.3459
10571TIP3   OH231669   6.208   6.617   6.397 -0.4287 -0.4902 -0.0695
10571TIP3    H131670   6.149   6.553   6.356 -0.9662 -0.0097 -0.0673
10571TIP3    H231671   6.254   6.568   6.464 -1.1739 -0.7779  0.2430
10572TIP3   OH231672   2.122   0.189   1.857 -0.1070  0.5885  0.1519
10572TIP3    H131673   2.044   0.206   1.910 -0.8852 -1.9657 -0.0251
10572TIP3    H231674   2.187   0.157   1.919 -0.8693 -1.9581 -0.2307
10573TIP3   OH231675   5.488   6.646   3.331 -0.2537  0.1064  0.4273
10573TIP3    H131676   5.574   6.610   3.351  0.6696  1.6089 -0.6133
10573TIP3    H231677   5.456   6.681   3.414  0.9611  1.1465  0.4784
10574TIP3   OH231678   2.244   3.143   5.280  0.3533  0.2894 -0.2274
10574TIP3    H131679   2.278   3.075   5.220 -0.1994 -0.5437  0.3814
10574TIP3    H231680   2.254   3.105   5.367 -2.9325 -0.4388 -0.0215
10575TIP3   OH231681   6.504   7.788   2.902  0.2040  0.1311 -0.4327
10575TIP3    H131682   6.522   7.799   2.995  0.5691  0.2727 -0.5209
10575TIP3    H231683   6.433   7.723   2.899  0.7772 -0.5156 -0.0984
10576TIP3   OH231684   5.240   4.060   6.205  0.2935  0.4882 -0.1090
10576TIP3    H131685   5.208   4.128   6.265  0.1339  1.9196 -1.7461
10576TIP3    H231686   5.333   4.077   6.196 -0.0867  1.8553 -2.1047
10577TIP3   OH231687   6.797   5.774   1.175  0.1691  0.1033 -0.7626
10577TIP3    H131688   6.811   5.733   1.090 -0.3908 -0.4902 -0.5770
10577TIP3    H231689   6.731   5.841   1.159  1.0335  0.9005 -1.0521
10578TIP3   OH231690   7.541   1.580   1.213  0.1872  0.0765  0.1001
10578TIP3    H131691   7.560   1.638   1.139  1.4200 -0.0291  0.3142
10578TIP3    H231692   7.561   1.632   1.290 -1.0190  0.1570  0.3647
10579TIP3   OH231693   6.246   7.193   5.559 -0.4786 -0.2487 -0.0918
10579TIP3    H131694   6.270   7.191   5.652  0.5652  1.4951 -0.2919
10579TIP3    H231695   6.170   7.251   5.555  0.6888  1.3136 -0.5339
10580TIP3   OH231696   7.634   7.227   5.626 -0.5521 -0.1815 -0.6173
10580TIP3    H131697   7.590   7.246   5.708 -0.4588 -0.6791 -0.4467
10580TIP3    H231698   7.613   7.135   5.608 -0.3232 -0.1638 -0.9927
10581TIP3   OH231699   7.430   5.273   5.940 -0.1512  0.2112  0.0570
10581TIP3    H131700   7.473   5.188   5.939  0.3333  0.4469 -1.0207
10581TIP3    H231701   7.390   5.281   5.853 -3.0915 -0.3219  1.2571
10582TIP3   OH231702   7.488   0.401   5.105 -0.3145 -0.7954  0.0051
10582TIP3    H131703   7.466   0.375   5.015  0.2249  0.9367 -0.6822
10582TIP3    H231704   7.584   0.399   5.108 -0.3185 -0.5384  0.4402
10583TIP3   OH231705   6.809   2.309   2.892  0.0893  0.0714 -0.1618
10583TIP3    H131706   6.851   2.224   2.904  1.5934  0.7975 -0.0546
10583TIP3    H231707   6.716   2.292   2.907  0.4197 -1.4517  0.3471
10584TIP3   OH231708   5.516   0.121   2.224  0.1688 -0.5070  0.8373
10584TIP3    H131709   5.425   0.123   2.253 -0.9986 -0.4388 -2.3840
10584TIP3    H231710   5.533   0.211   2.195  0.3473 -1.0780 -0.9349
10585TIP3   OH231711   5.828   6.066   0.812 -0.2401  0.1700 -0.6220
10585TIP3    H131712   5.890   5.996   0.834 -0.6530 -0.6996 -2.1094
10585TIP3    H231713   5.795   6.095   0.897  2.5880  1.0648  0.2883
10586TIP3   OH231714   1.474   2.998   3.918  0.1970  0.1500 -0.1920
10586TIP3    H131715   1.549   3.016   3.975 -0.5708  1.0874  0.5708
10586TIP3    H231716   1.492   2.912   3.879  1.2922  0.0238  0.5728
10587TIP3   OH231717   1.016   1.444   2.472  0.8411  0.4596  0.6493
10587TIP3    H131718   1.104   1.440   2.509  1.0553  0.6059  0.1579
10587TIP3    H231719   1.012   1.530   2.430  0.6734  0.2056  0.1478
10588TIP3   OH231720   6.237   5.040   4.273  0.1944  0.1014  0.1725
10588TIP3    H131721   6.181   4.964   4.255 -2.7940  2.8829 -4.0324
10588TIP3    H231722   6.322   5.018   4.234 -1.1570 -0.5434 -2.6013
10589TIP3   OH231723   6.871   3.193   6.547 -0.5322  0.1831  0.5881
10589TIP3    H131724   6.867   3.220   6.455 -1.3013  0.5138  0.7095
10589TIP3    H231725   6.801   3.129   6.556  1.1316 -1.7708  0.3513
10590TIP3   OH231726   6.075   6.665   0.900 -0.4867  0.3452 -0.2479
10590TIP3    H131727   6.052   6.572   0.894  0.8570  0.0494 -1.6485
10590TIP3    H231728   5.992   6.711   0.900 -1.1702 -0.8462  0.3303
10591TIP3   OH231729   1.991   0.586   0.653  0.5686  0.3933  0.2347
10591TIP3    H131730   2.015   0.537   0.575  1.0837 -0.2861  0.8010
10591TIP3    H231731   1.967   0.519   0.717  0.9438  0.8942  0.9185
10592TIP3   OH231732   2.457   5.758   1.076  0.3755 -0.0470 -0.1913
10592TIP3    H131733   2.526   5.807   1.120 -0.2869  2.4444 -1.7528
10592TIP3    H231734   2.382   5.762   1.136 -0.5450  3.3774 -1.3332
10593TIP3   OH231735   5.422   5.507   5.875 -0.6191  0.2412  0.4239
10593TIP3    H131736   5.365   5.461   5.814 -0.8120 -0.6263  1.2473
10593TIP3    H231737   5.460   5.439   5.930  1.3460  0.7589 -0.1762
10594TIP3   OH231738   8.206   7.403   0.076  0.1231 -0.4461  0.3041
10594TIP3    H131739   8.151   7.459   0.130  0.8270  0.0977  0.4685
10594TIP3    H231740   8.189   7.433  -0.014 -1.3406 -1.6067  0.1450
10595TIP3   OH231741   1.678   1.676   4.829 -0.4040  0.5576 -0.6078
10595TIP3    H131742   1.584   1.658   4.832 -0.4809  0.6787 -1.6959
10595TIP3    H231743   1.715   1.628   4.903 -1.2133 -0.2473 -0.7123
10596TIP3   OH231744   3.454   2.834   5.038  0.0909  0.4656  0.4651
10596TIP3    H131745   3.426   2.865   5.124 -0.8940 -0.0295  0.3438
10596TIP3    H231746   3.537   2.790   5.054 -0.3402 -0.0873  1.2594
10597TIP3   OH231747   7.006   0.089   0.822  0.2392  0.2279  0.0473
10597TIP3    H131748   7.081   0.062   0.874 -0.3076 -1.6718 -0.0983
10597TIP3    H231749   6.934   0.035   0.854 -0.6420  0.6801 -1.1130
10598TIP3   OH231750   5.460   3.109   5.080  0.1791 -0.1074 -0.3047
10598TIP3    H131751   5.411   3.057   5.016  0.2482 -0.6589  0.0849
10598TIP3    H231752   5.428   3.199   5.067 -0.9442 -0.4544 -0.0497
10599TIP3   OH231753   1.630   4.230   5.322 -0.3446  0.1993 -0.0424
10599TIP3    H131754   1.584   4.157   5.281 -0.5858  0.6475 -0.5831
10599TIP3    H231755   1.706   4.245   5.266  1.3611 -1.5146  1.6501
10600TIP3   OH231756   5.265   7.385   0.099  0.3155 -0.0718  0.1595
10600TIP3    H131757   5.333   7.347   0.154 -0.6443  0.9114  2.1154
10600TIP3    H231758   5.251   7.320   0.030  2.2705 -0.8839  0.4732
10601TIP3   OH231759   3.149   7.639   2.624  0.2152 -0.4458  0.5479
10601TIP3    H131760   3.096   7.588   2.685 -3.0183  3.0420  1.0960
10601TIP3    H231761   3.128   7.604   2.538 -0.8806 -0.9318  0.9908
10602TIP3   OH231762   8.281   0.926   2.488  0.3214  0.3762 -0.6073
10602TIP3    H131763   8.273   0.844   2.439  1.4926 -0.6763  0.8545
10602TIP3    H231764   8.374   0.948   2.480  0.5588  0.1236  1.1698
10603TIP3   OH231765   6.462   1.524   6.412 -0.3573 -0.1006  0.4922
10603TIP3    H131766   6.523   1.498   6.343 -0.6537 -1.0790  0.5912
10603TIP3    H231767   6.398   1.580   6.366  0.2039  0.3479  0.2489
10604TIP3   OH231768   6.084   3.736   3.266 -0.0260 -0.1542  0.3592
10604TIP3    H131769   5.993   3.766   3.267 -0.4521 -1.3877  0.2228
10604TIP3    H231770   6.090   3.678   3.342  0.5490 -0.3373  0.1747
10605TIP3   OH231771   2.441   5.690   2.028 -0.1487  0.1510 -0.5993
10605TIP3    H131772   2.397   5.623   1.975 -0.9876  1.8696 -2.1649
10605TIP3    H231773   2.510   5.642   2.074 -1.0976 -1.8942 -1.1855
10606TIP3   OH231774   5.013   1.619   3.448  0.1302 -0.4960 -0.3447
10606TIP3    H131775   5.102   1.653   3.436 -0.7532  1.5817 -1.4679
10606TIP3    H231776   4.997   1.625   3.542  1.3270 -1.3530 -0.0651
10607TIP3   OH231777   5.114   6.949   2.260  0.1825  0.1632 -0.2081
10607TIP3    H131778   5.060   6.871   2.260  1.6402 -0.8932 -0.4468
10607TIP3    H231779   5.198   6.920   2.222  1.0050  1.6452  0.3958
10608TIP3   OH231780   0.181   3.826   1.087 -0.3944  0.2926 -0.0735
10608TIP3    H131781   0.116   3.761   1.114  0.5868 -0.8740 -0.4112
10608TIP3    H231782   0.174   3.829   0.992 -0.9235  1.2309 -0.0137
10609TIP3   OH231783   4.496   0.811   3.244  0.1008  0.2482 -0.1381
10609TIP3    H131784   4.586   0.779   3.234 -0.1671 -0.3456 -0.7027
10609TIP3    H231785   4.501   0.905   3.227  0.7557  0.3795  0.6956
10610TIP3   OH231786   0.682   2.920   5.657 -0.2434  0.4943 -0.4562
10610TIP3    H131787   0.702   2.846   5.714  0.9475  1.4823  0.4828
10610TIP3    H231788   0.765   2.968   5.650 -1.0935  2.0070 -0.6073
10611TIP3   OH231789   0.228   4.513   2.601 -0.1620 -0.2693  0.0102
10611TIP3    H131790   0.276   4.470   2.531  1.0142  1.0462 -0.0355
10611TIP3    H231791   0.137   4.486   2.588  0.1651 -0.7489 -1.4774
10612TIP3   OH231792   2.063   2.323   4.355  0.0918 -0.3569  0.2646
10612TIP3    H131793   2.116   2.346   4.279 -1.1896 -0.2308 -0.6141
10612TIP3    H231794   1.983   2.375   4.346 -0.4390 -0.9650  1.2494
10613TIP3   OH231795   6.477   6.513   0.367  0.6104 -0.1785 -0.1410
10613TIP3    H131796   6.503   6.551   0.451  1.0521 -0.8711  0.0412
10613TIP3    H231797   6.479   6.419   0.381  0.3005 -0.2921 -0.8181
10614TIP3   OH231798   8.155   4.668   5.329  0.1323 -0.0009 -0.2398
10614TIP3    H131799   8.206   4.592   5.303  1.8211  0.6852  0.8378
10614TIP3    H231800   8.208   4.743   5.301 -0.5966  0.7510  0.3346
10615TIP3   OH231801   6.266   6.972   1.403 -0.1017  0.2292 -0.8977
10615TIP3    H131802   6.313   6.918   1.339  0.4187  0.2531 -0.5401
10615TIP3    H231803   6.266   7.060   1.364  1.8118  0.6395 -0.0550
10616TIP3   OH231804   1.432   4.506   3.740 -0.0843  0.5057 -0.1130
10616TIP3    H131805   1.384   4.471   3.815 -1.5081  1.4660 -0.5524
10616TIP3    H231806   1.524   4.503   3.768 -0.3897 -1.0438  0.8766
10617TIP3   OH231807   2.216   3.612   1.951 -0.2548  0.1433  0.0740
10617TIP3    H131808   2.248   3.624   1.862 -0.0077  0.4050  0.1968
10617TIP3    H231809   2.182   3.698   1.976 -1.6743 -0.2933 -0.2949
10618TIP3   OH231810   6.827   2.019   1.438  0.1676  0.4543  0.2233
10618TIP3    H131811   6.803   2.049   1.526 -1.2083 -1.2599  0.4916
10618TIP3    H231812   6.871   1.935   1.453 -1.6616 -0.7443 -0.7645
10619TIP3   OH231813   5.082   3.987   4.189 -0.1604  0.1268 -0.1469
10619TIP3    H131814   5.164   4.023   4.156 -0.2340 -0.0501 -0.5313
10619TIP3    H231815   5.087   3.894   4.169  1.3818 -0.7317  3.5966
10620TIP3   OH231816   5.636   3.241   3.579 -0.6273  0.4518  0.6897
10620TIP3    H131817   5.653   3.245   3.673 -0.2682  0.1085  0.6453
10620TIP3    H231818   5.702   3.180   3.546 -2.2573 -1.3403  0.5767
10621TIP3   OH231819   4.806   4.002   2.523  0.0936  0.0441 -0.1254
10621TIP3    H131820   4.715   4.029   2.510 -0.8751 -2.4562  0.8592
10621TIP3    H231821   4.857   4.066   2.474 -2.1755  1.6117 -0.5922
10622TIP3   OH231822   3.513   7.144   6.779 -0.1184  0.6395 -0.6082
10622TIP3    H131823   3.605   7.119   6.777 -0.1111  0.6045  0.0459
10622TIP3    H231824   3.513   7.236   6.805 -0.3574  0.0206  1.8028
10623TIP3   OH231825   4.515   2.397   5.069 -0.2548 -0.0937 -0.6515
10623TIP3    H131826   4.506   2.492   5.081  0.1748  0.0426 -1.3466
10623TIP3    H231827   4.429   2.362   5.089  0.1919  0.1611  2.1000
10624TIP3   OH231828   1.925   4.752   1.285 -0.4861 -0.4073  0.6882
10624TIP3    H131829   1.871   4.802   1.223  1.5365  1.5592  0.4172
10624TIP3    H231830   1.863   4.690   1.325 -3.3090  2.6558  1.4796
10625TIP3   OH231831   1.732   6.757   5.543 -0.0503 -0.0152 -0.3167
10625TIP3    H131832   1.677   6.835   5.536 -0.1422  0.0213  0.7044
10625TIP3    H231833   1.821   6.790   5.556  0.3465 -0.0647 -2.4545
10626TIP3   OH231834   6.185   1.008   2.396 -0.4495 -0.1187 -0.5400
10626TIP3    H131835   6.124   1.056   2.452 -0.5584 -2.1707  1.2123
10626TIP3    H231836   6.151   1.019   2.307 -1.9845  0.7363  0.1251
10627TIP3   OH231837   5.784   4.302   4.440  0.1050  0.6927  0.0999
10627TIP3    H131838   5.815   4.388   4.469  0.4597  0.2557  1.0501
10627TIP3    H231839   5.863   4.248   4.439  0.2947  0.8822 -2.5685
10628TIP3   OH231840   1.123   0.412   0.936 -0.0941 -0.1948 -0.0346
10628TIP3    H131841   1.052   0.388   0.996  1.5951 -0.2756  2.0645
10628TIP3    H231842   1.136   0.333   0.883 -1.2832 -0.3196 -0.1750
10629TIP3   OH231843   2.893   4.454   4.460  0.7838  0.7686 -0.0203
10629TIP3    H131844   2.913   4.546   4.480  1.7769  1.0082 -1.8933
10629TIP3    H231845   2.911   4.445   4.366 -1.2599 -0.8436 -0.3393
10630TIP3   OH231846   7.404   6.979   0.360 -0.2428 -0.0149  0.0136
10630TIP3    H131847   7.397   7.023   0.276 -1.4375  0.8261  0.5286
10630TIP3    H231848   7.322   6.930   0.369  0.5926 -1.4936 -0.0482
10631TIP3   OH231849   7.084   6.536   3.579  0.1269 -0.0305  0.5515
10631TIP3    H131850   7.070   6.603   3.646 -2.6476 -0.3519  0.4309
10631TIP3    H231851   6.998   6.496   3.567  1.2533 -2.2392 -0.8616
10632TIP3   OH231852   6.464   6.662   1.603 -0.1279 -0.2515  0.3532
10632TIP3    H131853   6.556   6.666   1.630  0.1085  1.3326 -0.5450
10632TIP3    H231854   6.440   6.753   1.586 -1.3918 -0.7900 -0.9927
10633TIP3   OH231855   6.617   4.795   4.950 -0.2083 -0.6677  0.3338
10633TIP3    H131856   6.622   4.806   4.855 -1.8300 -1.1371  0.1679
10633TIP3    H231857   6.607   4.884   4.984 -1.0025 -0.5970 -0.0588
10634TIP3   OH231858   6.463   6.040   4.491 -0.7255 -0.0480 -0.3271
10634TIP3    H131859   6.458   6.003   4.403  1.0852  0.2703 -0.5923
10634TIP3    H231860   6.522   5.983   4.539  0.4620  1.2806 -0.1372
10635TIP3   OH231861   3.635   4.327   2.704  0.5564 -0.1414  0.3099
10635TIP3    H131862   3.599   4.247   2.666 -0.8145  0.5819  0.0129
10635TIP3    H231863   3.583   4.341   2.783 -0.5728  1.4653 -0.6525
10636TIP3   OH231864   6.250   5.249   1.283 -0.0541 -0.4952  0.0003
10636TIP3    H131865   6.188   5.321   1.272 -0.5727 -1.1083 -1.3452
10636TIP3    H231866   6.334   5.291   1.303 -0.3822  0.4656 -0.6034
10637TIP3   OH231867   2.331   2.780   2.396 -0.4986 -0.1527  0.0910
10637TIP3    H131868   2.260   2.735   2.441  0.5613 -1.1115  0.8809
10637TIP3    H231869   2.353   2.854   2.453  0.1645 -0.7745  0.6621
10638TIP3   OH231870   3.230   5.117   0.059 -0.2707  0.3728 -0.2273
10638TIP3    H131871   3.258   5.182   0.123 -0.2570  0.9718 -0.8276
10638TIP3    H231872   3.309   5.100   0.007 -0.7058  1.1890 -1.1820
10639TIP3   OH231873   3.925   5.247   6.052 -0.1605  0.0456 -0.2797
10639TIP3    H131874   4.015   5.214   6.048 -0.9449 -2.1440 -2.0864
10639TIP3    H231875   3.934   5.337   6.082  2.6818  0.0882 -0.9663
10640TIP3   OH231876   1.328   5.180   5.634 -0.3176  0.3541 -0.2822
10640TIP3    H131877   1.412   5.158   5.673  0.1905 -0.0229 -1.5241
10640TIP3    H231878   1.339   5.271   5.603 -0.3533  0.2981 -0.4613
10641TIP3   OH231879   2.998   6.503   2.701 -0.1377 -0.1810 -0.2414
10641TIP3    H131880   3.083   6.473   2.670 -0.1649 -1.3258  0.6939
10641TIP3    H231881   3.006   6.598   2.708  1.3000 -0.3414  0.5076
10642TIP3   OH231882   5.561   2.788   0.977 -0.3527  0.5894  0.5583
10642TIP3    H131883   5.582   2.734   0.900  1.1277  0.4634  1.0287
10642TIP3    H231884   5.642   2.834   0.997 -0.9210  1.1571  1.6441
10643TIP3   OH231885   3.267   5.063   4.264 -0.5021  0.2979  0.4889
10643TIP3    H131886   3.274   5.063   4.169 -0.7057  0.4973  0.4723
10643TIP3    H231887   3.356   5.078   4.295 -0.2873 -0.6445  0.3508
10644TIP3   OH231888   4.024   6.977   4.698  0.7063  0.1799  0.2111
10644TIP3    H131889   4.024   6.960   4.792  2.0099  0.1658  0.2189
10644TIP3    H231890   4.105   7.026   4.682  0.9197 -0.5376 -1.0204
10645TIP3   OH231891   4.428   2.976   5.718 -0.0787 -0.5535 -0.0180
10645TIP3    H131892   4.467   2.970   5.631 -0.8837  0.1700 -0.4413
10645TIP3    H231893   4.380   3.059   5.717  0.1316 -0.3973  1.2115
10646TIP3   OH231894   6.745   2.517   6.089 -0.4052  0.1060  0.2810
10646TIP3    H131895   6.652   2.539   6.082 -0.4690 -0.2586 -0.0468
10646TIP3    H231896   6.776   2.513   5.998  0.1159  0.9844  0.4133
10647TIP3   OH231897   5.341   2.089   4.353 -0.4623  0.2560 -0.2734
10647TIP3    H131898   5.429   2.105   4.387 -0.6954  1.3575 -0.1681
10647TIP3    H231899   5.356   2.055   4.264  0.0602  0.4905 -0.2797
10648TIP3   OH231900   3.870   5.003   2.430  0.4907 -0.3219 -0.1182
10648TIP3    H131901   3.848   5.004   2.337  2.3027  0.7985 -0.5744
10648TIP3    H231902   3.951   4.952   2.435  2.4792  2.6084  0.2529
10649TIP3   OH231903   0.071   4.918   3.779 -0.0009  0.0512 -0.0218
10649TIP3    H131904   0.026   4.985   3.728  0.0338  0.5940  0.6432
10649TIP3    H231905   0.153   4.959   3.805 -0.7766  0.4594  1.9585
10650TIP3   OH231906   3.594   0.874   2.028 -0.2670 -0.2873  0.1232
10650TIP3    H131907   3.595   0.883   1.933  1.5724 -4.1636 -0.4016
10650TIP3    H231908   3.665   0.931   2.058 -1.5345  1.7928 -0.6070
10651TIP3   OH231909   3.800   4.032   2.644  0.4922  0.4200 -0.1794
10651TIP3    H131910   3.772   4.107   2.591  1.1076  1.6796  1.2375
10651TIP3    H231911   3.732   4.023   2.711  1.3102  0.8548  0.7309
10652TIP3   OH231912   5.971   7.437   3.118  0.0629 -0.2330 -0.2362
10652TIP3    H131913   5.950   7.447   3.211  3.0205 -2.2095  0.8034
10652TIP3    H231914   5.962   7.525   3.081 -0.2385  0.8018  2.1386
10653TIP3   OH231915   2.516   7.051   2.154  0.2477  0.2738 -0.5194
10653TIP3    H131916   2.559   7.084   2.233  0.5405 -0.9536 -0.1520
10653TIP3    H231917   2.425   7.039   2.180  0.1097  0.8750 -0.6936
10654TIP3   OH231918   5.499   5.010   2.191  0.2082  0.0851  0.3556
10654TIP3    H131919   5.547   4.951   2.132  1.0232  0.5846  0.5030
10654TIP3    H231920   5.410   4.976   2.192  0.5745 -0.9067  0.1222
10655TIP3   OH231921   7.359   3.084   4.894  0.1334  1.1935 -0.0928
10655TIP3    H131922   7.282   3.122   4.851  0.3418 -1.3758 -3.1361
10655TIP3    H231923   7.326   3.047   4.976 -2.8111 -2.3414 -2.5215
10656TIP3   OH231924   4.313   6.603   6.646 -0.7857  0.2301  0.2012
10656TIP3    H131925   4.299   6.574   6.556  1.0778 -2.1646  0.5866
10656TIP3    H231926   4.407   6.599   6.658 -1.0087  0.3244  2.3365
10657TIP3   OH231927   1.083   5.931   2.187  0.9084 -0.2164 -0.1772
10657TIP3    H131928   1.006   5.980   2.158 -0.0495 -0.8747  1.1482
10657TIP3    H231929   1.149   5.999   2.202  0.8443  0.3051 -1.9390
10658TIP3   OH231930   4.164   1.087   6.463 -0.3145 -0.1056  0.3559
10658TIP3    H131931   4.196   1.176   6.482 -0.4884  0.1322 -0.4615
10658TIP3    H231932   4.072   1.098   6.443  0.0577 -0.2087 -1.5748
10659TIP3   OH231933   4.000   4.030   1.468  1.0384  0.3008  0.3274
10659TIP3    H131934   3.909   4.041   1.496  0.1315 -3.3817 -0.7353
10659TIP3    H231935   4.042   3.982   1.540  1.5217 -0.0170 -0.1615
10660TIP3   OH231936   6.947   0.455   4.615  0.2619 -0.5854  0.1589
10660TIP3    H131937   6.901   0.376   4.587  0.3727 -0.1117 -1.4654
10660TIP3    H231938   6.992   0.429   4.696 -2.3873 -1.2034  1.5369
10661TIP3   OH231939   2.297   2.182   0.114  0.6520  0.0282  0.0113
10661TIP3    H131940   2.215   2.232   0.111  0.2331 -0.2801  3.0736
10661TIP3    H231941   2.285   2.113   0.048 -0.9185  0.8699 -0.6407
10662TIP3   OH231942   2.164   3.920   5.668  0.2380 -0.1809  0.0965
10662TIP3    H131943   2.204   4.006   5.683 -0.5635  0.4028 -0.9420
10662TIP3    H231944   2.231   3.870   5.623  1.7029 -1.0676  3.0068
10663TIP3   OH231945   5.438   0.684   3.663  0.4001 -0.2484 -0.2090
10663TIP3    H131946   5.422   0.659   3.754  2.4793  1.6515  0.7595
10663TIP3    H231947   5.374   0.753   3.645 -0.8259 -1.4660 -0.6327
10664TIP3   OH231948   3.384   6.222   3.453 -0.4016 -0.4357 -0.6027
10664TIP3    H131949   3.392   6.161   3.526 -2.5112 -0.7047 -0.5143
10664TIP3    H231950   3.387   6.166   3.375 -2.1973 -0.7090 -0.5262
10665TIP3   OH231951   1.134   4.250   0.124  0.0021  0.1320 -0.3343
10665TIP3    H131952   1.067   4.212   0.181 -0.1857  3.5519  2.0171
10665TIP3    H231953   1.217   4.220   0.160 -0.1580  0.9977  0.7806
10666TIP3   OH231954   7.217   7.569   0.792  0.6923  0.0230 -0.2084
10666TIP3    H131955   7.252   7.658   0.796  0.2561  0.2005 -0.2785
10666TIP3    H231956   7.126   7.580   0.764  1.3511 -0.5910 -2.9038
10667TIP3   OH231957   8.212   2.283   2.710 -0.3154  0.4461  0.3312
10667TIP3    H131958   8.238   2.192   2.696  0.9406  0.3881  2.4856
10667TIP3    H231959   8.200   2.318   2.622  2.3470 -0.9530 -0.7125
10668TIP3   OH231960   6.235   6.172   4.095  0.2652  0.1479  0.2379
10668TIP3    H131961   6.159   6.169   4.037 -0.2382  0.4062  0.8613
10668TIP3    H231962   6.300   6.224   4.048  0.7377 -1.5618 -1.0627
10669TIP3   OH231963   5.522   6.953   0.355 -0.1245  0.2455  0.1769
10669TIP3    H131964   5.597   7.010   0.340 -1.3118  1.3277 -2.3156
10669TIP3    H231965   5.450   7.013   0.373 -0.7688 -0.6475  0.6397
10670TIP3   OH231966   6.768   4.763   1.655 -0.6382  0.2813  0.1613
10670TIP3    H131967   6.820   4.770   1.575  0.4662  0.0461  0.8368
10670TIP3    H231968   6.720   4.845   1.659  0.2990  0.8606 -0.0674
10671TIP3   OH231969   7.512   1.245   2.346 -0.2255 -0.3242  0.3449
10671TIP3    H131970   7.420   1.239   2.319 -0.2185  0.0429  0.2316
10671TIP3    H231971   7.509   1.237   2.442 -0.0614 -3.7904  0.1834
10672TIP3   OH231972   4.362   1.352   0.326  0.0281  0.5722  0.1779
10672TIP3    H131973   4.375   1.428   0.270 -1.1359  0.3311 -0.4342
10672TIP3    H231974   4.359   1.277   0.266 -2.7761  0.4623  0.3306
10673TIP3   OH231975   0.631   4.774   6.454  0.1843  0.0990  0.6138
10673TIP3    H131976   0.653   4.686   6.486 -1.0918 -0.0232  1.2553
10673TIP3    H231977   0.606   4.823   6.532  3.0025  1.7810  0.5819
10674TIP3   OH231978   0.963   0.541   1.222  0.2172  0.0319  0.3163
10674TIP3    H131979   1.038   0.591   1.189 -1.3274  1.5489 -1.0190
10674TIP3    H231980   0.916   0.513   1.144 -0.4604 -1.2102  1.1290
10675TIP3   OH231981   2.611   5.181   4.390  0.2353  0.1090  0.2606
10675TIP3    H131982   2.575   5.101   4.428  0.3048 -0.6795 -1.2507
10675TIP3    H231983   2.705   5.165   4.385  0.6131  1.3582  2.3264
10676TIP3   OH231984   5.329   3.676   0.843 -0.1876  0.1010  0.3729
10676TIP3    H131985   5.278   3.629   0.777 -1.8479 -0.1206  1.7389
10676TIP3    H231986   5.287   3.652   0.926 -0.7479  3.4896  1.2068
10677TIP3   OH231987   7.547   4.194   6.709 -0.0450  0.4181 -0.3811
10677TIP3    H131988   7.504   4.270   6.748  0.7602  0.1028  1.2172
10677TIP3    H231989   7.491   4.170   6.635  0.0781  2.9970 -1.4130
10678TIP3   OH231990   1.167   4.702   3.498 -0.5335 -0.1339  0.4579
10678TIP3    H131991   1.155   4.616   3.460  0.2706 -0.2253  0.3846
10678TIP3    H231992   1.262   4.715   3.499 -0.6703  1.8795 -2.0536
10679TIP3   OH231993   1.732   5.288   2.255  0.2711  0.0950  0.0962
10679TIP3    H131994   1.782   5.359   2.214  0.3966  0.5069  0.9455
10679TIP3    H231995   1.738   5.216   2.193  2.0575  0.0853  0.2357
10680TIP3   OH231996   1.257   4.091   4.179  0.1379  0.1390 -0.5992
10680TIP3    H131997   1.311   4.136   4.245 -1.7720  0.0776  1.1026
10680TIP3    H231998   1.167   4.109   4.206 -0.7467  0.1053 -3.2501
10681TIP3   OH231999   7.919   7.698   2.279  0.2195 -0.0805  0.5365
10681TIP3    H132000   7.937   7.722   2.370 -0.6731  3.6031 -0.1113
10681TIP3    H232001   7.992   7.734   2.229  0.7308 -2.1071 -0.2573
10682TIP3   OH232002   1.267   0.210   3.148 -0.4716  0.2622 -0.3630
10682TIP3    H132003   1.270   0.265   3.069  0.0403 -1.2921 -1.4801
10682TIP3    H232004   1.324   0.254   3.211  0.2413  0.8147 -1.3704
10683TIP3   OH232005   4.346   4.550   1.848  0.4893  0.0576  0.9173
10683TIP3    H132006   4.406   4.530   1.920 -0.1868  0.4409  1.6030
10683TIP3    H232007   4.268   4.497   1.866 -0.1264  0.9893  1.1028
10684TIP3   OH232008   4.112   2.836   3.043 -0.0813  0.0746  0.8266
10684TIP3    H132009   4.061   2.904   3.087  0.2716  1.0606 -0.2240
10684TIP3    H232010   4.203   2.864   3.056  0.0196  0.6866 -0.9163
10685TIP3   OH232011   8.051   1.865   2.404  0.0056  0.5301 -0.2666
10685TIP3    H132012   8.069   1.780   2.363  2.3616  0.1273  1.4554
10685TIP3    H232013   7.988   1.846   2.473 -0.9121  0.5549 -1.0656
10686TIP3   OH232014   2.589   2.077   1.247 -0.2786 -0.8117  0.5861
10686TIP3    H132015   2.607   2.164   1.211  2.7767 -1.0743  1.2301
10686TIP3    H232016   2.500   2.084   1.281 -0.4112  1.8367 -0.0417
10687TIP3   OH232017   1.061   7.299   5.181  0.2457  0.3850 -0.8558
10687TIP3    H132018   1.034   7.320   5.092 -0.9351  0.9278 -0.3875
10687TIP3    H232019   0.993   7.335   5.237  0.9824  0.0912  0.2859
10688TIP3   OH232020   0.834   4.908   5.482 -0.0494  0.1595 -0.4128
10688TIP3    H132021   0.853   4.845   5.552 -0.0911  0.7410  0.1426
10688TIP3    H232022   0.921   4.938   5.454 -0.0481  0.3831 -0.1743
10689TIP3   OH232023   2.562   4.905   3.449 -0.2001  0.4969 -0.5394
10689TIP3    H132024   2.599   4.974   3.394 -0.8288 -0.7966 -2.7126
10689TIP3    H232025   2.521   4.844   3.388 -0.9882 -1.0507  1.3866
10690TIP3   OH232026   0.521   1.875   1.950 -0.0654  0.1615  0.5144
10690TIP3    H132027   0.505   1.950   1.893  0.0061 -0.2071  0.0065
10690TIP3    H232028   0.457   1.884   2.020 -1.9133 -0.7750 -0.9831
10691TIP3   OH232029   6.270   7.547   1.895  0.2818 -0.0626 -0.0058
10691TIP3    H132030   6.230   7.538   1.808 -1.1449 -1.4919  0.7286
10691TIP3    H232031   6.315   7.631   1.893 -1.6734  1.0279 -1.3916
10692TIP3   OH232032   1.578   6.095   2.742 -0.3729 -0.3386  0.0036
10692TIP3    H132033   1.600   6.113   2.651  1.6437  1.7022  0.8088
10692TIP3    H232034   1.627   6.015   2.763  0.8368  0.3463 -0.1540
10693TIP3   OH232035   2.433   6.926   2.729 -0.5271  0.3637 -0.5309
10693TIP3    H132036   2.394   6.862   2.669 -0.5138  1.1328 -1.3863
10693TIP3    H232037   2.521   6.892   2.746 -1.1580 -0.8178  0.5510
10694TIP3   OH232038   2.485   2.848   4.265 -0.7468 -0.0707 -0.5107
10694TIP3    H132039   2.404   2.829   4.219  0.8849 -2.6275 -2.5752
10694TIP3    H232040   2.525   2.920   4.216 -0.6395 -0.4435 -0.9683
10695TIP3   OH232041   1.155   3.833   3.099 -0.0270  0.3491  0.5608
10695TIP3    H132042   1.213   3.904   3.126 -0.4144  0.4764  1.0788
10695TIP3    H232043   1.188   3.806   3.014  1.3466 -0.1705  1.2249
10696TIP3   OH232044   6.453   7.010   0.198 -0.3712 -0.5426 -0.3162
10696TIP3    H132045   6.461   7.093   0.150 -2.9276 -1.1061 -1.9072
10696TIP3    H232046   6.375   7.021   0.252 -0.6011 -1.8362 -0.3669
10697TIP3   OH232047   0.156   3.971   1.580  0.4273  0.6862  0.1619
10697TIP3    H132048   0.237   3.968   1.630 -0.2989 -0.8442  1.3331
10697TIP3    H232049   0.169   3.907   1.509  1.1681  2.3032 -1.2253
10698TIP3   OH232050   1.373   4.734   0.851 -0.2431  0.5376 -0.4104
10698TIP3    H132051   1.348   4.743   0.759  0.0982 -1.7744 -0.7875
10698TIP3    H232052   1.468   4.746   0.850 -0.3527  1.5645 -0.1569
10699TIP3   OH232053   0.391   2.045   4.401 -0.2297  0.0702  1.0247
10699TIP3    H132054   0.339   1.978   4.357 -0.5877  0.7634  0.3717
10699TIP3    H232055   0.429   2.000   4.476  1.6577 -1.5855 -0.7877
10700TIP3   OH232056   5.510   4.918   0.904 -0.1603 -0.5083 -0.1562
10700TIP3    H132057   5.477   4.828   0.909 -1.7270 -0.1348 -2.4432
10700TIP3    H232058   5.585   4.913   0.845 -1.4712 -0.0829 -1.9444
10701TIP3   OH232059   2.430   2.253   5.785  0.0714 -0.2852 -0.2388
10701TIP3    H132060   2.375   2.271   5.709  0.7885  0.4395 -0.5973
10701TIP3    H232061   2.415   2.326   5.844 -0.9796 -1.1709  0.6269
10702TIP3   OH232062   6.405   0.903   5.557  0.0801  0.2208  0.3479
10702TIP3    H132063   6.371   0.829   5.506 -3.3384 -0.0533  2.6855
10702TIP3    H232064   6.438   0.964   5.491 -1.2935 -1.3808 -1.9720
10703TIP3   OH232065   5.075   4.377   2.134  0.2057 -0.0782  0.5967
10703TIP3    H132066   5.128   4.312   2.179  0.7700 -1.9251 -2.4809
10703TIP3    H232067   4.988   4.337   2.128  0.5003 -0.5352 -1.1206
10704TIP3   OH232068   4.621   3.383   5.951 -0.4445  0.1713 -0.5106
10704TIP3    H132069   4.531   3.400   5.979 -0.4544  0.7542 -0.8675
10704TIP3    H232070   4.645   3.301   5.994 -1.4197 -0.4144 -1.0473
10705TIP3   OH232071   0.389   4.388   1.613  0.1435 -0.0785 -0.2508
10705TIP3    H132072   0.317   4.364   1.556 -0.0088 -0.9236  0.2869
10705TIP3    H232073   0.347   4.432   1.687  0.3373  0.9913 -0.7551
10706TIP3   OH232074   0.106   4.712   5.882  0.3958 -0.4553  0.1928
10706TIP3    H132075   0.011   4.725   5.874  0.2999 -0.8564  0.6466
10706TIP3    H232076   0.115   4.623   5.916  0.9045 -0.0876  1.0474
10707TIP3   OH232077   3.602   0.946   3.984  0.2793 -0.2945  0.4264
10707TIP3    H132078   3.691   0.935   3.950  0.4774  0.8625  0.4981
10707TIP3    H232079   3.608   1.024   4.040 -1.1324  0.7841 -0.8539
10708TIP3   OH232080   5.404   1.605   6.618  0.3801  0.1306  0.4254
10708TIP3    H132081   5.448   1.605   6.703 -1.3037 -2.3469  1.3915
10708TIP3    H232082   5.452   1.540   6.566  0.1907  0.1980  0.1621
10709TIP3   OH232083   1.602   0.598   2.110  0.2987  0.3488  0.1167
10709TIP3    H132084   1.656   0.652   2.167  0.6402  1.7958 -1.4962
10709TIP3    H232085   1.512   0.625   2.129  0.3169 -0.0941  0.8539
10710TIP3   OH232086   3.826   1.790   3.617 -0.2912  0.3715 -0.3373
10710TIP3    H132087   3.893   1.766   3.553 -1.1566 -0.6038 -0.9122
10710TIP3    H232088   3.745   1.749   3.585 -1.4240  2.3761 -0.2389
10711TIP3   OH232089   2.989   7.092   4.027 -0.0661  0.2900  0.3990
10711TIP3    H132090   2.986   7.007   3.985 -0.3421 -0.2689  1.5071
10711TIP3    H232091   2.991   7.155   3.955 -1.1354 -0.6030 -0.4384
10712TIP3   OH232092   2.713   2.599   3.615  0.2543  0.0446 -0.2091
10712TIP3    H132093   2.646   2.591   3.683  1.8006 -0.1660  1.3319
10712TIP3    H232094   2.687   2.677   3.565  0.1443  1.3832  1.8365
10713TIP3   OH232095   2.293   1.941   6.458  0.4088  0.0249  0.6016
10713TIP3    H132096   2.285   1.865   6.516 -0.0662  0.8818  1.7103
10713TIP3    H232097   2.334   1.907   6.379 -1.0065 -1.6503  0.5405
10714TIP3   OH232098   5.484   7.783   0.362  0.2481 -0.2504  0.0466
10714TIP3    H132099   5.467   7.735   0.281 -2.3846  0.8329 -0.1335
10714TIP3    H232100   5.477   7.875   0.336  0.3131  0.1285  1.3358
10715TIP3   OH232101   4.499   5.992   3.261 -0.6307 -0.6189 -0.2033
10715TIP3    H132102   4.433   5.973   3.194 -0.5986 -0.5966 -0.2411
10715TIP3    H232103   4.479   6.080   3.291  0.9705  0.4661 -2.0910
10716TIP3   OH232104   4.416   0.748   3.486  0.1059 -0.3511 -0.2671
10716TIP3    H132105   4.430   0.738   3.392  2.2647 -1.2965  0.0939
10716TIP3    H232106   4.417   0.842   3.500  0.0760 -0.2080 -1.1507
10717TIP3   OH232107   7.689   3.417   6.436 -0.1688 -0.1203 -0.5338
10717TIP3    H132108   7.702   3.398   6.529 -0.6393 -0.6566 -0.5688
10717TIP3    H232109   7.774   3.401   6.395  0.1626  0.5801 -0.1229
10718TIP3   OH232110   3.402   5.092   1.301  0.4840  0.3487 -0.0228
10718TIP3    H132111   3.342   5.116   1.371 -0.2475 -0.9538 -0.1774
10718TIP3    H232112   3.353   5.108   1.221  1.0881  1.2098 -0.2398
10719TIP3   OH232113   2.366   5.645   5.777  0.6497  0.0685  0.5669
10719TIP3    H132114   2.318   5.570   5.742  1.3580 -0.2435  0.2468
10719TIP3    H232115   2.359   5.636   5.872  1.8177 -1.1503  0.5789
10720TIP3   OH232116   1.833   2.055   6.764  0.1509  0.4495 -0.3460
10720TIP3    H132117   1.740   2.043   6.784  0.0742  2.1232  0.4123
10720TIP3    H232118   1.833   2.109   6.685  0.4949 -0.2379 -0.8267
10721TIP3   OH232119   6.281   6.179   5.643  0.1633 -0.2242 -0.0888
10721TIP3    H132120   6.347   6.165   5.710  0.6224 -0.1940 -0.5287
10721TIP3    H232121   6.318   6.137   5.565  0.0988  0.6417 -0.5871
10722TIP3   OH232122   6.623   0.867   4.111  0.0182  0.0963  0.3903
10722TIP3    H132123   6.543   0.856   4.161  0.1144  1.3134  0.8332
10722TIP3    H232124   6.693   0.870   4.177  0.3292 -0.0384  0.0713
10723TIP3   OH232125   6.911   4.045   2.281  0.2493 -0.0470 -0.0367
10723TIP3    H132126   7.006   4.043   2.267  0.1667 -1.1371 -0.5198
10723TIP3    H232127   6.877   3.978   2.222 -0.7333 -0.3426  0.8494
10724TIP3   OH232128   3.021   2.843   6.367 -0.0799 -0.4656  0.4292
10724TIP3    H132129   2.969   2.774   6.407  1.4014 -2.0656 -0.2915
10724TIP3    H232130   3.008   2.832   6.273 -1.5401  1.6712  0.3013
10725TIP3   OH232131   7.418   1.976   2.703  0.0236  0.6383 -0.4764
10725TIP3    H132132   7.393   2.060   2.741 -0.5222  0.2738 -0.0154
10725TIP3    H232133   7.510   1.988   2.676 -0.1796  1.5139 -0.8160
10726TIP3   OH232134   5.794   6.289   0.113 -0.1184  0.7157 -0.0164
10726TIP3    H132135   5.877   6.241   0.113 -0.3392  0.2570  1.5957
10726TIP3    H232136   5.812   6.369   0.064  0.6105 -0.4254 -1.6865
10727TIP3   OH232137   6.705   5.560   4.737  0.1093  0.0841  0.0846
10727TIP3    H132138   6.762   5.492   4.772  0.5742  0.5438  0.2246
10727TIP3    H232139   6.675   5.608   4.814  0.8797  0.8981 -0.1118
10728TIP3   OH232140   0.920   6.005   2.506 -0.2162  0.2080  0.2968
10728TIP3    H132141   0.959   6.013   2.420  1.3240 -0.0626  0.9397
10728TIP3    H232142   0.991   6.025   2.567 -0.5106 -2.2406  1.5618
10729TIP3   OH232143   0.394   5.751   1.613  0.6009  0.3288 -0.2143
10729TIP3    H132144   0.317   5.716   1.658  0.3799  0.9771 -0.0698
10729TIP3    H232145   0.456   5.678   1.610 -0.2876 -0.4117 -0.9636
10730TIP3   OH232146   1.009   5.794   5.161 -0.1445 -0.4687  0.1343
10730TIP3    H132147   0.948   5.766   5.229 -1.6748 -0.9725 -1.3619
10730TIP3    H232148   1.051   5.713   5.132  0.3208 -0.2938  0.3227
10731TIP3   OH232149   0.881   7.822   4.865 -0.1816  0.0499 -0.1733
10731TIP3    H132150   0.895   7.885   4.935  1.1120  0.8115 -1.0633
10731TIP3    H232151   0.820   7.758   4.902  0.1797  0.6182  1.5010
10732TIP3   OH232152   6.542   5.894   3.210 -0.0122  0.1880 -0.2056
10732TIP3    H132153   6.495   5.868   3.130  0.4948 -0.3801 -0.3239
10732TIP3    H232154   6.602   5.962   3.181  0.1582 -0.0038 -0.3053
10733TIP3   OH232155   2.580   5.667   5.260  0.1846 -0.4157  0.2378
10733TIP3    H132156   2.489   5.636   5.253 -0.0111  0.2843 -0.4701
10733TIP3    H232157   2.626   5.619   5.191  0.5337 -1.3321  1.0776
10734TIP3   OH232158   6.641   0.698   1.319  0.7516  0.0777 -0.2704
10734TIP3    H132159   6.569   0.653   1.362 -0.6183  1.7447 -0.6950
10734TIP3    H232160   6.644   0.784   1.362  0.9164  0.8999 -1.8528
10735TIP3   OH232161   2.481   1.429   6.471 -0.2539  0.0829  0.0728
10735TIP3    H132162   2.463   1.484   6.547  1.5905  1.1829 -0.2294
10735TIP3    H232163   2.427   1.352   6.484 -0.2432  0.3914  2.3191
10736TIP3   OH232164   8.217   4.781   6.252  0.2493  0.5809  0.4095
10736TIP3    H132165   8.305   4.743   6.242  0.4559  0.8366  1.2360
10736TIP3    H232166   8.159   4.705   6.252  0.3683  0.4593 -1.0769
10737TIP3   OH232167   0.408   4.935   5.497  0.0465 -0.7346  0.2668
10737TIP3    H132168   0.462   4.953   5.574  0.8054  1.2842 -0.6806
10737TIP3    H232169   0.339   4.877   5.530  0.9302 -0.7689  2.2214
10738TIP3   OH232170   0.879   4.028   4.048  0.4484  0.5686 -0.0018
10738TIP3    H132171   0.817   4.068   4.110 -0.2527 -1.4936  0.7151
10738TIP3    H232172   0.928   3.965   4.101  1.2410  0.1840 -1.1522
10739TIP3   OH232173   4.988   1.521   1.383  0.5723  0.1341  0.2026
10739TIP3    H132174   4.928   1.594   1.391  0.9922  0.4023  1.1113
10739TIP3    H232175   5.029   1.532   1.297  0.9134  1.1964  0.4841
10740TIP3   OH232176   3.949   3.378   0.891 -0.5246  0.6225 -0.2869
10740TIP3    H132177   4.035   3.416   0.909  0.2881 -1.7659  1.2970
10740TIP3    H232178   3.934   3.395   0.798  0.9882  2.3050 -0.2757
10741TIP3   OH232179   6.029   7.560   4.698 -0.5084 -0.3072 -0.2873
10741TIP3    H132180   5.954   7.507   4.725 -0.5423  0.0289  0.3000
10741TIP3    H232181   6.038   7.543   4.604 -0.4342 -1.4522 -0.0874
10742TIP3   OH232182   4.223   3.650   6.181  0.1936 -0.1154 -0.5196
10742TIP3    H132183   4.306   3.673   6.140  1.5521  0.1202  2.1435
10742TIP3    H232184   4.178   3.734   6.192  0.5008  0.0151 -0.2146
10743TIP3   OH232185   0.216   2.656   3.348  0.0293  0.0956 -0.9342
10743TIP3    H132186   0.132   2.700   3.335 -0.0121  0.0569 -0.8021
10743TIP3    H232187   0.203   2.602   3.426 -0.5956 -1.8000 -2.2815
10744TIP3   OH232188   1.368   2.202   0.095  0.3248  0.3680 -0.0134
10744TIP3    H132189   1.354   2.137   0.164 -1.3936  1.7327  1.0061
10744TIP3    H232190   1.367   2.286   0.141  0.8639  1.2342 -1.5067
10745TIP3   OH232191   4.691   0.257   1.009 -0.0052 -0.0237 -0.2859
10745TIP3    H132192   4.627   0.300   1.066 -0.9402 -2.4502  0.6726
10745TIP3    H232193   4.680   0.163   1.028  1.2309 -0.7860 -2.8777
10746TIP3   OH232194   2.188   2.397   3.086  0.5745  0.2797  0.2715
10746TIP3    H132195   2.197   2.492   3.097 -0.5030  0.2302  1.8165
10746TIP3    H232196   2.197   2.383   2.992 -0.9394  2.1211 -0.2084
10747TIP3   OH232197   5.895   4.438   4.141 -0.2863  0.3854 -0.3531
10747TIP3    H132198   5.972   4.401   4.096 -0.0546  1.4605 -0.9082
10747TIP3    H232199   5.824   4.379   4.120  0.5410 -1.1116  0.8764
10748TIP3   OH232200   0.716   4.289   3.665 -0.3918 -0.4746  0.1004
10748TIP3    H132201   0.629   4.252   3.679  0.0663 -1.8425 -0.5484
10748TIP3    H232202   0.757   4.288   3.751 -0.4886 -1.2293  0.1436
10749TIP3   OH232203   5.996   0.714   3.613  0.1816  0.3268 -0.0137
10749TIP3    H132204   5.995   0.807   3.593 -1.9494  0.3718  0.0835
10749TIP3    H232205   5.913   0.698   3.659  0.9672 -1.4226  0.9101
10750TIP3   OH232206   5.675   2.837   0.122  0.0158  0.3076 -0.3601
10750TIP3    H132207   5.695   2.871   0.209  0.4255  0.7421 -0.6200
10750TIP3    H232208   5.614   2.765   0.138  1.4860 -0.8153  0.4243
10751TIP3   OH232209   1.088   2.066   4.648  0.3756  0.1784  0.4027
10751TIP3    H132210   1.029   2.013   4.700  0.4716 -2.4866 -1.9631
10751TIP3    H232211   1.151   2.004   4.612  3.1514  2.5405  0.7824
10752TIP3   OH232212   1.253   3.106   4.087  0.4793  0.4512 -0.3630
10752TIP3    H132213   1.190   3.052   4.039  0.3091 -0.6390  1.0264
10752TIP3    H232214   1.338   3.080   4.051  0.3458 -0.2145 -0.2112
10753TIP3   OH232215   2.103   3.624   4.528  0.4760 -0.5065  0.1102
10753TIP3    H132216   2.185   3.618   4.576  1.4844 -0.7151 -1.5814
10753TIP3    H232217   2.080   3.717   4.531  0.2837 -0.5732  1.3256
10754TIP3   OH232218   5.538   5.458   2.761  0.2273  0.1735  0.4189
10754TIP3    H132219   5.612   5.496   2.712  2.1792 -1.5064  1.8639
10754TIP3    H232220   5.485   5.533   2.787  0.8251  1.3621 -1.5530
10755TIP3   OH232221   5.146   4.566   2.788  0.1332  0.5014 -0.0629
10755TIP3    H132222   5.225   4.589   2.838 -0.0117 -0.6483  0.7445
10755TIP3    H232223   5.075   4.609   2.834 -0.0088 -0.6125  0.8087
10756TIP3   OH232224   5.542   7.358   5.641 -0.0100 -0.2512 -0.1706
10756TIP3    H132225   5.478   7.311   5.588 -0.1505 -0.2873  0.0283
10756TIP3    H232226   5.497   7.375   5.724 -0.0335  0.4154 -0.3126
10757TIP3   OH232227   0.900   1.380   0.426  0.7328 -0.3521 -0.6249
10757TIP3    H132228   0.824   1.402   0.481 -0.3599 -3.6611 -0.5354
10757TIP3    H232229   0.863   1.370   0.338  1.0594 -1.7154 -0.6322
10758TIP3   OH232230   5.944   5.781   6.068  0.2116  0.1175 -0.4382
10758TIP3    H132231   5.887   5.765   5.993 -1.3983 -1.4626  1.0334
10758TIP3    H232232   5.988   5.697   6.084  0.7530  0.5104  0.2095
10759TIP3   OH232233   2.956   4.795   0.557 -0.2042  0.1274  0.4571
10759TIP3    H132234   2.923   4.805   0.468  0.2506  2.8459  0.5122
10759TIP3    H232235   3.049   4.815   0.551 -0.1812  0.4293  1.5216
10760TIP3   OH232236   4.419   7.588   2.636  0.0469  0.3315  0.0457
10760TIP3    H132237   4.373   7.533   2.699  1.0143  0.4278  0.8688
10760TIP3    H232238   4.448   7.527   2.568 -1.3704  0.2946 -0.5461
10761TIP3   OH232239   2.042   1.472   1.151 -0.5007  0.2892  0.5044
10761TIP3    H132240   1.988   1.544   1.119 -0.6854 -0.6000 -1.3503
10761TIP3    H232241   2.108   1.459   1.083  0.6543 -0.1153  1.6669
10762TIP3   OH232242   5.049   5.839   2.410 -0.6335  0.3859 -0.2345
10762TIP3    H132243   5.040   5.828   2.505 -0.8225  1.2405 -0.1373
10762TIP3    H232244   4.992   5.914   2.390  0.2158  0.8799 -0.8525
10763TIP3   OH232245   3.436   0.823   3.779  0.1473 -0.2330  0.4529
10763TIP3    H132246   3.500   0.873   3.831 -0.1885  0.6579  0.0158
10763TIP3    H232247   3.448   0.854   3.690 -0.8181 -0.1498  0.3476
10764TIP3   OH232248   5.814   2.402   5.696 -0.6459  0.0834  0.2801
10764TIP3    H132249   5.858   2.343   5.635 -1.7079  0.3601 -0.7993
10764TIP3    H232250   5.868   2.399   5.775  0.0329 -1.3199 -0.1920
10765TIP3   OH232251   3.885   0.352   2.751  0.1839  0.6061 -0.4316
10765TIP3    H132252   3.980   0.354   2.751  0.1857  1.4791  0.1471
10765TIP3    H232253   3.862   0.260   2.737  1.1168  0.2965 -0.0109
10766TIP3   OH232254   3.326   4.405   1.019 -0.2452  0.1790  0.0943
10766TIP3    H132255   3.288   4.493   1.012  0.8933  0.7039  0.1878
10766TIP3    H232256   3.355   4.399   1.110 -0.5090 -0.3837  0.1431
10767TIP3   OH232257   7.754   6.007   5.028 -0.0436 -0.7039 -0.2950
10767TIP3    H132258   7.840   6.045   5.010 -0.7155  0.7432 -0.6141
10767TIP3    H232259   7.746   5.936   4.965  0.1050  0.4805 -1.7197
10768TIP3   OH232260   1.075   5.956   0.686  0.2615  0.0942 -0.9528
10768TIP3    H132261   1.110   5.888   0.744  0.5932 -0.0999 -1.3709
10768TIP3    H232262   0.992   5.921   0.655 -0.1531  0.4068 -0.2254
10769TIP3   OH232263   6.380   0.481   1.847  0.0512  0.0264 -0.0397
10769TIP3    H132264   6.445   0.412   1.831 -1.6165 -1.2433 -1.8315
10769TIP3    H232265   6.305   0.435   1.883 -1.4145  0.6784 -2.0576
10770TIP3   OH232266   6.999   4.873   4.669  0.6793  0.3775  0.1214
10770TIP3    H132267   7.084   4.829   4.660 -0.2400 -1.6108  0.3870
10770TIP3    H232268   6.998   4.941   4.602  2.7725  0.9716  0.6422
10771TIP3   OH232269   0.758   4.853   1.936 -0.3752  0.3690 -0.0876
10771TIP3    H132270   0.723   4.869   1.849 -1.1741  0.1621  0.1843
10771TIP3    H232271   0.692   4.889   1.996  1.4159  3.0350  0.4369
10772TIP3   OH232272   3.018   2.364   0.063 -0.4434 -0.7051 -0.4006
10772TIP3    H132273   3.110   2.389   0.071 -0.8818  0.4422  1.7821
10772TIP3    H232274   3.016   2.273   0.093 -0.1145 -0.5099  0.2389
10773TIP3   OH232275   3.151   5.601   3.246 -0.1047  0.1266 -0.1435
10773TIP3    H132276   3.203   5.641   3.316 -0.2144  0.0413 -0.0159
10773TIP3    H232277   3.180   5.647   3.167  1.0786 -0.7782 -0.2625
10774TIP3   OH232278   4.946   1.084   5.086  0.9848  0.1223 -0.0726
10774TIP3    H132279   4.936   1.008   5.144 -0.2220  0.6476  0.4402
10774TIP3    H232280   4.916   1.053   5.001  0.3455  0.0531  0.1691
10775TIP3   OH232281   0.155   0.146   0.520 -0.1685  0.5976  0.1408
10775TIP3    H132282   0.086   0.109   0.576  0.1762  1.4664  1.1907
10775TIP3    H232283   0.181   0.074   0.462 -0.9211 -0.1788  0.7478
10776TIP3   OH232284   3.264   7.580   5.366  0.0116  0.0350  0.4107
10776TIP3    H132285   3.326   7.652   5.378 -1.7635  2.1036 -1.7883
10776TIP3    H232286   3.179   7.622   5.361 -1.2326 -2.3423 -0.1295
10777TIP3   OH232287   8.273   1.491   6.229 -0.3847 -0.0845  0.2412
10777TIP3    H132288   8.213   1.545   6.281  0.0174  0.0565  0.5640
10777TIP3    H232289   8.349   1.547   6.215 -0.5077 -0.1011 -0.5556
10778TIP3   OH232290   7.690   7.348   3.145  0.1594 -0.0525 -0.3409
10778TIP3    H132291   7.769   7.295   3.154  1.0901  1.6590  2.7083
10778TIP3    H232292   7.619   7.289   3.171  0.4814 -1.2799 -2.0789
10779TIP3   OH232293   3.452   0.320   4.964 -0.1862  0.3680 -0.3079
10779TIP3    H132294   3.541   0.352   4.951 -0.1678  0.8962  0.9980
10779TIP3    H232295   3.433   0.337   5.056 -0.5634 -2.4296  0.2340
10780TIP3   OH232296   8.038   1.577   3.155  0.4962  0.4427  0.0037
10780TIP3    H132297   7.983   1.536   3.088 -0.4251  3.4244 -1.2095
10780TIP3    H232298   8.011   1.535   3.237 -0.1841 -1.4663 -1.1203
10781TIP3   OH232299   4.018   0.658   2.801 -0.2841 -0.4158  0.8709
10781TIP3    H132300   4.070   0.579   2.785  2.1047  1.0522  0.8414
10781TIP3    H232301   4.028   0.674   2.895 -2.3451 -1.1295  1.2596
10782TIP3   OH232302   6.988   7.698   1.560 -0.3697 -0.2324  0.2600
10782TIP3    H132303   7.052   7.767   1.541 -0.9596 -0.5200 -3.4995
10782TIP3    H232304   6.904   7.744   1.560 -0.4664 -0.3047  2.4470
10783TIP3   OH232305   2.783   5.797   1.729 -0.4504 -0.5235 -0.0798
10783TIP3    H132306   2.810   5.835   1.813 -0.6479 -0.3979 -0.0728
10783TIP3    H232307   2.861   5.804   1.674 -0.6827  0.5616 -0.3112
10784TIP3   OH232308   1.214   6.135   2.336 -0.2560  0.5104  0.3278
10784TIP3    H132309   1.269   6.099   2.405  0.5735 -0.2065 -0.6733
10784TIP3    H232310   1.266   6.207   2.298 -0.2620  0.2314 -0.2186
10785TIP3   OH232311   1.707   5.233   0.599 -0.5169 -0.5890  0.2135
10785TIP3    H132312   1.647   5.308   0.599  2.1806  1.7522  0.0272
10785TIP3    H232313   1.746   5.234   0.512  1.9620 -0.0606  1.2583
10786TIP3   OH232314   6.707   0.269   1.443  0.0011  0.6510  0.9991
10786TIP3    H132315   6.795   0.235   1.427 -0.2258  0.2440  0.5899
10786TIP3    H232316   6.650   0.216   1.386 -0.5906  0.4633  1.7466
10787TIP3   OH232317   5.637   7.477   5.977  0.2873  0.0877 -0.0656
10787TIP3    H132318   5.700   7.417   6.017 -0.0760 -0.7176 -0.6839
10787TIP3    H232319   5.690   7.551   5.948  0.6190  0.5266  1.5325
10788TIP3   OH232320   7.100   0.169   1.172  0.3211  0.3307  0.0525
10788TIP3    H132321   7.005   0.169   1.160  0.2165  0.4291  0.8539
10788TIP3    H232322   7.122   0.077   1.187  0.6053  0.0319 -1.9519
10789TIP3   OH232323   7.459   2.992   6.267 -0.4711  0.2946 -0.0347
10789TIP3    H132324   7.481   3.073   6.221 -0.4924  0.6284  0.5330
10789TIP3    H232325   7.444   3.019   6.358  0.2025 -0.4416  0.3099
10790TIP3   OH232326   1.948   4.953   3.575  0.4174 -0.6981 -0.1377
10790TIP3    H132327   1.936   5.031   3.521  1.7032  1.0102  1.9001
10790TIP3    H232328   2.040   4.930   3.565  0.2899 -1.3304  0.0875
10791TIP3   OH232329   1.991   1.507   3.462 -0.2365  0.0672 -0.2524
10791TIP3    H132330   1.908   1.553   3.476 -1.1226 -1.9454  1.7225
10791TIP3    H232331   2.055   1.577   3.446 -1.7859  1.8744  1.0380
10792TIP3   OH232332   4.927   5.103   2.448  0.9282  0.2786 -0.0724
10792TIP3    H132333   5.018   5.088   2.425  0.7605 -0.4523 -0.2709
10792TIP3    H232334   4.930   5.136   2.538  1.5556  2.8292 -0.9283
10793TIP3   OH232335   5.383   7.608   6.548 -0.2395 -0.0231  0.1087
10793TIP3    H132336   5.408   7.565   6.467 -2.5449 -0.3213 -0.4982
10793TIP3    H232337   5.303   7.564   6.577 -0.3174  1.0580  1.7388
10794TIP3   OH232338   2.193   5.999   6.541 -0.5098 -0.3079  0.0591
10794TIP3    H132339   2.118   6.057   6.535 -0.5913 -0.5762 -2.2185
10794TIP3    H232340   2.178   5.948   6.621 -2.0957  0.4974  0.3008
10795TIP3   OH232341   6.932   7.676   0.744 -0.2481  0.0187 -0.1516
10795TIP3    H132342   6.992   7.749   0.729  0.6072 -0.6330 -0.0376
10795TIP3    H232343   6.868   7.682   0.673  1.7732 -1.0667 -2.1980
10796TIP3   OH232344   1.412   0.980   3.288  0.4484  0.5078 -0.4607
10796TIP3    H132345   1.431   1.004   3.379 -0.9628  0.9970 -0.2705
10796TIP3    H232346   1.461   1.044   3.236 -1.4002  2.4425  0.0257
10797TIP3   OH232347   1.312   0.133   6.374 -0.0738 -0.1425 -0.6879
10797TIP3    H132348   1.269   0.048   6.365  1.2369 -0.9371  0.2288
10797TIP3    H232349   1.348   0.151   6.287 -1.6945  0.2786 -1.3229
10798TIP3   OH232350   6.599   0.022   0.338 -0.4668 -0.1326 -0.3202
10798TIP3    H132351   6.598   0.088   0.268 -1.6415  0.7565  0.4926
10798TIP3    H232352   6.612   0.073   0.418 -1.9574 -0.8078  0.3832
10799TIP3   OH232353   7.958   0.235   5.275  0.5493  0.2937 -0.4717
10799TIP3    H132354   7.941   0.160   5.219  0.4931 -0.7794  0.9343
10799TIP3    H232355   7.886   0.296   5.256 -1.2310 -1.3624  0.6196
10800TIP3   OH232356   3.038   7.476   0.800 -0.7184 -0.0039 -0.5630
10800TIP3    H132357   2.968   7.437   0.853 -0.8574  0.2888 -0.5290
10800TIP3    H232358   3.119   7.439   0.836 -0.7749  0.5857  0.2057
10801TIP3   OH232359   2.627   6.741   2.736  0.0457  0.2939  0.3697
10801TIP3    H132360   2.715   6.772   2.753  0.2024  0.4912 -0.7179
10801TIP3    H232361   2.635   6.646   2.732  0.4240  0.3617 -0.7913
10802TIP3   OH232362   3.267   0.505   1.895  0.7430 -0.4511 -0.7741
10802TIP3    H132363   3.240   0.433   1.839  0.5677 -0.7870 -0.2647
10802TIP3    H232364   3.184   0.542   1.927  0.8386 -0.1777 -0.8328
10803TIP3   OH232365   4.552   4.988   0.357 -0.2403 -0.4342  0.1652
10803TIP3    H132366   4.627   4.992   0.297 -0.4592  1.9036 -0.0174
10803TIP3    H232367   4.477   4.971   0.301 -0.4257  1.6148 -0.2553
10804TIP3   OH232368   5.954   6.752   4.028 -0.1407 -0.2124 -0.1163
10804TIP3    H132369   6.019   6.683   4.013  0.8341  0.6468  0.0441
10804TIP3    H232370   6.005   6.832   4.036 -1.3301  0.9321 -2.5335
10805TIP3   OH232371   4.668   1.587   3.241  0.8648  0.3691  0.2701
10805TIP3    H132372   4.612   1.520   3.282 -0.4716  1.8194  0.9117
10805TIP3    H232373   4.708   1.542   3.167 -1.5185 -0.6539 -0.4901
10806TIP3   OH232374   0.618   6.379   1.284 -0.5327  0.7005  0.2114
10806TIP3    H132375   0.646   6.313   1.221 -1.1303  1.3018 -0.7101
10806TIP3    H232376   0.692   6.389   1.343  0.9569  1.7135 -1.7057
10807TIP3   OH232377   2.277   5.427   0.182  0.0807 -0.0444  0.3448
10807TIP3    H132378   2.291   5.490   0.112  2.4058 -0.3285  0.4901
10807TIP3    H232379   2.182   5.414   0.184 -0.0236 -1.1825 -3.7546
10808TIP3   OH232380   5.618   4.048   5.168 -0.1957  0.2779 -0.1105
10808TIP3    H132381   5.566   4.063   5.247  0.7151  0.4323  0.4732
10808TIP3    H232382   5.597   4.123   5.112  0.4553  1.0969  0.7003
10809TIP3   OH232383   1.563   4.417   4.067  0.0726  0.5284 -0.2615
10809TIP3    H132384   1.476   4.420   4.108  0.8771 -1.1105  1.7402
10809TIP3    H232385   1.572   4.326   4.037  1.0629  0.7052 -0.5222
10810TIP3   OH232386   1.171   4.143   3.923  0.0537  0.3471 -0.3208
10810TIP3    H132387   1.191   4.074   3.859  1.0314  0.2169  0.1082
10810TIP3    H232388   1.179   4.099   4.008 -2.1981  0.2593 -0.1018
10811TIP3   OH232389   4.247   1.042   5.058 -0.5086 -0.7660 -0.1457
10811TIP3    H132390   4.235   1.137   5.046 -1.4040 -0.7873  0.5040
10811TIP3    H232391   4.330   1.023   5.014 -0.6689  0.1960 -0.9075
10812TIP3   OH232392   1.869   7.793   3.944 -0.0729  1.2440  0.3031
10812TIP3    H132393   1.896   7.717   3.892 -1.8374  1.2371 -0.7203
10812TIP3    H232394   1.891   7.868   3.890 -0.0737  1.3519  0.4520
10813TIP3   OH232395   6.118   3.446   5.440 -0.7904 -0.2944  0.4325
10813TIP3    H132396   6.086   3.425   5.352  0.4292 -2.9028  0.4828
10813TIP3    H232397   6.040   3.444   5.496 -1.1835 -2.2571 -0.0906
10814TIP3   OH232398   6.579   0.963   4.427 -0.1435  0.2122  1.0363
10814TIP3    H132399   6.530   0.935   4.504 -1.6668 -0.1585 -0.0230
10814TIP3    H232400   6.519   0.948   4.354  1.1471  0.8409 -0.1928
10815TIP3   OH232401   3.952   3.184   4.494  0.6188 -0.4787 -0.6527
10815TIP3    H132402   3.897   3.252   4.456  0.5351 -1.1760 -1.8044
10815TIP3    H232403   4.040   3.223   4.499  0.4017 -0.0054 -0.5114
10816TIP3   OH232404   3.384   3.106  -0.006  0.7982  0.6083  0.2212
10816TIP3    H132405   3.461   3.162  -0.020 -0.2607  2.4775  1.4702
10816TIP3    H232406   3.359   3.122   0.085  2.1413 -4.1885  1.7009
10817TIP3   OH232407   3.277   3.686   1.635  0.1132 -0.4714 -0.0273
10817TIP3    H132408   3.356   3.633   1.644 -0.0944 -0.8113 -0.1868
10817TIP3    H232409   3.233   3.680   1.720  0.2264 -0.3367  0.0400
10818TIP3   OH232410   4.477   6.915   0.455 -0.4843 -0.0832  0.2111
10818TIP3    H132411   4.387   6.900   0.426 -0.2452 -1.3432  0.0823
10818TIP3    H232412   4.523   6.943   0.375 -0.5309 -0.4788  0.0429
10819TIP3   OH232413   4.933   4.423   6.283  0.2642  0.1114 -0.4652
10819TIP3    H132414   4.942   4.510   6.244 -1.0935  0.2807 -0.4271
10819TIP3    H232415   4.912   4.440   6.375  2.3266 -0.2865  0.1467
10820TIP3   OH232416   2.526   5.530   6.666  0.4812  1.0269 -0.8501
10820TIP3    H132417   2.569   5.445   6.667  0.8151  1.1869 -1.2608
10820TIP3    H232418   2.559   5.573   6.587 -0.2032  1.2745 -1.0147
10821TIP3   OH232419   5.535   6.340   3.976  0.0571  0.2050 -0.2735
10821TIP3    H132420   5.553   6.272   3.911  2.7852  0.3433  0.2095
10821TIP3    H232421   5.465   6.303   4.030 -1.2836 -0.4961 -2.3962
10822TIP3   OH232422   5.234   3.321   3.062 -0.0085 -0.3300  0.1810
10822TIP3    H132423   5.240   3.401   3.114 -1.6570  1.9966 -2.9132
10822TIP3    H232424   5.163   3.271   3.102 -1.4319  1.5268  0.1007
10823TIP3   OH232425   7.801   6.619   2.317 -0.3667  0.0651 -0.0366
10823TIP3    H132426   7.846   6.695   2.281  0.4432 -0.4410 -0.1132
10823TIP3    H232427   7.857   6.588   2.388 -0.7819 -0.3366  0.1229
10824TIP3   OH232428   4.120   5.451   0.943  0.3493  0.4982 -0.6394
10824TIP3    H132429   4.120   5.377   1.003  4.3039 -0.2409 -1.3164
10824TIP3    H232430   4.101   5.413   0.857  1.5898  0.3731 -0.8673
10825TIP3   OH232431   1.443   6.624   4.834 -0.1070  0.0596 -0.5993
10825TIP3    H132432   1.470   6.716   4.828 -0.1135  0.0073 -1.5845
10825TIP3    H232433   1.487   6.591   4.913  1.2228  0.4685 -1.1487
10826TIP3   OH232434   5.531   5.761   3.568  0.0844  0.3526  0.2478
10826TIP3    H132435   5.491   5.676   3.590  0.0112  0.1264 -0.6892
10826TIP3    H232436   5.625   5.744   3.568  0.1894  0.7811  2.0378
10827TIP3   OH232437   6.447   0.773   2.652 -0.2769 -0.0767 -0.3567
10827TIP3    H132438   6.392   0.717   2.706  1.2728 -2.0676 -0.7477
10827TIP3    H232439   6.412   0.861   2.667 -2.7985 -1.0801  0.2824
10828TIP3   OH232440   4.077   1.280   4.214 -0.2307 -0.1668  0.0270
10828TIP3    H132441   4.001   1.326   4.250 -1.0808  0.0769 -1.9190
10828TIP3    H232442   4.152   1.325   4.252 -1.0234 -0.2922  1.8625
10829TIP3   OH232443   8.172   6.350   2.789 -0.5374 -0.0756 -0.0890
10829TIP3    H132444   8.194   6.352   2.696  0.3148 -0.8839  0.0851
10829TIP3    H232445   8.077   6.343   2.791 -0.6854  1.3396 -0.8801
10830TIP3   OH232446   8.297   1.882   0.358  0.7622  0.2463  1.5099
10830TIP3    H132447   8.335   1.928   0.283 -1.0072  2.2432  1.7411
10830TIP3    H232448   8.278   1.794   0.326  1.4961  0.5780  0.1041
10831TIP3   OH232449   0.343   2.469   1.172  0.0175  0.1917 -0.2192
10831TIP3    H132450   0.289   2.466   1.093 -0.1947 -0.9426 -0.0432
10831TIP3    H232451   0.372   2.379   1.185  0.3161  0.4227  0.8231
10832TIP3   OH232452   6.802   0.313   3.667 -0.4974  0.1818  0.4830
10832TIP3    H132453   6.876   0.350   3.618 -1.1481  0.5301 -0.2633
10832TIP3    H232454   6.731   0.374   3.652 -1.4670 -1.0993 -0.3681
10833TIP3   OH232455   2.266   2.964   2.146 -0.0865  0.0616  0.3505
10833TIP3    H132456   2.227   2.885   2.184  0.3416 -1.1988 -1.6664
10833TIP3    H232457   2.338   2.985   2.205 -1.5551  0.3294  2.1610
10834TIP3   OH232458   2.336   6.710   6.776 -0.0305 -0.2179  0.0989
10834TIP3    H132459   2.343   6.629   6.726  0.4761 -0.1527  0.0619
10834TIP3    H232460   2.394   6.697   6.851 -0.9786 -0.4187  0.8166
10835TIP3   OH232461   1.451   2.630   2.294  0.0184  0.3785  0.1435
10835TIP3    H132462   1.423   2.547   2.332  1.3587  0.6307  1.7988
10835TIP3    H232463   1.501   2.606   2.217 -1.8941 -0.1949 -0.9777
10836TIP3   OH232464   2.843   4.824   0.319 -0.2479  0.3634  0.1369
10836TIP3    H132465   2.878   4.893   0.263 -1.2572  0.5946 -0.2328
10836TIP3    H232466   2.751   4.816   0.293 -0.4590 -0.2800  1.0178
10837TIP3   OH232467   2.334   5.530   2.880  0.2048 -0.1113 -0.2973
10837TIP3    H132468   2.241   5.530   2.901  0.5171 -0.3483  1.2486
10837TIP3    H232469   2.357   5.622   2.871  0.3431  0.1567  2.1026
10838TIP3   OH232470   3.255   2.201   2.683 -0.4246 -0.3138 -0.2494
10838TIP3    H132471   3.312   2.124   2.686 -0.3652 -0.2410  0.8980
10838TIP3    H232472   3.251   2.232   2.774 -1.4574  0.2906 -0.4809
10839TIP3   OH232473   5.112   7.728   2.603  0.6800 -0.0404 -0.4512
10839TIP3    H132474   5.167   7.692   2.673 -0.1981 -2.4708 -0.9044
10839TIP3    H232475   5.036   7.765   2.648  1.2794  0.6684 -0.0002
10840TIP3   OH232476   4.087   7.727   3.848  0.0480  0.4025 -0.1257
10840TIP3    H132477   4.074   7.797   3.784  1.0197  0.3094 -0.4384
10840TIP3    H232478   4.182   7.715   3.851  0.0035  0.2449  1.1657
10841TIP3   OH232479   5.593   4.319   2.587  0.0705  0.2126  0.1809
10841TIP3    H132480   5.629   4.401   2.621  1.4669 -0.2288 -0.1540
10841TIP3    H232481   5.670   4.262   2.575 -0.7813 -0.8733 -0.3198
10842TIP3   OH232482   6.541   0.637   5.759  0.1223  0.1741 -0.0139
10842TIP3    H132483   6.488   0.559   5.773  0.0118 -0.3973 -2.8789
10842TIP3    H232484   6.580   0.657   5.844 -2.2698 -1.1634  1.4889
10843TIP3   OH232485   0.130   4.806   5.377  0.2309 -0.3046 -0.1836
10843TIP3    H132486   0.153   4.714   5.364 -1.0196 -0.5892 -0.5241
10843TIP3    H232487   0.157   4.825   5.467  1.6784 -0.6181 -0.5288
10844TIP3   OH232488   3.613   5.502   4.858  0.2580 -0.0183  0.1619
10844TIP3    H132489   3.593   5.535   4.771  1.0122  1.4643  0.5093
10844TIP3    H232490   3.531   5.466   4.890 -0.3859  0.7017 -0.6350
10845TIP3   OH232491   5.887   5.263   4.472 -1.3668 -0.5593 -0.0484
10845TIP3    H132492   5.883   5.348   4.516 -1.8002 -0.2661 -0.6454
10845TIP3    H232493   5.855   5.200   4.538 -0.2380 -0.3943  0.6895
10846TIP3   OH232494   2.501   4.020   3.636 -0.2555 -0.6350  0.2502
10846TIP3    H132495   2.553   3.945   3.606  0.6034  0.0213  0.0837
10846TIP3    H232496   2.557   4.096   3.621 -1.5244  0.1763 -0.5800
10847TIP3   OH232497   3.258   4.456   6.410 -0.4515 -0.4842  0.4167
10847TIP3    H132498   3.228   4.534   6.457 -0.8888 -1.5164  1.9082
10847TIP3    H232499   3.205   4.385   6.444 -0.1155 -1.4441 -0.9833
10848TIP3   OH232500   2.306   1.736   4.764  0.3897 -0.5570  0.1806
10848TIP3    H132501   2.370   1.669   4.788  0.7898 -0.2673 -0.0644
10848TIP3    H232502   2.226   1.688   4.747 -0.0712 -0.7463  2.5740
10849TIP3   OH232503   2.452   5.246   3.328  0.5416 -0.2075 -0.3736
10849TIP3    H132504   2.511   5.296   3.271  0.3858  2.0586  1.3146
10849TIP3    H232505   2.500   5.238   3.410 -0.5307 -0.4892  0.2330
10850TIP3   OH232506   3.623   0.715   3.107 -0.0315 -0.1050  0.0441
10850TIP3    H132507   3.712   0.706   3.072 -0.3873  1.4349 -1.3858
10850TIP3    H232508   3.566   0.683   3.036 -0.7385  2.4782 -0.6517
10851TIP3   OH232509   7.711   4.186   6.503 -0.0660 -0.1502 -0.1387
10851TIP3    H132510   7.659   4.234   6.438 -1.3623  0.2550  1.1264
10851TIP3    H232511   7.666   4.203   6.586  1.4443 -0.7703  0.8534
10852TIP3   OH232512   7.732   6.728   6.157  0.2010 -0.4069  0.3765
10852TIP3    H132513   7.821   6.727   6.192 -0.2476 -0.5479  1.5509
10852TIP3    H232514   7.681   6.677   6.219 -0.7317 -0.2399 -0.2286
10853TIP3   OH232515   2.016   0.779   4.292  0.0354 -0.0849 -0.1065
10853TIP3    H132516   2.103   0.742   4.274  0.6027  1.5128 -0.8684
10853TIP3    H232517   2.033   0.851   4.353 -0.5021  1.2701 -1.4926
10854TIP3   OH232518   1.017   2.331   6.021 -0.1826  0.1346  0.4320
10854TIP3    H132519   1.070   2.410   6.035  0.8330 -0.0973 -1.7101
10854TIP3    H232520   1.037   2.275   6.095  0.5093  1.1494  1.0297
10855TIP3   OH232521   4.686   1.268   1.838 -0.2874 -0.3663 -0.4742
10855TIP3    H132522   4.733   1.337   1.791 -1.2958  0.2984 -0.5324
10855TIP3    H232523   4.674   1.302   1.926 -0.2319 -0.7403 -0.3196
10856TIP3   OH232524   0.270   7.669   3.151  0.1098 -0.6500  0.3605
10856TIP3    H132525   0.203   7.603   3.166  0.5477 -2.0210 -2.8654
10856TIP3    H232526   0.221   7.751   3.140 -0.8380 -1.2161  0.2622
10857TIP3   OH232527   7.564   0.053   6.674 -0.0343 -0.6648  0.2248
10857TIP3    H132528   7.574   0.128   6.615  1.6708 -0.6593  0.4835
10857TIP3    H232529   7.613   0.078   6.752 -0.8645 -1.3713  0.9831
10858TIP3   OH232530   7.343   5.118   1.835  0.1807 -0.2876 -0.5665
10858TIP3    H132531   7.361   5.085   1.747 -1.0690 -1.2196 -0.5009
10858TIP3    H232532   7.346   5.040   1.891  0.8512  0.2803  0.2115
10859TIP3   OH232533   2.272   5.537   0.642  0.6036 -0.3607  0.8142
10859TIP3    H132534   2.328   5.589   0.584 -1.2815 -0.6325 -1.4297
10859TIP3    H232535   2.247   5.461   0.588  0.6759 -1.9278  2.8645
10860TIP3   OH232536   1.602   7.599   2.743 -0.5578  0.7443  0.4841
10860TIP3    H132537   1.540   7.541   2.787  0.0091 -0.9739 -0.8758
10860TIP3    H232538   1.680   7.596   2.797 -0.2593 -0.4291  0.0027
10861TIP3   OH232539   2.560   0.529   4.224  0.8528  0.4689 -0.0140
10861TIP3    H132540   2.631   0.571   4.273  0.9437  0.4453 -0.1249
10861TIP3    H232541   2.512   0.478   4.290  1.5712 -0.3713 -0.1269
10862TIP3   OH232542   0.377   3.061   2.885  0.3427 -0.3203  0.4928
10862TIP3    H132543   0.336   3.072   2.971 -1.6705 -3.5366  0.1138
10862TIP3    H232544   0.439   2.989   2.897 -1.8845 -2.6924 -1.1651
10863TIP3   OH232545   7.095   0.100   6.741  0.5956  0.0833 -0.7281
10863TIP3    H132546   7.067   0.042   6.812  0.3603  1.4372  0.3177
10863TIP3    H232547   7.190   0.087   6.737  0.6401  0.1129 -0.0293
10864TIP3   OH232548   7.166   0.730   1.636  0.5856  0.4212  0.3015
10864TIP3    H132549   7.088   0.757   1.587  1.0980 -0.9852 -1.3953
10864TIP3    H232550   7.238   0.777   1.594  1.0267 -0.7612 -0.3063
10865TIP3   OH232551   4.360   5.745   6.466 -0.7394  0.0883 -0.0539
10865TIP3    H132552   4.363   5.706   6.378  0.0640 -0.3988  0.1756
10865TIP3    H232553   4.385   5.673   6.524  2.6393  1.3221  0.2443
10866TIP3   OH232554   2.787   2.329   2.541 -0.1601 -0.3821 -0.0082
10866TIP3    H132555   2.821   2.244   2.569  0.8379 -0.1058 -0.3463
10866TIP3    H232556   2.816   2.389   2.609  1.3463  0.1076 -1.0401
10867TIP3   OH232557   4.637   0.978   5.692  0.3243 -0.0560 -0.4377
10867TIP3    H132558   4.617   0.940   5.607  0.1612  0.7655 -0.7836
10867TIP3    H232559   4.562   1.036   5.710  1.7801  2.1910 -1.2145
10868TIP3   OH232560   5.835   1.403   4.461 -0.2202  0.4377 -0.2293
10868TIP3    H132561   5.897   1.461   4.417 -0.1073  1.0658  0.7198
10868TIP3    H232562   5.760   1.460   4.483 -0.5937 -0.0280 -0.2789
10869TIP3   OH232563   6.458   4.111   1.741  0.5089  0.4589  0.4400
10869TIP3    H132564   6.513   4.082   1.667  2.1950  0.5865  1.5930
10869TIP3    H232565   6.481   4.203   1.753 -2.6535  1.6503 -1.3014
10870TIP3   OH232566   7.898   6.692   3.584  0.1500 -0.3902  0.1459
10870TIP3    H132567   7.814   6.711   3.627  0.0673 -1.2269  0.3628
10870TIP3    H232568   7.942   6.777   3.581  0.2030 -0.3130  1.9934
10871TIP3   OH232569   8.191   6.083   5.315 -0.4588 -0.3264 -0.0659
10871TIP3    H132570   8.211   6.111   5.404 -1.3600 -1.5626  0.5498
10871TIP3    H232571   8.253   6.132   5.260 -1.3710  2.1681  0.9925
10872TIP3   OH232572   2.438   5.794   6.499 -0.0757  0.1872  0.0463
10872TIP3    H132573   2.370   5.854   6.469  1.4732  2.2548  0.4393
10872TIP3    H232574   2.516   5.818   6.449  0.2874 -2.5823 -0.9080
10873TIP3   OH232575   2.629   6.338   5.744 -0.1688 -0.3331  0.0738
10873TIP3    H132576   2.707   6.337   5.689  0.6932 -0.5050  1.2526
10873TIP3    H232577   2.643   6.267   5.807  1.0654  2.4897  3.3388
10874TIP3   OH232578   5.318   0.794   1.650  0.2508 -0.3703 -0.0208
10874TIP3    H132579   5.326   0.877   1.603  1.2856  0.1024  0.9578
10874TIP3    H232580   5.223   0.777   1.652  0.1313 -0.1151 -1.7288
10875TIP3   OH232581   1.934   1.263   1.793 -0.6189 -0.7172  0.1102
10875TIP3    H132582   1.898   1.334   1.847  1.8201  0.3875  0.4238
10875TIP3    H232583   1.927   1.185   1.847  0.4181  0.0988  1.5067
10876TIP3   OH232584   4.605   5.918   2.914 -0.4413 -0.2968 -0.4770
10876TIP3    H132585   4.633   5.865   2.988  1.4349  1.5437  0.2176
10876TIP3    H232586   4.531   5.870   2.876 -2.5852 -0.5231  3.4969
10877TIP3   OH232587   3.947   6.915   2.819  0.0677  0.4422 -0.5652
10877TIP3    H132588   3.931   6.949   2.907 -0.8679 -2.2996  0.4318
10877TIP3    H232589   4.003   6.838   2.833  0.3217  0.2421 -2.4383
10878TIP3   OH232590   1.457   4.393   5.491  0.0410 -0.4964  0.3210
10878TIP3    H132591   1.513   4.335   5.439  0.0385  0.4696 -0.7875
10878TIP3    H232592   1.475   4.369   5.582  0.1987 -2.0868 -0.1007
10879TIP3   OH232593   5.589   0.851   3.435  0.4884 -0.5550  0.3588
10879TIP3    H132594   5.580   0.841   3.340 -0.8481 -0.5629  0.4648
10879TIP3    H232595   5.556   0.768   3.471 -1.1991  0.2998  0.8854
10880TIP3   OH232596   4.123   0.952   1.983 -0.6441  0.4799 -0.3365
10880TIP3    H132597   4.164   0.930   1.900 -2.2195  1.4099 -1.3977
10880TIP3    H232598   4.143   1.044   1.996  0.5884  0.0821  0.9638
10881TIP3   OH232599   2.082   4.406   2.466 -0.5213  0.0391  0.2021
10881TIP3    H132600   2.130   4.423   2.548 -1.9215  1.8028  0.7239
10881TIP3    H232601   2.060   4.313   2.471 -0.3775  0.0503  1.7307
10882TIP3   OH232602   5.627   5.568   4.817  0.3573 -0.0855  0.0911
10882TIP3    H132603   5.534   5.593   4.814  0.6326  0.9581 -0.4564
10882TIP3    H232604   5.673   5.646   4.786  1.4812 -0.2851  1.1996
10883TIP3   OH232605   2.690   4.741   6.175  0.4280  0.3552 -0.0784
10883TIP3    H132606   2.604   4.762   6.212  0.2537  0.8668 -0.7545
10883TIP3    H232607   2.693   4.646   6.175 -1.2681  0.2094 -2.4983
10884TIP3   OH232608   8.245   6.942   4.521 -0.3396 -0.4641 -0.2387
10884TIP3    H132609   8.273   6.927   4.431  1.1838 -0.4038  0.2057
10884TIP3    H232610   8.159   6.985   4.513 -1.3606 -2.6147 -1.6037
10885TIP3   OH232611   3.846   7.676   0.057  0.8941  0.5674  0.1539
10885TIP3    H132612   3.844   7.656   0.150  1.7821  0.8447  0.2354
10885TIP3    H232613   3.852   7.591   0.013 -2.9192  0.1201  0.1676
10886TIP3   OH232614   0.929   0.716   4.406 -0.0781  0.0328  0.1359
10886TIP3    H132615   0.894   0.663   4.334  0.6627  0.4634 -0.5510
10886TIP3    H232616   0.861   0.712   4.474 -0.2338 -1.4271 -0.0763
10887TIP3   OH232617   1.746   1.540   1.898 -0.9966  0.6613  0.8445
10887TIP3    H132618   1.828   1.583   1.925  0.0024 -0.4965 -0.2318
10887TIP3    H232619   1.705   1.603   1.839 -0.4257  0.8753  0.6715
10888TIP3   OH232620   0.644   7.547   6.476  0.4987  0.0906  0.0456
10888TIP3    H132621   0.717   7.544   6.538  0.9511 -0.3749 -0.4998
10888TIP3    H232622   0.621   7.455   6.461 -1.0487  0.2579  1.1801
10889TIP3   OH232623   3.753   2.534   0.619  0.7179  0.0097  0.0318
10889TIP3    H132624   3.664   2.564   0.632  1.0440  0.4030  1.5510
10889TIP3    H232625   3.797   2.550   0.703  2.4361  0.5892 -0.9046
10890TIP3   OH232626   1.159   3.160   6.260  0.2565  0.7980  0.3084
10890TIP3    H132627   1.115   3.239   6.226  0.8217  0.6606 -0.7755
10890TIP3    H232628   1.107   3.088   6.226  1.9590  0.5751 -2.0794
10891TIP3   OH232629   2.356   7.761   2.010  0.4210  0.4075 -0.1267
10891TIP3    H132630   2.448   7.737   1.999  0.8950  1.7780  0.5333
10891TIP3    H232631   2.335   7.812   1.932  0.1112 -0.2059 -0.4453
10892TIP3   OH232632   4.591   2.394   3.801 -0.5852 -0.4165 -0.0858
10892TIP3    H132633   4.681   2.401   3.832 -0.4495 -0.7806 -0.3871
10892TIP3    H232634   4.578   2.300   3.788 -0.8146 -0.3180 -0.6125
10893TIP3   OH232635   4.459   6.826   1.368  0.1668 -0.1747 -0.1008
10893TIP3    H132636   4.430   6.818   1.277  0.1067 -1.0344 -0.0174
10893TIP3    H232637   4.531   6.888   1.366  0.0880 -0.1010 -0.7151
10894TIP3   OH232638   4.084   4.604   5.558  0.1982  0.8457 -0.7271
10894TIP3    H132639   4.138   4.651   5.494  0.3825  3.5202  1.2041
10894TIP3    H232640   4.146   4.549   5.606  0.9616  2.5111  0.2695
10895TIP3   OH232641   3.050   1.761   6.111  0.3876  0.5864 -0.1945
10895TIP3    H132642   3.063   1.716   6.027  0.6865 -1.0903  0.6986
10895TIP3    H232643   3.102   1.841   6.104  2.3102 -0.6497 -0.7830
10896TIP3   OH232644   4.111   5.305   2.755 -0.2773 -0.1987  0.3532
10896TIP3    H132645   4.145   5.223   2.790 -0.0315 -0.1897  0.1380
10896TIP3    H232646   4.189   5.360   2.743 -0.4321  0.0374  0.4227
10897TIP3   OH232647   6.020   6.024   5.123 -0.3291 -0.3943  0.3785
10897TIP3    H132648   6.097   6.004   5.176 -0.5368 -2.2215  0.0784
10897TIP3    H232649   5.963   5.948   5.135 -1.2735  0.0952 -0.8382
10898TIP3   OH232650   5.904   2.058   4.391 -0.1537  0.1236  0.2260
10898TIP3    H132651   5.835   1.999   4.420  2.3809 -2.2939  1.8806
10898TIP3    H232652   5.896   2.135   4.449  0.0571 -1.2617  2.2062
10899TIP3   OH232653   7.791   2.734   3.479  0.0057  0.4054  0.6464
10899TIP3    H132654   7.847   2.800   3.519  1.4321  0.0796 -0.6914
10899TIP3    H232655   7.766   2.772   3.395 -0.8538  0.0708  0.7422
10900TIP3   OH232656   1.393   2.713   3.867 -0.0413  0.3981  0.7159
10900TIP3    H132657   1.352   2.681   3.948 -0.4500  0.5481  0.5666
10900TIP3    H232658   1.326   2.766   3.825 -0.8348 -1.8567 -1.1028
10901TIP3   OH232659   7.603   6.230   1.534  0.4340  0.4266  0.0399
10901TIP3    H132660   7.556   6.271   1.607  0.7045  0.8520 -0.0242
10901TIP3    H232661   7.660   6.299   1.501  0.7555  0.0497 -0.1881
10902TIP3   OH232662   1.684   6.357   4.888 -0.1035 -0.3787 -0.0188
10902TIP3    H132663   1.639   6.409   4.954 -0.1893 -1.0715  0.4852
10902TIP3    H232664   1.776   6.361   4.913  0.1741  1.1917 -1.1561
10903TIP3   OH232665   7.213   0.394   2.781  0.3204  0.1391 -0.7047
10903TIP3    H132666   7.172   0.405   2.867 -0.8496 -1.4860 -1.0001
10903TIP3    H232667   7.267   0.316   2.789 -1.7378 -1.5423 -2.0467
10904TIP3   OH232668   0.325   0.249   1.628 -0.2133  0.3309  0.1276
10904TIP3    H132669   0.250   0.270   1.684  0.7011 -1.9836  2.4843
10904TIP3    H232670   0.400   0.286   1.675  0.5244 -1.2089  0.2368
10905TIP3   OH232671   0.391   2.549   3.178 -0.1156 -0.2350 -0.3126
10905TIP3    H132672   0.317   2.575   3.232 -1.6988 -0.3505 -2.3170
10905TIP3    H232673   0.454   2.621   3.189  0.0570 -0.6854  2.3240
10906TIP3   OH232674   4.609   4.785   1.259  0.2032  0.2928  0.4389
10906TIP3    H132675   4.544   4.817   1.196  0.2422 -0.0883  0.2009
10906TIP3    H232676   4.560   4.725   1.316  0.6642 -1.3173 -0.7755
10907TIP3   OH232677   7.897   0.976   1.880 -0.1016 -0.7355 -0.8899
10907TIP3    H132678   7.823   1.036   1.877  1.5277  1.5880  0.8869
10907TIP3    H232679   7.973   1.033   1.893  1.5451 -3.1618  1.2946
10908TIP3   OH232680   0.238   6.879   1.291  0.5166  0.1018 -0.6549
10908TIP3    H132681   0.286   6.837   1.363  2.3494  0.6133 -1.5037
10908TIP3    H232682   0.243   6.816   1.219 -1.3435 -0.4242 -0.3621
10909TIP3   OH232683   6.424   0.412   5.875 -0.2469 -0.1821 -0.8459
10909TIP3    H132684   6.384   0.375   5.796 -1.8894  2.0609 -1.1767
10909TIP3    H232685   6.360   0.392   5.944  0.6298 -1.1113 -0.2781
10910TIP3   OH232686   0.829   2.798   3.244  0.2767 -0.0595  0.7670
10910TIP3    H132687   0.892   2.744   3.291  1.0308  1.2281  1.2880
10910TIP3    H232688   0.877   2.832   3.169  0.4931  1.6263  1.6356
10911TIP3   OH232689   1.528   6.994   1.307  0.2676  0.1942  0.0056
10911TIP3    H132690   1.564   6.905   1.304 -0.0607  0.0692 -0.2227
10911TIP3    H232691   1.551   7.025   1.395 -2.6541 -1.4137  1.4891
10912TIP3   OH232692   5.095   1.232   6.708  0.4939 -0.2535 -0.2955
10912TIP3    H132693   5.099   1.189   6.623  0.7329 -1.0788  0.1124
10912TIP3    H232694   5.146   1.174   6.766  2.1932  1.4008 -0.0465
10913TIP3   OH232695   6.429   1.274   1.081  0.2648  0.3623  0.1390
10913TIP3    H132696   6.462   1.346   1.026 -0.9824  0.9455  0.1145
10913TIP3    H232697   6.471   1.196   1.045 -0.9445  0.6530 -2.0562
10914TIP3   OH232698   3.206   5.770   0.356  0.8708 -0.2274  0.0613
10914TIP3    H132699   3.136   5.834   0.343  0.5744 -0.6937 -0.7117
10914TIP3    H232700   3.164   5.685   0.340  1.5438 -0.5296 -0.1371
10915TIP3   OH232701   4.986   0.114   2.490 -0.2042  0.2209  0.1898
10915TIP3    H132702   4.935   0.121   2.410  0.8226 -3.3225 -0.9728
10915TIP3    H232703   4.922   0.100   2.559 -0.9994  0.1967 -0.5412
10916TIP3   OH232704   6.413   1.847   4.099 -0.0061 -0.7813  0.3292
10916TIP3    H132705   6.413   1.940   4.122  0.4000 -0.7521  0.2109
10916TIP3    H232706   6.332   1.813   4.137 -0.5241 -0.2224 -0.2456
10917TIP3   OH232707   5.291   3.703   3.693 -0.3678 -0.2522  0.9517
10917TIP3    H132708   5.209   3.734   3.732  0.0381 -0.5712  2.1008
10917TIP3    H232709   5.350   3.778   3.699 -0.1169 -0.4885  1.5403
10918TIP3   OH232710   1.671   4.164   4.586 -0.0694  0.3153  0.2401
10918TIP3    H132711   1.735   4.094   4.592  0.3268  0.4351 -1.9993
10918TIP3    H232712   1.723   4.244   4.574 -0.6007  0.6337  0.0172
10919TIP3   OH232713   2.513   6.126   3.576  0.2642  0.5425  0.0660
10919TIP3    H132714   2.466   6.080   3.507 -0.3410 -0.0724  0.8798
10919TIP3    H232715   2.445   6.162   3.632  0.5977 -2.3525  2.6106
10920TIP3   OH232716   2.845   6.001   6.056  0.4127  0.1615  0.1770
10920TIP3    H132717   2.884   5.934   6.112 -0.5786  0.0487  0.7751
10920TIP3    H232718   2.917   6.060   6.035  1.3961 -1.3001 -0.7183
10921TIP3   OH232719   8.136   2.756   5.120  1.0447  0.7435 -0.5530
10921TIP3    H132720   8.157   2.678   5.170  1.0940  0.5990 -0.7983
10921TIP3    H232721   8.040   2.759   5.118  0.9868  1.9925  1.4910
10922TIP3   OH232722   7.060   5.621   4.964  0.5601  0.2514  0.1204
10922TIP3    H132723   7.153   5.600   4.969  0.5588 -0.8589 -2.5122
10922TIP3    H232724   7.022   5.547   4.916 -1.8974  0.1576  2.0270
10923TIP3   OH232725   5.505   3.526   4.336 -0.3063 -0.2846 -0.8179
10923TIP3    H132726   5.520   3.436   4.365  1.5750  0.3887  0.5335
10923TIP3    H232727   5.512   3.578   4.416 -1.1148  1.1064 -1.6166
10924TIP3   OH232728   5.940   7.692   3.668  0.1814 -0.8329  0.8806
10924TIP3    H132729   6.008   7.714   3.604 -0.3568  0.7823  0.8167
10924TIP3    H232730   5.948   7.598   3.680  0.6493 -1.1208 -1.1923
10925TIP3   OH232731   4.260   4.870   0.420  0.2138  0.1514  0.3960
10925TIP3    H132732   4.166   4.856   0.410  0.1499 -0.0439  1.2373
10925TIP3    H232733   4.289   4.897   0.333 -0.5114 -0.3993 -0.0315
10926TIP3   OH232734   1.642   1.767   2.987 -0.0052  0.2299 -0.5184
10926TIP3    H132735   1.572   1.705   3.009 -0.2361 -0.2388 -2.4176
10926TIP3    H232736   1.602   1.827   2.924  0.7722  1.1582 -0.1547
10927TIP3   OH232737   5.403   6.578   2.493 -0.3452  0.1681  0.0627
10927TIP3    H132738   5.396   6.486   2.467 -0.4042  0.1797  0.0389
10927TIP3    H232739   5.314   6.605   2.512 -0.2042 -0.0791  1.1322
10928TIP3   OH232740   4.977   3.621   2.283 -0.5745 -0.4532 -0.2762
10928TIP3    H132741   4.916   3.645   2.214 -0.1145  0.6999 -0.3005
10928TIP3    H232742   4.956   3.529   2.303 -0.6354 -0.8502 -2.0165
10929TIP3   OH232743   6.058   6.357   2.261 -0.0816  0.4748 -0.0330
10929TIP3    H132744   6.097   6.274   2.232 -0.2586  0.5338 -0.4533
10929TIP3    H232745   6.133   6.414   2.277  0.0220  0.4922 -0.5401
10930TIP3   OH232746   4.943   0.253   5.980  0.1849 -0.3379  0.1664
10930TIP3    H132747   4.883   0.221   6.048  1.1349 -0.2785  1.0583
10930TIP3    H232748   4.926   0.196   5.905 -0.9630 -0.3346  0.4051
10931TIP3   OH232749   6.676   2.845   1.537 -0.3209  0.2190 -0.1831
10931TIP3    H132750   6.610   2.814   1.600  0.3610 -0.1683  0.3458
10931TIP3    H232751   6.749   2.784   1.547  0.6411  1.3926  0.1573
10932TIP3   OH232752   0.714   3.666   2.782  0.3973  0.6020 -0.4652
10932TIP3    H132753   0.756   3.582   2.764 -0.6348 -0.5330  1.9748
10932TIP3    H232754   0.782   3.717   2.827 -0.0686 -0.4065  1.4820
10933TIP3   OH232755   4.673   4.550   6.229 -0.1841 -0.1159 -0.0170
10933TIP3    H132756   4.698   4.481   6.290  0.9417  0.5118  0.2551
10933TIP3    H232757   4.584   4.527   6.201 -0.1108 -1.2488  0.6531
10934TIP3   OH232758   0.156   3.319   0.454  0.0210 -0.0893  0.3790
10934TIP3    H132759   0.177   3.290   0.543 -1.3573  0.5102  0.9246
10934TIP3    H232760   0.073   3.366   0.463 -0.1146  0.0230 -1.2239
10935TIP3   OH232761   6.817   5.828   0.586 -0.2880 -0.4212  0.2940
10935TIP3    H132762   6.771   5.822   0.670  0.9300 -1.2651  0.9513
10935TIP3    H232763   6.906   5.854   0.610 -0.2574  0.6341 -0.8766
10936TIP3   OH232764   4.927   2.856   4.305 -0.0989 -0.1796 -0.2274
10936TIP3    H132765   4.865   2.820   4.369 -0.0681 -0.0686 -0.1345
10936TIP3    H232766   4.937   2.947   4.330  0.2249 -0.2370 -0.1445
10937TIP3   OH232767   6.055   2.887   4.858  0.2975 -0.1925 -0.0739
10937TIP3    H132768   6.021   2.797   4.858 -0.1817 -0.0258 -1.0849
10937TIP3    H232769   6.081   2.903   4.767 -0.6468  1.0623 -0.1516
10938TIP3   OH232770   6.218   4.887   0.224 -0.1780  0.9491 -0.4083
10938TIP3    H132771   6.147   4.913   0.166 -1.0011  1.5179  0.8207
10938TIP3    H232772   6.180   4.817   0.278 -0.3698  2.3535  1.3594
10939TIP3   OH232773   4.711   3.015   1.806 -0.0571  0.4454  0.4388
10939TIP3    H132774   4.621   3.047   1.803 -0.2983  0.0639  2.2259
10939TIP3    H232775   4.702   2.922   1.830  0.7918  0.2727  0.1116
10940TIP3   OH232776   8.122   5.751   5.333  0.1034  0.2485 -0.3467
10940TIP3    H132777   8.049   5.813   5.336 -1.1344 -1.1211 -1.1615
10940TIP3    H232778   8.081   5.665   5.331  1.7827 -0.6627  1.0193
10941TIP3   OH232779   4.015   3.052   3.219 -0.3975 -0.0118 -0.1745
10941TIP3    H132780   4.009   3.117   3.289  0.7207  0.0273 -0.0932
10941TIP3    H232781   4.101   3.068   3.179  0.1828 -1.8407  0.2535
10942TIP3   OH232782   1.638   5.267   5.466 -0.1990 -0.1967  0.2293
10942TIP3    H132783   1.689   5.245   5.388  0.8044  1.8552  0.2477
10942TIP3    H232784   1.664   5.202   5.531 -0.1081 -1.1687 -0.7344
10943TIP3   OH232785   4.902   3.864   2.770  0.5100  0.1444 -0.0228
10943TIP3    H132786   4.885   3.927   2.700  0.5466 -1.1285 -1.2075
10943TIP3    H232787   4.868   3.906   2.849 -0.8513  1.0089 -1.0303
10944TIP3   OH232788   6.526   4.984   3.294  0.1818 -0.5015 -0.0244
10944TIP3    H132789   6.617   4.956   3.280  0.4562  1.0215 -1.5575
10944TIP3    H232790   6.516   4.986   3.389  1.6036 -1.1359  0.1667
10945TIP3   OH232791   3.315   2.858   2.332 -0.1115 -0.4227 -0.7081
10945TIP3    H132792   3.252   2.807   2.384  0.2982 -0.1096  0.1197
10945TIP3    H232793   3.398   2.846   2.378  0.1564  0.2949 -0.9965
10946TIP3   OH232794   8.053   1.241   5.014  0.1927 -0.8502 -0.2163
10946TIP3    H132795   8.091   1.329   5.015 -1.7002  0.0170 -1.0256
10946TIP3    H232796   8.056   1.212   5.105 -0.8782  0.8461  0.3942
10947TIP3   OH232797   3.387   6.880   3.481  0.1171 -0.6156  0.1143
10947TIP3    H132798   3.417   6.961   3.439  0.2724 -0.2156  0.9501
10947TIP3    H232799   3.467   6.842   3.517  0.3779 -2.2362 -2.0106
10948TIP3   OH232800   3.741   2.798   0.499  0.0408 -0.0269  0.1528
10948TIP3    H132801   3.724   2.830   0.410  0.0430  0.6859  0.4011
10948TIP3    H232802   3.782   2.712   0.486  0.0977  0.0976 -0.5395
10949TIP3   OH232803   3.409   0.515   6.502 -0.4076  0.1636  0.4346
10949TIP3    H132804   3.416   0.433   6.551  1.0846  0.0748  0.1197
10949TIP3    H232805   3.434   0.491   6.412  0.5963  1.0529  0.4622
10950TIP3   OH232806   6.208   1.552   3.325  0.1643  0.3393  0.3253
10950TIP3    H132807   6.197   1.459   3.302  0.4765 -0.3019  2.5256
10950TIP3    H232808   6.302   1.566   3.325  0.1980  0.1939  1.5696
10951TIP3   OH232809   6.963   6.772   6.332 -0.0994 -0.2239  0.1050
10951TIP3    H132810   6.990   6.824   6.407 -2.2371 -0.0548  0.8416
10951TIP3    H232811   7.038   6.773   6.273  0.1170  3.3738  0.2230
10952TIP3   OH232812   0.949   3.316   3.757  0.3148  0.3603  0.8923
10952TIP3    H132813   0.953   3.367   3.676 -3.8851  0.1170  0.3173
10952TIP3    H232814   1.018   3.250   3.747  0.3452  0.7137 -2.2214
10953TIP3   OH232815   2.981   7.697   0.135 -0.2269 -0.1733 -0.2023
10953TIP3    H132816   2.914   7.641   0.098 -0.2875  0.4984 -1.1269
10953TIP3    H232817   2.989   7.770   0.074 -0.7599  1.2833  1.3986
10954TIP3   OH232818   7.409   3.595   6.727  0.3467  0.2529  0.3049
10954TIP3    H132819   7.502   3.608   6.742  0.8762  2.2659 -3.4199
10954TIP3    H232820   7.365   3.655   6.788  1.5989  0.9417  0.5457
10955TIP3   OH232821   3.469   1.793   4.530 -0.1058 -0.0069 -0.6547
10955TIP3    H132822   3.464   1.777   4.625 -0.0792 -0.2601 -0.6964
10955TIP3    H232823   3.378   1.810   4.504 -0.4752 -2.1966 -0.9851
10956TIP3   OH232824   2.537   1.022   3.855  0.0645  0.0226  0.6159
10956TIP3    H132825   2.516   1.116   3.849 -1.9346 -0.4162 -0.2965
10956TIP3    H232826   2.611   1.011   3.796 -0.1202  0.9389  0.1829
10957TIP3   OH232827   7.763   3.681   1.129 -0.1890 -0.1357  0.0661
10957TIP3    H132828   7.825   3.621   1.171  1.7095  0.9108 -1.0929
10957TIP3    H232829   7.800   3.697   1.043 -1.1583  1.9383 -0.0218
10958TIP3   OH232830   6.772   2.872   4.683  0.4098 -0.3832 -0.6875
10958TIP3    H132831   6.712   2.917   4.743  0.1465  1.4520 -2.2141
10958TIP3    H232832   6.716   2.846   4.610  0.9616 -1.3718 -0.7645
10959TIP3   OH232833   7.038   0.949   4.477 -0.6252  0.3146  0.2847
10959TIP3    H132834   7.033   1.024   4.419  0.1804  0.2458  0.1085
10959TIP3    H232835   7.130   0.923   4.475 -1.0159 -1.1913 -0.3216
10960TIP3   OH232836   4.464   6.344   6.659 -0.1493  0.5527  0.2502
10960TIP3    H132837   4.480   6.250   6.649  0.5893  0.6736  0.2742
10960TIP3    H232838   4.370   6.351   6.674 -0.1874 -0.1951  0.3656
10961TIP3   OH232839   1.725   7.045   4.185  0.2712 -0.1332 -0.0458
10961TIP3    H132840   1.782   6.977   4.219  0.2076 -1.0564 -1.6593
10961TIP3    H232841   1.638   7.023   4.218  0.5191  0.1305  0.7911
10962TIP3   OH232842   0.792   1.138   0.051  0.2441 -0.3104  0.2088
10962TIP3    H132843   0.768   1.228   0.073  0.7691  0.1521 -1.0265
10962TIP3    H232844   0.787   1.091   0.135 -1.7131  0.4671  0.5913
10963TIP3   OH232845   2.975   0.369   1.523  0.0052 -0.1215  0.4752
10963TIP3    H132846   3.034   0.385   1.448 -0.4991  0.2364  0.1450
10963TIP3    H232847   3.006   0.429   1.591  0.9667 -1.0151  0.8468
10964TIP3   OH232848   7.637   1.319   3.904  0.4135 -0.2558 -0.6194
10964TIP3    H132849   7.644   1.317   3.809  0.0704  0.7303 -0.6683
10964TIP3    H232850   7.626   1.411   3.926 -0.4027 -0.5621  0.3160
10965TIP3   OH232851   5.619   4.967   3.363 -0.3361  0.3953  0.3426
10965TIP3    H132852   5.695   5.017   3.333 -0.2521 -0.4693 -0.9270
10965TIP3    H232853   5.582   5.021   3.433  0.8417  1.3220  0.2871
10966TIP3   OH232854   2.759   3.192   4.738  0.3586 -0.8669  0.1736
10966TIP3    H132855   2.743   3.101   4.711 -0.3263 -1.4862  2.4675
10966TIP3    H232856   2.704   3.204   4.815  0.0175  1.7094 -0.4021
10967TIP3   OH232857   6.522   3.878   0.280 -0.2277 -0.1007 -0.3216
10967TIP3    H132858   6.612   3.912   0.273 -0.0526 -0.5397 -0.2387
10967TIP3    H232859   6.501   3.885   0.373 -1.1625  2.1993 -0.6162
10968TIP3   OH232860   6.158   3.296   4.597  0.6161 -0.5658 -0.6307
10968TIP3    H132861   6.196   3.298   4.510 -0.5963 -2.0558 -1.2499
10968TIP3    H232862   6.219   3.241   4.648  1.0298 -0.1596 -0.6813
10969TIP3   OH232863   0.590   1.512   3.169 -0.1074  0.0672  0.3483
10969TIP3    H132864   0.527   1.575   3.135 -0.5319  0.7406  2.2742
10969TIP3    H232865   0.594   1.444   3.102 -0.3348  1.6565 -1.3574
10970TIP3   OH232866   5.138   6.685   1.506  0.1584 -0.2350 -0.1031
10970TIP3    H132867   5.160   6.768   1.550 -0.0818  0.3748 -1.1005
10970TIP3    H232868   5.048   6.697   1.478  0.2035 -0.7505 -0.4641
10971TIP3   OH232869   7.783   6.800   1.863 -0.0970 -0.0522  0.4012
10971TIP3    H132870   7.694   6.836   1.866  0.0503  0.3160  0.3785
10971TIP3    H232871   7.771   6.709   1.835 -0.4580  0.0273  0.2911
10972TIP3   OH232872   5.587   2.467   0.749  0.1318  0.2840  0.3410
10972TIP3    H132873   5.618   2.393   0.696 -1.1215 -0.0571  0.0597
10972TIP3    H232874   5.568   2.429   0.835 -0.3330  0.3084  0.2512
10973TIP3   OH232875   6.023   4.152   6.182  0.0389 -0.2027 -0.4155
10973TIP3    H132876   6.067   4.159   6.267 -0.6043  0.8755 -0.1393
10973TIP3    H232877   6.094   4.150   6.118  0.5668 -2.1031  0.1739
10974TIP3   OH232878   0.306   1.633   1.799  0.1398  0.3282 -0.4988
10974TIP3    H132879   0.292   1.565   1.734 -0.0662 -0.3914  0.2907
10974TIP3    H232880   0.381   1.682   1.765 -1.1259  1.1707 -2.2387
10975TIP3   OH232881   2.356   3.220   0.313  0.7190 -0.2567 -0.3013
10975TIP3    H132882   2.365   3.196   0.405 -0.7670 -2.5505 -0.6677
10975TIP3    H232883   2.424   3.169   0.268  0.4346 -0.3398 -0.6418
10976TIP3   OH232884   3.315   1.849   0.138  0.2193  0.3426 -0.6767
10976TIP3    H132885   3.360   1.879   0.059 -2.6734  1.7141 -1.9576
10976TIP3    H232886   3.382   1.800   0.187  2.4042  0.3238 -3.4397
10977TIP3   OH232887   1.540   6.525   5.538 -0.4300 -0.2663 -0.5501
10977TIP3    H132888   1.597   6.598   5.513 -0.7550 -0.4947 -2.0567
10977TIP3    H232889   1.599   6.458   5.571  0.2041 -0.5118 -2.1133
10978TIP3   OH232890   8.035   0.235   0.551  0.4892 -0.1521 -0.3274
10978TIP3    H132891   8.087   0.210   0.627 -1.3921 -2.3863  0.3521
10978TIP3    H232892   7.972   0.298   0.584  0.7827  0.2073 -0.4475
10979TIP3   OH232893   4.002   2.662   5.751 -0.7941 -0.0475  0.2657
10979TIP3    H132894   4.085   2.705   5.772  0.9510 -3.4102  0.8867
10979TIP3    H232895   4.027   2.590   5.693 -3.6084 -0.0182 -1.1225
10980TIP3   OH232896   5.846   3.706   6.258  0.4910 -0.4925 -0.4808
10980TIP3    H132897   5.916   3.656   6.299 -0.2525 -0.6521  0.6594
10980TIP3    H232898   5.880   3.731   6.172  2.7347  1.2262  0.7983
10981TIP3   OH232899   4.130   0.841   0.870  0.1855  0.4704 -0.1547
10981TIP3    H132900   4.048   0.885   0.892  0.2862  0.4540  0.2677
10981TIP3    H232901   4.186   0.912   0.838  0.1951  0.5748  0.0929
10982TIP3   OH232902   5.813   2.908   1.600  0.2202 -0.2909 -0.2739
10982TIP3    H132903   5.860   2.913   1.517 -1.1465 -1.1507 -1.1362
10982TIP3    H232904   5.780   2.996   1.615  0.4757 -0.1318 -0.6328
10983TIP3   OH232905   3.587   3.749   6.077  0.3744  0.1337 -0.1647
10983TIP3    H132906   3.592   3.837   6.041  1.4849 -0.7751 -2.4499
10983TIP3    H232907   3.623   3.756   6.165  1.4443  1.7778 -0.6979
10984TIP3   OH232908   6.586   2.194   3.626 -0.0331 -0.3544 -0.3493
10984TIP3    H132909   6.573   2.106   3.663  0.1128  0.3127  1.3598
10984TIP3    H232910   6.659   2.183   3.564  1.2343 -1.1023  1.1978
10985TIP3   OH232911   1.021   0.697   5.178  0.1385 -0.1867  0.3378
10985TIP3    H132912   1.108   0.736   5.168 -0.2404  0.8602  1.0537
10985TIP3    H232913   1.030   0.637   5.253  0.1312  0.2654  0.7026
10986TIP3   OH232914   1.039   1.413   3.403 -0.9632 -0.1097 -0.3055
10986TIP3    H132915   0.969   1.476   3.387  1.6708  3.1398 -0.0241
10986TIP3    H232916   1.078   1.440   3.486  1.4761 -0.8671 -1.1017
10987TIP3   OH232917   7.008   1.410   2.760  0.2283  0.8594 -0.4736
10987TIP3    H132918   6.992   1.421   2.666 -0.6912 -0.7410 -0.5247
10987TIP3    H232919   7.010   1.316   2.773 -1.1579  1.0445  1.3605
10988TIP3   OH232920   0.729   5.727   1.474  0.1222  0.4120  0.2799
10988TIP3    H132921   0.719   5.646   1.524  0.5973  0.8471  1.1112
10988TIP3    H232922   0.681   5.792   1.525  1.3138  1.0453  0.6278
10989TIP3   OH232923   1.228   6.260   5.570 -0.3488  0.0702  0.3420
10989TIP3    H132924   1.270   6.175   5.557 -0.8498  0.0288 -1.1169
10989TIP3    H232925   1.226   6.300   5.483 -1.1768  1.0773  0.8048
10990TIP3   OH232926   5.047   1.081   4.672 -0.2895 -0.2118 -0.7705
10990TIP3    H132927   4.964   1.092   4.719 -0.0087  0.1470 -0.3550
10990TIP3    H232928   5.054   1.161   4.619  1.0276  1.0260  1.1291
10991TIP3   OH232929   6.406   3.719   6.359 -0.1255 -0.3057  0.3073
10991TIP3    H132930   6.325   3.709   6.410 -1.0757  2.8978 -0.3862
10991TIP3    H232931   6.476   3.701   6.422 -1.3076 -1.6667  1.3054
10992TIP3   OH232932   0.205   2.979   6.491  0.6491  0.1560  0.2796
10992TIP3    H132933   0.211   2.949   6.582 -0.0474 -0.9094 -0.0052
10992TIP3    H232934   0.264   2.921   6.443 -0.3228 -0.4617 -0.2053
10993TIP3   OH232935   3.949   7.250   5.703  0.1651  0.3488 -0.3970
10993TIP3    H132936   4.014   7.307   5.662 -1.0311  2.2506  0.2304
10993TIP3    H232937   3.869   7.265   5.653 -0.7205  0.9389  1.1451
10994TIP3   OH232938   0.109   1.307   1.530  0.0039 -0.1290  0.0605
10994TIP3    H132939   0.048   1.377   1.554  2.0411  1.1754  1.7259
10994TIP3    H232940   0.086   1.234   1.588 -1.2167 -0.4000 -0.7179
10995TIP3   OH232941   1.235   3.718   0.448 -0.8627  0.0686  0.7107
10995TIP3    H132942   1.158   3.667   0.422 -0.3921  0.2521 -1.2412
10995TIP3    H232943   1.201   3.805   0.470 -1.1015  0.7882 -2.1269
10996TIP3   OH232944   7.364   7.604   6.033  0.0600 -0.0726 -0.2890
10996TIP3    H132945   7.438   7.544   6.047 -0.4718 -0.8385 -0.6985
10996TIP3    H232946   7.339   7.632   6.121  0.2826 -0.4883 -0.0914
10997TIP3   OH232947   3.835   4.399   2.075 -0.4853 -1.1016  0.1759
10997TIP3    H132948   3.890   4.437   2.144  0.1831 -2.3456  0.3583
10997TIP3    H232949   3.758   4.455   2.072  0.8444  0.8008 -0.1920
10998TIP3   OH232950   8.303   6.473   5.542  0.0178  0.2723 -0.2481
10998TIP3    H132951   8.222   6.499   5.498 -1.4372 -0.2755  1.9555
10998TIP3    H232952   8.304   6.377   5.536  0.8998  0.3072 -0.8688
10999TIP3   OH232953   3.557   7.606   1.898 -0.1063  0.0922  0.5575
10999TIP3    H132954   3.598   7.688   1.869 -1.1465  0.5827  0.4101
10999TIP3    H232955   3.463   7.620   1.882 -0.7599  0.2704  3.8041
11000TIP3   OH232956   8.027   5.584   1.585 -0.7549 -0.0884  0.1999
11000TIP3    H132957   8.041   5.490   1.597 -0.1574  0.0040  0.2658
11000TIP3    H232958   8.037   5.621   1.673  2.3767  0.4399 -0.2598
11001TIP3   OH232959   4.008   2.143   6.556 -0.5412  0.0411  0.3000
11001TIP3    H132960   4.058   2.140   6.474  1.2945 -0.5759  1.3758
11001TIP3    H232961   3.999   2.237   6.574 -0.6699  0.1778 -0.4181
11002TIP3   OH232962   4.772   5.484   6.200 -0.0981  0.5585 -0.1833
11002TIP3    H132963   4.864   5.485   6.176 -0.1586  1.6006 -0.4368
11002TIP3    H232964   4.765   5.418   6.269  0.7093  0.0115 -0.6129
11003TIP3   OH232965   2.745   5.647   0.318  0.0584  0.5148 -0.4195
11003TIP3    H132966   2.801   5.584   0.362  0.6668 -0.8010 -2.8895
11003TIP3    H232967   2.665   5.649   0.371  0.9556 -0.4545  1.0426
11004TIP3   OH232968   1.513   4.398   6.529  0.3401 -0.2526 -0.0382
11004TIP3    H132969   1.462   4.418   6.451  1.2600  0.7875 -0.3954
11004TIP3    H232970   1.555   4.480   6.553  1.4320 -0.9446  0.5394
11005TIP3   OH232971   5.202   1.423   5.788 -0.4091  0.2124 -0.3072
11005TIP3    H132972   5.123   1.402   5.738  0.0137 -3.2215  0.2633
11005TIP3    H232973   5.172   1.431   5.878 -0.2118 -0.6796 -0.1509
11006TIP3   OH232974   4.917   7.182   2.008 -0.5010  0.2019 -0.5635
11006TIP3    H132975   4.925   7.238   2.085 -0.0164 -1.7016  0.8452
11006TIP3    H232976   4.827   7.149   2.012 -0.9436  1.1915 -1.6594
11007TIP3   OH232977   3.562   0.173   3.002 -0.4703 -0.2245 -0.1295
11007TIP3    H132978   3.470   0.147   3.005 -0.3858 -0.4619  0.9825
11007TIP3    H232979   3.610   0.094   3.027  0.0845 -0.2711 -1.2893
11008TIP3   OH232980   4.251   3.588   2.033 -0.3901  0.6356 -0.2725
11008TIP3    H132981   4.252   3.515   2.095  1.5729  1.4748  0.7782
11008TIP3    H232982   4.262   3.666   2.088  0.5863  1.4809 -1.6075
11009TIP3   OH232983   4.201   4.615   0.287 -0.5166 -0.0698  0.1477
11009TIP3    H132984   4.286   4.610   0.331 -1.6616  2.4787  3.0018
11009TIP3    H232985   4.205   4.698   0.238 -0.6331 -1.0313 -1.5679
11010TIP3   OH232986   3.960   0.465   3.552 -0.0092 -0.5310 -0.6639
11010TIP3    H132987   3.962   0.385   3.500 -1.0724 -0.5361 -0.7139
11010TIP3    H232988   4.023   0.449   3.623  0.4817 -1.0304 -1.2004
11011TIP3   OH232989   3.249   7.226   4.834 -0.2437  0.2880 -0.2764
11011TIP3    H132990   3.246   7.303   4.777 -0.0139 -0.1544 -0.8987
11011TIP3    H232991   3.158   7.207   4.854 -0.2813  1.0015  0.2724
11012TIP3   OH232992   5.501   0.740   2.970 -0.1999 -0.5005  0.2194
11012TIP3    H132993   5.463   0.724   2.884  0.9173  0.4209 -0.4718
11012TIP3    H232994   5.434   0.790   3.017 -0.7665 -0.9036 -0.1459
11013TIP3   OH232995   1.647   0.602   5.374  0.2794  0.9081  0.0423
11013TIP3    H132996   1.705   0.673   5.401  0.6786 -0.1559  2.2271
11013TIP3    H232997   1.704   0.538   5.331  0.3587  0.8528  0.2260
11014TIP3   OH232998   2.288   4.334   4.534 -0.0536  0.0991  0.4524
11014TIP3    H132999   2.316   4.243   4.545 -1.7344 -0.2737  2.4323
11014TIP3    H233000   2.211   4.329   4.477 -0.0961  0.2905  0.4910
11015TIP3   OH233001   1.265   3.395   4.090  0.3928  0.0244 -0.2409
11015TIP3    H133002   1.247   3.316   4.141  0.4300  0.3468  0.2879
11015TIP3    H233003   1.314   3.365   4.014 -0.3802 -0.5747 -0.5155
11016TIP3   OH233004   2.788   7.216   1.666 -0.1558 -0.1899  0.1442
11016TIP3    H133005   2.829   7.271   1.732  3.1003 -0.2272 -1.6633
11016TIP3    H233006   2.716   7.269   1.631 -0.2318  0.8699  1.8192
11017TIP3   OH233007   5.915   1.299   0.240 -0.0791  0.4213 -0.2436
11017TIP3    H133008   6.009   1.313   0.243  0.1071 -0.8796  0.9362
11017TIP3    H233009   5.890   1.321   0.150  1.1622  1.7605 -0.3057
11018TIP3   OH233010   1.037   1.744   2.526 -0.2507 -0.3931  0.0922
11018TIP3    H133011   0.976   1.749   2.453 -0.4160 -0.7383  0.2033
11018TIP3    H233012   1.115   1.790   2.495 -1.0804  1.3673  0.4981
11019TIP3   OH233013   3.104   6.007   6.750  0.2807 -0.0928 -0.4695
11019TIP3    H133014   3.180   5.990   6.693 -0.0755  0.7645 -1.2391
11019TIP3    H233015   3.040   5.940   6.726 -0.6277  1.4095 -2.5561
11020TIP3   OH233016   4.255   7.726   1.392 -0.1576 -0.3434 -0.4620
11020TIP3    H133017   4.170   7.706   1.432 -0.6369  0.9772 -0.7481
11020TIP3    H233018   4.267   7.657   1.327 -0.7430 -0.8718 -0.0275
11021TIP3   OH233019   4.989   2.888   2.667  0.4306  0.4128 -0.4121
11021TIP3    H133020   4.931   2.818   2.637  0.5080 -0.3313  1.0817
11021TIP3    H233021   5.073   2.868   2.626  0.4257 -0.3242 -0.0881
11022TIP3   OH233022   0.465   5.090   0.645  1.0122  0.1553  0.3071
11022TIP3    H133023   0.417   5.008   0.653  2.4080 -0.7749 -0.3521
11022TIP3    H233024   0.537   5.070   0.584 -0.1365  2.5729 -2.0717
11023TIP3   OH233025   4.649   7.222   5.697  0.4144  0.0563 -0.3138
11023TIP3    H133026   4.624   7.268   5.777  0.2515 -1.6660  0.6785
11023TIP3    H233027   4.582   7.155   5.686  1.7666 -1.3172 -0.4983
11024TIP3   OH233028   0.933   6.207   6.749 -0.5853 -0.5471  0.6758
11024TIP3    H133029   0.931   6.242   6.660 -1.3811 -0.7691  0.5991
11024TIP3    H233030   1.013   6.243   6.787 -0.0818 -0.6673 -0.2176
11025TIP3   OH233031   6.743   3.244   5.093 -0.5705 -0.0580  0.1140
11025TIP3    H133032   6.819   3.186   5.088 -1.1982 -0.8468 -0.6807
11025TIP3    H233033   6.776   3.330   5.068  0.3400 -0.0944  1.1427
11026TIP3   OH233034   2.722   0.649   2.322 -0.8269 -0.3635  0.0143
11026TIP3    H133035   2.634   0.663   2.358 -0.4200  1.3041  0.4570
11026TIP3    H233036   2.778   0.646   2.399 -0.2023  1.1096 -0.3527
11027TIP3   OH233037   6.985   6.963   0.640 -0.0973  0.3215 -0.4231
11027TIP3    H133038   7.037   6.924   0.569 -1.1161  0.6285 -1.3624
11027TIP3    H233039   6.976   6.893   0.705  1.2639  0.1851 -0.3504
11028TIP3   OH233040   4.784   4.932   1.886  0.7369 -0.1816  0.3840
11028TIP3    H133041   4.802   4.861   1.948  1.2643 -0.5594 -0.1942
11028TIP3    H233042   4.866   4.982   1.882  0.2711  0.6601  1.0316
11029TIP3   OH233043   7.389   2.852   1.974  0.2160 -0.2791 -0.0924
11029TIP3    H133044   7.391   2.944   2.002 -0.6255 -0.0133 -0.8554
11029TIP3    H233045   7.437   2.806   2.042  0.7685  0.7429  0.2428
11030TIP3   OH233046   0.110   6.981   0.882 -0.0833 -0.1653 -0.0552
11030TIP3    H133047   0.119   6.894   0.919 -0.0607  0.2168  0.8458
11030TIP3    H233048   0.109   6.966   0.787 -0.0271 -1.1326  0.0855
11031TIP3   OH233049   7.729   1.971   2.020  0.6658  0.2674  0.0189
11031TIP3    H133050   7.675   2.047   2.038  0.0895  0.2964 -1.6331
11031TIP3    H233051   7.692   1.934   1.940  1.3005 -1.4078  0.4544
11032TIP3   OH233052   7.059   7.691   4.674  0.4580 -0.4165  0.2125
11032TIP3    H133053   7.128   7.756   4.680  0.2746 -0.1430 -0.5625
11032TIP3    H233054   7.029   7.679   4.764  1.7596 -0.8186  0.6103
11033TIP3   OH233055   4.175   1.574   5.208  0.5451  0.4667 -0.7113
11033TIP3    H133056   4.260   1.540   5.179 -0.1904 -0.5907 -1.7393
11033TIP3    H233057   4.131   1.498   5.247  0.3189  1.1608  0.4443
11034TIP3   OH233058   1.109   4.705   2.085 -0.6013 -0.4277  0.4808
11034TIP3    H133059   1.149   4.636   2.032  1.5130 -2.1646  3.9505
11034TIP3    H233060   1.018   4.676   2.097 -1.0359 -0.1542 -1.7266
11035TIP3   OH233061   4.134   2.236   1.374 -0.2200 -0.6756 -0.6092
11035TIP3    H133062   4.087   2.253   1.455  0.0738  1.9935 -0.9135
11035TIP3    H233063   4.077   2.270   1.305  0.0536 -1.8460 -1.4507
11036TIP3   OH233064   5.318   7.678   5.023 -0.0061  1.0562  1.1491
11036TIP3    H133065   5.329   7.604   5.083 -0.7526 -1.0863 -1.1678
11036TIP3    H233066   5.403   7.686   4.979 -0.7914 -0.6223 -0.8355
11037TIP3   OH233067   6.833   3.063   1.443 -0.0268 -0.0433  0.2635
11037TIP3    H133068   6.764   2.998   1.429  0.4875 -0.7689  1.0150
11037TIP3    H233069   6.907   3.031   1.391  0.1315  0.1010  0.4003
11038TIP3   OH233070   2.324   6.240   3.030 -0.0364  0.1432  0.0372
11038TIP3    H133071   2.305   6.147   3.017 -0.0977  0.2086 -0.3864
11038TIP3    H233072   2.409   6.254   2.989  0.8220 -0.0898  1.6981
11039TIP3   OH233073   1.837   6.393   6.268  0.7427  0.3855  0.5770
11039TIP3    H133074   1.843   6.348   6.183 -1.1591  1.2630 -0.1074
11039TIP3    H233075   1.873   6.480   6.251  1.2933  0.2253  0.9452
11040TIP3   OH233076   3.522   1.654   0.847 -0.0794  0.0054 -0.3046
11040TIP3    H133077   3.528   1.560   0.833 -1.0918 -0.4876  2.1440
11040TIP3    H233078   3.614   1.683   0.852  0.2476 -1.1325  0.5681
11041TIP3   OH233079   0.754   7.448   3.939  0.3794 -0.3666 -0.2643
11041TIP3    H133080   0.735   7.523   3.883 -0.5932 -1.1721 -1.0647
11041TIP3    H233081   0.849   7.448   3.949  0.6140 -0.3645 -2.1799
11042TIP3   OH233082   4.606   2.112   4.259  0.0890  0.1916 -0.2940
11042TIP3    H133083   4.551   2.089   4.183 -1.3199  0.4564  0.6170
11042TIP3    H233084   4.551   2.170   4.312  1.4591  0.8982  0.3978
11043TIP3   OH233085   6.965   7.723   3.175 -0.5768 -0.4606 -0.4758
11043TIP3    H133086   6.927   7.669   3.244  0.9901 -1.1516 -0.1230
11043TIP3    H233087   6.994   7.802   3.220 -0.1271 -0.6354 -0.4628
11044TIP3   OH233088   3.417   6.643   5.951  0.3438 -0.6542  0.6842
11044TIP3    H133089   3.477   6.631   5.877 -0.8201  0.2902 -0.4597
11044TIP3    H233090   3.459   6.596   6.024  1.9025 -0.9552 -0.3581
11045TIP3   OH233091   0.684   6.648   5.750  0.1097  0.5852 -0.2242
11045TIP3    H133092   0.639   6.641   5.666 -0.4051 -1.3353  0.1779
11045TIP3    H233093   0.629   6.707   5.802 -0.3249  0.6509 -0.7485
11046TIP3   OH233094   2.851   1.620   0.510 -0.1508 -0.0263 -0.1072
11046TIP3    H133095   2.898   1.692   0.467 -0.2672  0.4070  0.4764
11046TIP3    H233096   2.818   1.658   0.591 -0.1389 -0.7662  0.2556
11047TIP3   OH233097   1.132   0.184   0.367  1.0711 -0.4564  0.4220
11047TIP3    H133098   1.211   0.237   0.378  0.4794  0.4917  0.1763
11047TIP3    H233099   1.090   0.220   0.288 -0.5271  0.2345  1.5400
11048TIP3   OH233100   0.662   4.424   0.741 -0.2591 -0.9107  0.0656
11048TIP3    H133101   0.716   4.412   0.819 -0.7919 -1.5866  0.3448
11048TIP3    H233102   0.572   4.419   0.773 -0.4832 -0.9714 -0.5591
11049TIP3   OH233103   3.914   1.752   0.237  0.0660  0.1325  0.1332
11049TIP3    H133104   3.870   1.795   0.163 -0.5479 -1.9849 -0.8145
11049TIP3    H233105   4.006   1.779   0.228  0.3127 -1.2696 -2.3889
11050TIP3   OH233106   1.404   0.326   0.224  0.4691 -0.3667 -0.1887
11050TIP3    H133107   1.454   0.298   0.300 -0.7426  3.0463  2.0558
11050TIP3    H233108   1.445   0.408   0.196 -1.0096  0.0542 -1.2615
11051TIP3   OH233109   6.005   1.142   2.547 -0.3677 -0.6278 -0.2537
11051TIP3    H133110   5.993   1.235   2.528  0.2932 -0.5985 -0.5385
11051TIP3    H233111   6.003   1.136   2.642 -0.3924 -0.3206 -0.2357
11052TIP3   OH233112   3.233   6.910   2.615  0.1762 -0.4831  0.3812
11052TIP3    H133113   3.190   6.911   2.530  1.1237 -1.6140 -0.1366
11052TIP3    H233114   3.304   6.974   2.606 -1.1950  1.2182  1.1623
11053TIP3   OH233115   5.539   0.678   4.993 -0.2501  0.1347  0.5786
11053TIP3    H133116   5.502   0.611   4.935 -3.1054 -0.6550  3.0511
11053TIP3    H233117   5.531   0.760   4.944 -0.3272 -0.8071 -1.0369
11054TIP3   OH233118   1.499   0.895   5.121 -0.0578  0.0727  0.5095
11054TIP3    H133119   1.539   0.810   5.140 -1.0984 -1.5137 -3.4195
11054TIP3    H233120   1.442   0.912   5.197  0.6588 -2.4095  1.7051
11055TIP3   OH233121   1.137   4.475   3.328  0.0891 -0.3932  0.0919
11055TIP3    H133122   1.139   4.515   3.242 -1.8356 -0.5252 -0.0354
11055TIP3    H233123   1.203   4.406   3.324  0.5638  0.1113 -0.9970
11056TIP3   OH233124   2.545   6.037   2.840  0.5206  0.1593 -0.5953
11056TIP3    H133125   2.568   6.099   2.909  1.0521 -0.8953  0.1990
11056TIP3    H233126   2.621   5.980   2.832 -0.3790 -1.0893 -0.5105
11057TIP3   OH233127   0.434   7.203   2.000  0.2710  0.1533 -0.1257
11057TIP3    H133128   0.457   7.219   2.092  1.8610 -0.3126 -0.4209
11057TIP3    H233129   0.478   7.273   1.952 -0.1804  0.1312 -0.5753
11058TIP3   OH233130   6.393   6.225   3.856 -0.8726 -0.1479  0.4117
11058TIP3    H133131   6.415   6.308   3.814  0.2487 -1.2397 -1.2763
11058TIP3    H233132   6.315   6.194   3.811  0.1888 -1.2024 -0.7842
11059TIP3   OH233133   0.877   1.083   4.390 -0.5426  0.6290  0.0474
11059TIP3    H133134   0.832   1.006   4.356 -1.8463  1.1844  0.4871
11059TIP3    H233135   0.858   1.152   4.327  0.9112  0.5431 -0.5307
11060TIP3   OH233136   3.577   3.474   6.290  0.1127  0.2111 -0.5759
11060TIP3    H133137   3.521   3.501   6.218 -0.4554 -0.9918 -0.6249
11060TIP3    H233138   3.651   3.430   6.248 -1.0949 -2.0922 -0.4442
11061TIP3   OH233139   3.687   5.663   4.169 -0.3413 -0.1739 -0.3307
11061TIP3    H133140   3.612   5.618   4.130 -0.0881  0.2533 -1.3421
11061TIP3    H233141   3.654   5.695   4.253 -1.7590  1.2080 -1.3358
11062TIP3   OH233142   0.649   1.928   6.084  0.1838  0.9038 -0.0349
11062TIP3    H133143   0.602   1.967   6.157  2.5093  0.0243  2.0433
11062TIP3    H233144   0.581   1.880   6.035 -1.3277  0.9082  1.9258
11063TIP3   OH233145   3.506   0.129   2.378  0.1958 -0.7881  0.5521
11063TIP3    H133146   3.554   0.207   2.408  1.0019 -0.6755 -0.9339
11063TIP3    H233147   3.426   0.163   2.339  0.3656 -0.7196  0.2564
11064TIP3   OH233148   2.116   3.529   3.028  0.5911  0.3747 -0.4959
11064TIP3    H133149   2.043   3.474   3.057  1.6016  0.2972  2.0794
11064TIP3    H233150   2.173   3.469   2.980  0.2888 -0.1584 -0.1966
11065TIP3   OH233151   4.307   1.385   5.733  0.4329 -0.4366 -0.5201
11065TIP3    H133152   4.308   1.467   5.782 -2.0858 -0.9625  0.5875
11065TIP3    H233153   4.277   1.410   5.645 -2.1982 -0.2884  0.3275
11066TIP3   OH233154   0.955   4.862   5.836 -0.0847  0.5445  0.3134
11066TIP3    H133155   1.021   4.924   5.806  1.9862 -1.2769  0.8577
11066TIP3    H233156   0.951   4.796   5.767 -0.0547 -0.2592  1.0618
11067TIP3   OH233157   8.252   0.043   5.689  0.0180 -0.2027  0.2133
11067TIP3    H133158   8.229   0.080   5.604  0.3027 -0.2753  0.1038
11067TIP3    H233159   8.183  -0.020   5.707  0.5974 -1.0947 -0.5400
11068TIP3   OH233160   2.704   3.568   5.845 -0.2290 -0.3555  0.3717
11068TIP3    H133161   2.676   3.477   5.850 -0.2513 -0.3593  0.1951
11068TIP3    H233162   2.799   3.564   5.848 -0.2312 -0.3805  0.4121
11069TIP3   OH233163   5.304   4.016   6.578  0.0074 -0.3876  0.0039
11069TIP3    H133164   5.227   3.967   6.549  0.1796 -0.0174 -1.1273
11069TIP3    H233165   5.378   3.972   6.536  0.6367 -1.7738  2.3969
11070TIP3   OH233166   4.922   3.297   0.568  0.4392  0.3311  0.8819
11070TIP3    H133167   4.832   3.268   0.553  0.8728 -0.1671 -1.0989
11070TIP3    H233168   4.940   3.274   0.659 -0.3999 -2.5486  0.4371
11071TIP3   OH233169   6.913   1.555   6.479 -0.0894 -0.0674 -0.1015
11071TIP3    H133170   6.946   1.482   6.427  1.6473 -0.3230  1.2805
11071TIP3    H233171   6.927   1.632   6.423  0.3886 -0.5028 -0.5954
11072TIP3   OH233172   1.974   7.282   4.490 -0.0215 -0.5342 -0.4106
11072TIP3    H133173   2.000   7.370   4.465 -0.8611 -0.0947  0.2582
11072TIP3    H233174   1.892   7.266   4.444 -0.9524 -0.1703  1.0896
11073TIP3   OH233175   5.294   7.223   2.605 -0.1864 -0.1320 -0.1213
11073TIP3    H133176   5.378   7.246   2.564 -0.1800 -2.7638 -1.8758
11073TIP3    H233177   5.245   7.305   2.607  1.4880  0.9830 -1.3919
11074TIP3   OH233178   1.422   4.797   4.673  0.3550  0.1482  0.1058
11074TIP3    H133179   1.391   4.881   4.638  1.5089  0.2114 -0.8118
11074TIP3    H233180   1.356   4.734   4.644  1.0398  0.2661 -1.9051
11075TIP3   OH233181   0.375   7.644   0.938 -0.3568 -0.4588  0.1613
11075TIP3    H133182   0.321   7.616   0.864 -0.2146 -0.6355  0.1256
11075TIP3    H233183   0.379   7.568   0.996 -1.1087 -0.0810  0.7308
11076TIP3   OH233184   1.870   2.356   1.072  0.4288 -0.1552  0.5894
11076TIP3    H133185   1.862   2.268   1.035 -0.0925 -0.1512  0.6864
11076TIP3    H233186   1.852   2.414   0.999 -0.9137 -0.1497  0.9078
11077TIP3   OH233187   6.274   4.470   3.893 -0.1156 -0.1363  0.0888
11077TIP3    H133188   6.206   4.538   3.896 -1.5335 -1.4887 -0.0563
11077TIP3    H233189   6.348   4.512   3.850 -0.3558  1.7977  1.4115
11078TIP3   OH233190   0.411   2.461   4.008 -0.4570  0.1379 -0.0677
11078TIP3    H133191   0.422   2.544   4.054  2.9134 -0.5563  0.5936
11078TIP3    H233192   0.411   2.395   4.077 -0.7114 -0.5704 -0.7353
11079TIP3   OH233193   0.680   2.175   0.993 -0.4071 -0.1222  0.2928
11079TIP3    H133194   0.758   2.186   0.938 -2.1842  1.6962 -2.0763
11079TIP3    H233195   0.653   2.085   0.977 -0.3398  0.0801 -1.1491
11080TIP3   OH233196   6.054   2.952   4.236 -0.5980 -0.1039 -0.0503
11080TIP3    H133197   6.003   3.025   4.271 -0.6677  0.7201 -1.7997
11080TIP3    H233198   6.073   2.977   4.146  0.4580 -1.6961 -0.3002
11081TIP3   OH233199   1.795   5.938   5.874 -0.5714  0.4388  0.8019
11081TIP3    H133200   1.805   5.873   5.805 -0.2232  2.6731 -1.4217
11081TIP3    H233201   1.884   5.962   5.899 -0.6561  1.0746  0.5304
11082TIP3   OH233202   4.528   1.240   3.604  0.1677  0.3995 -0.4085
11082TIP3    H133203   4.474   1.250   3.683 -0.9645 -0.6731 -1.0119
11082TIP3    H233204   4.608   1.198   3.635 -0.3476 -0.1976  0.1541
11083TIP3   OH233205   2.917   2.707   1.397 -0.2250 -0.3723 -0.0021
11083TIP3    H133206   2.841   2.760   1.418  0.0731 -0.8650  2.6396
11083TIP3    H233207   2.881   2.620   1.377 -0.4128 -0.6286  1.3280
11084TIP3   OH233208   3.702   2.106   2.080  0.1100  0.3842  0.8441
11084TIP3    H133209   3.643   2.171   2.042  0.1349  0.3198  0.6926
11084TIP3    H233210   3.748   2.153   2.149  1.5265  1.0947 -0.5107
11085TIP3   OH233211   1.449   1.434   6.471 -0.1455  0.2026  0.0950
11085TIP3    H133212   1.483   1.493   6.404 -2.0662 -0.0784 -1.2399
11085TIP3    H233213   1.526   1.400   6.516  1.0850  2.3044 -0.3255
11086TIP3   OH233214   1.576   1.071   1.223 -0.2361  1.0574  0.3759
11086TIP3    H133215   1.480   1.076   1.218 -0.1687  0.7100 -1.9907
11086TIP3    H233216   1.606   1.159   1.202  0.0032  1.0149  0.5341
11087TIP3   OH233217   5.900   0.574   0.562  0.2236 -0.4169 -0.2092
11087TIP3    H133218   5.903   0.480   0.579  0.5235 -0.4453 -0.4164
11087TIP3    H233219   5.809   0.599   0.580  0.1589 -0.7336 -0.0967
11088TIP3   OH233220   7.679   0.514   3.403 -1.1615 -0.1810 -0.2655
11088TIP3    H133221   7.664   0.570   3.479 -0.9171  0.0865 -0.4096
11088TIP3    H233222   7.755   0.462   3.427  0.0761  1.2001 -1.0192
11089TIP3   OH233223   0.307   0.316   5.970  0.0354 -0.4557  0.4686
11089TIP3    H133224   0.355   0.241   5.936  1.4198  0.9966 -0.9760
11089TIP3    H233225   0.216   0.298   5.948  0.5283 -1.0051 -1.2963
11090TIP3   OH233226   5.199   0.256   2.214  0.0394  0.2896 -0.8909
11090TIP3    H133227   5.197   0.331   2.274 -3.9144 -0.3012 -0.0060
11090TIP3    H233228   5.240   0.186   2.265 -1.5977  0.3127  0.5611
11091TIP3   OH233229   5.224   5.767   0.746 -0.5914 -0.8362  0.2370
11091TIP3    H133230   5.170   5.701   0.703 -0.4454 -1.6190  1.2297
11091TIP3    H233231   5.305   5.721   0.770  0.7412  0.3950 -1.5522
11092TIP3   OH233232   6.890   6.257   5.780  0.3924 -0.1414 -0.0170
11092TIP3    H133233   6.973   6.216   5.806  0.9237  0.0661 -1.3273
11092TIP3    H233234   6.823   6.192   5.803  0.9423 -0.4770  0.6831
11093TIP3   OH233235   3.425   4.704   4.839  0.1558  0.0139  0.4079
11093TIP3    H133236   3.481   4.633   4.808  0.0456 -0.4550  1.2498
11093TIP3    H233237   3.382   4.737   4.760  2.9252  1.5821 -0.5569
11094TIP3   OH233238   7.325   1.973   1.961  0.1281  0.2455 -0.1895
11094TIP3    H133239   7.234   1.944   1.973  0.5658 -1.3259 -0.4349
11094TIP3    H233240   7.351   1.936   1.877  1.2260  0.0373  0.2237
11095TIP3   OH233241   4.436   5.027   5.254 -0.0869 -0.2016  0.0787
11095TIP3    H133242   4.347   5.026   5.289 -0.3036 -0.4546 -0.4736
11095TIP3    H233243   4.492   5.019   5.331 -0.5639 -0.9099  0.3649
11096TIP3   OH233244   7.660   1.149   4.796  0.6912 -0.4163  0.2822
11096TIP3    H133245   7.674   1.242   4.781  0.2243 -0.4451 -0.3443
11096TIP3    H233246   7.720   1.127   4.868  0.0006  0.6051  1.2005
11097TIP3   OH233247   0.755   7.820   5.348  0.2068  0.2300  0.2422
11097TIP3    H133248   0.824   7.875   5.385  1.9177 -1.6442 -0.0463
11097TIP3    H233249   0.759   7.739   5.398  1.4210 -1.7160 -2.7237
11098TIP3   OH233250   7.832   4.970   3.408 -0.1410 -0.7751 -0.2789
11098TIP3    H133251   7.865   5.001   3.323 -0.8980  1.2903  0.1299
11098TIP3    H233252   7.738   4.988   3.405  0.0063  0.5529  1.4540
11099TIP3   OH233253   4.699   4.803   0.822 -0.4601  0.3909  0.3032
11099TIP3    H133254   4.717   4.725   0.768 -1.7089  0.4728 -0.2631
11099TIP3    H233255   4.761   4.868   0.790  1.4739 -0.6851  1.6172
11100TIP3   OH233256   5.305   3.131   5.829  0.2915 -0.4536  1.0333
11100TIP3    H133257   5.211   3.150   5.830 -0.1159 -1.8828 -1.7266
11100TIP3    H233258   5.343   3.198   5.772  0.3358 -1.8864 -0.7118
11101TIP3   OH233259   2.275   1.169   1.526 -0.2256  0.1745 -0.0543
11101TIP3    H133260   2.259   1.215   1.608 -0.0918  0.1205  0.0036
11101TIP3    H233261   2.288   1.238   1.461  1.9894  0.2787  0.4141
11102TIP3   OH233262   4.624   0.068   6.651  0.0176 -0.2401 -0.0624
11102TIP3    H133263   4.599   0.000   6.714 -1.7742 -0.1698 -0.6259
11102TIP3    H233264   4.541   0.109   6.626  0.4877 -0.9005 -3.1617
11103TIP3   OH233265   8.080   5.686   2.940  0.3086 -0.3811 -0.2855
11103TIP3    H133266   8.033   5.704   3.021  0.9719  1.0976 -0.1867
11103TIP3    H233267   8.019   5.635   2.887 -0.5071 -0.5056  0.7446
11104TIP3   OH233268   0.646   6.192   4.951 -0.1031 -0.0689 -0.0429
11104TIP3    H133269   0.732   6.156   4.927  1.3516  1.1227  2.8480
11104TIP3    H233270   0.629   6.259   4.885  2.2591  1.1101  0.4402
11105TIP3   OH233271   1.841   6.817   6.033  0.0319  0.2269  0.0161
11105TIP3    H133272   1.813   6.867   5.956  0.0855  0.2693  0.0245
11105TIP3    H233273   1.834   6.726   6.006  1.2905  0.2573 -0.4652
11106TIP3   OH233274   8.253   7.671   2.163 -0.1092  0.0840  0.0531
11106TIP3    H133275   8.220   7.657   2.252 -0.9213  0.5323 -0.1722
11106TIP3    H233276   8.263   7.582   2.127 -0.6017 -0.0722  0.2959
11107TIP3   OH233277   0.313   3.959   5.706  0.4923  0.9707 -0.0952
11107TIP3    H133278   0.326   4.043   5.662 -1.6969  0.1587 -2.4936
11107TIP3    H233279   0.358   3.895   5.650 -2.3129 -0.0855 -1.2954
11108TIP3   OH233280   7.592   7.620   1.905  0.7423 -0.1686  0.0324
11108TIP3    H133281   7.652   7.615   1.980  0.5416  1.1144  0.3028
11108TIP3    H233282   7.620   7.550   1.847  2.7358  0.6017 -0.0123
11109TIP3   OH233283   6.333   7.421   4.761  0.1777  0.2134 -0.0757
11109TIP3    H133284   6.267   7.409   4.692  1.4278 -0.6157 -1.1805
11109TIP3    H233285   6.347   7.516   4.764  0.1116  0.2606 -0.9838
11110TIP3   OH233286   7.047   5.112   0.152 -0.4171 -0.2026 -0.1096
11110TIP3    H133287   7.138   5.140   0.155 -0.0397 -1.4250  1.0556
11110TIP3    H233288   7.050   5.025   0.112 -0.8305 -0.9503  1.3901
11111TIP3   OH233289   0.242   6.528   5.356  0.0133  0.3748 -0.2466
11111TIP3    H133290   0.181   6.458   5.378  0.1374  0.3378 -0.0157
11111TIP3    H233291   0.289   6.495   5.279 -0.7991  0.7349 -0.9095
11112TIP3   OH233292   5.202   5.134   4.092  0.3744  0.5750 -0.0942
11112TIP3    H133293   5.211   5.229   4.105  0.6256  0.3112  1.8351
11112TIP3    H233294   5.261   5.115   4.019  0.2862  1.8901 -0.5461
11113TIP3   OH233295   7.203   4.071   2.189 -0.0041 -0.1083 -0.4810
11113TIP3    H133296   7.196   4.103   2.279 -3.2279 -1.6438 -0.0394
11113TIP3    H233297   7.263   3.997   2.194  1.2512  0.9015 -0.0041
11114TIP3   OH233298   1.725   4.470   3.499  0.1385 -0.2750 -0.1102
11114TIP3    H133299   1.734   4.560   3.531 -1.5099  0.3403 -1.2260
11114TIP3    H233300   1.726   4.416   3.578 -0.5915  0.9006  0.7396
11115TIP3   OH233301   1.185   3.928   1.688  0.0304 -0.2882  0.1520
11115TIP3    H133302   1.106   3.937   1.635  0.1104  1.5640  0.2678
11115TIP3    H233303   1.169   3.851   1.743 -2.2921  0.7967  1.1261
11116TIP3   OH233304   7.905   6.968   0.822 -0.0011 -0.0373 -0.2050
11116TIP3    H133305   7.883   6.882   0.787 -1.5191  0.7303 -1.2717
11116TIP3    H233306   7.853   7.030   0.769 -0.0759  1.4123  1.4474
11117TIP3   OH233307   3.137   3.908   3.322  0.0429  0.3425 -0.2085
11117TIP3    H133308   3.095   3.988   3.354 -0.7070 -0.2322  0.2583
11117TIP3    H233309   3.109   3.840   3.383  0.5275 -0.3167 -0.7117
11118TIP3   OH233310   3.852   0.165   2.090 -0.1401 -0.5566  0.2317
11118TIP3    H133311   3.943   0.173   2.063 -0.5204  0.7248 -0.7920
11118TIP3    H233312   3.847   0.211   2.174 -0.1298  0.7883 -0.4712
11119TIP3   OH233313   3.208   2.205   1.132  0.3430 -0.2650  0.7834
11119TIP3    H133314   3.200   2.114   1.160 -1.0123 -0.9471 -1.5410
11119TIP3    H233315   3.167   2.256   1.203  0.1136 -1.5480  1.6044
11120TIP3   OH233316   5.665   1.517   5.267 -0.2492  0.0111 -0.2646
11120TIP3    H133317   5.664   1.520   5.362 -1.1203 -1.5514 -0.1910
11120TIP3    H233318   5.733   1.453   5.246 -2.6973 -2.7298 -0.4829
11121TIP3   OH233319   6.608   5.887   2.433  0.2754  0.3838 -0.2521
11121TIP3    H133320   6.688   5.835   2.446 -0.5160 -0.8626 -0.1458
11121TIP3    H233321   6.546   5.825   2.394 -0.9231  1.0896  0.4907
11122TIP3   OH233322   2.306   4.732   1.494  0.0278  0.3635  0.3982
11122TIP3    H133323   2.338   4.753   1.582 -0.7744 -1.5000  1.1820
11122TIP3    H233324   2.385   4.727   1.440  0.5373  1.3907  1.0146
11123TIP3   OH233325   0.041   1.195   3.798 -0.0558  0.8964  0.2804
11123TIP3    H133326   0.113   1.159   3.851  0.9744  0.4087 -1.3688
11123TIP3    H233327   0.054   1.155   3.712 -1.0069  2.5338 -0.6494
11124TIP3   OH233328   1.133   7.311   0.079 -0.0088 -0.2285  0.6094
11124TIP3    H133329   1.215   7.267   0.099  0.4746  0.0263 -0.7472
11124TIP3    H233330   1.069   7.240   0.070  0.6279 -0.6371 -0.9247
11125TIP3   OH233331   2.847   1.205   2.748  0.5553  0.5542  0.0039
11125TIP3    H133332   2.809   1.293   2.745  1.0552  0.7848  0.3516
11125TIP3    H233333   2.778   1.148   2.713  0.4453  1.1537 -0.7776
11126TIP3   OH233334   5.862   3.808   3.611 -0.0578  0.2089 -0.4494
11126TIP3    H133335   5.843   3.900   3.631  2.9533  0.5423  1.4440
11126TIP3    H233336   5.850   3.762   3.694  1.5647 -0.4819 -0.5511
11127TIP3   OH233337   3.217   3.916   4.480 -0.5886  0.3272  0.4056
11127TIP3    H133338   3.201   3.967   4.559  1.3913  0.5070  0.7556
11127TIP3    H233339   3.227   3.826   4.511 -1.1215  0.1877  0.1788
11128TIP3   OH233340   0.225   7.114   0.529 -0.3006 -0.1027 -0.3952
11128TIP3    H133341   0.233   7.205   0.500 -0.6906  1.1446  2.9268
11128TIP3    H233342   0.308   7.073   0.504  0.4041  1.5385 -0.8362
11129TIP3   OH233343   0.125   2.213   3.774  0.2435  0.5382 -0.0792
11129TIP3    H133344   0.069   2.141   3.745 -0.4436  1.5331 -1.3038
11129TIP3    H233345   0.128   2.203   3.869 -1.6528  0.1695 -0.0034
11130TIP3   OH233346   2.413   4.475   2.282  0.0507  0.2390  0.0805
11130TIP3    H133347   2.422   4.549   2.341 -1.9712 -1.3014  2.5382
11130TIP3    H233348   2.502   4.455   2.255  0.9132  1.8789  1.5122
11131TIP3   OH233349   0.088   5.516   6.552 -0.6949 -0.1804  0.2391
11131TIP3    H133350   0.068   5.585   6.489 -0.2045 -0.1176  0.1487
11131TIP3    H233351   0.094   5.437   6.499 -0.9035 -0.2361  0.2958
11132TIP3   OH233352   4.325   3.328   3.236 -0.0804 -0.3442 -0.0553
11132TIP3    H133353   4.311   3.417   3.204  0.0513 -0.3381 -0.0959
11132TIP3    H233354   4.334   3.338   3.331  2.7735  0.0447 -0.3044
11133TIP3   OH233355   1.214   6.615   3.750 -0.0201 -0.5755  0.0762
11133TIP3    H133356   1.179   6.539   3.705 -0.1790 -1.8638  2.2281
11133TIP3    H233357   1.303   6.624   3.716 -0.3877 -0.9872 -1.0404
11134TIP3   OH233358   8.149   3.239   2.264 -0.0910  0.2221 -0.1413
11134TIP3    H133359   8.228   3.185   2.261  0.0198  0.3850 -0.1554
11134TIP3    H233360   8.135   3.266   2.173  0.4850  1.1284  0.0286
11135TIP3   OH233361   1.941   4.047   2.252 -0.6440  1.1404  0.0616
11135TIP3    H133362   2.030   4.015   2.238 -1.2616 -0.0831 -1.3227
11135TIP3    H233363   1.939   4.072   2.344  1.4048  2.1297 -0.1122
11136TIP3   OH233364   0.207   6.925   2.827  0.3264 -0.0180  0.1598
11136TIP3    H133365   0.251   6.840   2.819 -1.0015 -0.7158  0.0872
11136TIP3    H233366   0.174   6.925   2.917 -0.8357 -0.1694 -0.2529
11137TIP3   OH233367   2.012   3.107   2.922  0.3580 -0.2173 -0.0744
11137TIP3    H133368   1.933   3.106   2.868  0.5794 -0.0788 -0.4078
11137TIP3    H233369   1.982   3.129   3.010  0.2494  1.8678 -0.5766
11138TIP3   OH233370   4.730   0.005   1.115  0.4124 -0.2403 -0.4605
11138TIP3    H133371   4.824  -0.007   1.102  0.2524 -3.0522  0.2971
11138TIP3    H233372   4.718   0.004   1.210 -0.4856 -1.2168 -0.5655
11139TIP3   OH233373   7.273   6.893   5.823  0.1853 -0.5435 -0.1734
11139TIP3    H133374   7.198   6.876   5.879 -0.2161 -0.2485 -0.6193
11139TIP3    H233375   7.312   6.807   5.807  0.1441 -0.6588  0.3272
11140TIP3   OH233376   3.378   6.931   4.280 -0.0576 -0.4767  0.0156
11140TIP3    H133377   3.356   6.926   4.373  0.0246 -1.3426 -0.0053
11140TIP3    H233378   3.314   6.875   4.236 -1.0201  1.0666 -0.6342
11141TIP3   OH233379   5.841   4.367   0.622 -0.2323 -0.7411 -0.1996
11141TIP3    H133380   5.856   4.283   0.666 -0.1735 -1.8143 -2.1688
11141TIP3    H233381   5.883   4.357   0.536  1.6828  2.1174  0.2913
11142TIP3   OH233382   0.361   0.441   4.837  0.0896 -0.1005  0.2363
11142TIP3    H133383   0.362   0.361   4.784 -0.8631 -0.6772  1.0598
11142TIP3    H233384   0.446   0.482   4.820 -0.4123  0.0801 -2.2116
11143TIP3   OH233385   6.665   2.343   2.185 -0.0846 -0.1067 -0.1656
11143TIP3    H133386   6.751   2.374   2.158 -0.2588  0.9347  0.4164
11143TIP3    H233387   6.609   2.420   2.176 -1.0102 -0.8233 -0.7385
11144TIP3   OH233388   6.992   7.318   1.266 -0.3271 -0.1323  0.0588
11144TIP3    H133389   6.925   7.284   1.207 -0.4269 -2.8118  1.5188
11144TIP3    H233390   6.964   7.407   1.287 -1.9606 -0.2490 -1.4363
11145TIP3   OH233391   1.805   7.320   4.903 -0.3624 -0.1161  0.3285
11145TIP3    H133392   1.839   7.338   4.991  0.2867  3.0564 -0.4462
11145TIP3    H233393   1.884   7.312   4.849 -0.7875 -0.7260 -0.2198
11146TIP3   OH233394   0.334   3.918   3.544  0.5882  0.0725 -0.0967
11146TIP3    H133395   0.285   3.887   3.468 -0.3247  0.4993  0.3073
11146TIP3    H233396   0.301   4.006   3.560  2.5203  0.9614 -0.6805
11147TIP3   OH233397   1.371   5.352   4.296  0.1646 -0.0748 -0.2039
11147TIP3    H133398   1.371   5.311   4.210 -0.9568 -0.5150 -0.0191
11147TIP3    H233399   1.418   5.291   4.352 -2.4054 -1.7528  0.3060
11148TIP3   OH233400   6.459   6.928   2.367  0.3448  0.8708  0.2719
11148TIP3    H133401   6.480   6.835   2.362  0.8527  1.0210 -0.7864
11148TIP3    H233402   6.527   6.965   2.424 -1.0670  0.2944  2.4383
11149TIP3   OH233403   5.981   3.336   5.248  0.0480 -0.2740  0.3678
11149TIP3    H133404   5.921   3.388   5.303  0.4282  0.3279  0.2175
11149TIP3    H233405   5.944   3.342   5.160  0.2542 -0.0178  0.2990
11150TIP3   OH233406   0.691   4.399   4.443  0.1868 -0.7476  0.3227
11150TIP3    H133407   0.625   4.447   4.493 -0.1157 -1.3137  0.4764
11150TIP3    H233408   0.686   4.309   4.475  1.2061 -0.7534  0.5031
11151TIP3   OH233409   0.066   2.029   5.190 -0.3721 -0.3162  0.2148
11151TIP3    H133410   0.155   2.025   5.225  0.3260  0.9425 -1.2577
11151TIP3    H233411   0.041   1.937   5.178  0.3260 -0.7057  1.5797
11152TIP3   OH233412   0.081   3.902   2.570  0.1563  0.3943  0.3926
11152TIP3    H133413   0.141   3.843   2.615 -1.5015 -1.9004 -0.2525
11152TIP3    H233414   0.008   3.847   2.544 -0.1786  2.1159 -2.8532
11153TIP3   OH233415   1.500   5.826   3.537 -1.0804 -0.0086  0.3684
11153TIP3    H133416   1.526   5.749   3.486  2.6918 -1.3863  3.8218
11153TIP3    H233417   1.463   5.790   3.618  2.2568  1.4576  2.8058
11154TIP3   OH233418   7.911   4.013   0.994  0.0645  0.2985 -0.7349
11154TIP3    H133419   7.916   3.957   1.071 -0.0342 -1.1269 -1.7215
11154TIP3    H233420   7.965   3.968   0.928  2.1982  2.7283 -0.8002
11155TIP3   OH233421   3.157   5.321   1.050  0.1573 -0.1048  0.3710
11155TIP3    H133422   3.116   5.388   1.104  0.1491  1.5881 -1.6038
11155TIP3    H233423   3.248   5.349   1.041  0.0782 -0.1555 -0.7484
11156TIP3   OH233424   7.125   2.969   4.044  0.2600  0.0989  0.0914
11156TIP3    H133425   7.054   2.906   4.054  0.3855 -0.0418  0.0917
11156TIP3    H233426   7.189   2.944   4.111  0.3320  0.1947  0.0588
11157TIP3   OH233427   0.019   0.926   1.815  0.6403  0.5588 -0.6888
11157TIP3    H133428   0.085   0.860   1.837  0.2865  0.5715  0.4723
11157TIP3    H233429  -0.040   0.881   1.754  0.9742  0.1345 -0.7070
11158TIP3   OH233430   7.288   5.608   0.508  0.0146 -0.6239 -0.1407
11158TIP3    H133431   7.323   5.592   0.420 -0.6404 -0.4803 -0.4349
11158TIP3    H233432   7.323   5.694   0.532 -2.2574  0.7830 -1.5563
11159TIP3   OH233433   6.025   3.203   1.727  0.4176  0.1390  0.3969
11159TIP3    H133434   6.120   3.216   1.735  0.4776 -0.4319  0.6884
11159TIP3    H233435   6.015   3.108   1.724  0.0142  0.2139 -1.7122
11160TIP3   OH233436   0.601   1.151   3.447 -0.2228  0.1532  0.0619
11160TIP3    H133437   0.631   1.237   3.418 -0.5441  0.3041  0.1666
11160TIP3    H233438   0.646   1.136   3.530  1.5902 -0.7836 -1.0265
11161TIP3   OH233439   5.250   0.880   3.620  0.0614  0.0356 -0.2472
11161TIP3    H133440   5.156   0.902   3.620 -0.1302 -0.7274 -1.0947
11161TIP3    H233441   5.290   0.950   3.567 -0.0448  0.2716 -0.0211
11162TIP3   OH233442   5.482   2.405   4.554  0.1844  0.2208 -0.2902
11162TIP3    H133443   5.397   2.385   4.592  0.0015 -0.8635 -1.2212
11162TIP3    H233444   5.541   2.338   4.588  0.4085  0.2828 -0.5470
11163TIP3   OH233445   6.932   6.463   1.750  0.4624 -0.0447 -0.0682
11163TIP3    H133446   6.906   6.435   1.838  1.1169 -1.6951 -0.3633
11163TIP3    H233447   7.004   6.524   1.765 -0.3257  0.7665  0.5646
11164TIP3   OH233448   6.068   7.352   6.428 -0.4166 -0.1652 -0.1632
11164TIP3    H133449   6.155   7.328   6.395 -0.0735 -0.1147  0.6823
11164TIP3    H233450   6.074   7.446   6.444 -0.2853 -0.3344  0.8636
11165TIP3   OH233451   0.050   7.150   4.071  0.4043 -0.1878  0.3087
11165TIP3    H133452   0.069   7.243   4.086  2.2749 -0.5086  0.1802
11165TIP3    H233453   0.132   7.105   4.091 -0.5366 -1.8582  0.6195
11166TIP3   OH233454   3.848   2.174   4.509  0.4234 -0.0817 -0.0440
11166TIP3    H133455   3.851   2.114   4.584  0.5195  1.7130  1.4515
11166TIP3    H233456   3.754   2.185   4.491  0.4162 -1.2586 -0.8628
11167TIP3   OH233457   2.360   2.696   2.771  0.2958  0.2159 -0.0019
11167TIP3    H133458   2.297   2.627   2.789  1.0135 -0.2576  0.8059
11167TIP3    H233459   2.307   2.772   2.747 -0.6170  0.0104  1.2472
11168TIP3   OH233460   0.813   4.824   4.307 -0.5007  0.7230 -0.2693
11168TIP3    H133461   0.742   4.788   4.254 -0.7186  2.1223 -0.9866
11168TIP3    H233462   0.873   4.751   4.320 -2.3426 -0.6664  0.8832
11169TIP3   OH233463   6.375   6.718   2.629  0.3497 -0.6329 -0.5875
11169TIP3    H133464   6.402   6.752   2.714  1.1522  1.0630 -1.4829
11169TIP3    H233465   6.454   6.678   2.593  0.3956 -0.0440 -1.1490
11170TIP3   OH233466   6.612   3.107   0.986  0.1366 -0.0935  0.0639
11170TIP3    H133467   6.616   3.021   1.028  0.3076 -0.2867 -0.3469
11170TIP3    H233468   6.524   3.111   0.949 -0.2789  0.3696  1.0412
11171TIP3   OH233469   4.044   5.806   1.632 -0.1077  0.0295  0.3588
11171TIP3    H133470   3.969   5.773   1.682 -0.2375 -0.4944 -0.1772
11171TIP3    H233471   4.099   5.849   1.698 -0.9908  0.6405  0.7171
11172TIP3   OH233472   7.218   0.956   4.230  0.7639 -0.2926 -0.0640
11172TIP3    H133473   7.270   0.946   4.150  0.3511 -0.5616 -0.3029
11172TIP3    H233474   7.138   0.999   4.201  1.0235  0.5018  0.3728
11173TIP3   OH233475   5.654   0.484   1.510  0.0364 -0.0701  0.0609
11173TIP3    H133476   5.676   0.552   1.446  1.4029 -1.3085 -0.8414
11173TIP3    H233477   5.558   0.479   1.508 -0.1617  2.3147  0.7109
11174TIP3   OH233478   6.071   4.675   6.749 -0.2894  0.3113  0.2822
11174TIP3    H133479   6.072   4.626   6.832  0.1731  0.8281  0.5902
11174TIP3    H233480   6.143   4.637   6.698 -0.2153  0.3712  0.3418
11175TIP3   OH233481   2.614   7.676   2.812 -0.4240  1.1387 -0.1383
11175TIP3    H133482   2.626   7.762   2.853 -0.0035  1.3548 -0.6984
11175TIP3    H233483   2.695   7.629   2.831 -1.5004  0.0431  2.0511
11176TIP3   OH233484   7.103   7.638   5.215 -0.5778 -0.1183  0.1700
11176TIP3    H133485   7.182   7.629   5.267  0.1314  3.5504  0.0180
11176TIP3    H233486   7.043   7.573   5.251  2.1490 -2.4725  0.8247
11177TIP3   OH233487   2.234   5.858   3.151  0.0920 -0.6002 -0.0249
11177TIP3    H133488   2.178   5.863   3.074  1.8369  1.0785 -1.2652
11177TIP3    H233489   2.264   5.767   3.153  0.4504 -0.5427 -1.6641
11178TIP3   OH233490   6.060   7.360   5.093 -0.4564 -0.1269 -0.1738
11178TIP3    H133491   5.969   7.383   5.075 -0.2594  1.2230  0.4752
11178TIP3    H233492   6.055   7.296   5.163 -0.9137 -0.3082 -0.3648
11179TIP3   OH233493   6.080   2.527   5.810  0.2628 -0.0374  0.0180
11179TIP3    H133494   6.070   2.621   5.797  2.8781  0.1647 -1.2029
11179TIP3    H233495   6.120   2.519   5.896 -1.0075 -0.1590  0.6221
11180TIP3   OH233496   6.707   2.054   0.602  0.4932  0.2682 -0.2012
11180TIP3    H133497   6.789   2.093   0.633  0.4978 -0.4803  0.8042
11180TIP3    H233498   6.735   1.981   0.547  0.5349 -0.3548  0.6167
11181TIP3   OH233499   5.007   5.567   4.943 -0.4515 -0.1536  0.1289
11181TIP3    H133500   4.911   5.571   4.939 -0.4017  0.3479 -0.7516
11181TIP3    H233501   5.028   5.477   4.919 -0.6510  0.1113 -1.1074
11182TIP3   OH233502   1.414   7.734   6.171  0.4177  0.3068 -0.9047
11182TIP3    H133503   1.477   7.760   6.104  1.3491  0.3596 -0.0330
11182TIP3    H233504   1.443   7.779   6.250 -0.6442  0.2233 -0.4549
11183TIP3   OH233505   4.351   7.645   0.797 -0.1920  0.1058 -0.8982
11183TIP3    H133506   4.277   7.585   0.800  0.2171 -0.4040 -0.8784
11183TIP3    H233507   4.342   7.690   0.713  0.0662 -0.7145 -1.3753
11184TIP3   OH233508   5.594   3.190   2.472 -0.2961 -0.3338 -0.0091
11184TIP3    H133509   5.502   3.188   2.499 -0.5426 -0.2018 -0.7964
11184TIP3    H233510   5.611   3.102   2.439 -0.2418 -0.2597 -0.1791
11185TIP3   OH233511   3.104   6.290   6.269  0.4728  0.3065  0.1047
11185TIP3    H133512   3.073   6.201   6.287  0.1022  0.0281 -1.6891
11185TIP3    H233513   3.039   6.347   6.311  0.2742 -0.2595  0.5835
11186TIP3   OH233514   5.324   3.058   2.077 -0.4727 -0.6189 -0.7026
11186TIP3    H133515   5.280   2.987   2.124  0.5133  0.7353  2.5828
11186TIP3    H233516   5.261   3.129   2.078  0.4614  0.2596  1.0802
11187TIP3   OH233517   7.625   2.334   1.277  0.3335  0.2802 -0.0175
11187TIP3    H133518   7.548   2.280   1.257 -0.1717  0.5624  1.0566
11187TIP3    H233519   7.692   2.271   1.302  0.5157  0.0224 -1.0930
11188TIP3   OH233520   3.747   1.298   5.569  0.3935  0.3869 -0.5340
11188TIP3    H133521   3.672   1.247   5.539 -0.2244 -0.7819  2.6073
11188TIP3    H233522   3.820   1.236   5.567  0.5525  0.5745 -0.5407
11189TIP3   OH233523   4.272   7.107   4.756  0.0345 -0.5191  0.4643
11189TIP3    H133524   4.308   7.056   4.683  0.3799 -1.5319  1.3325
11189TIP3    H233525   4.318   7.075   4.833 -2.0882 -1.2175  1.5103
11190TIP3   OH233526   4.056   7.386   4.915  0.0900 -0.1789  0.6347
11190TIP3    H133527   4.078   7.479   4.906  0.0431 -0.2845 -0.7277
11190TIP3    H233528   4.051   7.353   4.825 -0.7230 -1.3087  1.0662
11191TIP3   OH233529   7.946   7.485   3.545 -0.2246 -0.2386 -0.1770
11191TIP3    H133530   7.998   7.410   3.514 -1.4663 -1.6364  1.0047
11191TIP3    H233531   7.858   7.468   3.512 -0.8068  0.0109  1.1907
11192TIP3   OH233532   5.471   4.654   4.487  0.3809 -0.3981 -0.3576
11192TIP3    H133533   5.525   4.730   4.511 -0.9371  0.6276 -0.4913
11192TIP3    H233534   5.513   4.580   4.529  0.7748  0.6672  1.2007
11193TIP3   OH233535   0.332   6.299   0.597  0.0170  0.2626  0.6113
11193TIP3    H133536   0.278   6.263   0.668 -1.5601  2.8554  0.8742
11193TIP3    H233537   0.280   6.287   0.518  0.7765 -0.6153  0.2320
11194TIP3   OH233538   2.681   0.411   2.161 -0.5268 -0.5034 -0.5790
11194TIP3    H133539   2.658   0.451   2.078  1.2022  0.8900 -0.4439
11194TIP3    H233540   2.673   0.482   2.225  2.0214 -0.4290 -0.2393
11195TIP3   OH233541   2.315   6.904   3.819 -0.0335  0.5644 -0.3482
11195TIP3    H133542   2.347   6.849   3.748 -1.6018 -0.5408 -0.2520
11195TIP3    H233543   2.223   6.921   3.797 -1.3946 -1.9923  2.5978
11196TIP3   OH233544   6.841   6.326   4.845 -0.0824  0.7052 -0.5082
11196TIP3    H133545   6.897   6.331   4.922  0.1599  0.9098 -0.6933
11196TIP3    H233546   6.757   6.362   4.873 -0.3594 -0.2665 -0.0240
11197TIP3   OH233547   3.610   4.188   3.529 -0.5773  0.0865  0.0974
11197TIP3    H133548   3.559   4.205   3.608 -2.3618  0.7544 -1.1608
11197TIP3    H233549   3.655   4.270   3.512  1.1190 -0.5313  1.2637
11198TIP3   OH233550   7.515   3.238   6.202  0.3147  0.1223 -0.1467
11198TIP3    H133551   7.497   3.289   6.123  1.4038  0.4039 -0.2361
11198TIP3    H233552   7.467   3.284   6.272 -1.2801 -0.5724 -0.7522
11199TIP3   OH233553   5.144   4.974   5.733 -0.2599 -0.4239 -0.4246
11199TIP3    H133554   5.128   5.046   5.672  0.5685 -1.0686 -1.4486
11199TIP3    H233555   5.057   4.936   5.748 -0.4339 -0.5270 -1.5842
11200TIP3   OH233556   4.256   2.718   0.084 -0.5722  0.3827 -0.1039
11200TIP3    H133557   4.226   2.685  -0.001 -0.0254  0.0322 -0.1635
11200TIP3    H233558   4.275   2.810   0.068 -0.4378  0.3093 -0.3707
11201TIP3   OH233559   5.919   2.508   3.592 -0.0314  0.2049  0.1757
11201TIP3    H133560   5.912   2.437   3.528  0.6499  1.5565 -1.4555
11201TIP3    H233561   5.930   2.463   3.676 -0.1433 -1.6167 -0.7406
11202TIP3   OH233562   6.681   1.061   1.653 -0.1272  0.1700  0.5075
11202TIP3    H133563   6.717   1.146   1.629 -1.0794  0.1340 -1.1894
11202TIP3    H233564   6.608   1.082   1.713 -0.3005  0.5436  0.1660
11203TIP3   OH233565   5.720   3.127   0.599  0.6653 -0.3929  0.1220
11203TIP3    H133566   5.724   3.143   0.694 -0.9618  0.9363  0.0071
11203TIP3    H233567   5.627   3.120   0.580  0.9973 -1.2332 -1.3262
11204TIP3   OH233568   0.686   1.653   2.205 -0.0404 -0.5394  0.1307
11204TIP3    H133569   0.670   1.742   2.237 -1.3539 -0.5348 -0.5061
11204TIP3    H233570   0.634   1.645   2.126  0.4775 -1.7114 -0.1199
11205TIP3   OH233571   7.708   4.210   0.631 -0.3498 -0.1731 -0.1892
11205TIP3    H133572   7.785   4.226   0.685 -0.0505 -0.6085 -0.4810
11205TIP3    H233573   7.661   4.293   0.631  1.1227  0.7095 -1.5943
11206TIP3   OH233574   6.409   5.719   2.368  0.0823 -0.0591  0.2388
11206TIP3    H133575   6.328   5.747   2.411 -0.3702 -1.0927  0.0892
11206TIP3    H233576   6.416   5.626   2.388  2.4893  0.4291  2.2500
11207TIP3   OH233577   1.572   5.974   6.678 -0.2361  0.1985  0.8315
11207TIP3    H133578   1.645   5.931   6.722 -0.3797 -0.5081  0.3944
11207TIP3    H233579   1.606   5.997   6.592 -0.3840  0.3108  0.8030
11208TIP3   OH233580   5.421   7.834   2.666 -0.2242  0.6177  0.2817
11208TIP3    H133581   5.385   7.898   2.728  1.1788  0.4867  1.2811
11208TIP3    H233582   5.373   7.753   2.684 -1.2346  1.0964 -0.2204
11209TIP3   OH233583   7.076   7.164   2.004 -0.0321  0.0161 -0.0281
11209TIP3    H133584   7.048   7.211   1.926  1.0149  0.7677  0.0268
11209TIP3    H233585   7.057   7.223   2.076  2.5988  1.0738 -0.0705
11210TIP3   OH233586   3.337   0.998   4.642  0.0743  0.1614 -0.0242
11210TIP3    H133587   3.385   0.990   4.559  0.1546 -0.6548  0.0884
11210TIP3    H233588   3.406   1.008   4.708  0.0544 -0.1139  0.0401
11211TIP3   OH233589   1.197   0.203   5.978  0.1439  0.2198  0.8756
11211TIP3    H133590   1.184   0.274   5.915  0.4431  0.9885  1.6515
11211TIP3    H233591   1.113   0.158   5.982  0.0327  0.3607  0.1671
11212TIP3   OH233592   6.725   4.469   6.313 -0.5776  0.3208 -0.2133
11212TIP3    H133593   6.781   4.424   6.250 -0.9759  1.5924 -1.5525
11212TIP3    H233594   6.640   4.426   6.304 -0.6808  0.6135 -0.7103
11213TIP3   OH233595   2.463   3.355   0.852  0.0141  0.1498 -0.1918
11213TIP3    H133596   2.501   3.443   0.855  0.6557 -0.1133 -0.6078
11213TIP3    H233597   2.376   3.366   0.891  0.4150  0.8016  0.5467
11214TIP3   OH233598   4.842   5.041   3.119 -0.4030  0.3586  0.4071
11214TIP3    H133599   4.802   5.077   3.040 -0.8724 -1.2692 -0.1525
11214TIP3    H233600   4.845   5.114   3.180 -1.4789  1.2808 -0.5875
11215TIP3   OH233601   0.619   6.729   4.032  0.0942  0.1917 -0.8717
11215TIP3    H133602   0.667   6.689   3.960 -0.1272  0.8021 -1.3715
11215TIP3    H233603   0.686   6.773   4.084  0.3338 -0.7926 -0.3315
11216TIP3   OH233604   6.338   0.670   1.649  0.2207  0.3256 -0.1745
11216TIP3    H133605   6.379   0.632   1.571 -0.6264  1.4889 -1.2114
11216TIP3    H233606   6.354   0.605   1.717  0.2905 -1.0934 -1.4820
11217TIP3   OH233607   3.357   6.746   6.312  0.4616  0.0268  0.4712
11217TIP3    H133608   3.438   6.711   6.276  1.8586  2.5984  0.8545
11217TIP3    H233609   3.374   6.757   6.405 -1.0342 -1.0948  0.9165
11218TIP3   OH233610   3.363   2.232   5.358 -0.3945  0.1516  0.4812
11218TIP3    H133611   3.304   2.283   5.303 -0.3160  0.7470  0.9373
11218TIP3    H233612   3.309   2.206   5.433 -0.1629  0.4521  0.7578
11219TIP3   OH233613   4.716   1.830   3.080  0.2156 -0.2494 -0.3303
11219TIP3    H133614   4.630   1.869   3.097  0.4957 -0.3816  1.5721
11219TIP3    H233615   4.719   1.752   3.135  1.8299  0.1726  0.2380
11220TIP3   OH233616   2.025   5.433   4.979  0.5537 -0.7736  0.1388
11220TIP3    H133617   1.951   5.406   4.925  1.3058 -1.1351 -0.7336
11220TIP3    H233618   2.101   5.431   4.920  1.0448  0.9977  0.6435
11221TIP3   OH233619   5.177   7.358   1.201  0.2203  0.0943  0.0915
11221TIP3    H133620   5.131   7.417   1.261  0.7387 -0.5488  1.1595
11221TIP3    H233621   5.166   7.398   1.115 -1.8349  0.2457  0.3830
11222TIP3   OH233622   4.108   7.018   2.622 -0.1785 -0.4170  0.2325
11222TIP3    H133623   4.076   6.986   2.537  0.2483  0.7706 -0.4047
11222TIP3    H233624   4.038   6.996   2.684 -0.5149 -1.2734 -0.4302
11223TIP3   OH233625   7.270   1.032   6.293 -0.0374  0.2843  0.6191
11223TIP3    H133626   7.219   0.954   6.270  0.5457  0.1805 -0.3734
11223TIP3    H233627   7.361   1.006   6.282  0.1709  1.0683  0.3892
11224TIP3   OH233628   3.255   0.193   2.599  0.2504  0.1681 -0.1877
11224TIP3    H133629   3.230   0.272   2.647  1.7517  0.1999  0.5825
11224TIP3    H233630   3.193   0.126   2.630 -1.7152  1.2220 -1.6247
11225TIP3   OH233631   3.869   1.237   2.622 -0.1006 -0.1871  0.7977
11225TIP3    H133632   3.796   1.224   2.683  0.5329  1.6417  2.0184
11225TIP3    H233633   3.944   1.196   2.665 -0.3031 -1.8531 -0.3466
11226TIP3   OH233634   6.810   5.521   4.509  0.2512  0.1135 -0.8116
11226TIP3    H133635   6.763   5.558   4.584  0.9762  0.2145 -0.3970
11226TIP3    H233636   6.900   5.551   4.520  0.2797  0.4807 -1.9678
11227TIP3   OH233637   2.161   1.104   2.089 -0.1016  0.3465  0.2840
11227TIP3    H133638   2.120   1.190   2.090 -0.2601  0.2708  0.5035
11227TIP3    H233639   2.144   1.069   2.177  0.8551  0.5090  0.5407
11228TIP3   OH233640   6.660   4.129   1.151 -0.0014  0.3716  0.5382
11228TIP3    H133641   6.717   4.201   1.176 -0.5099  1.0339 -0.1284
11228TIP3    H233642   6.691   4.054   1.201  1.5634  0.6630  0.0455
11229TIP3   OH233643   0.236   7.080   4.270 -0.3348  0.5410  0.2800
11229TIP3    H133644   0.308   7.026   4.303  0.4562  1.6581  0.4388
11229TIP3    H233645   0.277   7.138   4.207 -1.3764  0.2163 -0.7240
11230TIP3   OH233646   5.104   2.113   3.966  0.6425 -0.6608 -0.3235
11230TIP3    H133647   5.030   2.086   4.021  0.2692 -0.5541 -0.7599
11230TIP3    H233648   5.079   2.085   3.878  0.3843  0.8146 -0.7423
11231TIP3   OH233649   7.816   3.689   5.515 -0.6287  0.2804 -0.0038
11231TIP3    H133650   7.906   3.723   5.517 -0.0488 -1.1259 -0.5967
11231TIP3    H233651   7.773   3.740   5.447  0.8933 -1.5813 -2.5523
11232TIP3   OH233652   2.667   4.757   4.622  0.1864  0.4381 -0.2213
11232TIP3    H133653   2.682   4.788   4.712 -2.4005  4.3108 -0.8615
11232TIP3    H233654   2.596   4.694   4.631 -1.7785  2.5923  0.4022
11233TIP3   OH233655   5.007   7.384   4.893  0.6979  0.2141  0.1051
11233TIP3    H133656   5.085   7.399   4.946  0.9483  0.5671 -0.3601
11233TIP3    H233657   5.039   7.349   4.811  0.2145 -1.6001  0.6533
11234TIP3   OH233658   3.864   3.970   4.514  0.3926 -0.5740 -0.1015
11234TIP3    H133659   3.954   3.943   4.495  0.5406  0.8001 -1.6455
11234TIP3    H233660   3.873   4.056   4.555 -0.2093 -0.4745 -0.1728
11235TIP3   OH233661   4.365   4.541   2.972 -0.0189 -0.1786 -0.3337
11235TIP3    H133662   4.380   4.566   2.880  0.2092 -2.7308 -1.0513
11235TIP3    H233663   4.281   4.496   2.971 -0.9534  1.4286  1.1083
11236TIP3   OH233664   7.223   5.833   4.093 -0.1153  0.4052 -0.2705
11236TIP3    H133665   7.315   5.808   4.102  0.1023  1.5863  1.3132
11236TIP3    H233666   7.226   5.924   4.064 -0.8086  0.2622 -0.8073
11237TIP3   OH233667   5.713   7.424   3.837  0.2240 -0.0223  0.0823
11237TIP3    H133668   5.730   7.388   3.750 -0.2051  0.0041 -0.0137
11237TIP3    H233669   5.799   7.428   3.878  0.4248 -0.0747 -0.3260
11238TIP3   OH233670   5.301   4.629   5.623  0.4563  0.1140 -0.1495
11238TIP3    H133671   5.316   4.717   5.658 -1.7127  0.7515 -0.6552
11238TIP3    H233672   5.267   4.580   5.698 -0.4618  0.3746 -0.3770
11239TIP3   OH233673   0.806   1.685   1.177 -0.0796 -0.0475  0.1194
11239TIP3    H133674   0.744   1.708   1.247  1.1024  1.9521  0.5943
11239TIP3    H233675   0.799   1.757   1.114  0.7689 -0.4861 -0.4963
11240TIP3   OH233676   6.682   5.519   6.007  0.3202  0.0241 -0.3408
11240TIP3    H133677   6.682   5.449   5.942 -0.7715  0.0189 -0.3439
11240TIP3    H233678   6.773   5.523   6.038  0.6300 -0.6422 -1.1350
11241TIP3   OH233679   0.283   2.095   0.579 -0.2949  0.2521  0.0155
11241TIP3    H133680   0.281   2.010   0.535  1.9210  0.5004 -0.7008
11241TIP3    H233681   0.252   2.157   0.513  1.4614  0.4101 -0.7140
11242TIP3   OH233682   6.578   5.919   4.862 -0.3240 -0.8049 -0.1039
11242TIP3    H133683   6.652   5.968   4.825 -0.5495 -0.8141 -0.5688
11242TIP3    H233684   6.504   5.978   4.854 -0.4228 -0.8959  0.1283
11243TIP3   OH233685   6.316   3.223   1.760 -0.4820 -0.5711  0.1637
11243TIP3    H133686   6.326   3.279   1.837 -0.4170 -0.9419  0.4278
11243TIP3    H233687   6.396   3.236   1.710  0.0546 -1.3274  0.8171
11244TIP3   OH233688   4.326   6.156   0.310 -0.0381 -0.0939 -0.4236
11244TIP3    H133689   4.337   6.094   0.238 -0.7220  0.9042 -1.4237
11244TIP3    H233690   4.415   6.171   0.342  0.0879 -2.0452  0.2694
11245TIP3   OH233691   3.678   0.409   4.093  0.0193  0.3023 -1.0278
11245TIP3    H133692   3.719   0.451   4.018 -0.9367 -0.5404 -2.0629
11245TIP3    H233693   3.751   0.382   4.149  1.2384 -3.3762 -3.9537
11246TIP3   OH233694   1.166   0.780   5.620 -0.4843 -0.4700  0.2937
11246TIP3    H133695   1.233   0.774   5.689 -0.9382  2.3215  1.1219
11246TIP3    H233696   1.111   0.704   5.634  1.0975 -1.5260  1.1623
11247TIP3   OH233697   2.015   4.930   1.929  0.0707  0.1110  0.2280
11247TIP3    H133698   1.943   4.978   1.969  0.6891  0.3727  1.0691
11247TIP3    H233699   1.977   4.846   1.904 -0.7591  0.6230 -0.2718
11248TIP3   OH233700   5.305   3.886   1.618  0.0618  0.6907  0.1325
11248TIP3    H133701   5.288   3.839   1.700  0.1347 -0.0503 -0.2662
11248TIP3    H233702   5.312   3.978   1.644  2.4147  0.2664  1.3141
11249TIP3   OH233703   5.937   5.835   0.877  0.2588 -0.1886  0.0142
11249TIP3    H133704   5.940   5.739   0.879 -0.6544 -0.2477 -1.0478
11249TIP3    H233705   5.932   5.860   0.969  2.4251 -1.0689  0.4350
11250TIP3   OH233706   6.878   7.221   4.857 -0.6129  0.6388 -0.5746
11250TIP3    H133707   6.863   7.216   4.763 -2.8198 -0.1997 -0.2393
11250TIP3    H233708   6.817   7.288   4.888  0.1468  0.9700  0.2643
11251TIP3   OH233709   2.854   4.072   3.565 -0.0958  0.1360 -0.0884
11251TIP3    H133710   2.844   3.996   3.621  1.5386  0.4269  0.6465
11251TIP3    H233711   2.767   4.086   3.528 -0.7432 -1.2392  0.8380
11252TIP3   OH233712   6.865   4.316   0.195 -0.1348 -0.3131  0.3120
11252TIP3    H133713   6.895   4.252   0.131  5.1726 -0.4562  2.4306
11252TIP3    H233714   6.912   4.396   0.172  0.4596  0.1412  2.8178
11253TIP3   OH233715   0.468   7.585   1.918  0.0482  0.2456  0.1928
11253TIP3    H133716   0.443   7.519   1.854 -1.4032 -0.0883  1.0542
11253TIP3    H233717   0.557   7.561   1.943 -0.5478 -1.6295  0.7284
11254TIP3   OH233718   0.524   1.940   4.622 -0.3257 -0.0375  0.1059
11254TIP3    H133719   0.597   1.882   4.601 -1.1361 -0.3057 -2.1445
11254TIP3    H233720   0.565   2.014   4.667  1.2168 -0.5736 -0.3600
11255TIP3   OH233721   3.149   3.889   4.773  0.1557  0.2194  0.4044
11255TIP3    H133722   3.122   3.806   4.812 -2.3676  0.2719 -0.9713
11255TIP3    H233723   3.097   3.955   4.819 -0.4453  0.6135 -0.7888
11256TIP3   OH233724   7.019   5.025   5.555 -0.1634 -0.1755 -0.0267
11256TIP3    H133725   6.960   4.969   5.505  1.5169 -1.7296 -0.3520
11256TIP3    H233726   7.060   4.967   5.619  0.3454  1.0595  0.8166
11257TIP3   OH233727   7.928   2.552   0.614 -0.6853  0.2529  0.5047
11257TIP3    H133728   7.886   2.492   0.553  0.7419  0.4198 -0.7191
11257TIP3    H233729   7.862   2.569   0.681 -2.5018  0.3842 -1.2116
11258TIP3   OH233730   4.630   2.604   3.284 -0.1221 -0.1434 -0.1771
11258TIP3    H133731   4.539   2.582   3.264 -0.2062 -0.3485  0.4106
11258TIP3    H233732   4.669   2.625   3.199 -0.5606 -0.6414 -0.5052
11259TIP3   OH233733   7.103   0.355   5.835  0.5026 -0.0483  0.6568
11259TIP3    H133734   7.174   0.412   5.807  0.9303 -1.2495 -0.8285
11259TIP3    H233735   7.145   0.270   5.851 -0.5276 -0.6699  0.1586
11260TIP3   OH233736   2.126   6.408   2.924  0.4540  0.2647  0.2835
11260TIP3    H133737   2.175   6.335   2.961  0.9086  0.5041  0.1600
11260TIP3    H233738   2.050   6.368   2.881  0.9838 -0.1841 -0.2444
11261TIP3   OH233739   4.920   3.216   2.782  0.0479 -0.7867  0.5068
11261TIP3    H133740   5.015   3.201   2.781 -0.0438 -1.3682 -0.0725
11261TIP3    H233741   4.882   3.131   2.802 -0.4738 -1.5459 -2.9730
11262TIP3   OH233742   4.237   6.548   5.860 -0.1251 -0.0264  0.5994
11262TIP3    H133743   4.156   6.519   5.819  0.1104  0.7983 -0.5142
11262TIP3    H233744   4.265   6.474   5.914 -0.8405 -0.8794 -0.1649
11263TIP3   OH233745   7.327   5.541   5.041  0.5171  0.0349 -0.0052
11263TIP3    H133746   7.337   5.480   5.114 -0.4396 -1.0577 -0.7439
11263TIP3    H233747   7.406   5.531   4.989 -0.5842 -2.3965 -1.3818
11264TIP3   OH233748   6.919   6.383   4.382  0.1871  0.4226 -0.0717
11264TIP3    H133749   6.860   6.374   4.457  2.1658 -2.3694  1.3597
11264TIP3    H233750   6.884   6.322   4.317  0.1895  0.4862 -0.1321
11265TIP3   OH233751   0.210   0.068   1.268  0.1838  0.7687  0.1451
11265TIP3    H133752   0.132   0.114   1.237  0.1093 -0.0567 -0.9364
11265TIP3    H233753   0.177   0.008   1.335 -0.1997  0.0603 -0.6655
11266TIP3   OH233754   1.775   2.247   2.306 -0.3080 -0.0051  0.0199
11266TIP3    H133755   1.723   2.171   2.330 -0.2627  0.3541  1.3414
11266TIP3    H233756   1.805   2.229   2.217  1.8290 -2.7247  1.1517
11267TIP3   OH233757   3.038   7.363   2.456 -0.6213 -0.2623 -0.0640
11267TIP3    H133758   3.058   7.443   2.406  1.4238 -1.7181 -1.7343
11267TIP3    H233759   3.117   7.346   2.507 -0.5847 -1.8061 -0.5902
11268TIP3   OH233760   2.664   0.083   6.446  0.2365  0.2809 -0.3223
11268TIP3    H133761   2.727   0.108   6.514 -1.8480  1.2668  1.3771
11268TIP3    H233762   2.681  -0.009   6.429  1.2653  0.1897  1.0667
11269TIP3   OH233763   2.143   6.879   3.134 -0.7821 -0.6981 -0.4337
11269TIP3    H133764   2.096   6.918   3.208 -0.0005  1.6641 -1.0879
11269TIP3    H233765   2.231   6.916   3.139 -0.3131 -1.5440 -1.7906
11270TIP3   OH233766   7.029   3.024   1.256  0.1307 -0.1332  0.1567
11270TIP3    H133767   7.047   3.097   1.197 -0.9301 -0.0685 -0.1066
11270TIP3    H233768   7.054   2.946   1.206  0.1349 -0.0159 -0.0267
11271TIP3   OH233769   6.817   2.398   0.864  0.2021 -0.2603  0.1237
11271TIP3    H133770   6.788   2.488   0.876 -1.4201 -0.5833 -1.0431
11271TIP3    H233771   6.894   2.405   0.807  0.0642  0.3859  0.0111
11272TIP3   OH233772   1.022   3.559   5.736 -0.1899 -0.0456 -0.1381
11272TIP3    H133773   1.072   3.623   5.786  0.4862 -0.3344 -0.4380
11272TIP3    H233774   0.948   3.609   5.701 -0.0613  0.4050  0.2217
11273TIP3   OH233775   7.594   1.645   0.347  0.6191 -0.4178 -0.0086
11273TIP3    H133776   7.550   1.727   0.369  0.4950  0.0336 -1.7473
11273TIP3    H233777   7.680   1.671   0.316 -0.2509 -0.6069 -2.9500
11274TIP3   OH233778   6.890   4.758   2.496  0.0908 -0.7226 -0.2059
11274TIP3    H133779   6.910   4.689   2.433  1.2313 -1.3742  0.8331
11274TIP3    H233780   6.847   4.713   2.569  0.1383 -0.2199  0.1380
11275TIP3   OH233781   4.708   5.140   4.301  0.4627  0.1799 -0.2585
11275TIP3    H133782   4.625   5.137   4.254  0.3780  0.1430 -0.1072
11275TIP3    H233783   4.771   5.103   4.239  0.4060  0.4081 -0.4538
11276TIP3   OH233784   4.429   6.690   1.716  0.3132 -0.2328 -0.3589
11276TIP3    H133785   4.377   6.766   1.688  0.2866  0.1475  0.6904
11276TIP3    H233786   4.368   6.639   1.770  1.2884  0.7793  1.8248
11277TIP3   OH233787   6.043   3.512   0.290  0.1922  0.2734 -1.0122
11277TIP3    H133788   5.951   3.536   0.297  0.3914  0.5859  1.0932
11277TIP3    H233789   6.089   3.574   0.346  1.5700 -0.5186 -1.2082
11278TIP3   OH233790   0.935   2.238   3.279  0.5527  0.7436  0.3564
11278TIP3    H133791   1.015   2.290   3.284  0.7495  0.4767 -0.0235
11278TIP3    H233792   0.865   2.303   3.274  0.9331  1.0515 -2.9137
11279TIP3   OH233793   2.166   4.807   5.167 -0.8375 -0.5808  0.3017
11279TIP3    H133794   2.257   4.787   5.189 -0.1321  0.3385 -1.5772
11279TIP3    H233795   2.115   4.739   5.212  0.8636 -1.8174  0.4575
11280TIP3   OH233796   7.774   3.055   6.498 -0.0831  0.3004 -0.4137
11280TIP3    H133797   7.680   3.042   6.488 -0.8349  2.1933  2.8809
11280TIP3    H233798   7.800   2.992   6.565  0.3049  1.8122  0.9243
11281TIP3   OH233799   8.287   2.093   5.613 -0.1297 -0.1680  0.2814
11281TIP3    H133800   8.260   2.033   5.545 -1.2036  0.8799 -0.2389
11281TIP3    H233801   8.378   2.069   5.632 -0.7296 -2.3615  0.5668
11282TIP3   OH233802   0.613   7.551   2.797 -0.1833  0.4567 -0.3531
11282TIP3    H133803   0.518   7.537   2.802 -0.0003 -0.9239 -0.1699
11282TIP3    H233804   0.644   7.539   2.887  0.1337  1.2857 -0.3406
11283TIP3   OH233805   7.768   7.671   3.237  0.0734 -0.2310 -0.2663
11283TIP3    H133806   7.686   7.718   3.225  0.3801  0.7951  1.2829
11283TIP3    H233807   7.831   7.739   3.260  1.5852 -0.8889 -2.1750
11284TIP3   OH233808   1.500   2.679   4.631 -0.7251  0.3711 -0.0921
11284TIP3    H133809   1.431   2.662   4.566 -1.1426 -0.4189  0.5349
11284TIP3    H233810   1.581   2.676   4.581 -1.1240  1.1284 -0.8114
11285TIP3   OH233811   6.722   0.166   3.893 -0.3469  0.0226 -0.0349
11285TIP3    H133812   6.791   0.186   3.830  0.7586 -0.5797  0.9388
11285TIP3    H233813   6.661   0.239   3.886  0.8687  1.0425 -0.2681
11286TIP3   OH233814   6.811   4.207   2.883 -0.0256  0.1183  0.1199
11286TIP3    H133815   6.805   4.117   2.916 -0.4344  0.6780  1.6609
11286TIP3    H233816   6.895   4.239   2.916  0.3695  0.1336 -0.8864
11287TIP3   OH233817   6.767   2.688   1.291 -0.3747 -0.7084  0.4684
11287TIP3    H133818   6.808   2.724   1.369  0.4057 -0.1445 -0.1846
11287TIP3    H233819   6.790   2.595   1.292  3.4741  0.0259 -1.3349
11288TIP3   OH233820   2.707   1.763   5.186  0.2247 -0.2842  0.5945
11288TIP3    H133821   2.671   1.787   5.271 -0.5240  1.2646 -0.1290
11288TIP3    H233822   2.641   1.791   5.123  1.5444  0.2434 -0.6075
11289TIP3   OH233823   0.137   1.016   5.952 -0.0330  0.4579 -0.5507
11289TIP3    H133824   0.158   1.109   5.947 -3.0284  1.2436 -0.4235
11289TIP3    H233825   0.082   0.999   5.875  0.7022 -1.2964 -0.7292
11290TIP3   OH233826   5.337   4.667   6.097 -0.3637  0.6041  0.3359
11290TIP3    H133827   5.432   4.667   6.082  0.0272 -2.9057  1.8265
11290TIP3    H233828   5.302   4.609   6.030 -0.8642 -1.1425  2.0209
11291TIP3   OH233829   1.464   7.242   5.056 -0.5332 -0.4897 -0.1049
11291TIP3    H133830   1.445   7.206   4.969 -2.3020  1.9340 -0.8337
11291TIP3    H233831   1.414   7.188   5.116 -1.2116 -0.7503 -0.8883
11292TIP3   OH233832   5.583   3.431   1.981  0.3014  0.5490  0.3884
11292TIP3    H133833   5.572   3.423   2.076  1.8701  1.3080  0.6520
11292TIP3    H233834   5.629   3.351   1.956  1.9614  1.4039  0.6380
11293TIP3   OH233835   3.659   6.053   3.176 -0.4895  0.2038  0.5610
11293TIP3    H133836   3.581   6.105   3.189 -0.2097  0.6052  0.6512
11293TIP3    H233837   3.683   6.023   3.263 -0.2300  0.5402  0.6077
11294TIP3   OH233838   4.769   1.834   0.989 -0.2235 -0.4236 -0.0669
11294TIP3    H133839   4.786   1.762   1.049  0.1614  0.4557  0.9239
11294TIP3    H233840   4.849   1.840   0.937 -1.2377 -2.3467 -1.9773
11295TIP3   OH233841   5.189   3.802   5.268 -0.4134 -0.0405  0.1402
11295TIP3    H133842   5.220   3.791   5.178 -0.6682  0.2192  0.0205
11295TIP3    H233843   5.097   3.775   5.265 -0.3757 -0.2011  0.3624
11296TIP3   OH233844   0.303   0.799   2.701  0.1521  0.1202  0.0004
11296TIP3    H133845   0.282   0.891   2.719 -0.6162  0.3310 -1.8315
11296TIP3    H233846   0.229   0.750   2.738 -0.5743  0.4195 -1.0295
11297TIP3   OH233847   6.736   3.335   0.879 -0.4719  0.1013  0.0739
11297TIP3    H133848   6.750   3.406   0.941 -3.3638  1.0241 -0.1435
11297TIP3    H233849   6.689   3.268   0.929  1.3734 -1.2977  0.0269
11298TIP3   OH233850   3.680   7.800   3.904 -0.1238 -0.0844  0.0176
11298TIP3    H133851   3.597   7.760   3.931  0.4433 -0.6164  1.0082
11298TIP3    H233852   3.713   7.741   3.836  0.3323 -0.9072  0.9316
11299TIP3   OH233853   0.643   3.758   2.108 -0.5073 -0.0849  0.3450
11299TIP3    H133854   0.613   3.669   2.126 -0.7930  0.2945  1.8832
11299TIP3    H233855   0.611   3.810   2.181 -0.4096  1.3187 -0.5632
11300TIP3   OH233856   6.777   0.884   5.395 -0.1724  0.0961  0.1040
11300TIP3    H133857   6.750   0.794   5.415 -0.0620  0.0978  0.2672
11300TIP3    H233858   6.715   0.914   5.328 -0.8869  0.2670  0.8141
11301TIP3   OH233859   8.135   7.046   3.182  0.2901  0.2526 -0.1648
11301TIP3    H133860   8.086   7.125   3.160  0.6052  0.5820  0.2803
11301TIP3    H233861   8.127   6.990   3.105 -1.4785 -0.0630  0.2224
11302TIP3   OH233862   2.202   4.199   5.644 -0.0556  0.5325 -0.2346
11302TIP3    H133863   2.122   4.182   5.593  1.5038 -1.7346 -2.1278
11302TIP3    H233864   2.264   4.234   5.580  0.8411  1.1425  0.9417
11303TIP3   OH233865   6.156   6.875   5.966 -0.2236  0.2007  0.1205
11303TIP3    H133866   6.182   6.839   6.051 -1.0430 -1.0484 -0.1329
11303TIP3    H233867   6.232   6.925   5.937  1.2989 -1.9971  0.1283
11304TIP3   OH233868   4.682   2.648   0.558  0.5711  0.3145  0.2737
11304TIP3    H133869   4.728   2.711   0.613 -0.5119  0.1263  1.4554
11304TIP3    H233870   4.626   2.702   0.501  0.2918  0.4595  0.6801
11305TIP3   OH233871   7.747   0.665   6.567  0.0159 -1.1146 -0.6035
11305TIP3    H133872   7.803   0.718   6.512 -0.2089  0.2312  0.4224
11305TIP3    H233873   7.666   0.654   6.516 -0.1968  0.1200 -0.5507
11306TIP3   OH233874   5.744   1.521   0.012 -0.5835 -0.2724  0.4950
11306TIP3    H133875   5.756   1.538   0.106  0.1846 -0.1671  0.3869
11306TIP3    H233876   5.668   1.573  -0.013 -1.8318 -1.5722  1.4053
11307TIP3   OH233877   7.265   0.965   3.937 -0.0727  0.0301  0.2776
11307TIP3    H133878   7.211   0.917   3.874 -0.7869  0.0694  0.8443
11307TIP3    H233879   7.351   0.969   3.896  0.0213 -1.7516  0.2088
11308TIP3   OH233880   1.538   5.188   4.484 -0.0544  0.2637  0.3791
11308TIP3    H133881   1.528   5.184   4.579  0.1907 -0.5544  0.3790
11308TIP3    H233882   1.620   5.235   4.471 -0.3610  0.8560  0.5524
11309TIP3   OH233883   0.814   3.007   4.473 -0.1957 -0.3911 -0.1147
11309TIP3    H133884   0.847   2.956   4.547 -1.3068 -0.2135  0.5146
11309TIP3    H233885   0.746   3.063   4.510 -1.6497 -1.1856 -1.4642
11310TIP3   OH233886   5.016   6.459   0.731 -0.1289  0.5644  0.1907
11310TIP3    H133887   5.060   6.439   0.814  0.6499 -0.4043 -0.4284
11310TIP3    H233888   5.065   6.533   0.695 -0.9082  1.4518  0.9076
11311TIP3   OH233889   5.854   3.708   2.591  0.0748 -0.3309  0.2182
11311TIP3    H133890   5.947   3.704   2.568  0.3606 -0.1357  1.2967
11311TIP3    H233891   5.852   3.747   2.678 -1.0781  0.3780 -0.1042
11312TIP3   OH233892   6.307   4.461   4.687 -0.1234 -0.1211  0.6552
11312TIP3    H133893   6.332   4.386   4.742 -1.5599 -2.9656 -2.2671
11312TIP3    H233894   6.374   4.464   4.619 -0.9332  0.2318 -0.1406
11313TIP3   OH233895   4.490   3.668   4.253 -0.2902  1.0801 -0.1903
11313TIP3    H133896   4.399   3.676   4.225  0.1200  2.9964 -1.1011
11313TIP3    H233897   4.535   3.631   4.177 -0.5066 -1.3645  0.7739
11314TIP3   OH233898   5.413   2.518   2.542 -0.0469  0.2593 -0.4880
11314TIP3    H133899   5.378   2.606   2.554 -2.3063 -0.5695 -0.3870
11314TIP3    H233900   5.371   2.467   2.612  2.2106 -0.6612  0.2696
11315TIP3   OH233901   1.831   3.529   4.984  0.5431  0.3115  0.1471
11315TIP3    H133902   1.750   3.480   4.973  0.0847  1.2542 -0.8240
11315TIP3    H233903   1.898   3.476   4.941  0.5767 -0.7117  1.3726
11316TIP3   OH233904   4.204   5.678   2.137  0.8049 -0.6372  0.0098
11316TIP3    H133905   4.173   5.594   2.104 -0.5675  0.1951 -0.8929
11316TIP3    H233906   4.285   5.695   2.088 -0.0308 -0.4600 -1.3399
11317TIP3   OH233907   8.210   3.555   4.972  0.1857  0.7138 -0.0151
11317TIP3    H133908   8.154   3.596   5.038 -0.8513  0.6305 -0.8184
11317TIP3    H233909   8.295   3.545   5.015 -0.8319 -0.6698  1.8011
11318TIP3   OH233910   6.061   0.856   4.195  0.1446 -0.2170 -0.1207
11318TIP3    H133911   6.084   0.807   4.116 -2.3849 -1.6418 -0.0627
11318TIP3    H233912   6.027   0.939   4.163  0.9688  0.0151 -0.4111
11319TIP3   OH233913   6.570   5.348   6.196  0.3843  0.5162  0.4524
11319TIP3    H133914   6.664   5.361   6.189  0.5590 -0.8339 -0.1281
11319TIP3    H233915   6.545   5.309   6.113 -0.3181 -1.0261  1.3322
11320TIP3   OH233916   7.091   3.249   1.091 -0.5021  1.1505 -0.3685
11320TIP3    H133917   7.034   3.323   1.116 -1.1266  0.3766  0.5876
11320TIP3    H233918   7.147   3.284   1.022 -0.8206  2.5092  0.0269
11321TIP3   OH233919   2.636   2.879   1.766  0.1081 -0.5728  0.1768
11321TIP3    H133920   2.627   2.784   1.774 -0.9082 -0.4360  0.7237
11321TIP3    H233921   2.558   2.915   1.808  0.0906  0.4905 -0.7089
11322TIP3   OH233922   7.998   2.509   0.117  0.5185  0.0638  0.1738
11322TIP3    H133923   7.962   2.420   0.109 -0.7952  0.6731 -1.4071
11322TIP3    H233924   8.002   2.541   0.027 -0.2305  2.0437  0.7923
11323TIP3   OH233925   4.287   2.405   3.467 -0.0159  0.3302 -0.5225
11323TIP3    H133926   4.312   2.446   3.549  0.0917  3.1558 -1.8464
11323TIP3    H233927   4.191   2.401   3.469  0.0224 -0.7804  0.1962
11324TIP3   OH233928   4.234   6.037   2.228  0.1255 -0.0029 -0.2680
11324TIP3    H133929   4.146   6.004   2.208 -0.5978  1.8167 -0.3005
11324TIP3    H233930   4.227   6.132   2.216  2.1840  0.1582 -0.5467
11325TIP3   OH233931   7.691   1.156   1.834  0.1281  0.5652 -0.2155
11325TIP3    H133932   7.714   1.244   1.864  1.8764 -0.0878  0.4861
11325TIP3    H233933   7.596   1.153   1.841  0.0955  2.1180  0.5676
11326TIP3   OH233934   2.352   5.058   0.660  0.2822 -0.1373 -0.1174
11326TIP3    H133935   2.260   5.049   0.686 -0.2159  2.6848 -0.5844
11326TIP3    H233936   2.392   5.105   0.733  0.9421  0.2195 -0.7082
11327TIP3   OH233937   3.900   6.087   4.155  0.1172 -0.2579 -0.3889
11327TIP3    H133938   3.836   6.115   4.089 -1.4099 -3.0421 -0.2283
11327TIP3    H233939   3.955   6.024   4.109 -0.5956 -1.7797  0.7649
11328TIP3   OH233940   6.344   3.681   1.762  0.5769 -0.0667  0.3245
11328TIP3    H133941   6.267   3.648   1.715 -0.1118  0.3245  1.1703
11328TIP3    H233942   6.410   3.613   1.749  0.4461  0.0681 -1.2945
11329TIP3   OH233943   3.389   2.834   2.705 -0.3277 -0.8259  0.2802
11329TIP3    H133944   3.358   2.922   2.684  2.9582  0.4303  0.1721
11329TIP3    H233945   3.325   2.776   2.664 -0.7435  1.5373 -2.7573
11330TIP3   OH233946   8.004   1.946   0.316  0.2028  0.4402 -0.3447
11330TIP3    H133947   8.089   1.937   0.358  0.2721  2.0770 -0.0847
11330TIP3    H233948   8.024   1.964   0.224  0.1621  1.0432 -0.2418
11331TIP3   OH233949   1.487   6.366   0.887 -0.0165  0.4704 -0.0077
11331TIP3    H133950   1.517   6.390   0.799 -0.0236 -1.4472 -0.5650
11331TIP3    H233951   1.566   6.337   0.933 -0.1262  0.8033  0.4040
11332TIP3   OH233952   6.780   5.723   0.084  0.3339  0.2157 -0.0748
11332TIP3    H133953   6.765   5.733   0.178  1.6375  1.3750  0.0390
11332TIP3    H233954   6.828   5.801   0.058 -1.6325  0.8842 -2.1150
11333TIP3   OH233955   4.979   3.384   6.222  0.0281  0.5604  0.1070
11333TIP3    H133956   4.981   3.352   6.132 -0.6735 -1.1114  0.6265
11333TIP3    H233957   5.066   3.418   6.238  0.1870  0.8031 -1.1794
11334TIP3   OH233958   5.686   7.298   2.720  0.2968 -0.7764 -0.2040
11334TIP3    H133959   5.619   7.307   2.653 -1.7646  1.6512  1.9883
11334TIP3    H233960   5.759   7.352   2.689 -0.4302 -0.0580 -0.6894
11335TIP3   OH233961   1.542   3.072   3.336 -0.6285  0.6817  0.2973
11335TIP3    H133962   1.560   3.053   3.244 -1.7282  1.8905 -0.1927
11335TIP3    H233963   1.562   2.990   3.382 -0.7238 -0.1517 -1.0984
11336TIP3   OH233964   4.820   7.198   0.812  0.3136  0.4261 -0.0272
11336TIP3    H133965   4.759   7.271   0.797 -0.4848 -0.3249 -0.5332
11336TIP3    H233966   4.906   7.234   0.790 -0.2088  0.8949 -1.4176
11337TIP3   OH233967   4.936   2.733   4.055 -0.1236 -0.2149  0.1144
11337TIP3    H133968   4.917   2.648   4.094 -0.1552  0.2680  1.2044
11337TIP3    H233969   4.943   2.792   4.130 -0.6823  0.8611 -0.6568
11338TIP3   OH233970   6.364   0.890   4.239  0.0006  1.1782 -0.1864
11338TIP3    H133971   6.352   0.985   4.230 -0.4965  0.9298 -3.3140
11338TIP3    H233972   6.275   0.855   4.242  0.1800  0.7923  1.5001
11339TIP3   OH233973   1.306   5.013   4.498  0.5395  0.5170 -0.0102
11339TIP3    H133974   1.305   4.981   4.408  1.9595 -1.2530  0.5532
11339TIP3    H233975   1.375   5.080   4.498 -1.8059  3.1308 -0.9672
11340TIP3   OH233976   2.946   6.712   1.235 -0.0645 -0.2126 -0.3822
11340TIP3    H133977   2.870   6.745   1.188 -0.9215 -1.9507 -0.3022
11340TIP3    H233978   2.994   6.791   1.262  0.8100  0.9759 -4.5323
11341TIP3   OH233979   5.191   4.610   0.061  0.3116 -0.0687 -0.3991
11341TIP3    H133980   5.276   4.601   0.017  0.1363  1.0817 -1.0014
11341TIP3    H233981   5.213   4.644   0.148  0.4785  0.0141 -0.4731
11342TIP3   OH233982   5.627   3.349   6.239  0.4695 -0.0915 -0.5748
11342TIP3    H133983   5.636   3.434   6.195 -0.1761  0.8757  1.0432
11342TIP3    H233984   5.540   3.319   6.214  1.0929 -0.8127 -1.9770
11343TIP3   OH233985   2.305   3.178   4.923  0.1478  0.1061  0.2009
11343TIP3    H133986   2.258   3.095   4.912 -2.7032  1.9293 -4.8356
11343TIP3    H233987   2.241   3.235   4.966  1.4678  0.2809  2.0490
11344TIP3   OH233988   7.820   5.377   6.633 -0.1145 -0.2013 -0.8109
11344TIP3    H133989   7.811   5.316   6.559  0.0845 -0.7674 -0.3718
11344TIP3    H233990   7.794   5.327   6.710  1.4769 -0.2119 -0.2329
11345TIP3   OH233991   4.387   6.027   6.331 -0.4475  0.3698 -0.2712
11345TIP3    H133992   4.364   5.941   6.366 -2.1461  0.8686 -0.0569
11345TIP3    H233993   4.458   6.057   6.387  0.4742 -1.0598 -0.6289
11346TIP3   OH233994   6.170   5.647   4.395 -0.3727 -0.2100 -0.2650
11346TIP3    H133995   6.244   5.698   4.429 -1.0247  1.3913 -1.1329
11346TIP3    H233996   6.120   5.710   4.343 -0.7386 -1.9571 -2.1519
11347TIP3   OH233997   2.494   0.366   3.400  0.4433  0.3560  0.1604
11347TIP3    H133998   2.421   0.336   3.454  1.0665 -0.5111  0.5436
11347TIP3    H233999   2.535   0.286   3.368  1.7085  0.7898  0.6125
11348TIP3   OH234000   6.317   7.283   6.340 -0.2204  0.2236 -0.0386
11348TIP3    H134001   6.358   7.216   6.395 -0.8024  0.5587  0.8420
11348TIP3    H234002   6.388   7.319   6.288 -0.1191 -2.0648 -1.6160
11349TIP3   OH234003   3.944   6.737   5.179 -0.1489 -0.5040 -0.1076
11349TIP3    H134004   4.029   6.779   5.196 -1.0610  1.4252 -0.0210
11349TIP3    H234005   3.894   6.752   5.260 -0.8258 -0.9378 -0.4436
11350TIP3   OH234006   4.825   4.891   4.259  0.1567 -0.4897 -0.6395
11350TIP3    H134007   4.868   4.899   4.174  0.4441 -0.8690 -0.5300
11350TIP3    H234008   4.734   4.869   4.238  0.4913 -1.7481 -0.8271
11351TIP3   OH234009   5.473   4.600   6.747  0.1901  0.3987 -0.2054
11351TIP3    H134010   5.473   4.594   6.652 -2.0967 -1.0359 -0.2006
11351TIP3    H234011   5.454   4.510   6.776 -0.1955  1.0112  1.5546
11352TIP3   OH234012   0.885   4.582   4.791 -0.8060  0.3470 -0.5677
11352TIP3    H134013   0.949   4.513   4.772  0.9745  1.5389  0.7587
11352TIP3    H234014   0.817   4.538   4.842  0.0677 -0.5201 -0.1200
11353TIP3   OH234015   6.038   2.067   0.723 -0.2786  0.1580  0.2840
11353TIP3    H134016   6.037   1.984   0.770  1.7576  0.3818  0.8439
11353TIP3    H234017   6.064   2.044   0.633  1.7352  0.2594  0.7853
11354TIP3   OH234018   4.361   4.275   0.570 -0.3959  0.1810 -0.2023
11354TIP3    H134019   4.419   4.238   0.503 -1.6983  0.4878 -1.5548
11354TIP3    H234020   4.278   4.229   0.559 -1.0938  1.2796  0.1875
11355TIP3   OH234021   2.717   4.982   6.355  0.3698 -0.5880  0.4772
11355TIP3    H134022   2.725   4.968   6.450 -0.7768  0.2583  0.7287
11355TIP3    H234023   2.646   4.923   6.329  1.0383 -1.2026  0.0449
11356TIP3   OH234024   7.933   4.267   0.798 -0.1034 -0.2466  1.2363
11356TIP3    H134025   8.025   4.284   0.777 -0.0875 -0.2713  1.2845
11356TIP3    H234026   7.936   4.203   0.869 -0.1469  0.2516  1.6956
11357TIP3   OH234027   3.971   0.068   4.268  0.8102 -0.0716  0.2076
11357TIP3    H134028   3.988   0.082   4.361  0.5016  0.6701  0.1547
11357TIP3    H234029   3.915  -0.009   4.265 -0.8064  1.0398  0.7753
11358TIP3   OH234030   6.564   5.679   4.969 -0.1899  0.2387  0.1117
11358TIP3    H134031   6.474   5.648   4.959  0.2644 -0.4636 -2.9185
11358TIP3    H234032   6.562   5.770   4.940  0.0026  0.3662  0.4950
11359TIP3   OH234033   5.819   3.563   5.383 -0.3102  0.4892  0.3869
11359TIP3    H134034   5.846   3.655   5.377 -1.0502  0.6384 -1.3964
11359TIP3    H234035   5.766   3.549   5.304 -0.8742 -1.2580  1.0351
11360TIP3   OH234036   1.197   2.129   2.783 -0.8433  0.2680 -0.1658
11360TIP3    H134037   1.121   2.142   2.840 -0.9515 -0.2353 -0.1952
11360TIP3    H234038   1.160   2.089   2.704 -0.0106 -4.9110  1.6672
11361TIP3   OH234039   6.408   1.711   0.802 -0.1647 -0.2166  0.2495
11361TIP3    H134040   6.487   1.764   0.791 -0.3982  0.3292  1.0707
11361TIP3    H234041   6.439   1.629   0.842  0.3142 -1.1103 -1.8083
11362TIP3   OH234042   4.663   3.557   3.300  0.2683  0.3792  0.2000
11362TIP3    H134043   4.568   3.568   3.308  0.3389  2.1039 -0.7974
11362TIP3    H234044   4.685   3.599   3.217  2.0489  1.0126  0.9349
11363TIP3   OH234045   6.182   0.464   5.305 -0.0405  0.0308  0.1451
11363TIP3    H134046   6.220   0.429   5.224  0.4508  1.1772 -0.1405
11363TIP3    H234047   6.135   0.542   5.278 -2.4713 -1.2200  0.5421
11364TIP3   OH234048   4.887   6.806   0.160 -0.4626 -0.6140  0.6613
11364TIP3    H134049   4.943   6.764   0.095  0.5578  0.4476  0.8169
11364TIP3    H234050   4.943   6.873   0.200 -1.7429  0.2398  1.0773
11365TIP3   OH234051   5.766   2.019   3.572  0.0906  0.2435 -0.5276
11365TIP3    H134052   5.714   2.072   3.512  0.4856  1.0527 -0.1861
11365TIP3    H234053   5.741   2.051   3.659  0.2196 -0.2497 -0.3079
11366TIP3   OH234054   7.722   3.400   6.755 -0.5530 -0.2823 -0.0492
11366TIP3    H134055   7.783   3.336   6.791  2.5577  1.6504 -1.4317
11366TIP3    H234056   7.718   3.469   6.820 -1.2787 -0.3544 -0.0034
11367TIP3   OH234057   3.307   2.327   4.945 -0.2527 -0.1632 -0.0409
11367TIP3    H134058   3.220   2.364   4.960 -1.2470 -2.4474  0.2310
11367TIP3    H234059   3.300   2.237   4.977  1.8314 -0.8010 -1.2432
11368TIP3   OH234060   0.165   2.809   3.687  0.3368  0.1493 -0.0684
11368TIP3    H134061   0.236   2.753   3.719  0.4981  0.3999  0.0160
11368TIP3    H234062   0.088   2.751   3.684  0.9418 -0.6353 -1.9583
11369TIP3   OH234063   7.664   2.798   6.367  0.7295  0.1775 -0.1944
11369TIP3    H134064   7.647   2.725   6.307  1.8284 -1.0110  0.8841
11369TIP3    H234065   7.604   2.867   6.338 -0.1933 -1.0625 -1.3759
11370TIP3   OH234066   7.077   4.316   4.695 -0.0030  0.7707 -0.1190
11370TIP3    H134067   7.151   4.284   4.642 -0.2016  1.2402 -0.6851
11370TIP3    H234068   6.999   4.289   4.647 -0.2406 -0.3568  0.8401
11371TIP3   OH234069   8.106   4.501   1.721  0.3289 -0.3330  0.5069
11371TIP3    H134070   8.048   4.577   1.728 -0.3756 -0.6768 -1.1636
11371TIP3    H234071   8.068   4.448   1.651  1.0378 -2.0432  1.3809
11372TIP3   OH234072   2.209   6.150   0.473 -0.1580 -0.1118  0.1245
11372TIP3    H134073   2.173   6.132   0.560 -1.9184  3.4096  0.2971
11372TIP3    H234074   2.134   6.149   0.415  0.7469 -0.6364 -1.0829
11373TIP3   OH234075   0.177   6.617   0.420 -0.2010  0.0539  0.3496
11373TIP3    H134076   0.270   6.617   0.396 -0.0566 -1.6403  0.7345
11373TIP3    H234077   0.139   6.689   0.371  1.1569  0.2242 -0.5019
11374TIP3   OH234078   4.506   0.078   2.734 -0.3333  0.3054 -0.6573
11374TIP3    H134079   4.415   0.062   2.759 -0.3087 -1.4559 -1.5777
11374TIP3    H234080   4.556   0.068   2.815 -0.7054 -1.1502 -0.5896
11375TIP3   OH234081   8.218   6.607   2.306  0.2705 -0.0949  0.2694
11375TIP3    H134082   8.182   6.578   2.222  0.1982 -0.7975  0.5332
11375TIP3    H234083   8.141   6.623   2.361  0.2158  2.4988 -0.4427
11376TIP3   OH234084   0.786   6.392   1.552  0.1547 -0.1396 -0.1432
11376TIP3    H134085   0.802   6.298   1.544  0.8437  0.0363 -0.8908
11376TIP3    H234086   0.872   6.432   1.541 -0.4336  0.7061 -2.0024
11377TIP3   OH234087   0.506   4.638   1.286  0.2008  0.3971  0.2682
11377TIP3    H134088   0.474   4.556   1.249 -1.0904  1.7226 -1.7577
11377TIP3    H234089   0.547   4.683   1.213 -0.4634  2.2055  0.9395
11378TIP3   OH234090   4.239   3.539   0.639  0.1835  0.6194 -0.2720
11378TIP3    H134091   4.229   3.599   0.565 -1.2336  0.8783  0.0974
11378TIP3    H234092   4.179   3.573   0.705  1.5635  0.5046  1.0862
11379TIP3   OH234093  -0.018   0.781   4.657  0.2182  0.4425  0.3845
11379TIP3    H134094   0.038   0.749   4.727  1.4176  0.8031 -0.3707
11379TIP3    H234095   0.039   0.839   4.605 -1.0219  1.3158 -0.0648
11380TIP3   OH234096   0.606   0.093   1.559 -0.7187 -0.6804 -0.3836
11380TIP3    H134097   0.565   0.093   1.646 -1.5051 -0.5609 -0.7374
11380TIP3    H234098   0.547   0.148   1.506  0.7888  0.8842 -0.5186
11381TIP3   OH234099   5.122   3.227   1.794  0.4574  0.5500 -0.2188
11381TIP3    H134100   5.136   3.322   1.801  1.7221  0.3170  0.7532
11381TIP3    H234101   5.090   3.201   1.881  1.0144 -0.0472 -0.1856
11382TIP3   OH234102   6.071   1.764   0.201 -0.1457 -0.6280 -0.0465
11382TIP3    H134103   6.103   1.854   0.200 -1.8896  0.0593  0.7720
11382TIP3    H234104   6.144   1.713   0.236  1.3738  0.2127 -1.8393
11383TIP3   OH234105   4.848   1.305   3.104  0.6975 -0.3541 -0.4449
11383TIP3    H134106   4.922   1.258   3.067  0.6777 -0.6488 -0.1129
11383TIP3    H234107   4.829   1.374   3.040 -0.5106 -1.9648 -1.9154
11384TIP3   OH234108   2.860   5.494   0.537  0.0277  0.6363  0.2035
11384TIP3    H134109   2.845   5.402   0.560 -1.0516  0.5189 -0.8549
11384TIP3    H234110   2.951   5.509   0.559  0.3149 -0.7860  0.1259
11385TIP3   OH234111   7.855   3.076   5.254  0.5266  0.1729 -0.0593
11385TIP3    H134112   7.882   3.065   5.346  2.1853 -1.5627 -0.6961
11385TIP3    H234113   7.884   3.164   5.231  1.3269  0.1220  0.7021
11386TIP3   OH234114   8.200   1.895   5.463 -0.1937  0.0902 -0.0251
11386TIP3    H134115   8.110   1.863   5.471  0.0326 -0.3608  0.8209
11386TIP3    H234116   8.253   1.815   5.454  0.0448  0.3861 -1.4739
11387TIP3   OH234117   0.815   4.124   1.617 -0.1627  0.8430  0.2989
11387TIP3    H134118   0.760   4.178   1.560 -0.1960  0.2442 -0.2431
11387TIP3    H234119   0.867   4.072   1.557  1.1564  1.5386  0.8010
11388TIP3   OH234120   2.672   6.583   6.703 -0.7799  0.0331  0.0901
11388TIP3    H134121   2.689   6.554   6.614 -0.2353  1.0153 -0.1383
11388TIP3    H234122   2.681   6.678   6.700  1.8800 -0.0546  1.7156
11389TIP3   OH234123   8.025   0.775   4.595 -0.5322  0.3736  0.3210
11389TIP3    H134124   7.986   0.862   4.607 -0.5757  0.3144  0.6396
11389TIP3    H234125   8.119   0.790   4.597 -0.5395  0.4139  0.3995
11390TIP3   OH234126   7.506   6.686   1.604  0.1139 -0.4852 -0.2723
11390TIP3    H134127   7.503   6.694   1.508  1.3368  1.1713 -0.2030
11390TIP3    H234128   7.513   6.591   1.619  2.7590 -0.6797 -1.9713
11391TIP3   OH234129   2.756   1.386   5.976  0.7252  0.1329  0.6268
11391TIP3    H134130   2.693   1.337   6.029  2.4710 -3.5532 -0.3572
11391TIP3    H234131   2.703   1.449   5.928 -1.8389 -1.0646  1.6686
11392TIP3   OH234132   4.833   5.274   0.248  0.0483  0.3108  0.2973
11392TIP3    H134133   4.766   5.336   0.274 -0.0379  0.1165  0.5466
11392TIP3    H234134   4.822   5.264   0.154  0.7767  1.5073  0.0724
11393TIP3   OH234135   2.983   2.708   2.692  0.5690 -0.1172  0.5213
11393TIP3    H134136   3.015   2.671   2.610  1.0600  1.1685  0.1125
11393TIP3    H234137   2.898   2.747   2.669  1.1432  1.0882  0.3820
11394TIP3   OH234138   1.648   0.688   3.173 -0.1558 -0.4059  0.3480
11394TIP3    H134139   1.712   0.756   3.150 -1.7397  0.9079 -0.3976
11394TIP3    H234140   1.681   0.652   3.256 -0.2736  2.7192  1.8979
11395TIP3   OH234141   1.235   2.361   4.561  0.5207 -0.0414  0.0845
11395TIP3    H134142   1.167   2.294   4.562 -0.7007  1.0982 -1.2168
11395TIP3    H234143   1.314   2.315   4.530 -0.2888 -0.8847 -0.8002
11396TIP3   OH234144   0.949   1.902   5.150 -0.1738  0.4677  0.3704
11396TIP3    H134145   0.972   1.872   5.238  2.2110 -1.0678 -0.6529
11396TIP3    H234146   0.912   1.825   5.107  2.1023  0.0194 -1.0012
11397TIP3   OH234147   6.407   7.664   3.804  0.0815 -0.3245  0.1000
11397TIP3    H134148   6.350   7.739   3.786 -0.6939 -0.9652 -0.1941
11397TIP3    H234149   6.447   7.644   3.719  1.0176  0.3393  0.3813
11398TIP3   OH234150   5.109   3.813   1.353  0.1279 -0.1038  0.1950
11398TIP3    H134151   5.037   3.860   1.313 -0.1015 -1.2600 -0.8090
11398TIP3    H234152   5.182   3.875   1.352  0.1475 -0.1094 -2.1187
11399TIP3   OH234153   7.190   0.589   2.601 -0.4086 -0.2692 -0.2002
11399TIP3    H134154   7.241   0.661   2.637 -2.0139  0.6511  0.3391
11399TIP3    H234155   7.198   0.519   2.666 -0.9279  0.3477  0.5389
11400TIP3   OH234156   1.654   7.246   6.417 -0.3091  0.1041 -0.1065
11400TIP3    H134157   1.712   7.179   6.452  0.9897  2.2156  2.1570
11400TIP3    H234158   1.695   7.273   6.335  0.9326  0.2349  0.5233
11401TIP3   OH234159   8.244   4.772   1.877 -0.8510 -0.0430  0.3900
11401TIP3    H134160   8.156   4.751   1.846 -1.4380 -0.0143  1.9169
11401TIP3    H234161   8.289   4.687   1.881 -0.9920 -0.1297  0.1431
11402TIP3   OH234162   6.061   7.098   1.707  0.3087  0.2449 -0.2604
11402TIP3    H134163   6.060   7.184   1.749  0.5158  1.0002 -1.7267
11402TIP3    H234164   6.150   7.064   1.722  0.9114  1.2239 -1.4221
11403TIP3   OH234165   7.800   7.262   6.443  0.2491  0.0926 -0.2863
11403TIP3    H134166   7.881   7.246   6.491 -0.2319  0.2467  0.5873
11403TIP3    H234167   7.797   7.193   6.378  0.0708 -1.1481  1.0022
11404TIP3   OH234168   7.165   5.039   5.308  0.0873 -0.1254  0.2571
11404TIP3    H134169   7.150   5.104   5.239 -0.3972 -1.5531 -1.0626
11404TIP3    H234170   7.102   5.063   5.376  0.6553  1.3975  0.2909
11405TIP3   OH234171   7.686   0.789   4.597 -0.1202  0.0569 -0.5201
11405TIP3    H134172   7.739   0.837   4.533  0.7131 -0.1473  0.0046
11405TIP3    H234173   7.731   0.802   4.680 -0.2799 -1.0330 -0.2498
11406TIP3   OH234174   6.947   3.232   5.403  0.4361 -0.6216  0.2852
11406TIP3    H134175   6.994   3.285   5.468  0.5493 -1.0928  0.5939
11406TIP3    H234176   6.986   3.257   5.319  2.2002 -1.9598  0.6497
11407TIP3   OH234177   4.738   7.692   5.781 -0.0972  0.2553  0.6581
11407TIP3    H134178   4.672   7.639   5.736  0.2602  0.4076 -0.0648
11407TIP3    H234179   4.689   7.743   5.844 -0.9327  1.6621 -1.0442
11408TIP3   OH234180   3.604   1.059   0.153  0.4212  0.2649  0.6026
11408TIP3    H134181   3.537   1.052   0.085  1.0656 -0.7873  0.0230
11408TIP3    H234182   3.657   1.135   0.127  0.7204 -0.1811 -0.1671
11409TIP3   OH234183   2.724   1.329   1.324 -0.0579 -0.2110  0.2878
11409TIP3    H134184   2.758   1.255   1.274 -1.7003 -0.1013 -1.0904
11409TIP3    H234185   2.666   1.289   1.389  1.0717 -0.2671  1.2925
11410TIP3   OH234186   2.472   6.516   5.399  0.1835  0.3357 -0.3409
11410TIP3    H134187   2.514   6.491   5.317  1.1942  0.2810  0.1841
11410TIP3    H234188   2.524   6.589   5.431 -0.2649  0.4152  0.2118
11411TIP3   OH234189   4.278   3.898   1.564 -0.1516 -0.0255  0.4042
11411TIP3    H134190   4.192   3.880   1.602 -1.3473  0.5631 -1.8497
11411TIP3    H234191   4.296   3.822   1.509 -1.0390  1.4189 -2.0555
11412TIP3   OH234192   7.509   2.516   5.946 -0.5933 -0.0692 -0.5269
11412TIP3    H134193   7.426   2.511   5.898 -0.2131  0.6240 -1.2820
11412TIP3    H234194   7.564   2.449   5.905 -0.4532  0.1478 -0.6963
11413TIP3   OH234195   1.432   0.969   5.588  0.2333 -0.3162  0.7578
11413TIP3    H134196   1.519   0.939   5.560  1.0526  0.6927  2.0938
11413TIP3    H234197   1.420   0.931   5.675 -2.0913 -3.0628 -0.5833
11414TIP3   OH234198   2.298   2.367   2.018 -0.2379  0.4319  0.2990
11414TIP3    H134199   2.293   2.360   1.923  1.7851 -0.5784  0.2253
11414TIP3    H234200   2.224   2.423   2.042 -0.0033  1.8155 -1.9736
11415TIP3   OH234201   3.227   3.559   3.870 -0.3546  0.4224 -0.2675
11415TIP3    H134202   3.264   3.645   3.891  1.6877 -0.2431 -0.8852
11415TIP3    H234203   3.276   3.497   3.924  0.5411 -0.6579 -2.2171
11416TIP3   OH234204   4.357   2.595   6.493 -0.2049  0.3941 -0.6002
11416TIP3    H134205   4.339   2.512   6.539 -1.3088  0.2978 -1.1715
11416TIP3    H234206   4.298   2.658   6.535 -0.6975  0.4658 -1.3877
11417TIP3   OH234207   1.699   5.765   3.925  0.8737 -0.3695 -0.2187
11417TIP3    H134208   1.655   5.801   4.002  0.4905 -0.3453 -0.4440
11417TIP3    H234209   1.740   5.841   3.884  1.2191 -0.4081  0.0488
11418TIP3   OH234210   3.361   2.761   0.498 -0.4197  0.3029  0.1235
11418TIP3    H134211   3.413   2.749   0.419  0.0993  2.6830  0.0277
11418TIP3    H234212   3.273   2.781   0.465 -1.0825 -2.0469  0.2662
11419TIP3   OH234213   7.295   4.233   0.538 -0.3871 -0.2810 -0.5516
11419TIP3    H134214   7.348   4.271   0.468  0.5156  2.9187  1.6771
11419TIP3    H234215   7.217   4.287   0.541 -0.2666 -0.1534  1.0841
11420TIP3   OH234216   4.735   2.303   5.214 -0.1106  0.5384  0.2571
11420TIP3    H134217   4.812   2.298   5.156  0.4186  0.2494  0.9733
11420TIP3    H234218   4.669   2.347   5.161  0.1397 -0.3200 -0.8155
11421TIP3   OH234219   8.097   5.017   5.479  0.3614 -0.1111 -0.3149
11421TIP3    H134220   8.175   5.072   5.476  0.1463  0.1708 -1.0713
11421TIP3    H234221   8.032   5.065   5.428 -0.5760  0.0379  0.9797
11422TIP3   OH234222   8.064   5.310   1.604 -0.2482 -0.6049 -0.4896
11422TIP3    H134223   8.090   5.299   1.696  1.9326  0.0039 -0.9774
11422TIP3    H234224   8.120   5.249   1.556  0.5470  0.9410 -1.6258
11423TIP3   OH234225   5.508   7.841   0.636 -0.4854 -0.4594  0.2576
11423TIP3    H134226   5.538   7.781   0.704  1.0727 -1.5401 -1.2932
11423TIP3    H234227   5.505   7.787   0.556  0.7778  1.4343 -1.1636
11424TIP3   OH234228   5.790   1.794   1.761  0.1145  0.2920  0.4520
11424TIP3    H134229   5.852   1.769   1.692  1.1706  1.0938  1.0750
11424TIP3    H234230   5.767   1.711   1.804  1.2607  0.0434  0.6135
11425TIP3   OH234231   6.142   6.385   5.756 -1.0672 -0.5035 -0.7326
11425TIP3    H134232   6.087   6.415   5.684  0.1508  1.1520 -1.0259
11425TIP3    H234233   6.204   6.324   5.715 -1.2148 -0.5901 -0.8293
11426TIP3   OH234234   7.220   2.152   2.508 -0.2311 -0.4854 -0.0077
11426TIP3    H134235   7.214   2.115   2.596  1.1406 -2.2617 -0.6008
11426TIP3    H234236   7.159   2.226   2.509  0.5842  0.2670  2.7582
11427TIP3   OH234237   8.012   6.098   0.741  0.1504 -0.5106 -0.5818
11427TIP3    H134238   7.958   6.174   0.719  0.5235 -0.1856 -0.4108
11427TIP3    H234239   8.005   6.040   0.665 -0.0592 -0.2553 -0.7592
11428TIP3   OH234240   2.991   0.575   1.945 -0.2464  0.2461 -0.3374
11428TIP3    H134241   2.898   0.560   1.929 -0.3782  0.5724  0.0832
11428TIP3    H234242   2.994   0.657   1.994  0.1721 -0.3506  0.6789
11429TIP3   OH234243   1.427   0.188   5.793  0.0263  0.2627 -0.9758
11429TIP3    H134244   1.514   0.149   5.796  0.9050  2.1546 -1.1491
11429TIP3    H234245   1.439   0.279   5.818 -2.0106  0.4243 -0.3543
11430TIP3   OH234246   1.561   1.506   4.518  0.7201 -0.4020  0.8366
11430TIP3    H134247   1.632   1.467   4.569  0.1271  0.1629  2.1177
11430TIP3    H234248   1.525   1.432   4.467  3.0369 -0.4664 -0.8817
11431TIP3   OH234249   3.234   5.140   1.734  0.6331 -0.3573  0.2654
11431TIP3    H134250   3.254   5.186   1.653  1.6903  0.2199  0.8410
11431TIP3    H234251   3.271   5.053   1.722 -0.1003 -0.6066 -0.2561
11432TIP3   OH234252   7.034   5.502   1.030 -0.7790  0.1075  0.2222
11432TIP3    H134253   7.002   5.448   0.958 -0.7704 -0.4076  0.5993
11432TIP3    H234254   7.006   5.591   1.008 -1.1447 -0.1096 -0.1988
11433TIP3   OH234255   4.708   6.027   1.411  0.6208 -0.6898  0.1043
11433TIP3    H134256   4.787   6.008   1.361  0.0119 -0.3653 -1.0337
11433TIP3    H234257   4.737   6.085   1.481  1.4281 -0.7660 -0.1596
11434TIP3   OH234258   5.808   6.380   0.450 -0.1176 -0.2085 -0.3043
11434TIP3    H134259   5.866   6.447   0.414 -0.8612 -0.8162 -2.8423
11434TIP3    H234260   5.725   6.392   0.404 -0.7742 -1.8383  0.3675
11435TIP3   OH234261   3.448   5.658   5.410 -0.1201 -0.3134  0.4702
11435TIP3    H134262   3.452   5.562   5.416  2.0087 -0.4395 -1.6988
11435TIP3    H234263   3.537   5.687   5.428 -0.1961  1.0541 -1.0981
11436TIP3   OH234264   3.391   0.569   2.515  0.2239  0.0511 -0.4303
11436TIP3    H134265   3.428   0.488   2.479 -0.1637 -0.1006 -0.4840
11436TIP3    H234266   3.456   0.636   2.493 -0.8156  0.3067 -3.0735
11437TIP3   OH234267   3.837   7.003   4.503 -0.1168 -0.5423  0.1928
11437TIP3    H134268   3.837   6.910   4.481  1.6390 -0.1857 -1.5344
11437TIP3    H234269   3.910   7.014   4.564 -0.3416 -0.2852  0.4235
11438TIP3   OH234270   4.890   3.652   3.966  0.0976 -0.1568  0.3471
11438TIP3    H134271   4.882   3.601   3.885 -0.3781 -1.5045  1.2239
11438TIP3    H234272   4.821   3.619   4.023  0.0715  1.1679  1.1135
11439TIP3   OH234273   2.299   4.946   4.732 -0.7001 -0.4262  0.4882
11439TIP3    H134274   2.216   4.977   4.768  0.3380  4.2652 -0.4851
11439TIP3    H234275   2.361   4.952   4.806  0.0843  3.1393 -0.2394
11440TIP3   OH234276   1.829   0.553   6.206 -0.4698  0.5275 -0.1401
11440TIP3    H134277   1.809   0.543   6.113  0.4804 -0.0829 -0.2931
11440TIP3    H234278   1.912   0.507   6.218  0.0028  1.5698  0.7871
11441TIP3   OH234279   1.333   5.682   0.024  0.3272 -0.2008  0.4128
11441TIP3    H134280   1.268   5.639  -0.032  0.7523 -1.2830  0.7160
11441TIP3    H234281   1.305   5.663   0.113  0.3319  0.4647  0.5618
11442TIP3   OH234282   1.577   5.134   3.973 -0.3626 -0.0044 -0.5054
11442TIP3    H134283   1.656   5.092   4.008  0.7114  2.3557  0.1063
11442TIP3    H234284   1.542   5.184   4.047  0.4359  2.9668 -2.0160
11443TIP3   OH234285   1.119   0.529   2.060  0.0527 -0.2575  0.5409
11443TIP3    H134286   1.050   0.494   2.117  1.3984 -1.2169  1.6550
11443TIP3    H234287   1.144   0.456   2.004  0.2760  0.0223  0.2732
11444TIP3   OH234288   2.410   3.160   3.812  0.4124  0.1428 -0.2168
11444TIP3    H134289   2.387   3.182   3.722 -2.1542  0.1119  0.3666
11444TIP3    H234290   2.344   3.097   3.840  0.3017  1.1822  2.1241
11445TIP3   OH234291   0.586   2.623   2.882  0.1057 -0.0725 -0.0225
11445TIP3    H134292   0.509   2.580   2.918  0.1016  0.0965  0.1769
11445TIP3    H234293   0.562   2.644   2.792  0.9334 -2.5547 -0.8887
11446TIP3   OH234294   0.949   2.700   4.996  0.1022  0.1344  0.0228
11446TIP3    H134295   1.001   2.639   4.943 -0.2303  0.1404 -0.3132
11446TIP3    H234296   0.865   2.706   4.950 -0.8667 -1.2611  1.5242
11447TIP3   OH234297   7.648   0.875   0.603  0.1939 -0.1816  0.1165
11447TIP3    H134298   7.731   0.920   0.589  0.0071 -0.2027 -1.2173
11447TIP3    H234299   7.584   0.946   0.612  0.4362 -0.1548  1.8379
11448TIP3   OH234300   6.437   2.835   3.049  0.2554  0.0438 -0.3652
11448TIP3    H134301   6.364   2.871   2.998  0.1890 -0.0979 -0.3702
11448TIP3    H234302   6.494   2.910   3.064  0.5697 -0.0291 -1.1478
11449TIP3   OH234303   3.459   4.022   4.462 -0.4694  0.3241 -1.0184
11449TIP3    H134304   3.375   3.977   4.454 -0.5734 -0.1894  1.8801
11449TIP3    H234305   3.525   3.952   4.461 -0.5295  0.1024  1.9801
11450TIP3   OH234306   2.830   6.936   2.431  0.0736  0.3743 -0.2872
11450TIP3    H134307   2.922   6.957   2.415  0.2350  0.9514  1.2157
11450TIP3    H234308   2.827   6.841   2.437  0.6574  0.3792  0.0937
11451TIP3   OH234309   4.372   2.727   3.444  0.4999 -0.6580  0.1139
11451TIP3    H134310   4.423   2.791   3.393  0.2668  0.0609  0.7544
11451TIP3    H234311   4.429   2.651   3.450  0.9168 -0.3993 -0.3999
11452TIP3   OH234312   3.466   3.871   1.535  0.4888 -0.2747 -0.1608
11452TIP3    H134313   3.415   3.794   1.559 -0.8045  0.2215 -1.1586
11452TIP3    H234314   3.404   3.927   1.490  1.1444  1.7869  1.3302
11453TIP3   OH234315   5.549   3.540   6.449 -0.0167 -0.3337 -0.4667
11453TIP3    H134316   5.540   3.446   6.434 -2.2693 -0.1420 -0.5729
11453TIP3    H234317   5.644   3.554   6.453  0.3791 -2.5514 -0.6939
11454TIP3   OH234318   3.095   0.092   3.326 -0.1209 -0.2032 -0.1325
11454TIP3    H134319   3.120   0.109   3.416 -1.8004  1.4478  0.0871
11454TIP3    H234320   3.119   0.172   3.279  1.8424 -1.4735 -1.4643
11455TIP3   OH234321   8.291   3.348   5.632 -0.1800  0.3079  0.3602
11455TIP3    H134322   8.293   3.253   5.629 -0.8415  0.1821  2.2419
11455TIP3    H234323   8.232   3.374   5.562 -0.9164 -0.7574  0.5607
11456TIP3   OH234324   7.180   4.834   0.376 -0.0819 -0.2732 -0.3361
11456TIP3    H134325   7.176   4.834   0.280 -0.9298  2.6318 -0.3899
11456TIP3    H234326   7.113   4.771   0.403 -0.1313 -0.8086 -1.6343
11457TIP3   OH234327   0.039   1.754   3.450  0.6172 -0.6746  0.2933
11457TIP3    H134328   0.027   1.702   3.371  0.1633 -1.1976  0.7012
11457TIP3    H234329   0.134   1.758   3.462  0.6543 -1.9439  0.5981
11458TIP3   OH234330   4.051   6.540   5.011  0.5239 -0.1121  0.5712
11458TIP3    H134331   3.988   6.600   5.050  0.5799  1.7156 -1.8956
11458TIP3    H234332   4.060   6.469   5.075 -0.2709  2.0029  3.2242
11459TIP3   OH234333   8.075   3.894   4.467  0.3956 -0.7226 -0.3017
11459TIP3    H134334   8.087   3.928   4.379 -1.5876  0.3516 -0.2152
11459TIP3    H234335   8.025   3.962   4.513 -0.1332 -1.9896  1.1170
11460TIP3   OH234336   1.312   5.997   1.689  0.7521 -0.2545  0.2066
11460TIP3    H134337   1.302   6.073   1.748  1.0583 -0.2704  0.2812
11460TIP3    H234338   1.271   5.925   1.736  2.0768 -0.5444  0.9551
11461TIP3   OH234339   7.003   6.645   0.456 -0.0245  0.3778 -0.2600
11461TIP3    H134340   7.072   6.578   0.456  0.3988  0.7187 -2.4754
11461TIP3    H234341   6.929   6.601   0.414  0.3443  1.3068 -1.9910
11462TIP3   OH234342   2.837   5.856   3.462  0.4814 -0.1283  0.2488
11462TIP3    H134343   2.850   5.935   3.514 -0.0554  0.0196  0.1585
11462TIP3    H234344   2.883   5.873   3.380 -0.3036  0.4168 -0.0903
11463TIP3   OH234345   8.158   6.486   3.888  0.4290  0.7138 -0.1718
11463TIP3    H134346   8.251   6.507   3.895  0.4008  0.5443  1.1026
11463TIP3    H234347   8.116   6.544   3.951 -0.5172  1.7343 -1.6929
11464TIP3   OH234348   5.864   7.672   6.752 -0.3441 -0.0731 -0.4905
11464TIP3    H134349   5.776   7.650   6.722 -0.0119  0.3238 -1.7946
11464TIP3    H234350   5.864   7.648   6.845 -2.2027  1.0410 -0.1530
11465TIP3   OH234351   6.811   4.197   1.739 -0.6453 -0.2649 -0.2394
11465TIP3    H134352   6.828   4.152   1.657  0.1840 -1.9511  0.8002
11465TIP3    H234353   6.866   4.274   1.737 -1.3728  0.2477 -1.6605
11466TIP3   OH234354   3.795   5.365   3.365  0.7129 -1.0803  0.3901
11466TIP3    H134355   3.866   5.323   3.316  0.8581  0.0225 -0.3663
11466TIP3    H234356   3.832   5.382   3.452  0.6519 -2.4737  0.7157
11467TIP3   OH234357   0.507   4.411   5.686  0.9398 -0.0104  0.3266
11467TIP3    H134358   0.570   4.377   5.622 -0.7013  1.6755 -2.3987
11467TIP3    H234359   0.544   4.496   5.711  0.8624 -0.0215  0.4725
11468TIP3   OH234360   6.643   4.878   2.319  0.4527 -0.0101 -0.1923
11468TIP3    H134361   6.703   4.807   2.296 -1.7717 -1.7538 -0.9432
11468TIP3    H234362   6.661   4.895   2.412  0.8121 -1.8035  0.1012
11469TIP3   OH234363   3.199   6.655   3.460 -0.7083 -0.0089  0.5234
11469TIP3    H134364   3.234   6.738   3.494  0.1076 -0.5211  0.9623
11469TIP3    H234365   3.276   6.607   3.431 -1.3958  0.6695 -2.7548
11470TIP3   OH234366   2.086   2.102   5.620 -0.4882 -0.3171 -0.3190
11470TIP3    H134367   2.121   2.035   5.679 -0.2718  1.0050  1.1319
11470TIP3    H234368   2.044   2.053   5.549  2.6319 -1.9973 -1.1779
11471TIP3   OH234369   1.326   1.894   1.519 -0.7927  0.0977 -0.4506
11471TIP3    H134370   1.279   1.831   1.465 -0.6540 -0.0384 -0.4114
11471TIP3    H234371   1.404   1.917   1.467 -0.6966  0.0214 -0.3407
11472TIP3   OH234372   4.010   1.184   0.832 -0.0382 -1.0945 -0.3596
11472TIP3    H134373   4.033   1.194   0.739  1.1146  0.7146  0.0665
11472TIP3    H234374   4.095   1.181   0.877 -0.5759  0.2096  0.7974
11473TIP3   OH234375   1.005   4.594   1.005  0.0413  0.0269 -0.0197
11473TIP3    H134376   1.050   4.617   1.087  0.2142  0.6534 -0.2895
11473TIP3    H234377   0.914   4.582   1.031  0.1184  0.0842  0.2905
11474TIP3   OH234378   2.618   5.812   6.267 -0.1716 -0.5278  0.4202
11474TIP3    H134379   2.570   5.786   6.188 -0.0147 -1.0852  0.4998
11474TIP3    H234380   2.671   5.735   6.288  1.7836  0.5152 -0.4331
11475TIP3   OH234381   7.637   6.929   2.557  0.4943  0.2346  0.4026
11475TIP3    H134382   7.634   6.839   2.590 -1.3400 -0.3402 -1.2132
11475TIP3    H234383   7.556   6.968   2.587 -0.3962  0.2273 -1.8140
11476TIP3   OH234384   5.857   5.723   1.643 -0.5816  0.5967  0.0021
11476TIP3    H134385   5.866   5.663   1.717  0.6202  0.5860 -0.1369
11476TIP3    H234386   5.837   5.807   1.683  1.5219  0.9211  0.4846
11477TIP3   OH234387   5.638   7.143   0.730 -0.9066 -0.3083  0.0326
11477TIP3    H134388   5.616   7.185   0.813 -1.5196 -1.4126  0.4481
11477TIP3    H234389   5.728   7.113   0.740  0.1873  2.3775 -0.9056
11478TIP3   OH234390   1.887   6.876   1.490  0.3830  0.1550  0.0540
11478TIP3    H134391   1.811   6.836   1.447  0.1435  0.7377 -0.0745
11478TIP3    H234392   1.898   6.961   1.446 -0.1826  0.9985  1.4837
11479TIP3   OH234393   7.872   4.172   5.660  0.6744 -0.2703 -0.2620
11479TIP3    H134394   7.950   4.226   5.665  0.4967 -0.0862  0.6998
11479TIP3    H234395   7.807   4.227   5.615  0.6358  0.1514  0.2998
11480TIP3   OH234396   5.086   0.304   5.616 -0.5590 -0.1100  0.1484
11480TIP3    H134397   5.118   0.387   5.651 -1.0129 -0.3847  1.2767
11480TIP3    H234398   4.998   0.295   5.653 -1.4609  0.0074 -1.8352
11481TIP3   OH234399   1.163   7.063   0.219 -0.5937 -0.0701 -0.5365
11481TIP3    H134400   1.120   7.004   0.156 -1.8169  0.2549 -0.0365
11481TIP3    H234401   1.204   7.004   0.283  0.5047 -0.3983 -1.5076
11482TIP3   OH234402   2.560   1.716   6.212  0.3034 -0.5466  0.0627
11482TIP3    H134403   2.650   1.697   6.239  0.6292  0.9009  0.0728
11482TIP3    H234404   2.553   1.811   6.217 -1.0513 -0.5914 -0.5264
11483TIP3   OH234405   0.548   2.763   6.747 -0.6667  0.0520  0.3323
11483TIP3    H134406   0.630   2.717   6.763 -0.7006  0.0497  0.4932
11483TIP3    H234407   0.502   2.708   6.683  0.4210  1.1364 -1.5055
11484TIP3   OH234408   1.642   0.140   1.855  0.5947  0.4633  0.0408
11484TIP3    H134409   1.652   0.115   1.764  1.1282 -0.5143  0.3542
11484TIP3    H234410   1.640   0.235   1.854  0.7611  0.4620 -0.9688
11485TIP3   OH234411   7.216   0.664   2.116  1.4642  0.0423 -0.1865
11485TIP3    H134412   7.200   0.714   2.196  1.1431  0.8541 -0.7523
11485TIP3    H234413   7.167   0.582   2.129  1.4519  0.1502  0.4627
11486TIP3   OH234414   1.011   1.506   1.538 -0.3541  0.6824 -0.1910
11486TIP3    H134415   1.088   1.454   1.558 -0.2692  0.9281  0.1358
11486TIP3    H234416   0.942   1.442   1.522 -0.9697  0.3866  2.9065
11487TIP3   OH234417   0.892   6.804   2.484 -0.1738 -0.1204  0.2471
11487TIP3    H134418   0.803   6.790   2.516 -0.5321  1.2679 -0.0547
11487TIP3    H234419   0.944   6.817   2.563 -0.4210 -0.0362  0.3985
11488TIP3   OH234420   4.346   0.658   0.060  0.2258  0.4258  0.0783
11488TIP3    H134421   4.289   0.607   0.004  1.3336  0.3306 -0.9980
11488TIP3    H234422   4.301   0.661   0.145 -1.4681  0.5699 -0.7947
11489TIP3   OH234423   3.355   3.426   0.056 -0.0485 -0.0264 -0.2574
11489TIP3    H134424   3.279   3.390   0.102 -0.2904  0.5447 -0.2029
11489TIP3    H234425   3.346   3.520   0.065  0.6414  0.0481 -0.2992
11490TIP3   OH234426   1.772   1.162   5.006 -0.1132  0.7410 -0.2600
11490TIP3    H134427   1.741   1.203   5.087  0.3079  0.6566 -0.0523
11490TIP3    H234428   1.704   1.097   4.985 -0.1567  0.6659  0.1019
11491TIP3   OH234429   7.261   0.446   0.874 -0.2677  0.2790  0.0556
11491TIP3    H134430   7.277   0.363   0.919 -0.5570  0.3309  0.2638
11491TIP3    H234431   7.315   0.509   0.921 -0.3178  0.2717  0.1243
11492TIP3   OH234432   2.840   1.654   6.283  0.2649 -0.2434  0.1954
11492TIP3    H134433   2.847   1.666   6.377 -0.4680  1.8734  0.0237
11492TIP3    H234434   2.927   1.672   6.249  0.3581 -0.3271  0.3873
11493TIP3   OH234435   7.913   3.228   3.643 -0.5555 -0.0611 -0.0292
11493TIP3    H134436   7.906   3.303   3.584  0.6530 -0.8692 -1.2654
11493TIP3    H234437   7.973   3.256   3.711 -0.0816  0.0962 -0.5066
11494TIP3   OH234438   4.858   2.142   6.709 -0.3951 -0.7141  0.2024
11494TIP3    H134439   4.902   2.073   6.659  1.9646 -2.2957  4.0382
11494TIP3    H234440   4.906   2.222   6.686  1.1743 -1.5319  0.4875
11495TIP3   OH234441   1.567   6.932   3.949 -0.2592  0.1021  0.0375
11495TIP3    H134442   1.517   6.903   4.026  0.8311 -0.3991  0.5808
11495TIP3    H234443   1.561   6.858   3.888  0.7343 -0.4372  0.5625
11496TIP3   OH234444   3.985   0.521   4.028 -0.5758 -0.1046  0.1753
11496TIP3    H134445   3.989   0.476   4.112  1.0241  0.0628  0.2217
11496TIP3    H234446   4.014   0.456   3.964 -0.1218  0.2655 -0.0079
11497TIP3   OH234447   3.546   2.411   0.880  0.2060 -0.2290  0.2946
11497TIP3    H134448   3.455   2.431   0.901  0.2293  0.0431  0.1394
11497TIP3    H234449   3.540   2.340   0.816  0.0357  1.0737 -1.1790
11498TIP3   OH234450   7.767   0.426   6.712  0.2819 -0.1582 -0.0832
11498TIP3    H134451   7.861   0.415   6.730  0.3992  0.1024 -0.5209
11498TIP3    H234452   7.760   0.513   6.673 -0.1923 -0.0334  0.2671
11499TIP3   OH234453   8.030   7.325   1.078 -0.0308 -0.1567 -0.4154
11499TIP3    H134454   8.116   7.284   1.077 -0.7551 -1.8234  0.5972
11499TIP3    H234455   8.006   7.333   0.986  1.7751  1.7022 -0.7878
11500TIP3   OH234456   5.069   0.504   0.916 -0.3333 -0.3336 -0.1008
11500TIP3    H134457   5.027   0.510   0.831 -0.2275  0.8402 -0.0878
11500TIP3    H234458   5.035   0.423   0.954 -2.2311  0.3342 -0.2726
11501TIP3   OH234459   4.465   1.955   3.242  0.0071  0.1224 -0.3433
11501TIP3    H134460   4.428   1.993   3.162  0.3645  1.1343 -0.0376
11501TIP3    H234461   4.391   1.951   3.303 -0.1757 -0.2872 -0.5831
11502TIP3   OH234462   4.589   0.507   3.843  0.4611 -0.2465 -0.0360
11502TIP3    H134463   4.629   0.581   3.887  0.6789 -0.6429  0.4385
11502TIP3    H234464   4.663   0.454   3.813  0.3186  0.0436 -0.9251
11503TIP3   OH234465   2.786   2.032   0.803  0.8915  0.3152  0.0992
11503TIP3    H134466   2.854   2.013   0.868  2.0272  0.7484 -0.9233
11503TIP3    H234467   2.809   2.119   0.769 -1.6126  1.6498  1.4959
11504TIP3   OH234468   3.288   3.830   2.180  0.3577  0.5499  0.0906
11504TIP3    H134469   3.335   3.776   2.117 -0.9267  1.2368 -1.5027
11504TIP3    H234470   3.260   3.769   2.248  0.0534 -0.5732 -1.0094
11505TIP3   OH234471   3.541   1.336   0.869 -0.2815 -0.6989 -0.3724
11505TIP3    H134472   3.529   1.285   0.789  0.1296 -0.5689 -0.5198
11505TIP3    H234473   3.626   1.378   0.858 -0.7251  0.2354 -0.3780
11506TIP3   OH234474   5.087   2.509   2.976 -0.4674 -0.2124 -0.3962
11506TIP3    H134475   5.140   2.436   3.008 -0.6239 -1.2037 -2.2177
11506TIP3    H234476   4.998   2.473   2.970 -0.3437 -0.3167 -2.4368
11507TIP3   OH234477   7.763   4.884   3.663 -0.0395  0.1667  0.7259
11507TIP3    H134478   7.787   4.894   3.570  1.0852  0.5742  1.0364
11507TIP3    H234479   7.670   4.904   3.666 -0.0472  0.3548 -0.2853
11508TIP3   OH234480   3.043   6.017   6.399 -0.3425 -0.2496 -0.2977
11508TIP3    H134481   2.948   6.031   6.400 -0.3972 -0.0383 -2.5161
11508TIP3    H234482   3.054   5.925   6.423 -1.1655 -0.4266 -0.5599
11509TIP3   OH234483   6.884   4.207   3.341 -0.1094  0.3969 -0.1070
11509TIP3    H134484   6.792   4.231   3.332 -0.3214 -0.3756 -0.0497
11509TIP3    H234485   6.929   4.290   3.359 -1.0611  0.5194  1.9358
11510TIP3   OH234486   0.542   4.893   2.123 -0.6234 -0.2031  0.2297
11510TIP3    H134487   0.522   4.985   2.105 -1.3336 -0.3139  0.4310
11510TIP3    H234488   0.605   4.895   2.195  0.0593  0.1483 -0.3649
11511TIP3   OH234489   7.927   6.338   4.622  0.0360  1.0276  0.7174
11511TIP3    H134490   7.915   6.246   4.599 -0.4739  0.4623  3.0120
11511TIP3    H234491   7.839   6.373   4.630  0.2221  2.1101 -1.3972
11512TIP3   OH234492   4.976   3.672   5.165  1.2966 -0.4944 -0.0492
11512TIP3    H134493   4.923   3.601   5.128  1.0172 -0.6458  0.6184
11512TIP3    H234494   5.026   3.706   5.091  1.2182 -1.2003 -0.4355
11513TIP3   OH234495   6.798   2.689   0.968 -0.4155  0.3186 -0.3277
11513TIP3    H134496   6.800   2.781   0.942 -2.3656 -0.0651 -2.0989
11513TIP3    H234497   6.718   2.682   1.021 -1.2711 -0.6401 -1.6695
11514TIP3   OH234498   7.129   6.765   6.588  0.9959  0.1180 -0.2367
11514TIP3    H134499   7.060   6.704   6.613  2.0708 -0.6333  0.9908
11514TIP3    H234500   7.108   6.846   6.634  2.0203 -0.7356  1.8262
11515TIP3   OH234501   3.852   7.336   6.430 -0.3595  0.2435 -0.5790
11515TIP3    H134502   3.923   7.326   6.367  0.8577 -1.1550  0.9209
11515TIP3    H234503   3.815   7.249   6.438 -2.3882  0.9691 -1.4074
11516TIP3   OH234504   5.021   3.186   1.421  0.0278  0.0338  0.0473
11516TIP3    H134505   5.006   3.121   1.491  0.5084 -0.2479 -0.1060
11516TIP3    H234506   5.116   3.185   1.408 -0.1454 -0.6265 -1.2893
11517TIP3   OH234507   3.965   3.043   2.807  0.0378 -0.1238 -0.1180
11517TIP3    H134508   4.045   3.004   2.772 -0.1581 -0.0404 -0.6595
11517TIP3    H234509   3.902   2.971   2.812 -0.5102  0.2223 -1.6740
11518TIP3   OH234510   7.862   2.928   1.883 -0.2403  0.3960  0.1409
11518TIP3    H134511   7.869   3.001   1.823  0.2550 -0.0890 -0.4016
11518TIP3    H234512   7.951   2.895   1.893  0.5936  3.2142  4.6991
11519TIP3   OH234513   5.803   7.481   5.360  0.5477  0.4851  0.1323
11519TIP3    H134514   5.711   7.505   5.352  0.1750 -1.2413 -1.4807
11519TIP3    H234515   5.834   7.475   5.270  1.6860 -0.9573  0.5837
11520TIP3   OH234516   6.278   2.941   0.680 -0.8152 -0.1577 -0.2604
11520TIP3    H134517   6.246   2.986   0.602 -2.6344  2.7026  1.9556
11520TIP3    H234518   6.333   3.006   0.725 -0.0888 -1.6079  1.0527
11521TIP3   OH234519   7.657   7.471   4.100  0.5964  0.1244 -0.0796
11521TIP3    H134520   7.739   7.504   4.063  1.0140 -1.7918 -0.9629
11521TIP3    H234521   7.682   7.433   4.184  0.3569  0.7391  0.2800
11522TIP3   OH234522   7.735   1.584   3.856 -0.3412  0.1290  0.0655
11522TIP3    H134523   7.756   1.673   3.883 -0.1729 -0.1372  0.8341
11522TIP3    H234524   7.810   1.557   3.803 -0.3598  0.4097 -0.1088
11523TIP3   OH234525   5.495   0.882   2.609  0.1761 -0.5793 -0.1457
11523TIP3    H134526   5.453   0.809   2.653 -0.3547 -0.0737  0.2010
11523TIP3    H234527   5.464   0.960   2.656  1.3889 -0.1772  0.0387
11524TIP3   OH234528   6.792   1.583   2.801 -0.1772  0.1297 -0.4130
11524TIP3    H134529   6.834   1.497   2.801 -2.3734 -1.0514 -1.6937
11524TIP3    H234530   6.706   1.567   2.761 -1.4907  2.5337  1.2140
11525TIP3   OH234531   4.471   3.794   1.369 -0.0390 -0.5608  0.5522
11525TIP3    H134532   4.484   3.825   1.279  0.0293  0.2954  0.8503
11525TIP3    H234533   4.559   3.772   1.399  0.0914  0.2889  0.8083
11526TIP3   OH234534   0.362   1.497   1.572 -0.3449  0.1803 -0.2945
11526TIP3    H134535   0.327   1.428   1.517 -0.1181 -0.3527  0.2201
11526TIP3    H234536   0.452   1.471   1.590 -0.2902  0.5486 -0.0041
11527TIP3   OH234537   1.490   4.386   1.358  0.0254  0.4668  0.3911
11527TIP3    H134538   1.541   4.466   1.368  0.8157 -0.1145  1.1950
11527TIP3    H234539   1.530   4.341   1.284  0.0965  0.4398  0.4457
11528TIP3   OH234540   0.163   0.465   2.698 -0.0876 -0.0019  0.2407
11528TIP3    H134541   0.165   0.521   2.775  0.4320  1.6030 -0.8876
11528TIP3    H234542   0.250   0.426   2.694  0.4488  1.1816 -0.3767
11529TIP3   OH234543   4.553   5.589   5.923 -0.3682 -0.4188 -0.1052
11529TIP3    H134544   4.631   5.635   5.954 -1.5963  1.0004  1.0706
11529TIP3    H234545   4.539   5.520   5.987  0.5821 -1.4823 -1.0013
11530TIP3   OH234546   1.827   5.768   3.407 -0.3407 -0.3269  0.0169
11530TIP3    H134547   1.773   5.690   3.413 -1.7919  0.7068  0.9133
11530TIP3    H234548   1.910   5.744   3.449 -1.0974 -1.1108  1.1021
11531TIP3   OH234549   4.247   6.232   4.094  0.0108  0.7598  0.1257
11531TIP3    H134550   4.189   6.301   4.061 -1.3099 -0.4535 -0.1622
11531TIP3    H234551   4.319   6.229   4.031 -0.8058  0.7139 -0.8280
11532TIP3   OH234552   3.633   2.222   4.842 -0.0898  0.1546  0.1081
11532TIP3    H134553   3.698   2.282   4.879 -0.9129 -0.3889  2.5746
11532TIP3    H234554   3.558   2.279   4.821 -0.5036  0.1733  1.5405
11533TIP3   OH234555   6.549   0.845   0.725 -0.0073 -0.3236  0.1212
11533TIP3    H134556   6.645   0.843   0.720  0.1591 -0.6404  2.1796
11533TIP3    H234557   6.531   0.863   0.818 -1.9572  1.2059 -0.4977
11534TIP3   OH234558   6.805   1.285   5.674  0.2757  0.2476 -0.3192
11534TIP3    H134559   6.830   1.357   5.616 -0.5223  1.1901  0.4789
11534TIP3    H234560   6.842   1.207   5.632  1.1037  1.0999 -1.2331
11535TIP3   OH234561   8.201   6.770   1.374 -0.4073  0.2471 -0.7631
11535TIP3    H134562   8.127   6.734   1.325  0.0961 -1.8660 -0.0836
11535TIP3    H234563   8.225   6.850   1.326 -1.6896 -0.2317 -2.2985
11536TIP3   OH234564   3.600   4.745   1.338  0.4119  0.8840  0.0491
11536TIP3    H134565   3.627   4.831   1.305 -0.7391  0.5504 -1.8873
11536TIP3    H234566   3.663   4.684   1.302 -0.1112  0.6594 -0.4922
11537TIP3   OH234567   2.262   4.400   1.597  0.2881  0.0948 -0.7660
11537TIP3    H134568   2.249   4.382   1.690  2.6899  2.4114  0.1579
11537TIP3    H234569   2.341   4.351   1.574 -1.6482 -2.5318 -2.4128
11538TIP3   OH234570   3.901   5.293   2.930  0.0368  0.6051 -0.0722
11538TIP3    H134571   3.968   5.292   2.862  0.5328 -0.3238  0.4114
11538TIP3    H234572   3.919   5.372   2.981  0.2477  0.7936 -0.4383
11539TIP3   OH234573   2.349   0.770   2.663 -0.0454  0.3721 -0.4666
11539TIP3    H134574   2.258   0.759   2.636 -0.0645 -0.5576 -0.0655
11539TIP3    H234575   2.361   0.706   2.734  0.6282  1.1991  0.1885
11540TIP3   OH234576   6.292   3.427   3.009 -0.4299 -0.2002  0.4945
11540TIP3    H134577   6.309   3.396   2.919 -1.4209  0.7023 -0.0267
11540TIP3    H234578   6.292   3.522   3.001 -0.8072 -0.1235  1.4113
11541TIP3   OH234579   4.126   3.155   0.842  0.5657  0.4419  0.3441
11541TIP3    H134580   4.061   3.085   0.846 -1.1631  1.9488 -0.0273
11541TIP3    H234581   4.203   3.118   0.885 -0.2894 -1.6488  0.2054
11542TIP3   OH234582   3.076   0.318   0.648 -0.1957  0.2671  0.3283
11542TIP3    H134583   3.160   0.280   0.623 -1.2742 -0.4305 -2.7374
11542TIP3    H234584   3.021   0.243   0.671 -0.6070  0.5083  0.1515
11543TIP3   OH234585   3.220   4.996   6.297  0.4593 -0.8420 -0.5236
11543TIP3    H134586   3.234   4.980   6.390  0.5995 -0.1440 -0.4192
11543TIP3    H234587   3.142   4.946   6.276  0.3855 -0.9503 -0.0118
11544TIP3   OH234588   5.435   1.273   3.253 -0.8462 -0.5622 -0.0571
11544TIP3    H134589   5.448   1.257   3.346 -1.8073  1.4217  0.4760
11544TIP3    H234590   5.345   1.244   3.236 -1.0686  0.1252 -0.0857
11545TIP3   OH234591   2.653   7.560   4.001  0.6433 -0.2572 -0.6208
11545TIP3    H134592   2.579   7.501   4.018  0.2616 -0.0501 -1.5339
11545TIP3    H234593   2.727   7.502   3.985  0.5020 -0.4733 -0.4938
11546TIP3   OH234594   0.685   4.151   2.235 -0.0525 -0.0547 -0.4101
11546TIP3    H134595   0.667   4.214   2.304 -0.4575 -0.4135 -0.1832
11546TIP3    H234596   0.645   4.188   2.157 -0.1260  0.0568 -0.3192
11547TIP3   OH234597   3.580   4.979   2.233 -0.0818 -0.2534  0.0595
11547TIP3    H134598   3.649   4.956   2.172 -1.0531 -3.9605  0.1268
11547TIP3    H234599   3.606   5.065   2.268  2.9962 -0.2581 -1.8866
11548TIP3   OH234600   5.695   4.703   3.362  0.3217 -0.1315 -0.8029
11548TIP3    H134601   5.661   4.792   3.350  0.1801 -0.2169 -1.0300
11548TIP3    H234602   5.669   4.679   3.451 -0.1990 -0.1920 -0.9695
11549TIP3   OH234603   4.563   1.825   5.611 -0.5144  0.4059 -0.9336
11549TIP3    H134604   4.520   1.909   5.628  0.2724  0.4323  1.4188
11549TIP3    H234605   4.595   1.798   5.697  2.5843 -0.4591 -2.2140
11550TIP3   OH234606   1.280   2.952   1.085  0.0722 -0.4937  0.5430
11550TIP3    H134607   1.220   2.888   1.124 -0.1096 -0.8253 -0.2474
11550TIP3    H234608   1.229   3.033   1.080 -0.5111 -0.8974 -0.5759
11551TIP3   OH234609   7.719   0.857   6.031  0.3796 -0.2697  0.2188
11551TIP3    H134610   7.810   0.837   6.052  0.1545 -1.5352  0.0555
11551TIP3    H234611   7.688   0.781   5.982 -0.9194 -0.0813  0.7128
11552TIP3   OH234612   7.132   1.083   2.099  0.1530 -0.1323  0.3490
11552TIP3    H134613   7.133   0.996   2.059 -0.8480 -0.0490  0.0972
11552TIP3    H234614   7.082   1.070   2.180  0.4427  0.1048  0.5630
11553TIP3   OH234615   7.136   4.435   3.185 -0.4053  0.0872  0.2395
11553TIP3    H134616   7.182   4.509   3.146  0.4205 -1.2026 -1.3301
11553TIP3    H234617   7.126   4.460   3.277  1.5912  1.3059  0.1852
11554TIP3   OH234618   1.598   2.211   0.752  0.6310 -0.3204  0.1584
11554TIP3    H134619   1.692   2.206   0.731  0.8503 -1.7326  1.3035
11554TIP3    H234620   1.594   2.199   0.847 -0.5669  2.4241  0.5471
11555TIP3   OH234621   5.083   3.869   6.476 -0.7737 -0.2398  0.2843
11555TIP3    H134622   4.998   3.856   6.518 -0.7877 -1.2332 -0.0318
11555TIP3    H234623   5.089   3.800   6.411  0.6764 -0.7838  0.9454
11556TIP3   OH234624   3.384   1.523   5.001 -0.1914  0.5911  0.4221
11556TIP3    H134625   3.381   1.606   4.953  0.3457 -0.2738 -1.1815
11556TIP3    H234626   3.301   1.519   5.049 -2.6614 -0.2275 -3.5000
11557TIP3   OH234627   4.364   4.569   4.267  0.3042  0.0957  0.2797
11557TIP3    H134628   4.403   4.564   4.354  1.5618 -0.9681 -0.3105
11557TIP3    H234629   4.312   4.489   4.259  1.2278 -0.4611 -0.3922
11558TIP3   OH234630   5.858   3.055   3.535  0.1225 -0.5268  0.6533
11558TIP3    H134631   5.918   2.980   3.540  0.5602 -0.3516 -1.1672
11558TIP3    H234632   5.914   3.128   3.507 -0.3184  0.4845  2.3021
11559TIP3   OH234633   0.491   5.479   6.336 -0.0199 -0.3481 -0.1879
11559TIP3    H134634   0.451   5.445   6.416 -0.6883 -0.7491 -0.6785
11559TIP3    H234635   0.551   5.410   6.308  0.4872 -0.0503  0.1641
11560TIP3   OH234636   6.069   3.051   2.004  0.4977 -0.0421 -0.3288
11560TIP3    H134637   6.002   3.017   1.944  1.7459  0.9494 -2.3726
11560TIP3    H234638   6.104   2.973   2.047 -0.2452 -0.8125 -1.0733
11561TIP3   OH234639   3.021   5.460   1.474 -0.1496 -0.0057 -0.1858
11561TIP3    H134640   2.927   5.443   1.482 -0.2037  0.0471 -0.6550
11561TIP3    H234641   3.027   5.525   1.404  0.0003  2.2250  1.7562
11562TIP3   OH234642   5.190   0.718   4.410 -0.0886 -0.8141 -0.4106
11562TIP3    H134643   5.144   0.674   4.338 -0.6474 -2.4371  0.8703
11562TIP3    H234644   5.120   0.756   4.463  0.2796 -0.1849 -0.3662
11563TIP3   OH234645   4.151   1.879   0.325 -0.0762  0.0091 -0.9724
11563TIP3    H134646   4.235   1.922   0.311  1.0585 -1.9520 -0.4888
11563TIP3    H234647   4.154   1.850   0.416 -0.5824 -1.4755 -1.4056
11564TIP3   OH234648   2.158   1.321   4.712 -0.0389  0.2735  0.6835
11564TIP3    H134649   2.215   1.346   4.784  0.6454  3.8825 -0.8575
11564TIP3    H234650   2.069   1.337   4.744  0.2076  0.8993  1.0544
11565TIP3   OH234651   3.027   0.212   5.247  0.0761  0.0688 -0.7331
11565TIP3    H134652   3.042   0.298   5.285  1.5035 -1.0308  1.4186
11565TIP3    H234653   2.947   0.222   5.195 -1.8593  1.8889  2.2680
11566TIP3   OH234654   4.818   2.962   5.302  0.1451  0.1440  0.3977
11566TIP3    H134655   4.860   2.883   5.270  0.3246  0.4392 -0.0985
11566TIP3    H234656   4.858   2.978   5.387  0.8709  0.2889  0.0371
11567TIP3   OH234657   3.637   3.814   4.427 -0.4174 -0.5310  0.5773
11567TIP3    H134658   3.720   3.821   4.379 -1.2196  3.4948 -0.5900
11567TIP3    H234659   3.663   3.812   4.519  1.0114  0.4584  0.2239
11568TIP3   OH234660   3.130   0.074   6.744 -1.2137 -0.4108 -0.0959
11568TIP3    H134661   3.177  -0.000   6.705  2.5720  0.9567  1.3478
11568TIP3    H234662   3.150   0.067   6.837 -1.0190  2.1982  0.1089
11569TIP3   OH234663   4.378   5.918   3.494 -0.6783  0.8575 -0.0407
11569TIP3    H134664   4.446   5.944   3.431 -0.4000  2.3874  0.8512
11569TIP3    H234665   4.397   5.826   3.512  0.3358  0.8911 -0.8288
11570TIP3   OH234666   7.643   2.558   1.091 -0.3938  0.0160  0.3781
11570TIP3    H134667   7.724   2.524   1.053 -1.3300 -0.8224 -0.9911
11570TIP3    H234668   7.613   2.489   1.149 -0.3177  0.1763  0.6103
11571TIP3   OH234669   2.706   1.922   1.439 -0.5808  0.5480 -0.3966
11571TIP3    H134670   2.695   1.987   1.508 -0.2491 -0.1298  0.3119
11571TIP3    H234671   2.640   1.945   1.373  0.2127  2.1974 -0.6431
11572TIP3   OH234672   6.784   0.842   2.894  0.1864  0.0195  0.0908
11572TIP3    H134673   6.826   0.849   2.979  2.0517 -1.3499 -0.6342
11572TIP3    H234674   6.838   0.778   2.846 -1.3643  0.0125 -1.7689
11573TIP3   OH234675   7.815   4.824   3.149 -0.7511  0.3438 -0.8131
11573TIP3    H134676   7.825   4.738   3.108 -0.6488 -0.5506  1.0103
11573TIP3    H234677   7.809   4.806   3.242 -0.5204  2.3501 -0.3619
11574TIP3   OH234678   1.969   2.093   5.123  0.1038  0.2336 -0.3646
11574TIP3    H134679   1.936   2.005   5.107  1.3627 -0.5110  0.9184
11574TIP3    H234680   1.898   2.138   5.169  0.4821 -1.0770  1.6200
11575TIP3   OH234681   2.181   6.584   4.296 -0.1303  0.3750  0.3455
11575TIP3    H134682   2.174   6.668   4.251 -1.5658 -1.3287 -2.9621
11575TIP3    H234683   2.269   6.553   4.276 -0.8306 -0.4736 -1.7347
11576TIP3   OH234684   3.339   3.658   2.953  0.0733  0.2482  0.2361
11576TIP3    H134685   3.273   3.654   2.884  0.5374  1.9026 -0.3452
11576TIP3    H234686   3.288   3.656   3.034 -0.5775 -0.1411 -0.1690
11577TIP3   OH234687   3.359   1.636   6.263 -0.1685  0.7520 -0.1692
11577TIP3    H134688   3.320   1.608   6.180  0.8930  1.4701 -0.9289
11577TIP3    H234689   3.291   1.617   6.328 -0.1744 -1.9505 -0.8390
11578TIP3   OH234690   4.763   4.305   3.894  0.1629  0.0356  0.4636
11578TIP3    H134691   4.766   4.265   3.807  0.2908  1.1463 -0.0543
11578TIP3    H234692   4.796   4.237   3.953  2.4070  0.0753 -0.6625
11579TIP3   OH234693   7.710   7.616   2.550 -0.2627  0.0560  0.0615
11579TIP3    H134694   7.692   7.528   2.517 -1.2939  0.7012 -1.1903
11579TIP3    H234695   7.798   7.609   2.589 -0.2227 -1.4563 -0.2268
11580TIP3   OH234696   4.906   4.838   5.749  0.4488 -0.5218  0.4238
11580TIP3    H134697   4.833   4.872   5.697  1.9163  0.2763 -1.2285
11580TIP3    H234698   4.879   4.750   5.775 -1.4535  0.0905  0.6334
11581TIP3   OH234699   2.306   4.641   2.672  0.0553  0.2681  0.2567
11581TIP3    H134700   2.350   4.648   2.587  0.4734  0.0660  0.4570
11581TIP3    H234701   2.305   4.730   2.706 -1.4026  0.6185 -0.5988
11582TIP3   OH234702   4.720   6.103   0.665  0.2476  0.3068 -0.1894
11582TIP3    H134703   4.691   6.012   0.678 -1.4939  0.9445  0.7651
11582TIP3    H234704   4.804   6.107   0.709 -1.2441 -0.0292  3.0071
11583TIP3   OH234705   8.085   7.087   4.962 -0.6939 -0.6150  0.1842
11583TIP3    H134706   8.179   7.068   4.959 -0.2684  1.1382  1.0194
11583TIP3    H234707   8.056   7.077   4.872  0.0646 -2.1442  0.0705
11584TIP3   OH234708   0.026   2.324   5.237  0.0326 -0.2608  0.1280
11584TIP3    H134709   0.062   2.235   5.245  2.6676  0.7228  0.1339
11584TIP3    H234710   0.022   2.356   5.327 -0.1079 -0.0558  0.0483
11585TIP3   OH234711   8.004   4.873   2.157 -0.0392 -0.3974 -0.3461
11585TIP3    H134712   7.933   4.916   2.203  0.6407  2.2064 -1.5642
11585TIP3    H234713   7.961   4.816   2.093 -1.1575  1.7487 -1.6323
11586TIP3   OH234714   4.989   1.624   2.484  0.1639  0.3497  0.3183
11586TIP3    H134715   5.021   1.635   2.395  0.4830 -0.2574  0.3561
11586TIP3    H234716   4.896   1.645   2.479  0.2365  0.5685 -0.1035
11587TIP3   OH234717   5.013   7.022   6.551  0.4107  0.5066  0.1488
11587TIP3    H134718   4.948   6.964   6.512  0.3084  0.4428  0.4085
11587TIP3    H234719   4.962   7.077   6.611  0.5230  0.7942 -0.0198
11588TIP3   OH234720   8.254   2.748   2.293 -0.4429 -0.5099 -0.5394
11588TIP3    H134721   8.246   2.669   2.240  0.5920  0.4855 -2.2592
11588TIP3    H234722   8.211   2.726   2.376 -1.0973 -2.4992 -1.3609
11589TIP3   OH234723   0.591   7.270   1.224  0.5913  0.6208  0.3888
11589TIP3    H134724   0.587   7.174   1.228  0.8473  0.5356 -1.0089
11589TIP3    H234725   0.503   7.298   1.247  1.0414  0.1758  3.0003
11590TIP3   OH234726   3.507   4.470   1.576 -0.0440  0.3008  0.3215
11590TIP3    H134727   3.542   4.530   1.642  0.7076  0.6847 -0.3940
11590TIP3    H234728   3.551   4.387   1.593 -0.0624  0.3257  0.4853
11591TIP3   OH234729   0.122   4.702   1.175 -0.1921 -0.6367 -0.6131
11591TIP3    H134730   0.185   4.675   1.108  1.5401  0.1985  0.6274
11591TIP3    H234731   0.148   4.654   1.253 -0.6503  0.2530  0.1052
11592TIP3   OH234732   7.289   2.486   3.178 -0.0271  0.2025  0.0301
11592TIP3    H134733   7.309   2.456   3.090  0.3868  0.8064 -0.0876
11592TIP3    H234734   7.362   2.544   3.201 -0.4018  0.4728  0.5625
11593TIP3   OH234735   0.585   6.612   2.729 -0.0416  0.8047 -0.3908
11593TIP3    H134736   0.525   6.538   2.713 -0.3869  1.4920 -2.6836
11593TIP3    H234737   0.672   6.576   2.715 -0.2679  1.0555 -3.0396
11594TIP3   OH234738   7.915   6.355   1.075 -0.1703  0.2187  0.8026
11594TIP3    H134739   7.885   6.274   1.034 -1.0512  0.3081  1.2531
11594TIP3    H234740   7.837   6.409   1.084  0.2860  0.8465  1.1360
11595TIP3   OH234741   1.142   1.943   1.283  0.0922  1.0668  0.1790
11595TIP3    H134742   1.090   2.002   1.229  0.2054  0.8726 -0.1459
11595TIP3    H234743   1.076   1.887   1.326  0.0669 -0.4017 -1.6434
11596TIP3   OH234744   3.598   1.803   2.096  0.2813 -0.1394  0.3382
11596TIP3    H134745   3.565   1.775   2.182  0.5042 -0.1137  0.4335
11596TIP3    H234746   3.670   1.862   2.117 -0.7047  1.1631  0.1511
11597TIP3   OH234747   3.149   1.568   3.727  0.1275 -0.4733  0.1031
11597TIP3    H134748   3.072   1.556   3.783 -0.7225 -0.6987 -1.0645
11597TIP3    H234749   3.164   1.482   3.688  0.8921 -0.3941  0.2060
11598TIP3   OH234750   7.585   4.091   3.217 -0.4840 -0.2079  0.2645
11598TIP3    H134751   7.613   4.025   3.281  1.1197 -0.3302 -0.5109
11598TIP3    H234752   7.509   4.052   3.174  0.2251 -1.4227  0.0665
11599TIP3   OH234753   1.635   7.807   1.692 -0.1287  0.1730 -0.1150
11599TIP3    H134754   1.640   7.743   1.762  0.9938 -1.5805 -1.6810
11599TIP3    H234755   1.725   7.839   1.682 -0.4542  1.1279 -0.1322
11600TIP3   OH234756   0.502   4.173   6.003 -0.4025 -0.0057  1.0507
11600TIP3    H134757   0.559   4.137   5.935 -2.0285  0.5703 -0.7109
11600TIP3    H234758   0.556   4.239   6.048  0.6516 -0.2600  0.1884
11601TIP3   OH234759   7.988   0.494   3.107  0.4038  0.0308 -0.5825
11601TIP3    H134760   8.082   0.480   3.117  0.1582 -0.5297  1.1381
11601TIP3    H234761   7.948   0.416   3.144 -0.7668  0.6362 -0.5316
11602TIP3   OH234762   3.501   5.332   5.392  0.1373  0.3410 -0.6553
11602TIP3    H134763   3.582   5.289   5.421 -0.1928 -0.4101 -0.8415
11602TIP3    H234764   3.431   5.273   5.418 -0.1987 -0.2524 -2.7104
11603TIP3   OH234765   2.733   7.380   3.771 -0.4936 -0.1906  0.2327
11603TIP3    H134766   2.668   7.349   3.708 -0.0048 -1.0496  0.1266
11603TIP3    H234767   2.816   7.346   3.737 -0.1697 -0.3213  1.1204
11604TIP3   OH234768   8.223   3.673   2.502 -0.4807  0.6093  0.0862
11604TIP3    H134769   8.162   3.706   2.436 -0.9479 -0.0716  0.1728
11604TIP3    H234770   8.256   3.591   2.466 -1.4184 -0.2395  1.0707
11605TIP3   OH234771   3.302   2.481   4.434 -0.0330  0.4629 -0.6985
11605TIP3    H134772   3.297   2.576   4.423  0.4888  0.5083 -0.5504
11605TIP3    H234773   3.320   2.448   4.346  1.6928  0.6479 -0.4415
11606TIP3   OH234774   3.493   0.825   5.994 -0.2283 -0.5727  0.0476
11606TIP3    H134775   3.576   0.787   6.024  0.1074 -0.3885 -0.6243
11606TIP3    H234776   3.461   0.875   6.069  0.7362  0.1131  0.0247
11607TIP3   OH234777   0.281   0.906   1.985  0.7841 -0.2761  0.2968
11607TIP3    H134778   0.268   0.824   1.939  1.1907 -1.2147  1.7764
11607TIP3    H234779   0.340   0.884   2.058 -1.2397  0.6848  2.3467
11608TIP3   OH234780   5.519   4.658   5.317  0.1295  0.7495 -0.5294
11608TIP3    H134781   5.453   4.662   5.247 -1.5191 -0.0138  0.9233
11608TIP3    H234782   5.523   4.566   5.341  0.3601  1.0654  0.6738
11609TIP3   OH234783   1.571   2.836   0.118 -0.1756  0.6277  0.2449
11609TIP3    H134784   1.545   2.776   0.048  0.9295  0.4454 -0.0294
11609TIP3    H234785   1.512   2.911   0.108 -0.0994  0.5661 -0.8244
11610TIP3   OH234786   3.280   6.637   4.847 -0.1197 -0.0801  0.7072
11610TIP3    H134787   3.308   6.684   4.768 -1.7706  1.1727  0.7938
11610TIP3    H234788   3.277   6.704   4.915 -0.3014 -0.7988  1.4189
11611TIP3   OH234789   5.801   3.246   4.362 -0.0577  0.6000  0.3035
11611TIP3    H134790   5.724   3.189   4.355  1.9235 -2.1478 -1.3124
11611TIP3    H234791   5.860   3.198   4.421  1.2076  1.6324 -0.0926
11612TIP3   OH234792   5.721   4.974   0.712  0.1209  0.8211  0.1144
11612TIP3    H134793   5.681   4.988   0.626  2.2953  0.2051 -1.0695
11612TIP3    H234794   5.732   5.062   0.748  0.2624  1.1679 -0.7532
11613TIP3   OH234795   7.745   5.220   6.434 -0.0365 -0.5309  0.1576
11613TIP3    H134796   7.746   5.133   6.474  1.2251 -0.6725 -0.1412
11613TIP3    H234797   7.822   5.221   6.377 -0.3149  0.6078 -0.2253
11614TIP3   OH234798   3.837   0.954   0.959 -0.1016 -0.1285 -0.6140
11614TIP3    H134799   3.802   0.994   0.879 -3.7001 -1.4712  0.0905
11614TIP3    H234800   3.864   1.028   1.013 -3.5379  1.3360 -0.6331
11615TIP3   OH234801   0.370   7.528   3.367  0.5927  0.2467  0.0595
11615TIP3    H134802   0.387   7.574   3.449  0.7896 -0.8265  0.6286
11615TIP3    H234803   0.336   7.596   3.308 -1.3301  0.6865  1.5839
11616TIP3   OH234804   7.795   5.497   3.958 -0.4265  0.1619  0.0469
11616TIP3    H134805   7.711   5.457   3.980 -1.2818  0.8839 -1.7403
11616TIP3    H234806   7.777   5.591   3.949  0.4225  0.2645 -0.9045
11617TIP3   OH234807   7.779   6.065   1.715 -0.4066  0.0174 -0.1098
11617TIP3    H134808   7.848   6.121   1.751 -0.3260 -0.2946  0.2262
11617TIP3    H234809   7.725   6.124   1.662  2.4018 -0.3762 -3.8075
11618TIP3   OH234810   3.177   1.663   0.799  0.0749  0.3205  0.3785
11618TIP3    H134811   3.160   1.748   0.759 -0.2591 -0.1460 -0.4871
11618TIP3    H234812   3.172   1.680   0.893  0.3148  1.3175  0.2239
11619TIP3   OH234813   5.436   4.793   3.151 -0.2606  0.2504  0.4132
11619TIP3    H134814   5.397   4.869   3.195 -0.8062  0.2594 -0.0848
11619TIP3    H234815   5.448   4.728   3.221 -2.3231 -0.2188  0.3794
11620TIP3   OH234816   1.425   6.774   1.827 -0.3268 -0.4316  0.4658
11620TIP3    H134817   1.411   6.831   1.752 -2.3568  0.0034  1.1332
11620TIP3    H234818   1.341   6.770   1.871  0.6102 -1.3150  2.2976
11621TIP3   OH234819   1.976   3.804   3.340 -0.3856 -0.0670  0.5282
11621TIP3    H134820   1.962   3.710   3.324 -2.7194 -0.1010  2.2965
11621TIP3    H234821   1.930   3.822   3.422 -0.0336  2.6665  0.2262
11622TIP3   OH234822   6.838   2.943   0.885  0.2689 -0.6663  0.0614
11622TIP3    H134823   6.838   3.004   0.959  2.2978 -1.7564  1.0678
11622TIP3    H234824   6.878   2.991   0.813  1.0285 -0.5052  0.5796
11623TIP3   OH234825   1.649   2.515   5.572  0.2052 -0.7962  0.2591
11623TIP3    H134826   1.576   2.462   5.539 -0.1543 -1.7082  2.3523
11623TIP3    H234827   1.727   2.461   5.557  0.0286 -1.2572  0.9083
11624TIP3   OH234828   4.014   3.006   3.883 -0.2554  0.2295  0.5428
11624TIP3    H134829   4.024   2.978   3.973  0.3107  1.5129  0.9030
11624TIP3    H234830   4.103   3.002   3.846 -0.5008 -0.4148 -0.0105
11625TIP3   OH234831   5.613   3.488   1.543 -0.0462 -0.5346 -0.4001
11625TIP3    H134832   5.569   3.560   1.589 -0.3208  0.6733 -2.4277
11625TIP3    H234833   5.701   3.521   1.525  0.4161 -1.4140  0.1589
11626TIP3   OH234834   6.808   6.903   2.783  0.7134  0.5045 -0.4902
11626TIP3    H134835   6.872   6.974   2.775 -0.0461  1.4216  0.9796
11626TIP3    H234836   6.785   6.902   2.876 -0.3718 -0.7304 -0.7380
11627TIP3   OH234837   7.565   6.717   0.800 -0.6311  0.1954  0.5742
11627TIP3    H134838   7.548   6.791   0.858 -0.5195  1.1218 -0.5459
11627TIP3    H234839   7.507   6.732   0.726 -1.0193 -1.1551  0.5810
11628TIP3   OH234840   1.101   5.836   1.913 -0.7225 -0.1602  0.1635
11628TIP3    H134841   1.107   5.740   1.919  0.4698 -0.1044  0.1845
11628TIP3    H234842   1.115   5.866   2.003  2.1452  0.1216 -0.2796
11629TIP3   OH234843   0.296   0.479   3.962 -0.1523  0.0662  0.3699
11629TIP3    H134844   0.306   0.396   3.917  0.2553  0.0719  0.4448
11629TIP3    H234845   0.291   0.455   4.055 -1.4189  0.0185  0.3093
11630TIP3   OH234846   3.095   6.026   0.279 -0.1371  0.3679 -0.0283
11630TIP3    H134847   3.026   6.081   0.316 -0.1699  0.2152  0.1401
11630TIP3    H234848   3.102   6.054   0.188 -0.3720  0.4346 -0.0261
11631TIP3   OH234849   2.695   0.374   0.074 -0.1343 -0.4682  0.7616
11631TIP3    H134850   2.673   0.432   0.147 -2.7683 -1.1931  0.6637
11631TIP3    H234851   2.722   0.292   0.116 -1.0114 -0.6709  0.9583
11632TIP3   OH234852   1.786   7.440   3.580  0.3585  0.2887  0.2271
11632TIP3    H134853   1.708   7.400   3.540 -0.7483  1.6045  0.9881
11632TIP3    H234854   1.853   7.372   3.573 -0.2310 -0.1673 -2.3287
11633TIP3   OH234855   5.525   5.804   0.137 -0.1378  0.2889 -0.5360
11633TIP3    H134856   5.621   5.803   0.135 -0.0865 -0.6342  0.8927
11633TIP3    H234857   5.504   5.862   0.211 -0.7001  0.7209 -1.0256
11634TIP3   OH234858   6.374   4.909   5.888  0.3606  0.0051 -0.3031
11634TIP3    H134859   6.384   4.876   5.799  0.5742 -0.4307 -0.1194
11634TIP3    H234860   6.284   4.888   5.912 -0.4907  2.2296 -1.2628
11635TIP3   OH234861   2.299   7.696   4.846  0.4028  0.4289 -0.1109
11635TIP3    H134862   2.216   7.704   4.797 -0.2079  0.5160  0.9091
11635TIP3    H234863   2.335   7.784   4.845  0.5456  0.3692 -0.6546
11636TIP3   OH234864   0.402   2.615   6.594  0.2689  0.1383 -0.2041
11636TIP3    H134865   0.468   2.634   6.527  0.2129  0.0899 -0.2728
11636TIP3    H234866   0.416   2.522   6.615 -0.8880 -0.3495 -1.4457
11637TIP3   OH234867   0.672   4.696   2.475 -0.0773  0.6086  0.1085
11637TIP3    H134868   0.736   4.754   2.434  0.5033  0.0439  0.1911
11637TIP3    H234869   0.723   4.646   2.539  0.2178 -2.3933 -2.2254
11638TIP3   OH234870   3.561   4.110   5.106 -0.0704 -0.3130 -0.2980
11638TIP3    H134871   3.549   4.027   5.152  0.8894 -0.9326 -1.1176
11638TIP3    H234872   3.653   4.111   5.082  0.5937  2.2252  1.9626
11639TIP3   OH234873   8.316   6.875   2.288 -0.2143  0.4024 -0.0642
11639TIP3    H134874   8.283   6.896   2.376 -0.5731  0.4466 -0.2085
11639TIP3    H234875   8.284   6.787   2.271 -1.3933  0.9408 -0.7427
11640TIP3   OH234876   4.119   2.884   5.168  0.0408 -0.7824 -0.0939
11640TIP3    H134877   4.172   2.811   5.135 -0.3481 -1.4433  0.7233
11640TIP3    H234878   4.047   2.891   5.106  0.0327 -1.1483 -0.1258
11641TIP3   OH234879   1.259   0.386   4.316  0.2442 -0.2966 -0.1409
11641TIP3    H134880   1.240   0.345   4.232 -2.3249  0.4440 -0.0189
11641TIP3    H234881   1.259   0.480   4.297  0.5840 -0.1612  0.5166
11642TIP3   OH234882   5.682   2.558   1.790  0.7241 -0.2463  0.0059
11642TIP3    H134883   5.717   2.584   1.705 -2.1270  0.6103 -1.0433
11642TIP3    H234884   5.591   2.535   1.772  0.7065 -2.5877  2.4504
11643TIP3   OH234885   7.849   3.174   6.238 -0.8834 -0.4621  0.1059
11643TIP3    H134886   7.836   3.129   6.322  0.2371 -0.9358  0.0472
11643TIP3    H234887   7.762   3.180   6.200 -1.3158 -0.8292  1.0177
11644TIP3   OH234888   2.587   1.342   4.727 -0.3322 -0.3094  0.1072
11644TIP3    H134889   2.657   1.292   4.768  0.6529 -0.0157 -1.1540
11644TIP3    H234890   2.581   1.306   4.639 -2.6200 -1.1543  0.5406
11645TIP3   OH234891   0.429   0.379   2.741 -0.3033  0.4270 -0.4186
11645TIP3    H134892   0.492   0.321   2.699 -1.4307  0.2450 -1.9723
11645TIP3    H234893   0.480   0.454   2.770  0.6368  0.2257 -1.4971
11646TIP3   OH234894   5.651   0.186   3.569 -0.3293 -0.0090 -0.2373
11646TIP3    H134895   5.669   0.101   3.609  0.2861  0.1609 -0.1346
11646TIP3    H234896   5.590   0.228   3.629  1.4774  0.7239  1.2172
11647TIP3   OH234897   0.531   5.713   2.395  0.2025 -0.3184  0.0019
11647TIP3    H134898   0.620   5.686   2.372  0.3002  0.4935 -0.6142
11647TIP3    H234899   0.509   5.660   2.471  2.1106  1.0788  1.6545
11648TIP3   OH234900   4.064   4.932   6.005 -0.0760 -0.1531 -0.4624
11648TIP3    H134901   4.157   4.943   5.984 -0.3345  3.0495 -0.3208
11648TIP3    H234902   4.063   4.902   6.095  0.8189 -0.7051 -0.6263
11649TIP3   OH234903   4.121   5.340   4.814 -0.1464  0.0335 -0.0770
11649TIP3    H134904   4.108   5.316   4.906 -0.9259 -0.2842 -0.2653
11649TIP3    H234905   4.184   5.276   4.781 -0.8237 -0.6325 -0.0938
11650TIP3   OH234906   6.160   1.617   5.774 -0.3276  0.5312 -0.0329
11650TIP3    H134907   6.165   1.562   5.695  0.3369  0.3397  0.1307
11650TIP3    H234908   6.106   1.691   5.748 -2.6247 -0.9659  0.2172
11651TIP3   OH234909   5.129   4.545   1.881  0.2679  0.4424 -0.3241
11651TIP3    H134910   5.122   4.542   1.976 -2.3265 -0.6883 -0.4526
11651TIP3    H234911   5.167   4.460   1.857  2.6558  1.4296 -0.2787
11652TIP3   OH234912   4.532   4.834   2.139  0.0103  0.1531 -0.5657
11652TIP3    H134913   4.490   4.905   2.187  0.4630  0.5994 -0.8239
11652TIP3    H234914   4.517   4.854   2.047  0.6181  0.2123 -0.6561
11653TIP3   OH234915   0.659   4.170   4.939 -0.1070  0.0710 -0.4524
11653TIP3    H134916   0.710   4.140   4.864 -0.3400 -0.9102 -0.2378
11653TIP3    H234917   0.568   4.165   4.908 -0.1229  1.0452 -0.5738
11654TIP3   OH234918   4.532   2.274   3.417  0.0919 -0.2432  0.2523
11654TIP3    H134919   4.522   2.200   3.478  1.3969  1.4632  2.7136
11654TIP3    H234920   4.446   2.315   3.416 -0.1520 -0.7383  0.3411
11655TIP3   OH234921   6.821   4.203   0.631 -0.2066 -0.6978 -0.0406
11655TIP3    H134922   6.771   4.250   0.564  1.5407  1.2363 -0.0823
11655TIP3    H234923   6.781   4.230   0.714 -0.8233 -1.1673 -0.1806
11656TIP3   OH234924   0.071   4.374   3.948 -0.2707 -0.1544  0.4536
11656TIP3    H134925   0.024   4.410   4.024 -0.1818 -1.8453  1.3660
11656TIP3    H234926   0.011   4.386   3.875 -0.2553  1.7497  0.6942
11657TIP3   OH234927   5.910   7.732   1.859  0.9007  0.0387  0.2860
11657TIP3    H134928   5.839   7.779   1.903  0.6505  0.0468 -0.1217
11657TIP3    H234929   5.875   7.644   1.844  0.7769  0.1961 -0.3870
11658TIP3   OH234930   1.896   0.315   4.206  0.0671 -0.2502  0.8517
11658TIP3    H134931   1.885   0.220   4.219 -1.0911 -0.8418 -3.1438
11658TIP3    H234932   1.817   0.342   4.161  2.6653  1.3497 -3.2675
11659TIP3   OH234933   4.666   0.732   5.806 -0.4898 -0.1630 -0.5734
11659TIP3    H134934   4.704   0.671   5.743  1.8778 -0.1457  0.7197
11659TIP3    H234935   4.659   0.815   5.759  0.2068 -0.4160 -1.1403
11660TIP3   OH234936   0.217   1.820   0.766 -0.1356  0.6219 -0.2903
11660TIP3    H134937   0.150   1.889   0.767 -0.6969  0.0974  1.5974
11660TIP3    H234938   0.171   1.745   0.728 -0.4798  0.4134  0.5191
11661TIP3   OH234939   3.030   4.141   3.385  0.3398 -0.7192 -0.1626
11661TIP3    H134940   2.987   4.226   3.377  0.6742 -0.5410 -0.1132
11661TIP3    H234941   2.982   4.096   3.454  0.9800 -0.0537  0.7414
11662TIP3   OH234942   6.531   2.766   6.760  0.3007 -0.1409  0.8960
11662TIP3    H134943   6.591   2.794   6.829  1.2509 -1.4697  0.6245
11662TIP3    H234944   6.527   2.671   6.768  0.3706 -0.3145 -0.8471
11663TIP3   OH234945   4.636   1.720   4.155 -0.0881 -0.5248 -0.2870
11663TIP3    H134946   4.619   1.637   4.199  0.1764 -0.1047  0.6239
11663TIP3    H234947   4.550   1.752   4.129 -0.5087  0.2878  1.9094
11664TIP3   OH234948   1.917   2.743   3.490 -0.3456  0.3283  0.2344
11664TIP3    H134949   1.979   2.796   3.539 -2.2172  0.3099  2.8260
11664TIP3    H234950   1.888   2.799   3.418  1.5042  0.8507 -0.1340
11665TIP3   OH234951   3.428   1.697   2.685 -0.7286 -0.0015 -0.3008
11665TIP3    H134952   3.392   1.609   2.678 -0.0701 -0.2834 -0.1988
11665TIP3    H234953   3.431   1.714   2.780 -0.3936 -0.0653 -0.2989
11666TIP3   OH234954   2.183   5.986   5.049  0.1759  0.1030  0.3482
11666TIP3    H134955   2.179   5.892   5.030  0.8449 -0.0914  1.1120
11666TIP3    H234956   2.146   5.993   5.137  0.1704  0.5527  0.3090
11667TIP3   OH234957   5.658   0.906   0.429 -0.3682  0.4048 -0.4275
11667TIP3    H134958   5.690   0.995   0.443 -0.3069  0.5771 -1.6287
11667TIP3    H234959   5.582   0.917   0.372 -1.6061 -0.1462  1.0371
11668TIP3   OH234960   7.259   2.623   6.605  0.3855 -0.5276 -0.1628
11668TIP3    H134961   7.185   2.612   6.666  0.5925 -0.4939  0.0995
11668TIP3    H234962   7.289   2.534   6.588  0.7317 -0.5023  0.2944
11669TIP3   OH234963   0.160  -0.020   4.516  0.0793  0.1459  0.0536
11669TIP3    H134964   0.123   0.023   4.593  0.7906  0.8218  0.0327
11669TIP3    H234965   0.118   0.022   4.442 -1.9967 -1.7686  0.0478
11670TIP3   OH234966   3.563   5.621   6.060  0.7257 -0.7881  0.2173
11670TIP3    H134967   3.518   5.539   6.081  0.1073 -0.5801 -0.2758
11670TIP3    H234968   3.500   5.689   6.083  0.5812 -0.5072 -0.9823
11671TIP3   OH234969   1.658   3.585   5.840  0.1259  0.9442 -0.0435
11671TIP3    H134970   1.651   3.674   5.874 -0.2360  0.5506  0.9497
11671TIP3    H234971   1.716   3.540   5.902 -1.3126 -0.0526  0.6335
11672TIP3   OH234972   3.547   6.816   4.906  0.2787  0.1676  0.4278
11672TIP3    H134973   3.453   6.825   4.919  0.2169  1.4113 -0.6452
11672TIP3    H234974   3.575   6.903   4.876  1.3750 -0.7767 -1.4939
11673TIP3   OH234975   1.143   0.640   4.584 -0.0936 -0.3405 -0.0392
11673TIP3    H134976   1.057   0.660   4.547  0.0981  0.9083  0.1584
11673TIP3    H234977   1.201   0.706   4.547  0.4182 -0.0447  1.2308
11674TIP3   OH234978   5.529   1.988   5.539  0.0958  0.5693  0.3809
11674TIP3    H134979   5.438   1.963   5.528 -0.1155  0.8412  1.3808
11674TIP3    H234980   5.578   1.906   5.540 -0.2161  0.3875  0.5158
11675TIP3   OH234981   0.839   0.417   6.176  0.1191 -0.0217  0.4015
11675TIP3    H134982   0.913   0.389   6.122  1.2781  1.8199  0.9339
11675TIP3    H234983   0.832   0.511   6.161 -0.7452  0.2127  2.0051
11676TIP3   OH234984   3.739   6.162   1.155  0.0891 -0.2061 -0.1192
11676TIP3    H134985   3.796   6.133   1.084  0.7618  1.6155 -0.3811
11676TIP3    H234986   3.663   6.200   1.111 -1.2029 -2.2253  0.2235
11677TIP3   OH234987   3.414   7.367   3.227  0.0386 -0.3774  0.2994
11677TIP3    H134988   3.356   7.440   3.207  0.6907  0.9258  2.7583
11677TIP3    H234989   3.498   7.392   3.189 -0.0109 -0.3561  0.2048
11678TIP3   OH234990   3.639   2.748   2.682  0.0565  0.3345  0.0699
11678TIP3    H134991   3.557   2.793   2.699 -0.2925  0.0150 -0.7253
11678TIP3    H234992   3.704   2.795   2.735 -0.6052  0.6887  0.5669
11679TIP3   OH234993   1.865   2.798   4.890 -0.2995  0.0911 -0.1937
11679TIP3    H134994   1.950   2.760   4.868 -0.0391  1.1018 -0.9885
11679TIP3    H234995   1.837   2.842   4.810 -0.6936  1.3823  0.6250
11680TIP3   OH234996   2.178   0.682   6.212  0.1993  0.0102 -0.5300
11680TIP3    H134997   2.202   0.740   6.285 -1.3830  2.4354 -1.7886
11680TIP3    H234998   2.258   0.672   6.162  1.0515 -0.8233  0.9270
11681TIP3   OH234999   7.437   5.868   5.136 -0.3351  0.0376 -0.2071
11681TIP3    H135000   7.429   5.963   5.135 -0.9286  0.0072  0.8673
11681TIP3    H235001   7.452   5.846   5.228 -0.2275 -0.9146 -0.4421
11682TIP3   OH235002   1.381   0.919   2.428 -0.3185  0.6749 -0.0394
11682TIP3    H135003   1.308   0.979   2.410 -1.0605  0.5491  2.2399
11682TIP3    H235004   1.340   0.843   2.469  1.1300  1.1961  2.6197
11683TIP3   OH235005   3.469   2.486   4.774 -0.5912 -0.0141  0.1650
11683TIP3    H135006   3.410   2.429   4.823  0.7415 -0.3509  1.4501
11683TIP3    H235007   3.452   2.574   4.809 -0.9525  0.0198 -0.0970
11684TIP3   OH235008   4.741   5.658   2.478  0.1428  0.1708 -0.0370
11684TIP3    H135009   4.683   5.679   2.551 -0.5992 -0.0865 -0.5407
11684TIP3    H235010   4.752   5.742   2.432 -1.5205 -0.1529 -1.1227
11685TIP3   OH235011   1.512   3.480   1.488  0.1864  0.2710  0.3201
11685TIP3    H135012   1.488   3.547   1.553  1.1517 -1.2886  2.4174
11685TIP3    H235013   1.553   3.528   1.417 -2.0818  2.2098  0.2041
11686TIP3   OH235014   6.130   1.386   6.680 -0.0471 -0.6526  0.2145
11686TIP3    H135015   6.089   1.445   6.744  2.7208 -0.1129  1.6441
11686TIP3    H235016   6.114   1.298   6.715 -1.8035 -0.6375 -0.4470
11687TIP3   OH235017   2.682   3.911   0.478 -0.1700 -0.0892  0.1009
11687TIP3    H135018   2.602   3.880   0.521 -0.0736  0.3794  0.6261
11687TIP3    H235019   2.658   3.920   0.386 -0.9006  0.6237  0.3474
11688TIP3   OH235020   4.200   1.547   0.426 -0.1576  0.5891  0.3763
11688TIP3    H135021   4.253   1.470   0.407 -0.6359  0.8111 -2.3377
11688TIP3    H235022   4.146   1.558   0.348  0.3047  3.9836  0.3746
11689TIP3   OH235023   1.022   2.553   6.317 -0.2752  0.3441 -0.3070
11689TIP3    H135024   1.015   2.580   6.226  0.2128 -1.3632 -0.8925
11689TIP3    H235025   1.116   2.547   6.333 -0.3450  1.1584  0.4942
11690TIP3   OH235026   5.244   1.731   2.986  0.2543 -0.1148 -0.3689
11690TIP3    H135027   5.294   1.792   3.041  1.0422  0.0664 -1.2632
11690TIP3    H235028   5.253   1.646   3.030 -1.8569  0.5494  1.5619
11691TIP3   OH235029   2.022   3.118   3.710  0.3030  0.0432 -0.1616
11691TIP3    H135030   2.082   3.170   3.764 -0.1111  1.7466 -1.2860
11691TIP3    H235031   1.999   3.175   3.637 -0.8828 -1.4165 -0.9851
11692TIP3   OH235032   3.361   1.441   2.615 -0.4253  0.1542 -0.0018
11692TIP3    H135033   3.426   1.464   2.548 -0.6043 -0.3200 -0.3393
11692TIP3    H235034   3.378   1.349   2.635 -0.8589  0.0872  0.0624
11693TIP3   OH235035   0.796   3.850   4.464  0.4531  0.2890 -0.1371
11693TIP3    H135036   0.828   3.824   4.550 -0.0915  1.9030  0.5863
11693TIP3    H235037   0.823   3.778   4.406  0.7098 -0.8858  1.3763
11694TIP3   OH235038   1.549   4.937   0.546 -0.5862  0.2926 -0.2629
11694TIP3    H135039   1.531   5.027   0.573 -2.0315 -0.0332 -0.0934
11694TIP3    H235040   1.480   4.885   0.587  0.5396 -0.9821  0.0975
11695TIP3   OH235041   2.792   2.057   4.968 -0.2179 -1.1843 -0.0570
11695TIP3    H135042   2.739   2.135   4.952 -1.4880 -2.0355 -0.2356
11695TIP3    H235043   2.804   2.019   4.880  0.9522 -0.8489 -0.0486
11696TIP3   OH235044   4.659   2.604   5.480 -0.3304 -0.1225  0.3772
11696TIP3    H135045   4.648   2.687   5.527 -1.5588  0.5621 -1.0331
11696TIP3    H235046   4.752   2.585   5.487 -0.6006 -0.8311  4.3025
11697TIP3   OH235047   6.446   6.219   3.455  0.1231  0.1888  0.3252
11697TIP3    H135048   6.457   6.130   3.487 -0.5722  0.1545  0.4849
11697TIP3    H235049   6.532   6.243   3.420 -0.0567 -1.1051 -1.1487
11698TIP3   OH235050   5.985   2.980   3.027 -0.0379 -0.2806 -0.4549
11698TIP3    H135051   5.925   2.993   3.099  1.8935 -1.7290  1.5605
11698TIP3    H235052   5.955   2.899   2.985 -1.1374  0.5413 -1.3166
11699TIP3   OH235053   6.919   6.728   4.020 -0.9015  0.6391  0.1944
11699TIP3    H135054   6.890   6.820   4.013 -1.9960  0.2732 -0.3044
11699TIP3    H235055   6.906   6.707   4.112 -0.0390  1.1697  0.4487
11700TIP3   OH235056   6.029   0.112   2.209  0.0786  0.0018 -0.0678
11700TIP3    H135057   5.934   0.107   2.221 -0.0267  0.3683 -0.7254
11700TIP3    H235058   6.064   0.043   2.267 -0.6111 -0.4631 -0.1907
11701TIP3   OH235059   7.260   1.693   6.613 -0.2973 -0.2704  0.1976
11701TIP3    H135060   7.257   1.773   6.560 -1.6404 -0.3543  0.1138
11701TIP3    H235061   7.171   1.683   6.646 -0.3957 -2.2510 -0.5369
11702TIP3   OH235062   3.070   6.590   0.474  0.2305  0.6334 -0.1456
11702TIP3    H135063   3.086   6.515   0.416 -0.4369  0.3116  0.0667
11702TIP3    H235064   3.025   6.654   0.418 -0.0436  0.4899 -0.0925
11703TIP3   OH235065   8.304   7.569   1.384  0.3193  0.5521  0.0162
11703TIP3    H135066   8.273   7.558   1.294  0.0196  2.0111 -0.0802
11703TIP3    H235067   8.224   7.577   1.436  0.4993  1.0548  0.2213
11704TIP3   OH235068   2.375   0.091   6.429 -0.4945 -0.5408  0.0087
11704TIP3    H135069   2.470   0.081   6.437 -0.3795 -0.9106 -1.5171
11704TIP3    H235070   2.363   0.181   6.398 -0.6441 -0.5100  0.1535
11705TIP3   OH235071   3.652   5.256   3.708 -0.0699 -0.1925 -0.0922
11705TIP3    H135072   3.710   5.322   3.747 -0.6576  0.1406  0.2324
11705TIP3    H235073   3.670   5.177   3.759 -0.6376  0.1710  0.7051
11706TIP3   OH235074   1.071   7.540   4.033  0.4038 -0.8805 -0.1879
11706TIP3    H135075   1.121   7.472   3.988  2.0885 -0.1424  0.4992
11706TIP3    H235076   1.052   7.604   3.964 -0.1403 -1.4529 -0.5812
11707TIP3   OH235077   5.572   3.239   3.279 -0.2000 -0.1327  0.3476
11707TIP3    H135078   5.544   3.330   3.294 -1.0108 -0.1214 -1.0767
11707TIP3    H235079   5.591   3.206   3.366  2.5730  2.1502  0.7593
11708TIP3   OH235080   3.183   7.723   0.821  0.0101  0.0712  0.2537
11708TIP3    H135081   3.144   7.638   0.802 -1.1118  0.8539 -1.0775
11708TIP3    H235082   3.273   7.702   0.847 -0.4156 -1.5495  0.5349
11709TIP3   OH235083   6.644   6.439   2.114  0.1962 -0.2026  0.1798
11709TIP3    H135084   6.605   6.428   2.027  1.9019  0.1568 -0.6808
11709TIP3    H235085   6.571   6.427   2.175 -1.1513  0.0737 -1.3120
11710TIP3   OH235086   3.994   3.217   6.227  0.1128 -0.1977 -0.3435
11710TIP3    H135087   3.975   3.125   6.243  0.9279 -0.4830 -0.9765
11710TIP3    H235088   4.089   3.221   6.219  0.0166  0.5460 -1.2783
11711TIP3   OH235089   0.447   0.620   6.521  0.0527 -0.7558  0.1085
11711TIP3    H135090   0.457   0.536   6.476  2.0901 -0.6963  0.3507
11711TIP3    H235091   0.535   0.639   6.555  0.0237  2.1514 -1.1645
11712TIP3   OH235092   0.160   3.543   4.310 -0.1257  0.3228 -0.3372
11712TIP3    H135093   0.248   3.524   4.342 -0.5301  1.2542  1.4639
11712TIP3    H235094   0.159   3.637   4.296 -0.7798  0.2956 -0.5009
11713TIP3   OH235095   5.074   2.175   2.099  0.3299 -0.3693 -0.2755
11713TIP3    H135096   5.146   2.113   2.088  0.2320 -0.5772  0.2451
11713TIP3    H235097   5.113   2.251   2.142  0.2252 -0.5083  0.0656
11714TIP3   OH235098   3.398   0.605   4.528 -0.3402  0.0474 -0.3336
11714TIP3    H135099   3.453   0.617   4.606 -1.0002  2.5013 -0.1783
11714TIP3    H235100   3.450   0.548   4.471  2.8026  2.7926 -0.5047
11715TIP3   OH235101   7.518   0.394   4.671  0.1742 -0.0280 -0.0674
11715TIP3    H135102   7.503   0.487   4.690 -0.7078 -0.2450  0.3679
11715TIP3    H235103   7.485   0.349   4.749  1.4070 -0.6649  0.1084
11716TIP3   OH235104   0.106   4.546   4.610 -0.1756 -0.3750  0.0511
11716TIP3    H135105   0.029   4.589   4.574  0.5504  1.0681  0.1326
11716TIP3    H235106   0.077   4.457   4.630 -2.4770  0.7308  2.1846
11717TIP3   OH235107   1.884   5.283   3.192  0.0986  0.1377  0.5463
11717TIP3    H135108   1.836   5.328   3.122 -0.1788  1.4531  1.5507
11717TIP3    H235109   1.955   5.342   3.216  0.6663 -0.6440  0.8674
11718TIP3   OH235110   3.530   4.231   3.773  0.6465 -0.1522  0.5966
11718TIP3    H135111   3.477   4.155   3.796 -0.7963  0.5061 -0.4140
11718TIP3    H235112   3.499   4.300   3.831  0.3589  0.2538 -0.0321
11719TIP3   OH235113   3.005   0.842   3.629  0.1446 -0.1281  0.0877
11719TIP3    H135114   2.944   0.802   3.567  1.6509 -0.5501 -1.1858
11719TIP3    H235115   3.055   0.768   3.665  0.1087  0.2366  0.9140
11720TIP3   OH235116   2.295   5.335   3.064  0.0288 -0.0224 -0.8543
11720TIP3    H135117   2.207   5.362   3.093  0.5088  0.9566 -0.2378
11720TIP3    H235118   2.323   5.405   3.005  1.3650  1.0086  0.8920
11721TIP3   OH235119   1.429   4.704   3.551  0.2025 -0.4408  0.1247
11721TIP3    H135120   1.485   4.771   3.590  0.1484 -0.4801  0.2718
11721TIP3    H235121   1.429   4.632   3.615  0.1530 -0.5261  0.0301
11722TIP3   OH235122   0.503   3.023   6.187  0.1129 -0.1594  0.5979
11722TIP3    H135123   0.449   3.038   6.264 -2.0365 -0.2697 -0.7902
11722TIP3    H235124   0.460   3.073   6.117  1.3553 -0.9088 -0.7640
11723TIP3   OH235125   1.386   7.150   5.474  0.3608  0.5224 -0.2432
11723TIP3    H135126   1.332   7.227   5.457 -1.3936 -0.6548 -0.3007
11723TIP3    H235127   1.393   7.107   5.389 -0.0100 -0.1712  0.0625
11724TIP3   OH235128   0.981   5.913   1.018 -0.4463  0.0352  0.1449
11724TIP3    H135129   1.047   5.850   0.988 -2.3961 -1.3312 -1.5829
11724TIP3    H235130   0.953   5.879   1.103  0.2319 -0.0638  0.3318
11725TIP3   OH235131   5.201   2.860   3.879  0.3473  0.2700  0.1139
11725TIP3    H135132   5.129   2.923   3.880  1.5216  1.6871 -0.5141
11725TIP3    H235133   5.205   2.830   3.788  0.7159  0.4154  0.0796
11726TIP3   OH235134   1.030   0.203   3.590 -0.1841  0.3024  0.0302
11726TIP3    H135135   1.040   0.172   3.680 -2.4741 -0.5556  0.0728
11726TIP3    H235136   1.106   0.258   3.575  0.3340  0.3775  2.4419
11727TIP3   OH235137   2.646   6.739   3.370  0.4934 -0.3121  0.1888
11727TIP3    H135138   2.671   6.829   3.391  0.8914 -0.5799  0.8620
11727TIP3    H235139   2.710   6.685   3.415 -0.5278 -0.9729  0.8720
11728TIP3   OH235140   2.037   5.590   4.669  0.4736 -0.2334 -0.0852
11728TIP3    H135141   2.089   5.512   4.687  0.2916 -1.0271 -2.6186
11728TIP3    H235142   2.090   5.662   4.702  2.4949 -1.1430 -1.1397
11729TIP3   OH235143   3.884   4.992   4.522 -0.1745 -0.1441 -0.2439
11729TIP3    H135144   3.798   4.969   4.488 -0.0169 -0.7849 -0.2064
11729TIP3    H235145   3.931   4.909   4.530  0.1062  0.0863  0.6686
11730TIP3   OH235146   4.275   6.188   1.443 -0.0495 -0.6219 -0.3311
11730TIP3    H135147   4.252   6.098   1.416  1.9305 -0.6375 -2.1984
11730TIP3    H235148   4.308   6.229   1.363 -2.1548  2.2882  0.1208
11731TIP3   OH235149   6.382   4.098   6.774 -0.4120 -0.4792 -0.7923
11731TIP3    H135150   6.338   4.014   6.761  0.1617 -0.7145 -1.2587
11731TIP3    H235151   6.470   4.075   6.802 -0.8231  0.0040  0.9733
11732TIP3   OH235152   0.771   6.453   2.602 -0.0163 -0.4937  0.9912
11732TIP3    H135153   0.801   6.386   2.540 -0.4172 -0.7017  1.0191
11732TIP3    H235154   0.727   6.518   2.548  1.4698  0.4042  0.8069
11733TIP3   OH235155   5.951   1.086   4.087  0.0701 -0.1906 -0.4374
11733TIP3    H135156   5.882   1.133   4.134  1.4743  0.7454  0.7806
11733TIP3    H235157   5.997   1.155   4.039 -1.3419 -1.1189 -3.3671
11734TIP3   OH235158   6.543   0.370   5.050  0.1085 -0.1919  0.3387
11734TIP3    H135159   6.596   0.294   5.074  1.0441  0.3091 -0.0925
11734TIP3    H235160   6.588   0.408   4.975 -1.3277 -0.2205 -0.5903
11735TIP3   OH235161   2.443   7.698   3.543 -0.4445 -0.3775  0.1990
11735TIP3    H135162   2.412   7.767   3.485  0.9739  0.5180  0.4560
11735TIP3    H235163   2.538   7.705   3.540 -0.3147 -0.7141  2.1201
11736TIP3   OH235164   0.713   3.601   3.345 -0.3886 -0.1539  0.9212
11736TIP3    H135165   0.804   3.606   3.372 -0.0508 -0.0513 -0.1994
11736TIP3    H235166   0.663   3.609   3.427  0.5701  0.8379  1.4242
11737TIP3   OH235167   6.428   0.054   5.224 -0.2378  0.2156 -0.2418
11737TIP3    H135168   6.394   0.028   5.139  0.6829  0.5294 -0.7209
11737TIP3    H235169   6.365   0.120   5.256 -0.9478 -0.3947 -0.3612
11738TIP3   OH235170   5.463   4.580   6.483 -0.0636 -0.2818 -0.2417
11738TIP3    H135171   5.449   4.634   6.405  0.4792 -1.7024 -1.3460
11738TIP3    H235172   5.434   4.493   6.458  0.0686 -0.7495  1.1669
11739TIP3   OH235173   3.899   3.622   6.276 -0.0925  0.2684  0.6900
11739TIP3    H135174   3.825   3.682   6.284 -0.0683  0.2992  0.6848
11739TIP3    H235175   3.887   3.580   6.191 -0.6211 -0.4286  1.1034
11740TIP3   OH235176   7.440   6.554   4.325 -0.3013  0.5065 -0.1568
11740TIP3    H135177   7.408   6.523   4.410 -0.5105  2.8707  0.6950
11740TIP3    H235178   7.532   6.527   4.324 -1.1509 -2.7910 -0.8790
11741TIP3   OH235179   8.267   6.149   4.481 -0.0599  0.0419 -0.6023
11741TIP3    H135180   8.357   6.121   4.465  0.4109  1.1065  0.0610
11741TIP3    H235181   8.268   6.243   4.465 -0.6750  0.3421  0.8863
11742TIP3   OH235182   5.811   4.932   4.957  0.2776  0.0401 -0.1091
11742TIP3    H135183   5.795   5.022   4.927 -1.0812 -0.4514 -0.9371
11742TIP3    H235184   5.876   4.898   4.895  0.6548  0.3696  0.0923
11743TIP3   OH235185   4.243   2.793   5.799  0.2126 -0.0778 -0.5807
11743TIP3    H135186   4.264   2.768   5.889 -1.1246 -0.0333 -0.2406
11743TIP3    H235187   4.321   2.841   5.769 -0.2707  2.1748  1.4202
11744TIP3   OH235188   1.838   2.178   0.652  0.1452  0.0038  0.3358
11744TIP3    H135189   1.868   2.098   0.608  1.5238 -0.5066  2.0622
11744TIP3    H235190   1.803   2.233   0.582 -1.6851 -2.4409 -0.7921
11745TIP3   OH235191   3.058   6.437   3.329 -0.1085  0.8678  0.3733
11745TIP3    H135192   3.091   6.527   3.337 -0.8557  1.0748  1.3621
11745TIP3    H235193   2.978   6.446   3.276 -1.2993  1.1178  2.1125
11746TIP3   OH235194   2.472   7.264   4.932 -0.7039  0.4752  0.1502
11746TIP3    H135195   2.552   7.315   4.920 -0.9186  0.6627 -0.5573
11746TIP3    H235196   2.497   7.193   4.991  0.5942 -0.7908 -1.7922
11747TIP3   OH235197   7.663   5.344   5.111 -0.0182 -0.3310  0.5396
11747TIP3    H135198   7.671   5.420   5.054  0.7375 -1.2475 -0.6277
11747TIP3    H235199   7.573   5.314   5.100  0.1231 -0.5015 -0.1922
11748TIP3   OH235200   2.146   5.668   2.147  0.4287  0.3332 -0.6953
11748TIP3    H135201   2.165   5.690   2.056  1.7085  0.7442 -0.3424
11748TIP3    H235202   2.217   5.707   2.197  0.0113 -0.3082  0.4410
11749TIP3   OH235203   3.477   6.499   2.302  0.5797  0.1929  0.1931
11749TIP3    H135204   3.495   6.528   2.392  0.7975  1.7580 -0.3258
11749TIP3    H235205   3.451   6.579   2.256 -0.4630 -0.7495 -0.9160
11750TIP3   OH235206   1.232   0.394   1.533  0.0737 -0.2277 -0.6002
11750TIP3    H135207   1.300   0.350   1.583  0.0895 -0.6440 -0.9809
11750TIP3    H235208   1.192   0.455   1.595  1.5596  0.8703 -0.6702
11751TIP3   OH235209   1.342   2.881   6.219  0.0400  0.1647 -0.0617
11751TIP3    H135210   1.354   2.804   6.274  0.4219 -0.3640 -0.8672
11751TIP3    H235211   1.257   2.869   6.177  0.0275  0.2592 -0.0644
11752TIP3   OH235212   6.396   2.074   4.859  0.4866  0.3706  0.2425
11752TIP3    H135213   6.378   2.033   4.775  1.4013  0.5045 -0.0320
11752TIP3    H235214   6.438   2.158   4.836  0.2281  0.6628  0.8187
11753TIP3   OH235215   0.711   7.314   4.775  0.1846 -0.6830  0.8445
11753TIP3    H135216   0.766   7.374   4.724 -0.0422 -0.9431  0.2884
11753TIP3    H235217   0.638   7.368   4.804 -1.2284 -1.1312 -1.5408
11754TIP3   OH235218   2.196   4.901   1.292  0.4812  0.0650 -0.0079
11754TIP3    H135219   2.133   4.842   1.251  0.4838 -0.2074  0.3770
11754TIP3    H235220   2.222   4.857   1.373  2.0368 -0.3645 -0.6977
11755TIP3   OH235221   2.241   6.738   1.549  0.1458  0.4871  0.3194
11755TIP3    H135222   2.230   6.831   1.571 -3.4882  1.2005 -3.3944
11755TIP3    H235223   2.155   6.710   1.520  1.1889 -4.0743  0.9670
11756TIP3   OH235224   3.796   4.565   1.223  0.2976 -0.1010 -0.2091
11756TIP3    H135225   3.857   4.572   1.150 -2.4919  1.1417 -2.6540
11756TIP3    H235226   3.750   4.483   1.209  0.1398 -0.1516  0.5352
11757TIP3   OH235227   3.646   3.729   1.822 -0.2559 -0.2462  0.3651
11757TIP3    H135228   3.690   3.694   1.900  0.4410 -0.4736 -0.1217
11757TIP3    H235229   3.630   3.652   1.768  0.1788  0.0294 -0.1652
11758TIP3   OH235230   0.595   0.742   3.392  0.0359  0.6521 -0.4956
11758TIP3    H135231   0.657   0.683   3.349  0.0603 -0.6914  1.2693
11758TIP3    H235232   0.621   0.741   3.484 -1.5868  1.3777  0.0080
11759TIP3   OH235233   4.968   4.459   4.940  0.0082  0.2453  0.1612
11759TIP3    H135234   5.021   4.503   4.872  1.8906 -2.8600 -0.5739
11759TIP3    H235235   4.889   4.431   4.893  0.5058 -0.3727 -0.3231
11760TIP3   OH235236   6.505   3.144   3.466  0.0175  0.0478 -0.0345
11760TIP3    H135237   6.540   3.057   3.481 -3.6376 -2.5186 -3.9542
11760TIP3    H235238   6.454   3.164   3.545  1.6876 -0.8535  1.3153
11761TIP3   OH235239   2.535   3.945   2.933 -0.4536 -0.4415 -0.1614
11761TIP3    H135240   2.613   3.991   2.965 -1.6999  1.7701 -0.1084
11761TIP3    H235241   2.539   3.859   2.976  0.7778  0.4263  1.6033
11762TIP3   OH235242   4.996   7.219   5.524 -0.1114  0.1440 -0.1113
11762TIP3    H135243   5.071   7.197   5.579  0.1799 -0.3171 -0.6754
11762TIP3    H235244   4.981   7.312   5.539 -0.5128 -0.1346  1.3082
11763TIP3   OH235245   5.908   5.047   2.469  0.0902  0.0122 -0.5307
11763TIP3    H135246   5.909   5.105   2.545 -1.9473 -1.0445  0.4081
11763TIP3    H235247   5.831   5.074   2.419 -0.0939 -0.9795 -0.8074
11764TIP3   OH235248   4.628   1.755   3.740  0.1815  0.8612 -0.0606
11764TIP3    H135249   4.594   1.782   3.655 -1.2455  0.5231  0.3763
11764TIP3    H235250   4.634   1.836   3.790 -2.9898  0.6762  0.8606
11765TIP3   OH235251   4.392   3.478   6.563  0.7148 -0.1381  0.7135
11765TIP3    H135252   4.337   3.463   6.640 -0.2587  0.8660  0.2377
11765TIP3    H235253   4.355   3.556   6.521  1.8180 -0.0971 -0.2462
11766TIP3   OH235254   7.239   7.359   6.526  0.0460 -0.2522  0.3420
11766TIP3    H135255   7.238   7.344   6.620  0.2413  0.3078  0.4397
11766TIP3    H235256   7.332   7.358   6.503 -0.0162 -4.2981 -0.5290
11767TIP3   OH235257   4.182   1.639   2.938 -0.4015 -0.1273 -0.1291
11767TIP3    H135258   4.264   1.676   2.905 -0.5964  0.0754 -0.3974
11767TIP3    H235259   4.203   1.606   3.026 -0.1293  0.2832 -0.0389
11768TIP3   OH235260   3.619   0.178   5.878  0.0727  0.0437 -0.0384
11768TIP3    H135261   3.688   0.134   5.926 -1.2111 -0.4732  1.4202
11768TIP3    H235262   3.648   0.269   5.872  2.3756 -0.7053 -2.3921
11769TIP3   OH235263   8.268   3.116   3.080 -0.3401 -0.6168  0.0453
11769TIP3    H135264   8.284   3.132   2.987 -1.4373  0.3545 -0.0001
11769TIP3    H235265   8.243   3.024   3.084  0.7992 -0.9725 -0.4521
11770TIP3   OH235266   6.580   0.711   3.205  0.6193  0.0060  0.1187
11770TIP3    H135267   6.658   0.660   3.228  1.6268  1.2428 -0.4306
11770TIP3    H235268   6.571   0.699   3.110 -0.4258 -0.8762  0.3148
11771TIP3   OH235269   4.243   5.682   1.038  0.3326  0.0531 -0.1789
11771TIP3    H135270   4.319   5.637   1.075  0.6533  0.5485 -0.2320
11771TIP3    H235271   4.194   5.613   0.993 -0.6550 -0.8002  2.0596
11772TIP3   OH235272   1.754   4.165   2.848  0.0425  0.0017 -0.4897
11772TIP3    H135273   1.776   4.080   2.887  0.5063 -0.6994 -2.1873
11772TIP3    H235274   1.761   4.150   2.753 -3.0882  1.0351 -0.9926
11773TIP3   OH235275   1.898   1.249   5.561 -0.2463  0.3852 -0.2227
11773TIP3    H135276   1.848   1.174   5.594  2.4492 -1.0995  0.7794
11773TIP3    H235277   1.856   1.326   5.600 -1.8105 -0.7550  0.4307
11774TIP3   OH235278   4.326   3.292   0.690 -0.2041  0.2732 -0.1302
11774TIP3    H135279   4.248   3.269   0.739 -0.4012  0.5456 -0.3145
11774TIP3    H235280   4.325   3.388   0.686 -0.1369  0.2554 -0.5825
11775TIP3   OH235281   4.062   5.355   0.677 -0.4243  0.1403 -0.0537
11775TIP3    H135282   3.990   5.342   0.616 -0.2614 -0.7217 -0.0746
11775TIP3    H235283   4.115   5.276   0.668  1.4956  1.4845 -1.3222
11776TIP3   OH235284   5.221   0.508   4.194 -0.4723 -0.4292 -0.2990
11776TIP3    H135285   5.177   0.425   4.179 -0.0950 -0.6108 -0.4164
11776TIP3    H235286   5.188   0.566   4.126 -1.9192 -0.0107  0.7100
11777TIP3   OH235287   2.725   5.414   1.956  0.2198  0.3192  0.0063
11777TIP3    H135288   2.684   5.335   1.921  0.5060 -0.1364  0.6777
11777TIP3    H235289   2.819   5.398   1.949  0.2841  0.7452 -0.1617
11778TIP3   OH235290   3.457   6.838   6.563 -0.7158  0.3874  0.0720
11778TIP3    H135291   3.365   6.865   6.557 -0.6388  0.7380  0.4229
11778TIP3    H235292   3.507   6.915   6.536 -0.5265  0.1774 -0.1782
11779TIP3   OH235293   2.386   3.755   5.522 -0.7153 -0.5457  0.0598
11779TIP3    H135294   2.414   3.736   5.433 -3.8378  1.0164 -1.4175
11779TIP3    H235295   2.456   3.811   5.557 -0.1515  0.1418 -1.9938
11780TIP3   OH235296   2.341   5.152   1.298  0.0533  0.3997 -0.2578
11780TIP3    H135297   2.423   5.138   1.250  0.1729 -0.2351  0.1276
11780TIP3    H235298   2.291   5.072   1.285 -1.8298  1.8309 -2.9760
11781TIP3   OH235299   3.121   6.653   1.557  0.4373 -0.0799  0.0752
11781TIP3    H135300   3.103   6.746   1.572  0.1067 -0.0042 -0.7528
11781TIP3    H235301   3.209   6.640   1.592  1.0915  0.8831 -1.1386
11782TIP3   OH235302   1.568   1.383   2.617  0.1366  0.4181 -0.0296
11782TIP3    H135303   1.651   1.383   2.665 -0.1676 -0.0195  0.5077
11782TIP3    H235304   1.556   1.473   2.588  0.8140  0.4788 -0.1333
11783TIP3   OH235305   7.380   5.163   5.417  0.5087  0.0366 -0.2988
11783TIP3    H135306   7.311   5.102   5.392 -0.3759  1.1788 -0.6764
11783TIP3    H235307   7.457   5.107   5.431 -0.4736 -1.2391  0.1096
11784TIP3   OH235308   3.895   1.626   4.199 -0.3339  0.2733 -0.4467
11784TIP3    H135309   3.848   1.555   4.244 -0.8562  0.6608 -0.3744
11784TIP3    H235310   3.837   1.702   4.208 -0.4848  0.3371 -1.8404
11785TIP3   OH235311   2.742   0.233   2.987  0.1223  0.3876 -0.1315
11785TIP3    H135312   2.793   0.264   2.913 -0.8047  3.5943  0.4345
11785TIP3    H235313   2.653   0.265   2.970 -0.1773  0.9342  2.1689
11786TIP3   OH235314   0.406   1.746   3.091  0.4681 -0.4490 -0.0674
11786TIP3    H135315   0.354   1.795   3.027  0.3479 -0.0899  0.2985
11786TIP3    H235316   0.474   1.808   3.119  1.0190 -0.8671 -0.4377
11787TIP3   OH235317   4.729   6.814   3.924  0.2895 -0.0701 -0.1275
11787TIP3    H135318   4.695   6.897   3.957 -2.0848 -0.4985 -1.2733
11787TIP3    H235319   4.653   6.769   3.888  1.4531 -2.8294  0.5421
11788TIP3   OH235320   4.298   4.037   4.967  0.3457  0.1605 -0.1112
11788TIP3    H135321   4.294   3.966   4.904 -1.2517 -1.1162  1.3367
11788TIP3    H235322   4.245   4.107   4.928 -0.8894 -0.7320 -0.1079
11789TIP3   OH235323   2.392   6.686   3.031  0.1077 -0.9509 -0.7324
11789TIP3    H135324   2.451   6.752   2.994 -0.6087  0.1754  0.0279
11789TIP3    H235325   2.360   6.637   2.956  1.5505 -1.1976 -1.2086
11790TIP3   OH235326   5.354   2.222   1.197  0.0473 -0.4673  0.3566
11790TIP3    H135327   5.329   2.132   1.215 -1.0326 -0.4750 -0.9688
11790TIP3    H235328   5.317   2.272   1.270  0.7899 -1.0927  1.1823
11791TIP3   OH235329   0.963   4.919   6.460 -0.4857 -0.0448  0.3732
11791TIP3    H135330   0.992   4.962   6.540  1.7510  0.1774 -0.4676
11791TIP3    H235331   0.936   4.832   6.488 -1.5596  0.6498  1.5925
11792TIP3   OH235332   6.987   0.759   5.817  0.2878 -0.3118 -0.0294
11792TIP3    H135333   6.973   0.692   5.883 -0.2860 -1.0081 -0.8400
11792TIP3    H235334   6.907   0.812   5.819 -0.3756 -1.2337 -1.1728
11793TIP3   OH235335   0.297   5.193   6.758  0.5019  0.2934  0.4335
11793TIP3    H135336   0.271   5.285   6.750 -1.9604 -0.4174 -0.5796
11793TIP3    H235337   0.308   5.163   6.668 -1.8769 -1.1561  0.5329
11794TIP3   OH235338   6.970   6.620   5.001  0.1061  0.1201  0.1679
11794TIP3    H135339   6.973   6.524   5.003 -1.5764  0.0384  0.2649
11794TIP3    H235340   7.040   6.645   4.940 -0.3760 -1.2567 -1.0242
11795TIP3   OH235341   2.300   2.739   1.966 -0.2074  0.6214  0.3335
11795TIP3    H135342   2.243   2.809   1.934  0.6356  2.4595  2.5951
11795TIP3    H235343   2.364   2.727   1.896 -0.2328  2.2992 -0.0110
11796TIP3   OH235344   7.263   3.195   1.782 -0.0348 -0.7622 -0.2440
11796TIP3    H135345   7.204   3.166   1.713 -0.2474  1.2455 -0.9995
11796TIP3    H235346   7.217   3.269   1.823  1.4694  0.1938 -0.1885
11797TIP3   OH235347   6.939   1.139   4.251 -0.3806  0.1586 -0.1095
11797TIP3    H135348   6.922   1.230   4.276  0.7017  0.0882  1.0223
11797TIP3    H235349   6.929   1.138   4.156 -2.5625  0.9514  0.0688
11798TIP3   OH235350   4.429   2.068   5.612  0.3408  0.3886 -0.0781
11798TIP3    H135351   4.342   2.064   5.572  0.3711  2.4845 -0.4447
11798TIP3    H235352   4.474   2.138   5.566  2.0719 -0.2988  0.4687
11799TIP3   OH235353   2.245   7.188   1.880  0.8253  0.2172 -0.2068
11799TIP3    H135354   2.326   7.182   1.831  1.7235  0.7113  1.1677
11799TIP3    H235355   2.243   7.108   1.933  0.7778  0.5427  0.2875
11800TIP3   OH235356   0.274   1.840   4.266 -0.8051 -0.4554 -0.2374
11800TIP3    H135357   0.310   1.752   4.277  1.1474  0.2281 -0.7804
11800TIP3    H235358   0.259   1.848   4.172  0.9949  0.4647 -0.4908
11801TIP3   OH235359   0.367   5.595   5.632  0.2064  0.4173 -0.0830
11801TIP3    H135360   0.378   5.502   5.653 -0.6753 -0.0046 -1.3879
11801TIP3    H235361   0.297   5.625   5.689  0.0225  0.1032 -0.1450
11802TIP3   OH235362   0.470   4.088   5.480 -0.0775 -0.3688 -0.0248
11802TIP3    H135363   0.523   4.075   5.402  1.4664  0.8529  0.7663
11802TIP3    H235364   0.532   4.112   5.549 -1.5628  0.3432  1.1488
11803TIP3   OH235365   3.162   0.824   6.455  0.2416  0.0967  0.2843
11803TIP3    H135366   3.128   0.914   6.453  0.5574  0.2075 -0.9540
11803TIP3    H235367   3.225   0.825   6.528 -0.2305  0.6908  0.7048
11804TIP3   OH235368   0.914   7.203   0.311  0.1898 -0.7851  0.0606
11804TIP3    H135369   1.004   7.179   0.288  0.1758  0.2550 -1.1656
11804TIP3    H235370   0.916   7.217   0.406  1.0111 -2.0146  0.2508
11805TIP3   OH235371   1.322   6.931   0.385 -0.4128 -0.5676  0.1983
11805TIP3    H135372   1.332   6.934   0.480  0.0560  0.4474  0.1341
11805TIP3    H235373   1.412   6.941   0.351 -0.3661 -2.3971 -0.3616
11806TIP3   OH235374   5.392   6.335   4.257  0.4786 -0.3115  0.1230
11806TIP3    H135375   5.336   6.412   4.267  1.3316  0.2146  1.0266
11806TIP3    H235376   5.480   6.366   4.282  0.7374 -1.7043  1.0213
11807TIP3   OH235377   5.090   2.305   6.704 -0.1418 -0.0307 -0.8321
11807TIP3    H135378   5.173   2.342   6.735 -1.1958  0.4885  1.5153
11807TIP3    H235379   5.042   2.282   6.783 -3.0413  1.4112 -2.0325
11808TIP3   OH235380   0.822   1.273   1.517  0.1525  0.5334 -0.0926
11808TIP3    H135381   0.800   1.223   1.596 -0.1473  1.9578  0.7723
11808TIP3    H235382   0.747   1.331   1.505  0.3531  0.5726 -1.2486
11809TIP3   OH235383   1.331   7.192   3.349  0.0972  0.1396  0.4981
11809TIP3    H135384   1.275   7.248   3.403 -0.1287  0.4027 -0.0047
11809TIP3    H235385   1.274   7.162   3.279  0.7479  0.9443 -0.4019
11810TIP3   OH235386   3.388   1.151   3.200 -0.6087  0.8604  0.7029
11810TIP3    H135387   3.389   1.146   3.296 -2.4530 -1.7503  0.7037
11810TIP3    H235388   3.479   1.142   3.174 -0.1278  1.1241  2.2135
11811TIP3   OH235389   1.686   0.409   5.616 -0.6577 -0.7681  0.1300
11811TIP3    H135390   1.619   0.425   5.683  0.1756 -0.3633  0.8851
11811TIP3    H235391   1.676   0.482   5.555 -0.6561 -0.5032  0.4428
11812TIP3   OH235392   2.221   7.010   1.647 -0.4001  1.2527 -0.1944
11812TIP3    H135393   2.292   7.054   1.694  0.6280 -0.9244  0.4502
11812TIP3    H235394   2.154   6.994   1.714 -0.8314  1.9172 -0.4563
11813TIP3   OH235395   5.970   3.853   0.981  0.6607  0.1262  0.3429
11813TIP3    H135396   5.886   3.893   0.960  1.1827  0.8137 -0.4576
11813TIP3    H235397   5.947   3.781   1.041 -0.3957  0.8798  0.8875
11814TIP3   OH235398   4.880   3.469   1.785  0.1874 -0.1733  0.4133
11814TIP3    H135399   4.837   3.555   1.780  1.0432  0.3084  1.0351
11814TIP3    H235400   4.948   3.472   1.717 -0.7546 -0.9488 -0.5986
11815TIP3   OH235401   7.845   1.333   2.444  0.2308 -0.8096 -0.9993
11815TIP3    H135402   7.849   1.276   2.521 -0.9422 -1.5762 -1.4825
11815TIP3    H235403   7.893   1.284   2.377  3.1429  0.7848 -0.2704
11816TIP3   OH235404   1.288   1.850   6.633  0.4136 -0.5408  0.2001
11816TIP3    H135405   1.368   1.903   6.635 -0.6790  1.4530 -2.3504
11816TIP3    H235406   1.286   1.812   6.545 -0.6693 -1.9009  0.7719
11817TIP3   OH235407   6.164   5.270   3.617 -0.4723  0.1366  0.3252
11817TIP3    H135408   6.234   5.312   3.567 -1.2187 -0.6466 -1.4715
11817TIP3    H235409   6.181   5.296   3.707 -0.3944  3.5991 -0.5173
11818TIP3   OH235410   2.243   1.715   6.588 -0.4744  0.6688 -0.0219
11818TIP3    H135411   2.255   1.623   6.610  0.9199  1.0579  1.0270
11818TIP3    H235412   2.166   1.742   6.639 -2.0006 -0.3046 -1.7161
11819TIP3   OH235413   1.722   3.296   2.671  0.0992 -0.0181  0.4444
11819TIP3    H135414   1.799   3.342   2.638 -0.1212  1.5342  1.9623
11819TIP3    H235415   1.660   3.299   2.598  1.0757 -0.3625 -0.4314
11820TIP3   OH235416   3.275   2.294   5.726  0.3095  0.3779  0.2810
11820TIP3    H135417   3.271   2.358   5.655  0.3734  1.1085  0.9226
11820TIP3    H235418   3.184   2.286   5.756  0.1562 -0.5142 -0.3761
11821TIP3   OH235419   7.850   4.112   3.045 -0.8090 -0.6972  0.1586
11821TIP3    H135420   7.899   4.030   3.037 -1.2078 -1.0253  0.9985
11821TIP3    H235421   7.770   4.088   3.091 -0.6873  0.2647  0.8965
11822TIP3   OH235422   6.648   5.723   1.401 -0.2581 -0.6994  0.7462
11822TIP3    H135423   6.724   5.711   1.344  1.3584 -0.4758  2.7573
11822TIP3    H235424   6.604   5.638   1.400  0.1856 -0.9388 -0.1830
11823TIP3   OH235425   2.768   6.208   0.304 -0.3285 -0.5163 -0.3116
11823TIP3    H135426   2.699   6.220   0.239 -0.1413  1.6450 -0.1676
11823TIP3    H235427   2.721   6.187   0.385 -1.0333  2.5397  0.1825
11824TIP3   OH235428   8.143   2.837   3.541 -0.3364 -0.0672  0.0172
11824TIP3    H135429   8.166   2.927   3.562  0.5302 -0.1334 -0.5647
11824TIP3    H235430   8.078   2.812   3.606  0.4203  0.5364  1.0273
11825TIP3   OH235431   6.574   3.426   0.664  0.1003 -0.1826  0.3270
11825TIP3    H135432   6.497   3.443   0.719  1.3989  0.1919  2.0947
11825TIP3    H235433   6.647   3.418   0.726  1.4308 -0.9790 -1.2685
11826TIP3   OH235434   7.188   5.514   1.800 -0.3491 -0.2999  0.2836
11826TIP3    H135435   7.101   5.546   1.823 -0.8358 -1.8014  0.6027
11826TIP3    H235436   7.183   5.493   1.707  0.6695  2.6759 -0.5480
11827TIP3   OH235437   1.975   6.778   1.134 -0.1893 -0.2133 -0.7074
11827TIP3    H135438   1.954   6.700   1.185 -0.3268 -0.9923 -1.9218
11827TIP3    H235439   2.065   6.800   1.160  1.0889 -2.6749 -2.6071
11828TIP3   OH235440   0.949   0.887   4.924  0.4168 -0.9840 -0.1292
11828TIP3    H135441   1.012   0.864   4.993  0.6812 -0.0879 -0.0571
11828TIP3    H235442   0.865   0.892   4.969  0.7560  0.7295  0.3987
11829TIP3   OH235443   5.441   1.271   5.569 -0.8925  0.5193 -0.0757
11829TIP3    H135444   5.370   1.295   5.509 -1.8325 -2.7512 -0.4665
11829TIP3    H235445   5.400   1.214   5.634  1.4029 -2.3223 -0.8653
11830TIP3   OH235446   1.900   1.013   3.920  0.3762  0.0333 -0.4432
11830TIP3    H135447   1.916   1.082   3.984  0.4267 -0.4352  0.0526
11830TIP3    H235448   1.965   1.028   3.852 -0.1756  1.0055 -0.7826
11831TIP3   OH235449   2.681   5.899   0.184  0.2338 -0.0998 -0.1541
11831TIP3    H135450   2.725   5.829   0.232 -0.9120 -1.4933 -1.0259
11831TIP3    H235451   2.597   5.909   0.230 -0.3300 -0.5469 -1.0577
11832TIP3   OH235452   1.138   3.567   1.777 -0.2088 -0.1814  0.1891
11832TIP3    H135453   1.057   3.564   1.827 -0.3404 -0.8536 -0.0621
11832TIP3    H235454   1.164   3.476   1.767  0.1101 -0.0195 -0.4940
11833TIP3   OH235455   2.848   4.133   6.038 -0.2147  0.2107  0.1442
11833TIP3    H135456   2.937   4.114   6.010  0.0666  0.1009  1.0865
11833TIP3    H235457   2.806   4.048   6.045 -0.7992  0.3224 -1.5286
11834TIP3   OH235458   4.909   7.283   3.349 -0.2019 -0.1407  0.1872
11834TIP3    H135459   4.971   7.356   3.347  0.2016 -0.4883 -0.0975
11834TIP3    H235460   4.823   7.325   3.349 -0.0122  0.3286 -1.5490
11835TIP3   OH235461   1.756   4.533   0.909 -0.0251 -0.1772 -0.0764
11835TIP3    H135462   1.830   4.501   0.961 -0.4113 -0.6039  0.2173
11835TIP3    H235463   1.689   4.556   0.973  0.0491  0.7181 -0.3157
11836TIP3   OH235464   3.108   0.765   3.219  0.5719 -0.0143  0.1507
11836TIP3    H135465   3.163   0.840   3.195  0.3381 -0.1454 -0.8136
11836TIP3    H235466   3.163   0.715   3.279  1.2063  0.2897 -0.1602
11837TIP3   OH235467   7.072   7.446   1.820 -0.2827  0.2471 -0.1796
11837TIP3    H135468   7.093   7.492   1.740  1.1039 -0.7744 -0.4451
11837TIP3    H235469   7.123   7.490   1.888  1.0891 -0.8442 -0.4430
11838TIP3   OH235470   4.507   0.377   6.272 -1.0983 -0.0255 -0.3196
11838TIP3    H135471   4.519   0.412   6.184  0.2091  0.6681  0.1047
11838TIP3    H235472   4.592   0.340   6.295 -0.8277  1.4763  1.3359
11839TIP3   OH235473   7.092   6.879   3.484  0.1536  0.6362 -0.7185
11839TIP3    H135474   7.087   6.928   3.566 -0.8186  0.1786 -0.4856
11839TIP3    H235475   7.167   6.916   3.438  0.4083  1.2373  0.1593
11840TIP3   OH235476   5.901   4.072   5.834  0.1762 -0.0577 -0.3724
11840TIP3    H135477   5.814   4.071   5.875 -0.1948 -0.9893 -1.1525
11840TIP3    H235478   5.889   4.125   5.755  0.4570  0.2535 -0.2103
11841TIP3   OH235479   6.648   1.350   3.667  0.4421  0.5996  0.3205
11841TIP3    H135480   6.575   1.289   3.682  0.5300  0.8025  1.6850
11841TIP3    H235481   6.644   1.411   3.741  1.3362  1.2864 -0.1771
11842TIP3   OH235482   3.687   0.193   6.734  0.4763  0.1697  0.2108
11842TIP3    H135483   3.738   0.199   6.653  0.0637  0.9001 -0.0019
11842TIP3    H235484   3.710   0.272   6.783  0.0786  0.1579  0.4213
11843TIP3   OH235485   4.220   0.922   5.879 -0.2826 -0.3480 -0.3290
11843TIP3    H135486   4.256   0.961   5.958 -0.0014  0.7381 -0.9674
11843TIP3    H235487   4.249   0.831   5.881  1.0555  0.0736  0.0266
11844TIP3   OH235488   4.703   2.391   5.759  0.1981 -0.4909 -0.2496
11844TIP3    H135489   4.705   2.480   5.796  1.1940  0.4689 -2.4283
11844TIP3    H235490   4.610   2.376   5.740  0.0045  0.0289  0.2346
11845TIP3   OH235491   3.729   6.512   2.508 -0.2559 -0.4210  0.1651
11845TIP3    H135492   3.754   6.432   2.462 -0.4845 -0.7378  0.5799
11845TIP3    H235493   3.806   6.534   2.561  1.3968  1.9167 -2.9232
11846TIP3   OH235494   5.603   0.263   2.538  0.3197  0.5769  0.1796
11846TIP3    H135495   5.672   0.202   2.563  1.3164  1.7392  0.3762
11846TIP3    H235496   5.530   0.208   2.510  1.7803 -0.7010 -1.3094
11847TIP3   OH235497   3.502   3.293   0.999  0.1853 -0.3785  0.2711
11847TIP3    H135498   3.590   3.256   1.007 -0.2875 -1.6774 -0.2058
11847TIP3    H235499   3.492   3.348   1.076  1.8624  0.7938 -0.3033
11848TIP3   OH235500   2.618   7.750   1.386  0.6018 -0.2077  0.2809
11848TIP3    H135501   2.708   7.769   1.410  1.0447 -0.8280 -0.8383
11848TIP3    H235502   2.578   7.716   1.467  2.1036 -2.4224  0.1829
11849TIP3   OH235503   2.047   6.436   5.231  0.0419  0.4215  0.4133
11849TIP3    H135504   2.109   6.506   5.251 -0.7979  1.1115  0.6644
11849TIP3    H235505   2.085   6.391   5.156  0.2775  1.5594 -0.1750
11850TIP3   OH235506   2.092   5.494   3.271 -0.2796 -0.0950 -0.5087
11850TIP3    H135507   2.132   5.572   3.311 -2.1759  0.1340  1.0712
11850TIP3    H235508   2.141   5.421   3.308  0.8081  0.2799 -1.1633
11851TIP3   OH235509   7.973   1.713   5.489 -0.0212 -0.3944  0.5097
11851TIP3    H135510   7.897   1.712   5.432  0.1517 -1.7881  0.2573
11851TIP3    H235511   7.963   1.635   5.544  0.6756 -0.0092  1.2226
11852TIP3   OH235512   5.901   5.775   5.129  0.0960  0.2239 -0.4561
11852TIP3    H135513   5.807   5.784   5.142  0.2915  2.6820 -0.2806
11852TIP3    H235514   5.929   5.712   5.195 -1.4790 -1.0461 -0.9367
11853TIP3   OH235515   0.181   3.977   4.642  0.0074  0.3572 -0.4369
11853TIP3    H135516   0.162   3.899   4.694 -2.3778  0.7449 -0.6035
11853TIP3    H235517   0.170   3.949   4.551 -0.5086  0.7891 -0.5123
11854TIP3   OH235518   7.101   3.104   4.334  0.2911 -0.6565 -0.0871
11854TIP3    H135519   7.089   3.174   4.398  1.5395 -0.4042 -0.1040
11854TIP3    H235520   7.115   3.025   4.387 -0.6152 -0.8250 -0.0705
11855TIP3   OH235521   7.231   7.044   6.315  0.1157  0.4778 -0.4340
11855TIP3    H135522   7.225   7.116   6.253  0.2225  0.1347 -0.8461
11855TIP3    H235523   7.295   7.073   6.379 -0.6723  1.2179  0.0444
11856TIP3   OH235524   3.262   4.668   0.779  0.1043 -0.4888 -0.1403
11856TIP3    H135525   3.289   4.656   0.870 -0.4762  0.1508  0.1310
11856TIP3    H235526   3.225   4.756   0.777 -1.8681 -1.2767 -0.4963
11857TIP3   OH235527   1.804   1.064   5.773 -0.4128 -0.0879  0.2238
11857TIP3    H135528   1.750   1.058   5.851 -1.5052  1.1936 -0.3994
11857TIP3    H235529   1.876   1.123   5.797 -1.3030  1.1342 -0.0007
11858TIP3   OH235530   4.689   6.528   4.612 -0.3963 -0.2847  0.0673
11858TIP3    H135531   4.642   6.468   4.670 -0.8009 -1.1320 -1.0876
11858TIP3    H235532   4.624   6.554   4.547  0.5331 -0.9861 -1.1953
11859TIP3   OH235533   4.466   5.958   5.925 -0.2289  0.4874 -0.7396
11859TIP3    H135534   4.502   5.976   5.839 -1.1626 -0.0627 -1.2594
11859TIP3    H235535   4.441   6.044   5.959  2.3346  1.0293  0.0448
11860TIP3   OH235536   6.704   7.379   0.184  0.8375 -0.0903 -0.0812
11860TIP3    H135537   6.787   7.332   0.187  0.1699 -1.4656 -1.6893
11860TIP3    H235538   6.672   7.365   0.095 -1.6017 -0.4671  0.7800
11861TIP3   OH235539   4.359   1.338   3.079 -0.1615  0.2988  0.2060
11861TIP3    H135540   4.351   1.417   3.133 -1.3047  0.6058 -0.3789
11861TIP3    H235541   4.447   1.305   3.098 -0.0733  1.0960  1.2925
11862TIP3   OH235542   1.087   6.487   3.002 -0.2627 -0.1107 -0.0698
11862TIP3    H135543   1.031   6.420   2.962  0.1241 -0.5091  0.0474
11862TIP3    H235544   1.111   6.451   3.087  0.4053 -0.0748 -0.2371
11863TIP3   OH235545   4.847   3.421   5.089 -0.0583  0.0641  0.1394
11863TIP3    H135546   4.756   3.402   5.066 -0.0720  0.6953 -0.3490
11863TIP3    H235547   4.881   3.337   5.122 -1.3976  0.2812  2.3063
11864TIP3   OH235548   6.743   3.720   4.410 -0.0055  0.0708  0.3009
11864TIP3    H135549   6.763   3.750   4.499  0.3487 -0.7993  0.5341
11864TIP3    H235550   6.753   3.624   4.415  0.5816  0.0556 -0.8142
11865TIP3   OH235551   6.608   0.760   1.777  0.2574  0.4906  0.0083
11865TIP3    H135552   6.514   0.742   1.766  0.7515 -0.9431 -2.8751
11865TIP3    H235553   6.613   0.810   1.858 -2.6225 -2.2181  2.1327
11866TIP3   OH235554   3.554   5.942   6.319 -0.6917  0.1574  0.2322
11866TIP3    H135555   3.498   6.006   6.363 -1.0490 -0.2485  0.3706
11866TIP3    H235556   3.622   5.995   6.276  1.1492  0.4517  3.2570
11867TIP3   OH235557   2.085   3.038   4.550  0.0514  0.0988 -0.2199
11867TIP3    H135558   2.149   3.009   4.485  0.3326  0.3740 -0.0667
11867TIP3    H235559   2.091   3.133   4.550 -0.7477  0.1548 -0.5932
11868TIP3   OH235560   5.345   4.806   2.498  0.2360 -0.1027 -0.2646
11868TIP3    H135561   5.381   4.781   2.583  0.7283  2.1117  0.2544
11868TIP3    H235562   5.394   4.754   2.435  0.9620 -0.6346  0.7084
11869TIP3   OH235563   1.476   6.008   0.050  0.3095  0.0020  0.5350
11869TIP3    H135564   1.382   6.022   0.063  0.2447  0.6877 -0.4723
11869TIP3    H235565   1.518   6.081   0.096  0.3844 -0.5555  1.3680
11870TIP3   OH235566   0.189   2.681   2.679 -0.0737  0.2216 -0.1774
11870TIP3    H135567   0.117   2.717   2.730 -1.1458 -2.2409  0.1745
11870TIP3    H235568   0.259   2.666   2.743  0.2949  1.3610 -0.2874
11871TIP3   OH235569   3.655   6.752   6.315  0.2161  0.4129 -0.4023
11871TIP3    H135570   3.725   6.687   6.314  0.1733  0.3086  1.3523
11871TIP3    H235571   3.700   6.837   6.318  0.2826  0.3504  0.5886
11872TIP3   OH235572   1.004   3.487   2.982  0.0058  0.8118 -0.3210
11872TIP3    H135573   1.081   3.531   2.945 -1.3854  2.5774 -1.2351
11872TIP3    H235574   0.973   3.430   2.912 -0.5944  1.5267 -0.6493
11873TIP3   OH235575   3.578   6.717   4.348 -0.1017  0.5366 -0.1296
11873TIP3    H135576   3.570   6.791   4.409 -0.6306  2.2498 -2.1658
11873TIP3    H235577   3.509   6.657   4.375  0.6337  0.5097  1.8664
11874TIP3   OH235578   2.187   2.333   0.694 -0.1205 -0.0845  0.1012
11874TIP3    H135579   2.104   2.286   0.694  0.3141 -1.0614 -2.6623
11874TIP3    H235580   2.244   2.280   0.750 -0.7595 -0.6250  0.2598
11875TIP3   OH235581   7.561   4.480   5.730  0.1623 -0.2724 -0.0115
11875TIP3    H135582   7.471   4.501   5.704  0.2438 -0.7181 -0.6797
11875TIP3    H235583   7.613   4.491   5.650  0.2404 -2.7649 -0.3841
11876TIP3   OH235584   1.832   3.650   1.749  0.1031  0.5833  0.2324
11876TIP3    H135585   1.759   3.611   1.797  0.5816 -0.2358  0.3030
11876TIP3    H235586   1.890   3.684   1.817 -0.1774  1.1937  0.1767
11877TIP3   OH235587   7.152   5.824   1.154 -0.0756 -0.2848 -0.2623
11877TIP3    H135588   7.204   5.905   1.157 -1.0765  0.4759 -1.9368
11877TIP3    H235589   7.078   5.842   1.211  0.5500 -0.6870  0.7002
11878TIP3   OH235590   0.248   4.959   0.344 -0.5161 -0.0666  0.2970
11878TIP3    H135591   0.223   4.975   0.252  0.4695 -0.6534 -0.0855
11878TIP3    H235592   0.339   4.930   0.339 -0.2156  0.6298  1.5428
11879TIP3   OH235593   6.916   1.773   3.083 -0.0987  0.2007  0.9961
11879TIP3    H135594   6.849   1.776   3.015  1.2910 -1.0043 -0.4837
11879TIP3    H235595   6.868   1.791   3.164 -1.7725  1.8714 -0.2689
11880TIP3   OH235596   3.765   5.011   5.652  0.7122  0.1268  0.2458
11880TIP3    H135597   3.748   5.041   5.741  0.5559 -1.4051  0.7685
11880TIP3    H235598   3.835   4.946   5.662  0.4730 -0.2895 -0.7005
11881TIP3   OH235599   0.452   4.405   4.923 -0.4359  0.9724  0.1213
11881TIP3    H135600   0.379   4.377   4.979  0.0060  0.3557  0.4070
11881TIP3    H235601   0.530   4.384   4.974 -0.0612  1.8096 -0.1022
11882TIP3   OH235602   0.454   7.634   0.043 -0.2083  0.0869 -0.0302
11882TIP3    H135603   0.526   7.587   0.084 -1.9124 -1.2026  1.6698
11882TIP3    H235604   0.452   7.719   0.087  0.9814  0.6148 -0.9489
11883TIP3   OH235605   5.924   5.038   5.506 -0.5623 -0.1237 -0.6303
11883TIP3    H135606   5.905   5.084   5.588  0.3770 -0.3188 -0.2939
11883TIP3    H235607   5.842   5.042   5.457 -1.5031 -0.9646  0.7866
11884TIP3   OH235608   5.710   4.759   1.504  0.1167 -0.1558 -0.2071
11884TIP3    H135609   5.639   4.778   1.444 -0.8914 -0.3778  0.8835
11884TIP3    H235610   5.670   4.762   1.591  1.0597 -1.9282  0.3319
11885TIP3   OH235611   1.853   7.630   5.929  0.1210  0.2457  0.3462
11885TIP3    H135612   1.843   7.725   5.923  0.1823  0.4520  2.5599
11885TIP3    H235613   1.839   7.598   5.840 -3.6003  1.9863  0.1474
11886TIP3   OH235614   6.644   3.054   4.878  1.2542 -0.5404 -0.8535
11886TIP3    H135615   6.672   3.103   4.956  2.5461 -0.6132 -1.2597
11886TIP3    H235616   6.548   3.054   4.884  1.2567  1.0062 -0.2056
11887TIP3   OH235617   5.761   5.502   3.499 -0.5887 -0.1847  0.4759
11887TIP3    H135618   5.766   5.581   3.553  0.6187  0.0081  0.1268
11887TIP3    H235619   5.673   5.502   3.463 -0.7908  0.6926  0.9469
11888TIP3   OH235620   1.878   5.733   5.702  0.0427 -0.3785 -0.7436
11888TIP3    H135621   1.842   5.658   5.749  0.2025 -0.6136 -0.9889
11888TIP3    H235622   1.871   5.708   5.609  1.0147 -0.5217 -0.7966
11889TIP3   OH235623   2.054   3.045   1.973  0.9271 -0.9455 -0.0528
11889TIP3    H135624   2.088   3.002   2.051  1.6329 -0.5284 -0.1191
11889TIP3    H235625   2.057   3.138   1.994  1.3485 -0.8176 -0.6677
11890TIP3   OH235626   0.915   5.156   4.836  0.1233  0.0166  0.1207
11890TIP3    H135627   0.889   5.064   4.826 -0.7032  0.2147  0.4334
11890TIP3    H235628   1.010   5.155   4.821  0.7817 -1.4575  3.4658
11891TIP3   OH235629   7.697   6.833   5.752 -0.4157  0.0538  0.1719
11891TIP3    H135630   7.706   6.758   5.692  2.1758  1.2536 -1.1073
11891TIP3    H235631   7.780   6.835   5.799  0.4540  3.2473 -1.2714
11892TIP3   OH235632   0.932   6.343   2.830 -0.4126  0.2996  0.4680
11892TIP3    H135633   0.893   6.414   2.779 -0.2918  0.4840  0.6330
11892TIP3    H235634   0.875   6.268   2.814 -0.3607  0.3497  0.0375
11893TIP3   OH235635   2.031   4.392   4.425 -0.0804 -0.6808  0.1068
11893TIP3    H135636   1.949   4.364   4.385 -0.4968 -1.0117  1.1629
11893TIP3    H235637   2.005   4.460   4.487  0.6742  0.5626 -0.8820
11894TIP3   OH235638   6.692   2.499   1.806 -0.6322 -0.4589  0.0717
11894TIP3    H135639   6.714   2.491   1.713  1.4675  0.8551  0.3698
11894TIP3    H235640   6.701   2.411   1.841 -0.5830 -0.8127 -0.8112
11895TIP3   OH235641   4.889   0.327   6.276  0.3125  0.5178  0.2328
11895TIP3    H135642   4.831   0.333   6.353 -2.5941  0.7374 -1.8014
11895TIP3    H235643   4.937   0.409   6.276 -1.3427  1.5410  0.6303
11896TIP3   OH235644   1.081   3.620   1.501 -0.1002 -0.2031  0.5654
11896TIP3    H135645   1.032   3.699   1.479  0.4661  0.1397  0.4923
11896TIP3    H235646   1.096   3.627   1.595 -0.5860 -0.5373  0.6677
11897TIP3   OH235647   1.720   7.107   3.646 -0.5262 -0.2948 -0.3234
11897TIP3    H135648   1.700   7.025   3.601 -1.7823  0.2555 -0.8274
11897TIP3    H235649   1.806   7.132   3.614  1.1342 -2.7323  1.8438
11898TIP3   OH235650   4.134   6.256   5.507 -0.1322  0.0896  0.0235
11898TIP3    H135651   4.058   6.269   5.449  0.9090  2.5667 -0.9270
11898TIP3    H235652   4.209   6.283   5.455  1.6696 -3.3253  0.5569
11899TIP3   OH235653   3.396   6.782   2.262  0.1129  0.2419  0.6299
11899TIP3    H135654   3.379   6.857   2.204  0.4654  0.5529  0.9263
11899TIP3    H235655   3.315   6.731   2.259 -0.8314  1.5704  1.8361
11900TIP3   OH235656   2.164   4.159   2.021  0.0829  0.1415  0.4639
11900TIP3    H135657   2.178   4.207   2.102  1.5806 -0.7889  0.7960
11900TIP3    H235658   2.217   4.080   2.031 -0.0445 -0.1910 -1.2476
11901TIP3   OH235659   6.997   1.877   0.592 -0.2657  0.0236 -0.7454
11901TIP3    H135660   6.924   1.878   0.530 -0.6034  2.6449 -0.4116
11901TIP3    H235661   7.064   1.931   0.551  0.2167  0.3055  0.3844
11902TIP3   OH235662   6.305   6.602   3.238 -0.0581 -0.1038  0.1272
11902TIP3    H135663   6.316   6.691   3.204 -0.0013 -0.0354  0.3268
11902TIP3    H235664   6.273   6.552   3.163  2.6164 -0.5614 -0.8151
11903TIP3   OH235665   4.805   2.494   2.016 -0.7337 -0.0144  0.1140
11903TIP3    H135666   4.802   2.422   2.079  3.0198 -0.4267  0.0405
11903TIP3    H235667   4.812   2.451   1.930  0.3519  0.3910 -0.0212
11904TIP3   OH235668   4.705   0.546   1.345  0.4139 -0.0747  0.4293
11904TIP3    H135669   4.655   0.569   1.424  1.8219  4.3753  0.2958
11904TIP3    H235670   4.758   0.471   1.372 -0.2346  0.3486  3.2415
11905TIP3   OH235671   5.455   4.511   1.787 -0.3926  0.0885 -0.0060
11905TIP3    H135672   5.417   4.452   1.852 -0.3293  0.0221 -0.0281
11905TIP3    H235673   5.503   4.452   1.727  2.3469  0.3861  1.7348
11906TIP3   OH235674   1.356   5.098   0.211 -0.1815 -0.1950  0.0827
11906TIP3    H135675   1.296   5.091   0.284 -1.9366 -0.1564 -1.2949
11906TIP3    H235676   1.356   5.191   0.189 -2.1715 -0.5592 -1.8781
11907TIP3   OH235677   1.104   1.255   4.471 -0.3074  0.7070  0.7740
11907TIP3    H135678   1.061   1.170   4.473 -1.5959  1.2949 -0.3772
11907TIP3    H235679   1.140   1.262   4.383  0.5318  1.0114  1.1297
11908TIP3   OH235680   8.244   0.299   3.828  0.2280 -0.0730 -0.4333
11908TIP3    H135681   8.287   0.247   3.895  0.0160 -2.1076 -1.8069
11908TIP3    H235682   8.151   0.275   3.834 -0.4713  2.6107  1.0264
11909TIP3   OH235683   2.078   3.341   5.044 -0.1775 -0.1480 -0.3124
11909TIP3    H135684   2.092   3.256   5.086 -0.1161  0.0060 -0.0164
11909TIP3    H235685   1.998   3.375   5.085  0.3661  0.3962  0.3315
11910TIP3   OH235686   3.348   1.534   6.744 -0.1416 -0.0062  0.2639
11910TIP3    H135687   3.275   1.483   6.781  0.4233  0.8168  2.7433
11910TIP3    H235688   3.426   1.492   6.779  0.4868  0.5035 -0.5032
11911TIP3   OH235689   3.367   3.603   2.061 -0.8099 -0.0984  0.0271
11911TIP3    H135690   3.439   3.541   2.049  0.5546  1.5628 -1.0008
11911TIP3    H235691   3.349   3.601   2.155 -1.3807 -2.5808 -0.0656
11912TIP3   OH235692   1.394   6.491   2.247 -0.2860 -0.1860 -0.3955
11912TIP3    H135693   1.384   6.450   2.161 -1.4618 -0.0293 -0.3590
11912TIP3    H235694   1.387   6.585   2.229 -0.7256 -0.1604 -0.1199
11913TIP3   OH235695   7.456   5.180   0.625 -0.5602 -0.5388  0.6165
11913TIP3    H135696   7.431   5.268   0.653  0.2234 -0.2722  0.5127
11913TIP3    H235697   7.387   5.153   0.564  0.5808  1.1817 -1.6110
11914TIP3   OH235698   5.241   7.385   3.234 -0.4417 -0.0775  0.3216
11914TIP3    H135699   5.175   7.437   3.280 -2.3936 -1.0124 -1.3169
11914TIP3    H235700   5.284   7.335   3.304 -1.1434  0.8732  1.4792
11915TIP3   OH235701   5.295   2.367   4.941 -0.1912  0.4767 -0.0438
11915TIP3    H135702   5.260   2.407   5.021 -1.1472  1.4971 -0.9459
11915TIP3    H235703   5.385   2.342   4.964 -0.1241  1.6365  1.0520
11916TIP3   OH235704   0.927   1.130   0.336  0.1002 -0.5885  0.5429
11916TIP3    H135705   0.951   1.207   0.387 -2.4464  1.7395 -1.4886
11916TIP3    H235706   0.862   1.085   0.390 -0.2990  0.1345  0.6752
11917TIP3   OH235707   0.645   2.655   5.752  0.0478  0.2569 -0.4429
11917TIP3    H135708   0.706   2.582   5.760 -2.3549 -1.8931 -0.5616
11917TIP3    H235709   0.624   2.678   5.843  0.1537  0.2170 -0.4078
11918TIP3   OH235710   4.231   5.231   1.982  0.1877  0.3238 -0.0952
11918TIP3    H135711   4.192   5.165   2.039  0.5844  0.3771  0.2367
11918TIP3    H235712   4.238   5.189   1.896  1.5279 -0.4626  0.3857
11919TIP3   OH235713   8.208   2.626   3.770 -0.4847 -0.5129 -0.1182
11919TIP3    H135714   8.125   2.633   3.723 -0.8609 -1.2134  0.4218
11919TIP3    H235715   8.205   2.697   3.834 -1.1979 -1.2564  0.6895
11920TIP3   OH235716   2.318   6.129   5.460  0.1563  0.1334 -0.3040
11920TIP3    H135717   2.343   6.172   5.378  0.2517  0.6477 -0.0100
11920TIP3    H235718   2.331   6.196   5.527  3.1043 -1.1672  0.5854
11921TIP3   OH235719   2.409   6.240   1.975  0.0029  0.6640 -0.0467
11921TIP3    H135720   2.385   6.170   2.035  0.9650  0.2503 -0.1419
11921TIP3    H235721   2.436   6.195   1.895  0.8990  1.1246 -0.0123
11922TIP3   OH235722   5.204   1.109   3.227 -0.2989  0.2975 -0.4574
11922TIP3    H135723   5.184   1.159   3.148  1.0736  0.1272 -0.9491
11922TIP3    H235724   5.247   1.030   3.195 -1.1381 -0.5326  0.3887
11923TIP3   OH235725   2.970   0.099   4.663  0.6193 -0.0983 -0.1656
11923TIP3    H135726   2.880   0.074   4.685 -0.0395  1.3099 -1.1429
11923TIP3    H235727   2.974   0.193   4.681  2.0904 -0.2361  0.4081
11924TIP3   OH235728   2.130   5.976   1.053 -0.2784  0.0939 -0.3683
11924TIP3    H135729   2.147   5.921   0.977  0.3218  0.1903 -0.3058
11924TIP3    H235730   2.098   5.915   1.120  0.9403 -0.2765 -0.1105
11925TIP3   OH235731   5.946   3.605   3.780  0.2748 -0.1955 -0.0086
11925TIP3    H135732   5.914   3.640   3.863 -0.8190 -0.2870 -0.3820
11925TIP3    H235733   5.894   3.526   3.766 -0.3277  0.4202 -1.3264
11926TIP3   OH235734   2.045   3.671   5.260  0.1035 -0.0980 -0.1785
11926TIP3    H135735   1.978   3.709   5.317  1.4825  0.1847  1.3283
11926TIP3    H235736   2.022   3.579   5.255 -0.9377  0.1645 -0.4750
11927TIP3   OH235737   7.039   7.455   2.641  0.0541  0.3213 -0.2802
11927TIP3    H135738   7.102   7.407   2.587  0.2512  0.7619 -0.4517
11927TIP3    H235739   6.957   7.450   2.592 -0.6018 -1.9950  0.9023
11928TIP3   OH235740   7.268   6.685   5.142 -0.1564 -0.1323  0.1743
11928TIP3    H135741   7.333   6.729   5.087  0.1453  1.2485  1.5608
11928TIP3    H235742   7.184   6.708   5.102  0.1042 -0.0842 -0.3554
11929TIP3   OH235743   0.706   7.506   2.048  0.2444  0.6977 -0.5944
11929TIP3    H135744   0.737   7.424   2.010 -2.0928 -1.1334  1.0930
11929TIP3    H235745   0.733   7.501   2.140 -1.3889  0.9151 -0.0613
11930TIP3   OH235746   2.638   7.779   0.613 -0.1042  0.2638  0.4652
11930TIP3    H135747   2.716   7.772   0.558  1.4858  0.2602  2.5611
11930TIP3    H235748   2.654   7.715   0.683 -0.2443  2.7254  2.8982
11931TIP3   OH235749   4.713   7.129   6.724  0.2764 -0.1130  0.5057
11931TIP3    H135750   4.719   7.122   6.819 -1.4490 -1.7580  0.5516
11931TIP3    H235751   4.621   7.149   6.707  0.2707 -1.1296 -0.8433
11932TIP3   OH235752   5.374   2.353   6.510 -0.3732  0.6079  0.2128
11932TIP3    H135753   5.390   2.390   6.597  0.6221  1.5170 -0.3373
11932TIP3    H235754   5.317   2.416   6.467 -0.1963  0.5661 -0.0820
11933TIP3   OH235755   6.332   6.605   4.189  0.3150 -0.0397 -0.6564
11933TIP3    H135756   6.414   6.648   4.213 -0.1183 -0.1288  1.1286
11933TIP3    H235757   6.339   6.518   4.228 -0.1951 -0.4222 -1.4020
11934TIP3   OH235758   6.733   6.873   4.409  0.3896  0.0418  0.2510
11934TIP3    H135759   6.760   6.857   4.499 -1.1496  1.3908  1.0200
11934TIP3    H235760   6.807   6.919   4.370  1.5102 -1.5038  0.4550
11935TIP3   OH235761   3.802   3.476   2.525 -0.0807 -0.2041  0.1094
11935TIP3    H135762   3.836   3.396   2.565  0.0917 -0.4121 -0.4340
11935TIP3    H235763   3.795   3.538   2.597  1.9291  0.0182  0.1781
11936TIP3   OH235764   3.544   3.535   3.637 -0.1420 -0.3648 -0.4107
11936TIP3    H135765   3.591   3.468   3.587  0.1813 -1.1217  0.8724
11936TIP3    H235766   3.458   3.539   3.595  0.4626 -0.1887 -1.7042
11937TIP3   OH235767   7.373   5.416   1.433 -0.3932  0.5369 -0.3957
11937TIP3    H135768   7.292   5.387   1.475  0.1705  0.5693  0.7482
11937TIP3    H235769   7.360   5.510   1.417 -0.5021  0.5899 -0.0082
11938TIP3   OH235770   2.744   5.686   5.508  0.3914  0.1630  0.4077
11938TIP3    H135771   2.814   5.747   5.485 -0.6193  1.5165  0.8079
11938TIP3    H235772   2.681   5.693   5.437  1.3422 -2.2625 -0.7793
11939TIP3   OH235773   0.266   6.987   2.312  0.1261  0.3660 -0.2085
11939TIP3    H135774   0.193   6.932   2.284  0.0530  0.1298  0.4233
11939TIP3    H235775   0.238   7.022   2.397  0.5156  0.7193 -0.2211
11940TIP3   OH235776   5.352   5.008   3.279 -0.2909 -0.1947 -0.3634
11940TIP3    H135777   5.448   5.016   3.284 -0.3773  0.3220  1.9181
11940TIP3    H235778   5.321   5.098   3.274 -0.6801 -0.3559 -0.9196
11941TIP3   OH235779   4.730   1.172   0.979 -0.8943 -0.3944 -0.0670
11941TIP3    H135780   4.701   1.138   0.894  0.2631 -0.3732 -0.4925
11941TIP3    H235781   4.694   1.111   1.043 -0.0434 -1.6356 -0.7317
11942TIP3   OH235782   3.849   3.404   6.442 -0.7277  0.4666  0.6689
11942TIP3    H135783   3.849   3.342   6.369 -2.6454 -0.5337  1.4525
11942TIP3    H235784   3.875   3.488   6.402 -0.1568 -0.3807 -0.8260
11943TIP3   OH235785   1.938   3.173   3.235  0.0440  0.4639 -0.3479
11943TIP3    H135786   1.912   3.082   3.251  1.8016 -0.2834 -1.4820
11943TIP3    H235787   1.963   3.206   3.321 -1.0436  0.0461  0.1533
11944TIP3   OH235788   3.708   2.526   4.638 -0.3253  0.2520  0.0718
11944TIP3    H135789   3.664   2.554   4.558 -1.1947  0.1175  0.4918
11944TIP3    H235790   3.647   2.466   4.680  0.4021 -0.2083  0.5105
11945TIP3   OH235791   4.103   2.548   3.211 -0.2562 -0.1741 -0.0798
11945TIP3    H135792   4.118   2.499   3.292  0.7030  0.8262  0.3790
11945TIP3    H235793   4.054   2.626   3.239  2.1810  1.4503  0.0198
11946TIP3   OH235794   4.344   0.465   3.937  0.1659 -0.6836 -0.0589
11946TIP3    H135795   4.358   0.371   3.947  2.0374 -0.6726 -2.0879
11946TIP3    H235796   4.421   0.497   3.890 -0.5479  1.8397  0.3293
11947TIP3   OH235797   1.814   4.412   4.687  0.1337  0.3681  0.3452
11947TIP3    H135798   1.727   4.452   4.687  0.2047  0.5273  0.0441
11947TIP3    H235799   1.873   4.481   4.717  0.3545  0.7301 -0.8487
11948TIP3   OH235800   3.963   4.443   5.980 -0.3299  0.7757 -0.1262
11948TIP3    H135801   3.909   4.511   6.020 -0.9395 -0.4475  1.2377
11948TIP3    H235802   3.947   4.452   5.886 -3.8741 -0.2151  0.2480
11949TIP3   OH235803   6.801   5.613   5.083 -0.1971  0.7635 -0.4921
11949TIP3    H135804   6.717   5.646   5.053 -1.0729 -2.4100 -1.9156
11949TIP3    H235805   6.860   5.624   5.009 -0.3058 -0.1019 -0.7217
11950TIP3   OH235806   0.433   4.623   3.718  0.3180 -0.2334  0.1427
11950TIP3    H135807   0.367   4.622   3.648 -0.1939  0.0626  0.6073
11950TIP3    H235808   0.391   4.576   3.790  0.6708 -0.1659  0.3940
11951TIP3   OH235809   4.795   7.080   5.352 -0.0423  0.3124 -0.3719
11951TIP3    H135810   4.862   7.014   5.337  0.2217 -0.2503  2.5804
11951TIP3    H235811   4.835   7.141   5.415 -2.4839 -0.5836  2.2687
11952TIP3   OH235812   2.236   4.862   2.239 -0.0393  0.1194  0.1255
11952TIP3    H135813   2.168   4.927   2.226 -0.1330 -0.0239 -0.1250
11952TIP3    H235814   2.189   4.783   2.266  0.1253  0.3142  0.9960
11953TIP3   OH235815   4.396   1.773   2.550  0.1543 -0.3800 -0.3524
11953TIP3    H135816   4.336   1.775   2.624  0.0886  0.8329 -0.4179
11953TIP3    H235817   4.363   1.703   2.494 -0.2910 -0.7361  0.3444
11954TIP3   OH235818   4.841   7.263   2.665  0.1191 -0.4119 -0.0068
11954TIP3    H135819   4.844   7.168   2.658  0.8153 -0.3277 -1.0611
11954TIP3    H235820   4.932   7.289   2.681  0.3502  0.2065 -2.0114
11955TIP3   OH235821   7.869   1.125   6.604  0.1579 -0.7280  0.3002
11955TIP3    H135822   7.913   1.176   6.672 -3.0736  2.8440  0.0240
11955TIP3    H235823   7.790   1.091   6.647 -0.7474 -0.3734 -1.0299
11956TIP3   OH235824   5.169   1.655   4.911  0.0126 -0.0073 -0.1126
11956TIP3    H135825   5.077   1.645   4.885 -0.2144  1.3167  0.0957
11956TIP3    H235826   5.180   1.592   4.982 -0.4666 -0.8450 -0.7638
11957TIP3   OH235827   4.808   0.066   3.424  0.4882  0.1835  0.7475
11957TIP3    H135828   4.740   0.017   3.471  0.1377  0.3106  0.3815
11957TIP3    H235829   4.780   0.157   3.431 -0.2485  0.1035 -0.7696
11958TIP3   OH235830   5.282   5.635   5.000 -0.2303 -0.1123  0.5960
11958TIP3    H135831   5.207   5.635   4.941  0.1273 -0.0696  0.1358
11958TIP3    H235832   5.325   5.719   4.984  0.6129 -0.6465 -0.0458
11959TIP3   OH235833   0.082   4.864   1.665 -0.1492  0.2651  0.4711
11959TIP3    H135834   0.039   4.835   1.745 -0.5051 -0.1459  0.1341
11959TIP3    H235835   0.011   4.883   1.605  0.1163  0.6149  0.2645
11960TIP3   OH235836   6.998   3.635   6.453  0.0765  0.6441 -0.2774
11960TIP3    H135837   6.951   3.581   6.390 -1.8615  1.6979  0.1657
11960TIP3    H235838   7.086   3.599   6.455 -1.0643 -2.4157 -0.0696
11961TIP3   OH235839   4.551   1.974   0.891  0.1126  0.0354 -0.6032
11961TIP3    H135840   4.476   1.957   0.948  0.3577  0.6825 -0.0634
11961TIP3    H235841   4.619   1.915   0.922 -0.0209 -0.2137 -0.7820
11962TIP3   OH235842   0.058   5.776   5.226  0.3876 -0.1007  0.5357
11962TIP3    H135843   0.080   5.718   5.298 -0.8036 -0.2220  0.8224
11962TIP3    H235844  -0.024   5.818   5.253  0.4225  0.5556 -0.3326
11963TIP3   OH235845   6.553   7.599   5.796 -0.1518  0.1915  0.3324
11963TIP3    H135846   6.487   7.573   5.731  0.8811 -1.1136 -0.2398
11963TIP3    H235847   6.624   7.634   5.743 -0.1547  1.0983  0.9169
11964TIP3   OH235848   5.468   6.354   3.657 -0.0594 -0.1247 -0.3495
11964TIP3    H135849   5.438   6.265   3.642  2.2149 -0.9687 -0.2447
11964TIP3    H235850   5.552   6.359   3.612  0.0893  1.8446  0.0382
11965TIP3   OH235851   6.862   7.517   0.461 -0.0164  0.2234  0.3303
11965TIP3    H135852   6.935   7.544   0.406 -0.1077 -2.1621 -1.0886
11965TIP3    H235853   6.790   7.575   0.435  0.0534 -0.5663 -1.8793
11966TIP3   OH235854   7.097   7.178   5.814 -0.3885 -0.9161  0.1374
11966TIP3    H135855   7.067   7.194   5.904  0.6310 -1.2514  0.5558
11966TIP3    H235856   7.103   7.083   5.808 -0.5528 -0.8959 -0.3173
11967TIP3   OH235857   8.245   5.878   3.526 -0.2702  0.4711 -0.4187
11967TIP3    H135858   8.208   5.885   3.614  0.5007 -0.9716  0.0475
11967TIP3    H235859   8.328   5.926   3.531 -0.0269  0.0310 -0.2427
11968TIP3   OH235860   2.058   1.416   5.999  0.0010 -0.3609 -0.5118
11968TIP3    H135861   2.038   1.324   6.017  0.7916 -0.4847 -0.2065
11968TIP3    H235862   2.149   1.415   5.970  0.1187  0.3644 -0.1790
11969TIP3   OH235863   6.124   4.582   0.727  0.0005  0.5396  0.1647
11969TIP3    H135864   6.178   4.594   0.805 -0.4335 -2.6699  1.1131
11969TIP3    H235865   6.034   4.592   0.759 -0.2983 -2.7795  0.6913
11970TIP3   OH235866   2.251   4.698   0.461  0.3430  0.3134 -0.5081
11970TIP3    H135867   2.220   4.787   0.445 -0.1903  0.5580  1.5432
11970TIP3    H235868   2.340   4.710   0.495  1.2382 -0.1416 -2.5365
11971TIP3   OH235869   7.928   3.288   5.733 -0.0079  0.1730  0.2081
11971TIP3    H135870   7.920   3.253   5.822  0.2316  0.1070  0.2055
11971TIP3    H235871   7.959   3.214   5.682 -1.1848 -0.0887 -0.1510
11972TIP3   OH235872   7.107   3.997   2.689  0.4123 -0.5697 -0.0074
11972TIP3    H135873   7.054   3.932   2.642  1.8954 -1.1740 -0.9141
11972TIP3    H235874   7.156   3.947   2.753  0.3130 -0.0844  0.4605
11973TIP3   OH235875   0.464   6.494   3.712  0.1511 -0.5098  0.3969
11973TIP3    H135876   0.517   6.425   3.672  0.9785  0.0057  0.5849
11973TIP3    H235877   0.459   6.562   3.646  0.0384 -0.3957  0.5217
11974TIP3   OH235878   2.049   5.764   1.571 -0.3758  0.3364  0.1078
11974TIP3    H135879   2.039   5.669   1.578  1.6113 -0.0078 -0.9964
11974TIP3    H235880   2.142   5.777   1.553 -1.0077  2.3287 -2.2075
11975TIP3   OH235881   6.084   3.255   3.937 -0.5405  0.5765 -0.0666
11975TIP3    H135882   6.109   3.287   3.851  2.3512  1.1660  0.8607
11975TIP3    H235883   6.112   3.164   3.938  0.6028  0.9053  0.5892
11976TIP3   OH235884   4.700   3.061   1.485 -0.0588 -0.2314 -0.1304
11976TIP3    H135885   4.733   3.033   1.570  0.4553 -1.0423 -0.5822
11976TIP3    H235886   4.759   3.132   1.458 -0.2790  0.0903  0.2186
11977TIP3   OH235887   5.026   6.726   5.591  0.1302 -0.0392  0.5803
11977TIP3    H135888   5.069   6.648   5.553  1.2505  0.9794 -0.3387
11977TIP3    H235889   5.083   6.751   5.663  0.3250  0.5052  0.2417
11978TIP3   OH235890   4.698   0.112   4.466  0.2875 -0.1309  0.1900
11978TIP3    H135891   4.656   0.198   4.463  2.3366  1.0230  1.5494
11978TIP3    H235892   4.719   0.093   4.374  1.5388  1.8225 -0.0084
11979TIP3   OH235893   6.017   4.374   0.397 -0.0855  0.0867  0.1797
11979TIP3    H135894   6.015   4.422   0.314 -1.4313  0.0112  0.1504
11979TIP3    H235895   6.097   4.322   0.392 -0.3318 -0.2139 -1.2581
11980TIP3   OH235896   5.276   5.394   5.113  0.1036  0.3367  0.2815
11980TIP3    H135897   5.269   5.486   5.086 -0.8654  0.2614  0.2460
11980TIP3    H235898   5.344   5.395   5.181 -0.2619  1.1684  0.6609
11981TIP3   OH235899   0.999   6.358   4.432  0.5293 -0.2609  0.6545
11981TIP3    H135900   1.064   6.321   4.372 -1.2889 -2.0175 -0.3338
11981TIP3    H235901   0.928   6.388   4.376 -0.8762 -1.2278  1.8436
11982TIP3   OH235902   6.610   3.602   4.693  0.1782  0.0530  0.1841
11982TIP3    H135903   6.558   3.535   4.648  2.4874 -1.3854 -0.5117
11982TIP3    H235904   6.549   3.674   4.706 -2.3593 -2.0162  0.6610
11983TIP3   OH235905   4.470   2.006   5.874 -0.6890 -0.3443 -0.2113
11983TIP3    H135906   4.465   2.063   5.797  0.0590  1.5923  1.1072
11983TIP3    H235907   4.563   2.003   5.896 -0.8367 -1.3065  0.3327
11984TIP3   OH235908   0.385   0.724   6.040 -0.0402 -0.0380  0.3651
11984TIP3    H135909   0.448   0.652   6.040 -0.6399 -0.6275 -1.5826
11984TIP3    H235910   0.384   0.755   6.130  2.3873 -0.5452  0.6160
11985TIP3   OH235911   7.631   5.604   0.392 -0.3965 -0.1034  0.3319
11985TIP3    H135912   7.593   5.523   0.358 -2.0127  0.8790 -0.3319
11985TIP3    H235913   7.576   5.626   0.467 -0.6550  0.9163 -0.1358
11986TIP3   OH235914   7.694   3.605   0.451 -0.1109  0.0411 -0.0174
11986TIP3    H135915   7.694   3.514   0.423  0.0753  0.2940 -0.8855
11986TIP3    H235916   7.677   3.655   0.371  0.8474  0.8151  0.2368
11987TIP3   OH235917   0.200   5.186   0.456 -0.3139  0.5127  0.1558
11987TIP3    H135918   0.246   5.116   0.411  1.2246  0.9423  1.0115
11987TIP3    H235919   0.172   5.148   0.539  0.9388  1.0164  0.8282
11988TIP3   OH235920   2.207   2.638   3.425  0.0157  0.3111 -0.1181
11988TIP3    H135921   2.185   2.672   3.339  0.7502 -1.0472 -0.8755
11988TIP3    H235922   2.124   2.637   3.473 -0.2391  1.9773 -0.4500
11989TIP3   OH235923   6.974   7.419   5.533 -0.2744  0.2273  0.1365
11989TIP3    H135924   6.979   7.495   5.592  1.1620  0.6358 -0.4618
11989TIP3    H235925   6.940   7.454   5.451 -0.7865 -0.0328  0.2338
11990TIP3   OH235926   5.781   2.521   4.001 -0.0112 -0.3829  1.1150
11990TIP3    H135927   5.815   2.568   4.077  0.9487  0.8298 -0.0400
11990TIP3    H235928   5.686   2.535   4.005  0.0770  0.0450  1.8379
11991TIP3   OH235929   3.946   0.445   6.670  0.3832 -0.7024 -0.2351
11991TIP3    H135930   3.957   0.488   6.755  0.9815 -0.6993 -0.3134
11991TIP3    H235931   3.864   0.481   6.636 -1.2530 -2.5927  1.4425
11992TIP3   OH235932   3.009   0.503   4.405  0.0266 -0.3794 -0.3830
11992TIP3    H135933   2.972   0.417   4.385  1.9936 -1.3547 -0.0722
11992TIP3    H235934   2.957   0.564   4.353 -1.1921 -1.7885 -0.8852
11993TIP3   OH235935   2.716   4.216   0.334 -0.4765 -0.6168 -0.2324
11993TIP3    H135936   2.769   4.196   0.412  0.0015  0.4007 -0.2863
11993TIP3    H235937   2.694   4.130   0.298  2.0389 -1.1015 -0.8045
11994TIP3   OH235938   5.121   6.079   2.800 -0.1077 -0.2276 -0.6306
11994TIP3    H135939   5.131   5.993   2.842 -1.4059  0.0454  0.3170
11994TIP3    H235940   5.070   6.130   2.863  1.8869  1.7642 -0.4868
11995TIP3   OH235941   1.671   3.187   3.595  0.0809  0.6977 -0.2772
11995TIP3    H135942   1.594   3.169   3.542  1.1707 -1.3719 -1.2799
11995TIP3    H235943   1.687   3.106   3.644  1.1927  1.3314  0.4681
11996TIP3   OH235944   3.223   7.731   0.435  0.8210 -0.2765  0.3481
11996TIP3    H135945   3.297   7.735   0.375 -0.4547 -1.2594 -1.3897
11996TIP3    H235946   3.243   7.658   0.493  1.4296 -0.2219  0.2173
11997TIP3   OH235947   8.137   0.784   3.901 -0.2649 -0.1456 -0.2459
11997TIP3    H135948   8.158   0.761   3.810 -0.1570  0.9615 -0.5120
11997TIP3    H235949   8.221   0.810   3.939 -0.6576  1.6234 -0.5099
11998TIP3   OH235950   5.584   3.752   1.617  0.0512 -0.2238 -0.4423
11998TIP3    H135951   5.662   3.803   1.636  0.7761 -0.8715 -1.5741
11998TIP3    H235952   5.519   3.817   1.590  0.9366  0.1510 -1.7844
11999TIP3   OH235953   3.119   2.039   2.485  0.6865  0.1174 -0.3849
11999TIP3    H135954   3.131   1.977   2.557 -0.6996  0.1195 -0.1161
11999TIP3    H235955   3.115   2.124   2.527  1.2119  0.2647 -0.6181
12000TIP3   OH235956   3.097   5.186   5.118 -0.6723 -0.1269  0.2463
12000TIP3    H135957   3.115   5.226   5.032 -1.0918  0.8564  0.5992
12000TIP3    H235958   3.013   5.142   5.106 -0.3396 -0.6795 -0.0723
12001TIP3   OH235959   4.273   5.927   2.466 -0.3877 -0.2329  0.4763
12001TIP3    H135960   4.242   5.987   2.397 -0.2188  1.5443  1.8825
12001TIP3    H235961   4.193   5.902   2.513 -0.3290 -0.2252  0.5800
12002TIP3   OH235962   0.579   5.415   2.710 -0.1609 -0.1983 -0.4625
12002TIP3    H135963   0.657   5.460   2.677 -0.6234  0.5075 -0.6131
12002TIP3    H235964   0.511   5.435   2.646 -0.9498  0.7716  0.6321
12003TIP3   OH235965   2.280   3.982   0.875 -0.0662 -0.0924 -0.1376
12003TIP3    H135966   2.271   3.901   0.926 -1.1240  0.3801  0.4710
12003TIP3    H235967   2.267   4.052   0.939 -1.6555  0.5151 -1.0613
12004TIP3   OH235968   1.159   5.028   6.661  0.2868  0.3478 -0.0463
12004TIP3    H135969   1.230   5.085   6.691  0.0726 -0.0372  1.2672
12004TIP3    H235970   1.179   4.942   6.697 -0.2850 -0.0188 -0.5693
12005TIP3   OH235971   7.267   0.370   3.202 -0.1464 -0.2755 -0.0753
12005TIP3    H135972   7.254   0.464   3.196  0.3394 -0.1703  0.4299
12005TIP3    H235973   7.351   0.360   3.248  1.3426 -0.9089 -2.7021
12006TIP3   OH235974   7.732   6.299   4.951 -0.3221  0.2656  0.5396
12006TIP3    H135975   7.816   6.262   4.923 -0.2973 -0.8599  1.9568
12006TIP3    H235976   7.697   6.342   4.873  0.9699 -0.3670 -0.4226
12007TIP3   OH235977   4.209   4.173   5.947  0.2940 -0.9149  0.0019
12007TIP3    H135978   4.152   4.205   5.876  0.9350 -0.3529 -0.2717
12007TIP3    H235979   4.178   4.084   5.964 -1.7477 -0.0883  0.9773
12008TIP3   OH235980   4.062   7.196   4.396 -0.1009 -0.1249 -0.6389
12008TIP3    H135981   4.136   7.151   4.354 -0.4764 -1.7323  0.3035
12008TIP3    H235982   4.096   7.221   4.482 -0.6901 -1.0640 -0.1195
12009TIP3   OH235983   6.941   3.490   0.466 -0.1186 -0.0757  0.2355
12009TIP3    H135984   6.965   3.560   0.527  1.9882 -0.8659  0.3955
12009TIP3    H235985   7.006   3.495   0.396 -0.2608 -1.5044 -0.0371
12010TIP3   OH235986   2.890   2.967   1.777  0.1886  0.2968 -0.5658
12010TIP3    H135987   2.798   2.941   1.767 -0.2614  2.1417 -1.5658
12010TIP3    H235988   2.893   3.058   1.749  2.1728  0.5682  0.3504
12011TIP3   OH235989   4.334   5.302   3.306 -0.3533  0.2574  0.1318
12011TIP3    H135990   4.363   5.221   3.349  0.1750  0.9961  1.1925
12011TIP3    H235991   4.240   5.289   3.292 -0.3633 -0.3485  0.7001
12012TIP3   OH235992   7.459   2.470   5.623 -0.5760  0.0132 -0.4701
12012TIP3    H135993   7.467   2.389   5.674 -0.0704  0.0237 -0.5307
12012TIP3    H235994   7.545   2.512   5.630 -1.2131  1.2222  0.6861
12013TIP3   OH235995   0.300   5.439   1.454  0.0464 -0.4742  0.0774
12013TIP3    H135996   0.232   5.449   1.387 -0.6332 -3.0256  0.2834
12013TIP3    H235997   0.370   5.498   1.427 -1.3955  0.6771 -1.2843
12014TIP3   OH235998   0.181   2.092   6.394  0.4409 -0.1564  0.7215
12014TIP3    H135999   0.212   2.095   6.484 -2.0079 -0.6792  1.6663
12014TIP3    H236000   0.149   2.180   6.376  0.3944 -0.2028  0.5689
12015TIP3   OH236001   5.662   5.280   0.826 -0.5116 -0.1277 -0.3628
12015TIP3    H136002   5.624   5.360   0.790 -0.8176  0.2298  0.7304
12015TIP3    H236003   5.587   5.228   0.855 -0.2432  0.0869  0.7708
12016TIP3   OH236004   8.050   3.955   5.593  0.3202 -0.0004  0.5155
12016TIP3    H136005   7.973   4.011   5.604  0.0403 -0.0917 -0.7898
12016TIP3    H236006   8.124   4.014   5.604  0.0395  0.3733  0.4288
12017TIP3   OH236007   7.684   2.114   1.089 -0.1543 -0.3859 -0.0059
12017TIP3    H136008   7.605   2.167   1.103 -0.0222  0.1576 -1.1679
12017TIP3    H236009   7.669   2.070   1.005 -0.4911 -2.6656  1.1711
12018TIP3   OH236010   6.296   3.787   4.042 -0.1528 -0.4121 -0.2710
12018TIP3    H136011   6.359   3.716   4.055  1.2117  0.3503 -2.2426
12018TIP3    H236012   6.337   3.863   4.084 -0.7605 -0.3540  0.2388
12019TIP3   OH236013   4.651   0.886   5.428  0.3242  0.5615 -0.0852
12019TIP3    H136014   4.742   0.891   5.456  0.2480 -0.4081  0.3814
12019TIP3    H236015   4.655   0.837   5.345  0.1634 -0.2150  0.3544
12020TIP3   OH236016   4.760   3.642   2.101 -0.0270  0.3091  0.1396
12020TIP3    H136017   4.725   3.731   2.104  0.2932  0.4961 -1.1257
12020TIP3    H236018   4.694   3.591   2.055 -0.4163 -0.2375  1.2535
12021TIP3   OH236019   6.123   0.371   2.974 -0.1132  0.6990 -0.0268
12021TIP3    H136020   6.191   0.437   2.989  0.6497  0.2163 -1.1736
12021TIP3    H236021   6.169   0.299   2.931 -1.4448  0.5983 -1.3763
12022TIP3   OH236022   4.353   7.818   5.401 -0.0439 -0.3655  0.4849
12022TIP3    H136023   4.355   7.735   5.354 -0.8734  1.0454 -2.3426
12022TIP3    H236024   4.431   7.865   5.371 -0.6613  0.6409  0.3852
12023TIP3   OH236025   1.416   3.317   1.946 -0.0401 -0.3940  0.8859
12023TIP3    H136026   1.511   3.312   1.959 -0.1049  0.3674  1.8049
12023TIP3    H236027   1.402   3.284   1.857  1.1764  0.3475  0.3952
12024TIP3   OH236028   2.825   5.614   6.269  0.0387  0.0163 -0.1669
12024TIP3    H136029   2.882   5.539   6.248  1.9158  1.0706  0.8684
12024TIP3    H236030   2.864   5.687   6.221 -0.8971  0.6472  0.0095
12025TIP3   OH236031   2.175   7.507   0.172 -0.4860  0.4065 -0.0128
12025TIP3    H136032   2.116   7.576   0.201 -0.0709  0.9302 -0.4044
12025TIP3    H236033   2.262   7.546   0.174 -0.4742  0.6397 -2.3668
12026TIP3   OH236034   4.758   6.873   3.225  0.4277  0.6918 -0.0708
12026TIP3    H136035   4.815   6.947   3.245 -2.1500  2.7672  0.0390
12026TIP3    H236036   4.799   6.799   3.271  3.5153  1.7692 -0.8400
12027TIP3   OH236037   7.239   1.764   3.755  0.3382  0.1999 -0.3572
12027TIP3    H136038   7.270   1.821   3.685  0.9401  0.7392  0.3372
12027TIP3    H236039   7.303   1.692   3.756  0.9370  0.7300  0.3220
12028TIP3   OH236040   1.013   7.266   5.865  0.7136 -0.1594  0.3442
12028TIP3    H136041   0.991   7.358   5.852  0.8846 -0.2268 -0.4426
12028TIP3    H236042   1.097   7.268   5.912  0.5205  0.0833  0.6835
12029TIP3   OH236043   4.754   1.004   1.826 -0.4408  0.8696  0.4874
12029TIP3    H136044   4.840   0.981   1.862 -0.6087 -1.0587 -0.2235
12029TIP3    H236045   4.753   1.100   1.827  2.1777  1.0034 -0.4984
12030TIP3   OH236046   7.671   3.796   1.571  0.2321 -0.1746 -0.0353
12030TIP3    H136047   7.604   3.850   1.612 -0.4325 -0.9190 -0.0997
12030TIP3    H236048   7.698   3.845   1.494  0.7978  0.7886  0.7532
12031TIP3   OH236049   0.591   0.168   3.557 -0.1680  0.2395  0.0664
12031TIP3    H136050   0.625   0.221   3.629 -1.0060  0.8954 -0.0027
12031TIP3    H236051   0.583   0.229   3.483 -0.1910 -0.2133 -0.3140
12032TIP3   OH236052   0.400   3.374   6.307  0.5462 -0.5290  0.3758
12032TIP3    H136053   0.476   3.377   6.248 -0.5116 -1.9211 -1.1507
12032TIP3    H236054   0.411   3.292   6.355  1.0987  0.3214  1.7874
12033TIP3   OH236055   2.642   3.774   5.675 -0.1072  0.3542 -0.4158
12033TIP3    H136056   2.644   3.683   5.646 -3.4829  0.3156 -0.9820
12033TIP3    H236057   2.674   3.771   5.765 -0.1596 -1.4083 -0.4081
12034TIP3   OH236058   3.987   6.088   2.529 -0.3396  0.6168 -0.3308
12034TIP3    H136059   3.937   6.056   2.604  1.6150 -2.6862 -0.2290
12034TIP3    H236060   4.075   6.104   2.564 -0.1636  2.0541 -1.3432
12035TIP3   OH236061   8.196   3.420   0.456 -0.3913 -0.6666  0.1719
12035TIP3    H136062   8.128   3.443   0.392 -1.3641 -1.9583  0.7051
12035TIP3    H236063   8.156   3.439   0.541  0.4935  0.0064  0.4519
12036TIP3   OH236064   3.882   0.168   3.358 -0.3438 -0.6285 -0.0604
12036TIP3    H136065   3.975   0.188   3.373 -0.2074 -0.3444 -1.2021
12036TIP3    H236066   3.843   0.252   3.334 -0.6531 -0.9539 -0.7163
12037TIP3   OH236067   1.990   6.907   0.858  0.0200  0.7670 -0.4416
12037TIP3    H136068   2.022   6.996   0.845 -1.6566  1.2958 -1.2408
12037TIP3    H236069   1.977   6.899   0.952 -0.2185  1.5162 -0.4077
12038TIP3   OH236070   5.250   2.700   0.217 -0.0867  0.8968  0.1886
12038TIP3    H136071   5.236   2.739   0.131  1.5318  0.7056 -0.1829
12038TIP3    H236072   5.162   2.690   0.253 -1.0575 -1.4783 -2.4931
12039TIP3   OH236073   5.908   4.483   5.494  0.2632  0.1372  0.1060
12039TIP3    H136074   5.967   4.466   5.568  0.5395  1.6319  0.2782
12039TIP3    H236075   5.849   4.551   5.527 -1.1488 -0.8547 -0.2865
12040TIP3   OH236076   1.895   2.793   1.432  0.1952 -0.3173  0.4172
12040TIP3    H136077   1.927   2.750   1.352  5.9259  1.5290  1.2982
12040TIP3    H236078   1.852   2.872   1.400  0.4236 -0.6939 -0.9133
12041TIP3   OH236079   7.863   3.468   2.115 -0.1204 -0.6836  0.3785
12041TIP3    H136080   7.787   3.500   2.164 -0.6486 -1.2914 -0.0400
12041TIP3    H236081   7.826   3.425   2.038  0.7222  1.4506 -1.3186
12042TIP3   OH236082   1.747   2.805   1.694 -0.2560 -0.0492  0.2687
12042TIP3    H136083   1.769   2.775   1.605 -0.1493  0.0301  0.2681
12042TIP3    H236084   1.652   2.806   1.696 -0.2584  0.6405 -0.0751
12043TIP3   OH236085   1.594   6.036   1.541 -0.4181 -0.0624  1.1797
12043TIP3    H136086   1.517   6.092   1.538 -1.2097 -1.1278  0.5942
12043TIP3    H236087   1.561   5.953   1.578  0.5219 -0.4108  1.2543
12044TIP3   OH236088   2.647   5.365   2.412  0.4870  0.2626 -0.6345
12044TIP3    H136089   2.736   5.336   2.396  0.2670 -1.0733  0.3750
12044TIP3    H236090   2.618   5.313   2.487 -0.1750  2.6624  0.9125
12045TIP3   OH236091   6.341   0.289   1.203 -0.2504 -0.1708  0.1757
12045TIP3    H136092   6.354   0.369   1.152  2.7682 -1.0117 -0.6291
12045TIP3    H236093   6.326   0.319   1.292 -1.2208  1.2846 -0.4450
12046TIP3   OH236094   7.777   7.215   0.962  0.2810 -0.2402 -0.1084
12046TIP3    H136095   7.827   7.278   0.911 -0.9079 -0.0266 -1.0519
12046TIP3    H236096   7.843   7.158   1.001  1.2754  0.3612 -0.8756
12047TIP3   OH236097   6.273   4.972   1.228 -0.2223  0.0702  0.6884
12047TIP3    H136098   6.241   4.958   1.317  1.5129 -0.7569  1.2336
12047TIP3    H236099   6.299   5.064   1.226  0.6819 -0.1508  1.4011
12048TIP3   OH236100   0.240   5.147   5.457 -0.0727  0.0853  0.6481
12048TIP3    H136101   0.306   5.081   5.477  1.6935  2.3454  2.7502
12048TIP3    H236102   0.177   5.140   5.529 -0.8309 -0.4193 -0.0488
12049TIP3   OH236103   4.749   4.160   1.610  0.0458  0.8175 -0.0830
12049TIP3    H136104   4.713   4.240   1.648 -1.6468 -0.0112  0.1625
12049TIP3    H236105   4.802   4.121   1.679 -1.0682  0.5478  0.6537
12050TIP3   OH236106   2.909   7.738   0.430  0.1762 -0.5798 -0.1713
12050TIP3    H136107   2.943   7.667   0.485  0.8080 -0.3361 -0.2373
12050TIP3    H236108   2.976   7.750   0.363 -0.4480 -0.6687 -0.8227
12051TIP3   OH236109   1.403   0.121   4.789  0.0576 -0.5269 -0.0485
12051TIP3    H136110   1.383   0.145   4.698  1.9329  1.6981  0.0429
12051TIP3    H236111   1.349   0.044   4.805 -1.7096  0.0810 -2.4547
12052TIP3   OH236112   3.546   3.509   3.055 -0.0236  0.2099  0.2045
12052TIP3    H136113   3.475   3.567   3.026  0.6800  1.4348  0.8838
12052TIP3    H236114   3.626   3.550   3.022  0.3934 -1.2332 -0.6696
12053TIP3   OH236115   2.350   2.323   3.839  0.2854  0.5210  0.6587
12053TIP3    H136116   2.255   2.328   3.830  0.3292  3.2959  0.7672
12053TIP3    H236117   2.373   2.235   3.811 -2.6495 -1.6306  4.1350
12054TIP3   OH236118   8.259   5.466   1.433 -0.4803  0.1828 -0.1088
12054TIP3    H136119   8.172   5.498   1.458 -0.3456  0.9804 -0.6533
12054TIP3    H236120   8.269   5.384   1.483 -1.9924 -0.5058 -0.8816
12055TIP3   OH236121   4.373   7.357   4.924 -0.2751  0.7203  0.0501
12055TIP3    H136122   4.306   7.309   4.973 -1.8324  0.8980 -1.7869
12055TIP3    H236123   4.333   7.442   4.906  1.0414  1.3920  0.1396
12056TIP3   OH236124   4.191   7.565   5.806  0.1152 -0.4566  0.0036
12056TIP3    H136125   4.199   7.632   5.738  0.6347  0.0487  0.5496
12056TIP3    H236126   4.098   7.548   5.812  0.1197 -1.1771 -1.4705
12057TIP3   OH236127   2.358   2.126   6.649  0.0524  0.2453  0.8526
12057TIP3    H136128   2.284   2.183   6.668 -0.4537 -0.4291  0.9537
12057TIP3    H236129   2.325   2.065   6.583  1.1311  1.1905 -0.6282
12058TIP3   OH236130   5.643   1.714   5.910  0.1083  0.9121  0.7893
12058TIP3    H136131   5.652   1.624   5.940 -1.4498  0.3997 -0.1395
12058TIP3    H236132   5.730   1.752   5.922  0.6201 -0.4991  1.8449
12059TIP3   OH236133   5.222   0.750   5.855  0.1030 -0.3737  0.3418
12059TIP3    H136134   5.285   0.740   5.784  1.4441 -3.6683  1.7932
12059TIP3    H236135   5.273   0.783   5.929 -0.7639  0.6679  0.5119
12060TIP3   OH236136   7.952   5.435   0.499 -0.7452 -0.1326 -0.3932
12060TIP3    H136137   7.867   5.424   0.455 -0.8829 -1.0766  0.0854
12060TIP3    H236138   8.015   5.391   0.441 -1.0600 -2.1982  0.7406
12061TIP3   OH236139   8.176   3.709   3.709 -0.4944 -0.5296  0.0101
12061TIP3    H136140   8.194   3.687   3.800  1.5077  1.2374  0.1085
12061TIP3    H236141   8.257   3.689   3.663 -2.0499 -3.2647 -1.8643
12062TIP3   OH236142   4.556   2.051   4.733  0.1289 -0.7653 -0.1697
12062TIP3    H136143   4.640   2.085   4.703 -1.5770  4.0422 -0.3179
12062TIP3    H236144   4.548   2.083   4.823 -2.6566  1.7137 -1.1285
12063TIP3   OH236145   7.815   4.213   2.603 -0.0560  0.0556 -0.1482
12063TIP3    H136146   7.735   4.172   2.636  1.2815 -2.2764  0.4292
12063TIP3    H236147   7.851   4.258   2.679 -0.4562  0.5034 -0.2218
12064TIP3   OH236148   3.836   5.170   0.636 -0.4508  0.3736 -0.6053
12064TIP3    H136149   3.746   5.154   0.605 -0.3284  0.1493 -0.8470
12064TIP3    H236150   3.878   5.084   0.630 -0.0752  0.5846 -0.9581
12065TIP3   OH236151   5.401   7.146   5.224 -0.1170 -0.0243  0.8132
12065TIP3    H136152   5.317   7.156   5.179 -0.8435  1.0272  2.3291
12065TIP3    H236153   5.385   7.080   5.291  1.5406 -3.2436 -1.6786
12066TIP3   OH236154   8.100   1.535   2.714  0.4547  0.0463 -0.3754
12066TIP3    H136155   8.158   1.585   2.771  1.2880 -0.8670 -0.4056
12066TIP3    H236156   8.147   1.529   2.631  0.1347 -0.3593 -0.5292
12067TIP3   OH236157   4.919   3.129   0.214 -0.4037  0.2156  0.3549
12067TIP3    H136158   4.856   3.086   0.272  1.2778 -1.4846  1.0111
12067TIP3    H236159   4.864   3.179   0.153 -2.3813 -1.0450  0.9839
12068TIP3   OH236160   0.120   3.023   1.172 -0.2836  0.1219  0.1075
12068TIP3    H136161   0.211   3.024   1.144  0.2510 -0.9672  1.6555
12068TIP3    H236162   0.117   3.080   1.249 -1.3091  1.5444 -0.9306
12069TIP3   OH236163   3.894   4.651   1.905 -0.4317 -0.1339 -0.2476
12069TIP3    H136164   3.881   4.707   1.828 -2.1963  0.3801  0.3793
12069TIP3    H236165   3.946   4.578   1.872  0.9505  1.2678 -1.3557
12070TIP3   OH236166   3.641   0.837   4.272 -0.2078  0.1085  0.0170
12070TIP3    H136167   3.668   0.910   4.217  1.2381 -0.0862  0.4217
12070TIP3    H236168   3.636   0.873   4.360 -2.1751  0.3342 -0.1333
12071TIP3   OH236169   3.234   1.648   4.162 -0.0499  0.1579  0.4661
12071TIP3    H136170   3.143   1.621   4.151  0.0024  0.4955 -1.0850
12071TIP3    H236171   3.286   1.571   4.137  0.0879  0.3177  0.2548
12072TIP3   OH236172   4.778   6.862   6.714 -0.3609  0.3650 -0.1767
12072TIP3    H136173   4.753   6.823   6.797 -1.3727  0.7433 -0.2818
12072TIP3    H236174   4.717   6.935   6.702 -0.3905  0.1749 -1.3518
12073TIP3   OH236175   0.818   2.455   1.041 -0.2331  0.2303  0.2417
12073TIP3    H136176   0.844   2.491   1.126 -1.3117  0.7660  0.3580
12073TIP3    H236177   0.783   2.368   1.061  0.4994 -0.0826  0.2035
12074TIP3   OH236178   1.876   0.169   0.689  0.1012 -0.4425  0.4127
12074TIP3    H136179   1.850   0.246   0.740  0.4478 -0.2799  0.3401
12074TIP3    H236180   1.970   0.160   0.703  0.4199  0.2623 -1.0896
12075TIP3   OH236181   0.065   5.970   1.373  0.8281 -0.5029 -0.0424
12075TIP3    H136182   0.070   6.054   1.327  2.7407 -0.4504  0.1683
12075TIP3    H236183   0.150   5.929   1.357  0.3385 -1.9101  0.7859
12076TIP3   OH236184   7.055   6.854   3.070  0.3503  0.1194 -0.2400
12076TIP3    H136185   7.031   6.935   3.114 -1.2610 -0.6094  0.2927
12076TIP3    H236186   7.059   6.788   3.140  0.6948 -0.4589 -0.7873
12077TIP3   OH236187   7.964   4.205   1.266 -0.2235  0.1888  0.3613
12077TIP3    H136188   7.926   4.279   1.217 -0.9288 -1.5113 -1.8160
12077TIP3    H236189   8.038   4.177   1.212 -1.8100 -2.5672 -0.5683
12078TIP3   OH236190   5.263   0.289   5.997 -0.2145  0.7042 -0.0111
12078TIP3    H136191   5.199   0.334   6.052 -0.8422  1.1177 -1.0579
12078TIP3    H236192   5.240   0.196   6.005 -2.5444  0.9897 -2.2525
12079TIP3   OH236193   2.208   6.952   5.462 -0.4500  0.3242  0.1780
12079TIP3    H136194   2.300   6.979   5.461 -1.0991  2.6917 -0.3321
12079TIP3    H236195   2.211   6.858   5.478  2.0291  0.4632  0.8871
12080TIP3   OH236196   2.817   2.638   6.412 -0.3661  0.3060  0.7349
12080TIP3    H136197   2.850   2.554   6.380  0.3645  0.6224  0.6467
12080TIP3    H236198   2.756   2.615   6.482 -0.3407 -0.3032  0.5619
12081TIP3   OH236199   6.054   3.841   0.564 -0.3712 -0.0411  0.2894
12081TIP3    H136200   5.960   3.830   0.550 -0.0831 -1.5120 -0.6276
12081TIP3    H236201   6.076   3.780   0.634  0.1286 -0.7319 -0.4495
12082TIP3   OH236202   5.324   0.395   3.294 -0.4347  0.0472 -0.1597
12082TIP3    H136203   5.414   0.397   3.325 -0.7564 -0.5699  0.8434
12082TIP3    H236204   5.295   0.486   3.297  1.1530  0.8391 -3.6296
12083TIP3   OH236205   5.719   7.360   1.159  0.4510 -0.1958 -0.3495
12083TIP3    H136206   5.692   7.452   1.155  1.0364  0.0077  0.3571
12083TIP3    H236207   5.696   7.332   1.247 -0.4774 -0.9774 -0.8084
12084TIP3   OH236208   0.188   3.970   4.366  0.0537  0.2278  0.2220
12084TIP3    H136209   0.218   4.061   4.377 -0.6319  0.2458  2.4502
12084TIP3    H236210   0.129   3.974   4.291  2.5950  0.9193 -1.8654
12085TIP3   OH236211   3.108   4.661   4.024  0.4078  0.3809 -0.1939
12085TIP3    H136212   3.186   4.705   4.058  0.2610  0.5664 -0.0921
12085TIP3    H236213   3.141   4.582   3.983  0.9259  1.6061 -2.2895
12086TIP3   OH236214   4.598   7.630   2.290 -0.3238  0.0805  0.2952
12086TIP3    H136215   4.636   7.576   2.359  0.1836 -0.8147 -0.6590
12086TIP3    H236216   4.530   7.575   2.251  0.1609  0.1405 -0.6538
12087TIP3   OH236217   0.277   6.230   3.250  0.3757 -0.3483  0.1674
12087TIP3    H136218   0.242   6.156   3.200 -2.0889 -0.4907  1.9047
12087TIP3    H236219   0.288   6.300   3.185  1.2801 -1.7262 -1.2310
12088TIP3   OH236220   1.415   6.024   3.837 -0.5594  0.1851 -0.1767
12088TIP3    H136221   1.506   5.998   3.824 -0.6793 -0.9145  0.9302
12088TIP3    H236222   1.420   6.116   3.863  0.6000 -0.6621  3.1653
12089TIP3   OH236223   3.397   1.917   5.970 -0.1241  0.2727  0.1949
12089TIP3    H136224   3.340   1.891   5.898 -3.0903  1.4230  1.9426
12089TIP3    H236225   3.466   1.851   5.971 -1.1234 -0.9409 -2.3738
12090TIP3   OH236226   1.080   3.029   5.850  0.3668  0.0611 -0.0827
12090TIP3    H136227   1.101   3.119   5.875 -0.9813  0.5494 -0.5724
12090TIP3    H236228   1.017   3.039   5.778  0.4378 -1.2800 -0.3461
12091TIP3   OH236229   4.584   7.291   3.287 -0.1070  0.0035  0.0459
12091TIP3    H136230   4.493   7.303   3.314 -0.1850  1.2930 -0.7245
12091TIP3    H236231   4.590   7.200   3.259 -0.8371 -0.4412  1.2608
12092TIP3   OH236232   4.755   0.790   0.854 -0.0104  0.0206  0.2269
12092TIP3    H136233   4.682   0.809   0.796  1.1914 -0.6257 -1.5820
12092TIP3    H236234   4.811   0.729   0.804  1.6893  0.3835  1.5725
12093TIP3   OH236235   6.614   5.567   1.087  0.2812  0.1570  0.0047
12093TIP3    H136236   6.614   5.607   1.000 -1.3881 -1.2568 -0.6999
12093TIP3    H236237   6.700   5.526   1.094  1.5258  2.5929  0.2179
12094TIP3   OH236238   6.897   7.267   1.742  0.6274  0.1489  0.7108
12094TIP3    H136239   6.942   7.345   1.774 -0.5876  1.2736 -0.2155
12094TIP3    H236240   6.851   7.296   1.663 -0.7950 -1.2004  0.9791
12095TIP3   OH236241   1.326   5.477   5.575  0.5933 -0.1239  0.5708
12095TIP3    H136242   1.255   5.462   5.512 -0.0974 -3.6565  1.9394
12095TIP3    H236243   1.319   5.570   5.597 -0.7331  0.6562 -2.6167
12096TIP3   OH236244   5.988   2.392   3.855 -0.1680  0.1989  0.1976
12096TIP3    H136245   5.900   2.411   3.887 -0.6186 -0.2203 -0.7407
12096TIP3    H236246   6.012   2.310   3.899 -1.3982 -1.2105 -1.5788
12097TIP3   OH236247   8.258   3.726   2.958 -0.0991  0.4416 -0.2642
12097TIP3    H136248   8.222   3.641   2.934  0.4398 -0.2258  1.1691
12097TIP3    H236249   8.353   3.714   2.953  0.0270  1.7751 -2.6563
12098TIP3   OH236250   1.225   0.881   4.414  0.2867  0.8853  0.2484
12098TIP3    H136251   1.209   0.940   4.341  0.4686  1.0994  0.3786
12098TIP3    H236252   1.182   0.923   4.489 -1.8569 -0.4450 -0.1783
12099TIP3   OH236253   2.871   1.771   6.562  0.1810  0.5248  1.0268
12099TIP3    H136254   2.793   1.782   6.618 -1.8051  0.8833 -1.6163
12099TIP3    H236255   2.908   1.859   6.555  0.3759  0.4986  1.6410
12100TIP3   OH236256   2.488   7.124   2.894 -0.2815  0.1391 -0.2660
12100TIP3    H136257   2.580   7.114   2.871  0.7179  2.2404  2.2774
12100TIP3    H236258   2.442   7.064   2.836  2.8843 -3.0638  0.1935
12101TIP3   OH236259   2.808   2.067   2.631 -0.8837 -0.4770  0.1177
12101TIP3    H136260   2.716   2.044   2.642 -0.8893  0.1289  1.4717
12101TIP3    H236261   2.836   2.018   2.553 -2.5661  0.0464 -0.8603
12102TIP3   OH236262   8.253   4.882   1.085 -0.1638 -0.5426  0.2421
12102TIP3    H136263   8.290   4.959   1.129 -0.2764  0.2154 -0.9424
12102TIP3    H236264   8.312   4.810   1.108  2.3782  0.6950 -1.9074
12103TIP3   OH236265   3.296   4.556   6.712 -0.2909  0.2970 -0.5947
12103TIP3    H136266   3.322   4.553   6.805 -1.9958  0.8367 -0.0561
12103TIP3    H236267   3.210   4.514   6.710 -0.9668  1.6657 -1.6566
12104TIP3   OH236268   5.171   1.924   5.165  0.3546  0.3691  0.0897
12104TIP3    H136269   5.223   1.918   5.245 -0.6217 -1.6287  0.6349
12104TIP3    H236270   5.234   1.907   5.095  0.5744 -1.9276  0.7352
12105TIP3   OH236271   8.237   7.129   1.497 -0.0209 -0.1131  0.5225
12105TIP3    H136272   8.326   7.120   1.532 -0.0858 -0.5827  0.5705
12105TIP3    H236273   8.234   7.067   1.424 -0.7595 -1.1805  1.4182
12106TIP3   OH236274   8.158   1.163   5.791  0.7778  0.4645  0.0748
12106TIP3    H136275   8.220   1.096   5.762 -0.0476  0.1878 -1.1185
12106TIP3    H236276   8.078   1.115   5.813 -0.0156  1.0766 -1.3450
12107TIP3   OH236277   8.247   6.244   3.555 -0.2844  0.3409 -0.1532
12107TIP3    H136278   8.320   6.300   3.530  0.5887 -0.3152  0.8299
12107TIP3    H236279   8.175   6.305   3.572  0.1708  1.0341 -0.6780
12108TIP3   OH236280   5.892   6.095   4.038  0.5987  0.6311  0.0285
12108TIP3    H136281   5.915   6.033   3.969  1.4514  1.6666 -0.6320
12108TIP3    H236282   5.797   6.109   4.028  0.7314  0.8197 -0.9715
12109TIP3   OH236283   6.068   2.018   6.629  0.5447 -0.1131 -0.4139
12109TIP3    H136284   6.081   1.957   6.556  0.4756 -0.1049 -0.4336
12109TIP3    H236285   5.980   2.053   6.616  0.8597  0.5420 -0.8086
12110TIP3   OH236286   2.515   3.681   1.297  0.1628  0.6565  0.7426
12110TIP3    H136287   2.431   3.637   1.279 -0.7878  1.7659  2.2212
12110TIP3    H236288   2.524   3.744   1.226 -0.1365  0.3511  0.4273
12111TIP3   OH236289   5.649   4.774   6.264 -0.4348 -0.3329  0.0240
12111TIP3    H136290   5.720   4.769   6.328 -0.3435 -0.6110 -0.0980
12111TIP3    H236291   5.668   4.704   6.202 -0.8049 -0.3959 -0.0203
12112TIP3   OH236292   3.400   4.352   5.551 -0.7827 -0.0343 -0.0302
12112TIP3    H136293   3.454   4.308   5.617 -1.6738  1.4453  1.7806
12112TIP3    H236294   3.378   4.436   5.590 -1.9219  0.6398 -1.9739
12113TIP3   OH236295   2.706   3.304   0.395  0.2120 -0.2420  0.0507
12113TIP3    H136296   2.645   3.234   0.371  0.4049 -0.0618 -1.0122
12113TIP3    H236297   2.726   3.288   0.487 -1.4911 -0.2667  0.4394
12114TIP3   OH236298   1.226   5.283   2.989 -0.9237  0.1714 -0.5047
12114TIP3    H136299   1.148   5.289   2.935 -1.0776 -0.3550 -0.3473
12114TIP3    H236300   1.194   5.257   3.075 -0.7177  1.3591 -0.0434
12115TIP3   OH236301   2.649   6.095   0.552  0.3257 -0.2793 -0.0900
12115TIP3    H136302   2.565   6.053   0.569  0.6107 -0.5110  0.8128
12115TIP3    H236303   2.662   6.154   0.626  0.2755  0.8718 -0.9727
12116TIP3   OH236304   4.921   5.086   6.430 -0.2160  0.4574  0.0010
12116TIP3    H136305   5.016   5.095   6.433  0.0081 -1.4596 -0.0997
12116TIP3    H236306   4.905   4.993   6.446 -2.0352  0.5968 -0.7241
12117TIP3   OH236307   7.096   4.237   1.903  0.1837 -0.0069  0.1958
12117TIP3    H136308   7.078   4.143   1.902 -0.5192  0.1237 -0.1554
12117TIP3    H236309   7.095   4.261   1.996 -1.4605 -0.0272  0.2172
12118TIP3   OH236310   2.937   7.845   3.803  0.2740  0.0326  0.2866
12118TIP3    H136311   2.958   7.865   3.894  0.6322 -1.1789  0.4967
12118TIP3    H236312   3.014   7.799   3.771 -0.7529 -1.6780  0.1093
12119TIP3   OH236313   7.288   3.826   5.501  0.3678  0.3591  0.3337
12119TIP3    H136314   7.333   3.752   5.460  0.2535  0.3150  0.2858
12119TIP3    H236315   7.196   3.815   5.474 -0.0110 -0.5666  1.9014
12120TIP3   OH236316   1.757   4.282   5.564  0.1141 -0.2626 -0.0350
12120TIP3    H136317   1.824   4.217   5.589  0.4429  0.6923  1.7684
12120TIP3    H236318   1.706   4.239   5.496  0.9081 -2.0560  0.4398
12121TIP3   OH236319   8.209   0.728   6.709 -0.3788  0.6064 -0.1885
12121TIP3    H136320   8.297   0.731   6.671 -0.3380 -1.0121 -0.2767
12121TIP3    H236321   8.151   0.742   6.635 -0.2939 -2.3301 -0.9296
12122TIP3   OH236322   2.792   3.729   0.971 -0.3048 -0.1171  0.2089
12122TIP3    H136323   2.818   3.770   1.054 -0.4953  1.1128 -0.3212
12122TIP3    H236324   2.848   3.769   0.905  0.3987 -1.6648 -0.1825
12123TIP3   OH236325   6.066   5.936   3.401 -0.1226  0.4902  0.0167
12123TIP3    H136326   6.125   5.901   3.467 -1.1320 -0.2591  0.5445
12123TIP3    H236327   6.121   5.995   3.349  0.6027  1.4055  1.7493
12124TIP3   OH236328   8.082   1.007   5.270  0.2575  0.6951 -0.7755
12124TIP3    H136329   8.146   1.072   5.297  3.9625 -2.3426 -1.4313
12124TIP3    H236330   8.021   1.001   5.344  1.4217  2.8467  0.4518
12125TIP3   OH236331   7.335   1.917   3.571  0.4009  0.0756  0.3187
12125TIP3    H136332   7.426   1.905   3.543  0.6877  0.0592  1.2361
12125TIP3    H236333   7.295   1.970   3.502  0.4783 -1.8103 -1.2784
12126TIP3   OH236334   2.568   7.214   3.306  0.4346  0.1944 -0.0948
12126TIP3    H136335   2.534   7.283   3.364 -0.1154 -1.3129  1.4665
12126TIP3    H236336   2.491   7.184   3.257  0.6426  0.5442 -0.6505
12127TIP3   OH236337   2.797   7.639   0.778 -0.3445 -0.1622  0.2181
12127TIP3    H136338   2.778   7.567   0.839 -0.0890 -0.0019  0.4889
12127TIP3    H236339   2.893   7.636   0.767 -0.1166  1.1944  1.5516
12128TIP3   OH236340   6.748   1.577   3.817  0.3768  0.0974  0.0687
12128TIP3    H136341   6.842   1.584   3.828  0.5751 -1.6395 -0.1643
12128TIP3    H236342   6.733   1.594   3.724  0.5351 -0.2524 -0.0204
12129TIP3   OH236343   3.898   0.345   4.265  0.9585  0.0917 -0.4384
12129TIP3    H136344   3.855   0.370   4.347  1.0283 -1.4972  0.1217
12129TIP3    H236345   3.930   0.257   4.282  0.1231 -0.6628 -2.5000
12130TIP3   OH236346   6.655   2.610   3.326  0.0126  0.4019 -0.2711
12130TIP3    H136347   6.724   2.562   3.281  1.4093  2.0965 -0.0451
12130TIP3    H236348   6.654   2.573   3.415  1.0843  0.7677 -0.0920
12131TIP3   OH236349   6.764   3.301   0.485 -0.0774 -0.0730 -0.7794
12131TIP3    H136350   6.702   3.352   0.537 -1.4042 -1.1182 -1.2842
12131TIP3    H236351   6.837   3.361   0.469 -1.4851  1.6076 -1.1822
12132TIP3   OH236352   1.533   6.557   3.052  0.1628  0.3148  0.4437
12132TIP3    H136353   1.471   6.566   2.980  0.2198 -0.3105  0.3067
12132TIP3    H236354   1.484   6.585   3.130  0.2956  1.5896  0.0939
12133TIP3   OH236355   6.194   3.680   6.542 -0.2960 -0.0906 -0.0415
12133TIP3    H136356   6.255   3.660   6.614 -0.0519  0.5885 -0.0467
12133TIP3    H236357   6.122   3.726   6.585 -0.1324  0.3501 -0.2274
12134TIP3   OH236358   1.346   5.002   3.234  0.2135 -0.1920  0.6219
12134TIP3    H136359   1.319   5.006   3.326 -0.8501  1.3456  0.2924
12134TIP3    H236360   1.341   5.093   3.204 -4.0192 -1.0058 -2.1251
12135TIP3   OH236361   7.480   4.923   0.741 -0.8845  0.3634  0.0743
12135TIP3    H136362   7.539   4.875   0.683 -0.5933  1.5062 -0.5854
12135TIP3    H236363   7.457   5.002   0.693 -0.7658  1.2675  1.4554
12136TIP3   OH236364   7.434   2.815   2.914  0.2153  0.0788  0.0071
12136TIP3    H136365   7.413   2.816   2.821  0.2470  0.6669  0.0046
12136TIP3    H236366   7.376   2.880   2.953 -1.1552 -1.4620  0.7094
12137TIP3   OH236367   5.147   3.804   4.972 -0.7527  0.2541 -0.3186
12137TIP3    H136368   5.122   3.884   4.926 -0.4450 -0.4364 -1.7339
12137TIP3    H236369   5.158   3.738   4.903 -0.0752 -0.7744  0.7201
12138TIP3   OH236370   4.164   3.252   6.555  0.2907  0.1641  0.2438
12138TIP3    H136371   4.180   3.318   6.488 -0.9935  1.5881  1.2773
12138TIP3    H236372   4.176   3.298   6.638 -1.2055 -0.7148  1.0000
12139TIP3   OH236373   1.397   3.839   1.454 -0.1121 -0.0428 -0.1432
12139TIP3    H136374   1.344   3.881   1.522 -1.5261 -0.0354 -1.1973
12139TIP3    H236375   1.465   3.792   1.502  0.4082  1.8980  1.1684
12140TIP3   OH236376   3.057   1.150   5.502 -0.4574 -0.4468  0.6457
12140TIP3    H136377   3.095   1.172   5.417 -0.2808 -0.8791  0.6079
12140TIP3    H236378   3.115   1.193   5.566 -1.6818  1.4919  0.5097
12141TIP3   OH236379   4.161   2.224   4.655  1.3909  0.4272  0.6630
12141TIP3    H136380   4.214   2.194   4.581  0.6837 -2.1601  1.0982
12141TIP3    H236381   4.076   2.182   4.641 -0.3352  3.7354  0.4669
12142TIP3   OH236382   3.241   4.584   1.585  0.3875 -0.1183 -0.3038
12142TIP3    H136383   3.314   4.526   1.561 -1.2559 -2.3932 -0.2117
12142TIP3    H236384   3.276   4.641   1.653  1.7519 -2.0089  0.6650
12143TIP3   OH236385   1.709   3.311   1.173  0.0894  0.4688  0.2954
12143TIP3    H136386   1.624   3.269   1.185 -0.2604  0.7964 -0.9335
12143TIP3    H236387   1.720   3.367   1.249 -0.9547  0.6947  0.2805
12144TIP3   OH236388   2.094   6.449   6.665 -0.2597  0.2947 -0.4838
12144TIP3    H136389   2.041   6.517   6.624 -0.9958  0.3827  0.5658
12144TIP3    H236390   2.088   6.467   6.759  0.3742 -0.6121 -0.2551
12145TIP3   OH236391   3.158   1.145   4.299  0.3086  0.7535  0.2395
12145TIP3    H136392   3.247   1.125   4.329  0.9089  2.2100 -0.5148
12145TIP3    H236393   3.133   1.223   4.348 -0.7129  0.1730  0.6880
12146TIP3   OH236394   5.887   5.384   1.580 -0.4388 -0.4971  0.5307
12146TIP3    H136395   5.928   5.471   1.581 -0.3931 -0.4968 -0.3497
12146TIP3    H236396   5.801   5.398   1.541  0.4699 -1.1891 -1.8834
12147TIP3   OH236397   4.786   5.690   0.517 -0.5681 -0.2197 -0.4631
12147TIP3    H136398   4.733   5.625   0.471 -0.1877 -1.3243  0.6003
12147TIP3    H236399   4.723   5.755   0.547 -1.7483 -2.5015  2.4907
12148TIP3   OH236400   1.535   1.748   4.030  0.4317 -0.1482  0.4415
12148TIP3    H136401   1.574   1.781   3.949  1.6260 -1.3880  0.4669
12148TIP3    H236402   1.610   1.721   4.084 -0.2551  1.6396  2.4593
12149TIP3   OH236403   7.060   1.553   1.920  0.4967 -0.6562  0.3948
12149TIP3    H136404   7.105   1.520   1.997  1.6193 -0.8848 -0.3473
12149TIP3    H236405   7.094   1.501   1.847  0.0916  0.1290 -0.3773
12150TIP3   OH236406   7.857   6.025   6.312  0.0971  0.2366  0.5018
12150TIP3    H136407   7.893   6.045   6.225 -1.1837 -0.1547 -0.1331
12150TIP3    H236408   7.786   6.087   6.324  1.0155  1.0963  1.8199
12151TIP3   OH236409   6.389   5.659   5.539  0.8429  0.4002 -0.2349
12151TIP3    H136410   6.347   5.577   5.565 -0.0114  0.5242 -1.1628
12151TIP3    H236411   6.440   5.638   5.461  2.6475  0.2320  0.9351
12152TIP3   OH236412   1.898   0.449   1.991  0.1184  0.0811 -0.4473
12152TIP3    H136413   1.928   0.494   1.913  0.6272  1.1069  0.3064
12152TIP3    H236414   1.816   0.493   2.014 -0.8256 -1.1980 -1.2083
12153TIP3   OH236415   2.265   0.718   1.298 -0.0109  0.1569 -0.2849
12153TIP3    H136416   2.217   0.644   1.333 -0.7798  0.0944 -1.3945
12153TIP3    H236417   2.237   0.793   1.350  1.7621 -0.4691  1.7300
12154TIP3   OH236418   7.367   2.222   1.169  0.7606 -0.1155 -0.3373
12154TIP3    H136419   7.366   2.202   1.262  1.2983  1.4600  0.0475
12154TIP3    H236420   7.275   2.236   1.146  0.6645 -0.0666  0.0705
12155TIP3   OH236421   6.621   3.598   4.964  0.3659 -0.2899  0.0978
12155TIP3    H136422   6.698   3.557   5.003 -0.4441 -3.0562 -0.9356
12155TIP3    H236423   6.639   3.599   4.870 -0.3590  0.2059 -0.0485
12156TIP3   OH236424   6.494   6.082   2.694  0.5332  0.1116  0.4175
12156TIP3    H136425   6.568   6.123   2.739 -0.1855  1.3200  0.5390
12156TIP3    H236426   6.502   6.113   2.604  0.4364 -0.1457  0.3192
12157TIP3   OH236427   5.153   4.021   0.929 -0.4179 -0.1430 -0.2637
12157TIP3    H136428   5.248   4.019   0.918 -0.2769 -0.2103  0.8161
12157TIP3    H236429   5.131   4.114   0.932 -0.2826 -0.1242  0.2312
12158TIP3   OH236430   6.777   4.818   3.777 -0.7115 -0.4232 -0.1472
12158TIP3    H136431   6.845   4.824   3.710 -0.4168  0.6281  0.2226
12158TIP3    H236432   6.819   4.774   3.850 -1.0387 -1.5884 -0.6365
12159TIP3   OH236433   7.895   6.336   5.233  0.1504  0.3628 -0.6894
12159TIP3    H136434   7.968   6.366   5.179  0.6011  0.4301 -0.0415
12159TIP3    H236435   7.832   6.302   5.170  0.6088  0.5798 -1.2740
12160TIP3   OH236436   5.727   3.229   5.393  0.2532  0.5687  0.2717
12160TIP3    H136437   5.753   3.142   5.363  1.3927  0.3246  1.8509
12160TIP3    H236438   5.647   3.248   5.342 -1.0747 -2.1291  1.1106
12161TIP3   OH236439   6.725   3.890   1.313 -0.6483  0.4735 -0.9091
12161TIP3    H136440   6.668   3.910   1.387 -2.3907 -2.4011 -1.3257
12161TIP3    H236441   6.805   3.855   1.353  0.0718  2.6136 -0.3693
12162TIP3   OH236442   5.782   3.453   3.396  0.4717 -0.2557 -0.2135
12162TIP3    H136443   5.752   3.388   3.459 -1.1060  0.7138  0.0839
12162TIP3    H236444   5.702   3.495   3.364  1.3192  0.2463 -1.8269
12163TIP3   OH236445   2.053   2.330   3.327 -0.0997 -0.0377  0.5394
12163TIP3    H136446   2.087   2.345   3.239 -0.7445  0.6894  0.3991
12163TIP3    H236447   2.124   2.286   3.374  0.4642  0.1048 -0.1708
12164TIP3   OH236448   4.582   1.515   4.712  0.1970  0.1081  0.1744
12164TIP3    H136449   4.595   1.531   4.618 -1.1802  1.0678  0.1239
12164TIP3    H236450   4.559   1.600   4.748 -0.2119 -0.4331  1.2270
12165TIP3   OH236451   3.010   5.233   0.827 -0.3141 -0.1980 -0.0673
12165TIP3    H136452   3.045   5.236   0.916 -2.5556 -0.2989  0.8843
12165TIP3    H236453   3.026   5.320   0.791  1.2459 -0.3702  0.1283
12166TIP3   OH236454   6.611   3.559   1.760 -0.3173  0.6062  0.0376
12166TIP3    H136455   6.691   3.610   1.751  0.4375 -0.7426 -1.2939
12166TIP3    H236456   6.604   3.541   1.853  0.5631  1.2851  0.2530
12167TIP3   OH236457   5.144   2.571   1.527 -0.3785 -0.4329 -0.1504
12167TIP3    H136458   5.054   2.560   1.558 -0.3576 -0.6146 -0.1547
12167TIP3    H236459   5.176   2.647   1.575 -1.7998  2.1742 -3.0001
12168TIP3   OH236460   1.385   5.536   2.961 -0.0431 -0.6059 -0.4087
12168TIP3    H136461   1.346   5.451   2.945 -1.4586 -0.2294  0.8913
12168TIP3    H236462   1.480   5.520   2.956 -0.2890 -1.8867 -1.8132
12169TIP3   OH236463   0.763   4.522   1.200  0.3087  0.4129  0.0775
12169TIP3    H136464   0.746   4.615   1.215  1.1020  0.1727  3.2844
12169TIP3    H236465   0.776   4.486   1.288 -1.1700 -2.9955 -0.9331
12170TIP3   OH236466   5.325   2.228   3.841 -0.2948  0.0885 -0.2676
12170TIP3    H136467   5.265   2.166   3.800 -0.5619  0.1061  0.0934
12170TIP3    H236468   5.276   2.266   3.914  0.3434 -0.3275  0.3984
12171TIP3   OH236469   4.425   5.899   1.644 -0.0951 -0.4205  0.5642
12171TIP3    H136470   4.346   5.900   1.699  0.5214 -1.0126  1.5047
12171TIP3    H236471   4.474   5.977   1.671 -0.2829 -0.1475  0.1080
12172TIP3   OH236472   2.527   0.700   3.619 -0.0162  0.0764 -0.5335
12172TIP3    H136473   2.545   0.657   3.535  1.2574 -0.3436 -0.0808
12172TIP3    H236474   2.575   0.782   3.615 -2.2007  1.3928 -1.2725
12173TIP3   OH236475   3.726   1.448   5.088  0.0867  0.1904 -0.3148
12173TIP3    H136476   3.772   1.456   5.005  0.7863  1.6991  0.1845
12173TIP3    H236477   3.766   1.373   5.131  0.1149 -0.2453 -1.0783
12174TIP3   OH236478   7.319   1.388   5.571 -0.2532  0.6370  0.9713
12174TIP3    H136479   7.268   1.307   5.579  1.4605 -0.7976 -1.1501
12174TIP3    H236480   7.316   1.408   5.477  3.2139  0.2524  0.6511
12175TIP3   OH236481   6.524   0.149   0.934  0.2945  0.0571  0.2732
12175TIP3    H136482   6.576   0.084   0.981 -1.2252 -1.2123  0.2988
12175TIP3    H236483   6.575   0.230   0.940  1.0219 -0.4866  2.5269
12176TIP3   OH236484   5.762   6.242   3.297 -0.7702 -0.0715  0.1051
12176TIP3    H136485   5.848   6.203   3.312 -1.5844 -1.7259  0.6856
12176TIP3    H236486   5.747   6.230   3.203 -0.4811  0.0220  0.0433
12177TIP3   OH236487   1.812   1.790   2.680  0.0840  0.1555  0.9129
12177TIP3    H136488   1.797   1.730   2.753 -0.9726  1.1157  1.5076
12177TIP3    H236489   1.812   1.877   2.720 -0.9029  0.7320 -0.2720
12178TIP3   OH236490   2.806   4.393   6.112 -0.6121 -0.2110 -0.2006
12178TIP3    H136491   2.834   4.429   6.028  0.8777  0.7566  0.6547
12178TIP3    H236492   2.793   4.300   6.095 -4.2823  0.5010 -2.4131
12179TIP3   OH236493   5.498   6.308   1.723  0.7063 -0.6518 -0.1702
12179TIP3    H136494   5.437   6.237   1.701 -0.6623  0.5370 -0.3951
12179TIP3    H236495   5.578   6.264   1.751 -0.2496 -2.2809  0.0987
12180TIP3   OH236496   7.547   7.129   6.139  0.1012 -0.2122 -0.3416
12180TIP3    H136497   7.613   7.078   6.092 -1.7709  0.8407 -4.5503
12180TIP3    H236498   7.468   7.076   6.135 -0.1743 -0.0362  1.7301
12181TIP3   OH236499   1.537   2.962   6.050  0.2204 -0.8157  0.3047
12181TIP3    H136500   1.491   2.918   5.979 -1.5663  0.4547  0.5819
12181TIP3    H236501   1.474   2.960   6.123  0.7041  0.7394  0.8041
12182TIP3   OH236502   2.943   4.306   3.150 -0.3535 -0.0617  0.0324
12182TIP3    H136503   3.012   4.240   3.141 -0.8871 -0.6640  0.2675
12182TIP3    H236504   2.952   4.362   3.073 -0.9091 -1.3870 -1.0356
12183TIP3   OH236505   7.537   7.164   0.755 -0.2766 -0.6864 -0.0156
12183TIP3    H136506   7.444   7.166   0.777  0.1809 -0.3148  2.1109
12183TIP3    H236507   7.572   7.244   0.794  0.8459 -0.5336 -1.2930
12184TIP3   OH236508   2.889   5.307   5.702  0.0353 -0.0081 -0.2547
12184TIP3    H136509   2.833   5.333   5.629 -0.2523 -2.1028 -0.8489
12184TIP3    H236510   2.828   5.288   5.773  0.1982  0.3900 -0.0066
12185TIP3   OH236511   5.734   7.366   6.672 -0.0682 -0.0628 -0.2309
12185TIP3    H136512   5.708   7.362   6.764 -4.1044 -0.7496 -1.1767
12185TIP3    H236513   5.808   7.306   6.664 -0.2996 -0.7869  2.3692
12186TIP3   OH236514   3.130   2.467   3.409 -0.1500 -0.4995 -0.4688
12186TIP3    H136515   3.174   2.550   3.423  0.1367 -0.4672 -1.5115
12186TIP3    H236516   3.037   2.488   3.411 -0.0770  0.0051 -1.5301
12187TIP3   OH236517   6.764   0.790   4.832 -0.3873  0.6901 -0.4770
12187TIP3    H136518   6.844   0.778   4.781  0.3884 -1.3801  1.0801
12187TIP3    H236519   6.698   0.812   4.767  1.2372  1.6028 -1.9280
12188TIP3   OH236520   0.441   1.171   2.286  0.1790 -0.3125  0.4362
12188TIP3    H136521   0.410   1.257   2.315 -1.2941 -0.9206  0.7334
12188TIP3    H236522   0.423   1.113   2.360 -1.5890 -1.4570 -0.8285
12189TIP3   OH236523   5.565   0.963   3.917 -0.0397 -0.2740  0.4783
12189TIP3    H136524   5.553   1.041   3.862  0.7396  0.9903  2.0146
12189TIP3    H236525   5.476   0.930   3.930 -0.3562  0.1361 -0.4908
12190TIP3   OH236526   1.810   7.739   2.190 -0.1210 -0.0191 -0.3347
12190TIP3    H136527   1.753   7.803   2.147  0.0013  1.0833  1.0503
12190TIP3    H236528   1.803   7.661   2.136 -1.0334  0.8581 -1.5603
12191TIP3   OH236529   1.046   3.780   6.469 -0.5701 -0.1006 -0.5186
12191TIP3    H136530   1.035   3.814   6.558  0.5698  0.1768 -0.4649
12191TIP3    H236531   1.121   3.828   6.434 -1.1644 -0.0159 -1.7371
12192TIP3   OH236532   5.488   6.561   1.613 -0.9784  0.0383  0.6108
12192TIP3    H136533   5.424   6.606   1.667  1.5596  0.9140  3.1250
12192TIP3    H236534   5.491   6.472   1.648 -0.1987  0.2587  1.1181
12193TIP3   OH236535   7.118   4.815   0.084  0.3241  0.1615  0.5434
12193TIP3    H136536   7.053   4.823   0.013  0.4390 -1.1965  0.2631
12193TIP3    H236537   7.203   4.823   0.040  0.5244 -3.3870 -0.0079
12194TIP3   OH236538   1.797   0.403   5.255 -0.1857  0.1088  0.3842
12194TIP3    H136539   1.850   0.327   5.235 -1.6036 -0.9345  0.4339
12194TIP3    H236540   1.785   0.447   5.171  1.0494  0.5864  0.4360
12195TIP3   OH236541   0.599   0.996   4.442 -0.6244 -0.2559  0.5425
12195TIP3    H136542   0.573   0.913   4.402 -0.7991 -0.1789  0.4890
12195TIP3    H236543   0.580   1.061   4.374  0.8458 -0.3180  0.0478
12196TIP3   OH236544   1.940   4.101   0.398  0.6262  0.2037 -0.3314
12196TIP3    H136545   2.005   4.032   0.410  1.0759  0.7226  0.2220
12196TIP3    H236546   1.907   4.120   0.486 -0.1702  0.0531 -0.5840
12197TIP3   OH236547   4.176   7.480   0.958  0.4031 -0.1069 -0.6911
12197TIP3    H136548   4.135   7.430   0.888 -0.1948  0.9130 -1.0977
12197TIP3    H236549   4.122   7.464   1.035  1.3080 -1.5720 -0.3369
12198TIP3   OH236550   1.631   3.585   1.256 -0.2742 -0.3950 -1.2898
12198TIP3    H136551   1.641   3.679   1.271  0.9433 -0.9570  2.8079
12198TIP3    H236552   1.711   3.559   1.211  0.2412  0.3147 -0.8051
12199TIP3   OH236553   2.895   6.628   5.027  0.6224  0.0449  0.2072
12199TIP3    H136554   2.907   6.572   4.950  0.3854 -2.5442  1.9354
12199TIP3    H236555   2.872   6.567   5.098  0.1141  2.3878  2.1883
12200TIP3   OH236556   2.149   1.888   3.756 -0.7005  0.7514  0.0923
12200TIP3    H136557   2.129   1.939   3.677  1.1183 -0.9384 -1.5652
12200TIP3    H236558   2.072   1.831   3.768 -0.4165  0.0130 -1.3660
12201TIP3   OH236559   1.151   6.241   4.239  0.1090  0.0656 -0.2910
12201TIP3    H136560   1.228   6.295   4.223  0.8891 -0.3492  1.7689
12201TIP3    H236561   1.169   6.159   4.191 -0.1795  0.8308 -1.7737
12202TIP3   OH236562   5.285   1.778   0.257 -0.0768 -0.8791 -0.0870
12202TIP3    H136563   5.380   1.788   0.246 -0.5287  1.6559 -2.9643
12202TIP3    H236564   5.260   1.711   0.194 -0.4983  0.8987 -1.9328
12203TIP3   OH236565   8.119   5.978   6.370  0.2149 -0.2858  0.1168
12203TIP3    H136566   8.144   5.989   6.279 -0.9456 -2.9875 -0.6365
12203TIP3    H236567   8.029   6.010   6.375  0.0729 -0.6843  0.1599
12204TIP3   OH236568   0.919   0.272   1.775  0.4559  0.7252 -0.1020
12204TIP3    H136569   0.934   0.190   1.729 -2.5307 -0.5909  1.0402
12204TIP3    H236570   0.916   0.248   1.868 -1.4646  1.8699  0.1930
12205TIP3   OH236571   0.310   5.339   5.990 -0.5615 -0.3975  0.1247
12205TIP3    H136572   0.253   5.416   5.993  0.3050  0.2996 -0.5927
12205TIP3    H236573   0.361   5.350   5.909 -2.5141 -3.2443 -1.6696
12206TIP3   OH236574   2.051   0.906   1.704  0.3249  0.0910 -0.0310
12206TIP3    H136575   2.001   0.939   1.779  0.6954  2.3112 -0.7057
12206TIP3    H236576   1.985   0.883   1.639  0.0742 -0.2869  0.3506
12207TIP3   OH236577   4.478   2.924   5.231 -0.1081 -0.4588  0.2227
12207TIP3    H136578   4.423   2.897   5.158 -2.1102  0.8364  1.1823
12207TIP3    H236579   4.497   2.842   5.278  2.1168 -1.4885 -2.2213
12208TIP3   OH236580   3.647   4.203   4.671 -0.5771 -0.2796  0.2724
12208TIP3    H136581   3.572   4.177   4.725  1.1787 -2.0394  2.0538
12208TIP3    H236582   3.676   4.122   4.630  0.6307  0.2761 -0.0095
12209TIP3   OH236583   2.149   5.356   6.141  1.1244  0.3158  0.1965
12209TIP3    H136584   2.168   5.412   6.066 -0.1702  2.1861  1.1900
12209TIP3    H236585   2.108   5.414   6.205  1.5101 -1.3744  2.0824
12210TIP3   OH236586   3.045   5.974   3.951 -0.0317 -0.3333 -0.1047
12210TIP3    H136587   3.090   6.044   3.904 -0.7576 -0.8468 -1.6533
12210TIP3    H236588   2.952   5.992   3.935 -0.2117 -2.0079 -1.1317
12211TIP3   OH236589   6.940   6.017   0.912  0.4761  0.1813  0.5845
12211TIP3    H136590   7.025   6.050   0.885  0.6747  0.1518  1.1563
12211TIP3    H236591   6.906   6.084   0.971 -0.1390  0.4531 -0.0581
12212TIP3   OH236592   4.008   1.085   5.772 -0.1238 -0.2974  0.4355
12212TIP3    H136593   4.014   1.160   5.831  1.0363  0.4541 -0.5937
12212TIP3    H236594   4.087   1.034   5.791 -0.0554 -0.3687 -0.0458
12213TIP3   OH236595   7.024   6.907   5.401 -0.0364 -0.1827 -0.2402
12213TIP3    H136596   7.029   6.991   5.447  0.5042 -0.0962 -0.4478
12213TIP3    H236597   6.939   6.871   5.427 -0.0772  0.2178  0.2101
12214TIP3   OH236598   8.030   1.147   4.525  0.1992 -0.6068 -0.1551
12214TIP3    H136599   7.940   1.160   4.495  0.0034 -2.2237 -0.3455
12214TIP3    H236600   8.020   1.125   4.618  0.4330 -0.4364 -0.0895
12215TIP3   OH236601   1.300   2.084   5.832  0.3217 -0.1600  0.2159
12215TIP3    H136602   1.210   2.115   5.836  0.1346 -0.6100 -0.2714
12215TIP3    H236603   1.354   2.160   5.851 -0.1819 -0.0701  1.3475
12216TIP3   OH236604   1.288   2.030   0.314  0.0365 -0.0570  0.3458
12216TIP3    H136605   1.343   2.055   0.388 -0.2378  1.1057  0.1834
12216TIP3    H236606   1.298   1.935   0.307  1.5072  0.0354  0.7330
12217TIP3   OH236607   5.851   1.650   2.608 -0.2215  0.2510 -0.3944
12217TIP3    H136608   5.807   1.710   2.548 -0.9181  0.6653  0.5091
12217TIP3    H236609   5.848   1.694   2.693  1.2948 -0.0404 -0.1553
12218TIP3   OH236610   3.776   4.908   6.265  0.6756 -0.0511  0.0162
12218TIP3    H136611   3.793   4.845   6.335 -1.0909 -0.8149 -0.1914
12218TIP3    H236612   3.719   4.973   6.304 -0.3176 -0.4766 -0.6781
12219TIP3   OH236613   7.274   5.501   4.726  0.2930  0.4817  0.1103
12219TIP3    H136614   7.292   5.543   4.810 -0.8327  1.5222 -0.1339
12219TIP3    H236615   7.318   5.416   4.731 -1.6760 -0.4925  2.6587
12220TIP3   OH236616   6.683   0.732   5.970  0.2396  0.3390 -1.0903
12220TIP3    H136617   6.671   0.811   6.022 -0.1545 -0.3833 -0.0485
12220TIP3    H236618   6.750   0.682   6.016 -0.0342 -0.2710 -1.3338
12221TIP3   OH236619   4.341   4.464   5.648 -0.3277 -0.3432 -0.2792
12221TIP3    H136620   4.375   4.514   5.722  1.2975 -1.2132 -0.3801
12221TIP3    H236621   4.394   4.384   5.647  0.0327 -0.1461 -2.6641
12222TIP3   OH236622   0.247   7.489   2.666  0.0617 -0.3472  0.9599
12222TIP3    H136623   0.300   7.415   2.695  1.0677 -0.2824 -0.5881
12222TIP3    H236624   0.309   7.549   2.624 -1.1211  0.0292 -0.3627
12223TIP3   OH236625   4.317   4.957   1.425  0.1377  0.3808  0.2108
12223TIP3    H136626   4.297   4.864   1.437  1.5814 -0.0299 -0.3769
12223TIP3    H236627   4.345   4.964   1.334 -0.6927  1.5542  0.0204
12224TIP3   OH236628   7.552   5.609   0.879  0.1137  0.7465  0.5542
12224TIP3    H136629   7.516   5.546   0.817 -0.0055  1.0495  0.3102
12224TIP3    H236630   7.476   5.645   0.925  0.2690 -0.1572  1.5490
12225TIP3   OH236631   4.779   1.863   2.247  0.9153 -0.0421 -0.2385
12225TIP3    H136632   4.808   1.833   2.334  1.0183  0.3930 -0.1157
12225TIP3    H236633   4.685   1.846   2.245  0.3114  2.6179  1.1275
12226TIP3   OH236634   3.434   6.354   6.752 -0.3200 -0.1094 -0.3174
12226TIP3    H136635   3.521   6.387   6.729 -1.6101  1.2571 -3.9518
12226TIP3    H236636   3.378   6.431   6.750 -2.0598 -1.3278 -0.6237
12227TIP3   OH236637   6.842   3.338   1.431 -0.1598  0.4049  0.7600
12227TIP3    H136638   6.842   3.243   1.431 -3.4963  0.2373  3.1451
12227TIP3    H236639   6.877   3.362   1.517 -1.0201  1.2170  0.9011
12228TIP3   OH236640   0.660   1.348   5.369 -0.5023 -0.1220  0.3117
12228TIP3    H136641   0.643   1.289   5.442 -0.0345 -1.6915 -0.7939
12228TIP3    H236642   0.639   1.296   5.291  0.2338  1.0746 -0.7178
12229TIP3   OH236643   5.044   3.672   1.633 -0.2650  0.0919  0.3160
12229TIP3    H136644   5.023   3.719   1.552  1.6468 -1.9488 -1.4864
12229TIP3    H236645   5.073   3.741   1.693 -0.9485  1.5782 -0.9788
12230TIP3   OH236646   7.195   2.911   6.073 -0.1690  0.2946  0.0885
12230TIP3    H136647   7.234   2.916   6.161 -0.2611  0.1006  0.1408
12230TIP3    H236648   7.254   2.853   6.024  1.6886  2.8347 -0.9316
12231TIP3   OH236649   7.387   4.079   5.424  0.2974 -0.1887  0.1540
12231TIP3    H136650   7.340   4.085   5.341  1.4610 -0.7811 -0.5781
12231TIP3    H236651   7.352   4.001   5.466 -1.7502  1.2242  1.1958
12232TIP3   OH236652   6.860   2.782   6.622 -0.1083  0.6388 -0.4658
12232TIP3    H136653   6.947   2.820   6.606  1.5740 -2.2286  1.1677
12232TIP3    H236654   6.825   2.834   6.695  1.4719  0.1450  0.7049
12233TIP3   OH236655   2.869   5.344   4.652  0.2226  0.3016  0.1414
12233TIP3    H136656   2.864   5.390   4.568  1.1812 -0.4122 -0.3162
12233TIP3    H236657   2.926   5.398   4.706  1.8191 -0.5927 -0.5863
12234TIP3   OH236658   6.312   1.674   6.223  0.1999  0.5460  0.5002
12234TIP3    H136659   6.313   1.652   6.130 -1.4604  2.5114 -0.0554
12234TIP3    H236660   6.219   1.684   6.244  0.4787 -0.6935  2.6212
12235TIP3   OH236661   7.121   4.915   2.427 -0.1472  0.1798 -0.4785
12235TIP3    H136662   7.040   4.866   2.439  0.3562 -0.5433  0.0713
12235TIP3    H236663   7.175   4.859   2.370 -0.1616  0.8141 -1.1331
12236TIP3   OH236664   0.080   6.159   2.163  0.3295 -0.0316 -0.4235
12236TIP3    H136665   0.102   6.197   2.248  1.8898  1.4500 -1.4196
12236TIP3    H236666   0.163   6.122   2.131 -0.0189  0.1976 -1.6533
12237TIP3   OH236667   5.958   6.973   2.989  0.2683 -0.3927 -0.5145
12237TIP3    H136668   6.004   7.056   2.998 -2.3731  1.1348 -0.0622
12237TIP3    H236669   5.911   6.980   2.905 -1.6522 -0.4322  0.4873
12238TIP3   OH236670   5.978   4.936   3.934  0.2730 -0.5096 -0.2550
12238TIP3    H136671   6.062   4.973   3.906 -0.7267  1.4616 -0.7808
12238TIP3    H236672   5.940   5.001   3.992 -1.4933 -0.7336 -1.0884
12239TIP3   OH236673   0.690   7.140   5.065  0.2473  0.4001  0.1960
12239TIP3    H136674   0.717   7.076   5.131  1.0515  0.8800  0.3403
12239TIP3    H236675   0.759   7.137   4.999 -0.6058 -0.1588 -0.6928
12240TIP3   OH236676   7.598   3.189   0.906 -0.1941  0.1964  1.1298
12240TIP3    H136677   7.624   3.195   0.814 -2.0463  0.0139  0.5679
12240TIP3    H236678   7.624   3.273   0.944  0.5438  0.2862  0.4433
12241TIP3   OH236679   4.434   0.973   0.542 -0.0613 -0.0163 -0.4008
12241TIP3    H136680   4.409   0.934   0.459 -1.5626  0.2578 -0.1160
12241TIP3    H236681   4.352   0.976   0.592  1.0044 -1.2994  1.5634
12242TIP3   OH236682   2.071   5.408   3.607  0.4719 -0.2209 -0.4903
12242TIP3    H136683   2.149   5.416   3.661  0.4152 -0.9216 -0.3009
12242TIP3    H236684   2.093   5.341   3.542 -0.0401 -0.5805 -0.3001
12243TIP3   OH236685   3.482   7.544   4.415 -0.0521  0.3232 -0.0030
12243TIP3    H136686   3.416   7.613   4.414 -1.8954 -1.3564 -0.8702
12243TIP3    H236687   3.557   7.583   4.461 -2.1884  1.8104  2.4941
12244TIP3   OH236688   0.837   4.648   2.115 -0.0228  0.2064  0.3014
12244TIP3    H136689   0.761   4.684   2.068 -0.9959 -1.0475  0.8571
12244TIP3    H236690   0.825   4.553   2.110  1.0135  0.0130  1.2111
12245TIP3   OH236691   6.849   1.773   1.827  0.1377 -0.1593  0.4046
12245TIP3    H136692   6.882   1.716   1.758  1.2652  0.9547 -0.0006
12245TIP3    H236693   6.895   1.745   1.906  0.7999  0.2922  0.1772
12246TIP3   OH236694   5.325   7.575   1.363 -0.0440  0.1198 -0.0316
12246TIP3    H136695   5.317   7.616   1.276 -1.1955  1.8756  0.8407
12246TIP3    H236696   5.393   7.508   1.352  0.9367  1.3385 -1.9050
12247TIP3   OH236697   3.836   2.054   1.831  0.2517  0.0266 -0.4140
12247TIP3    H136698   3.790   2.072   1.913 -0.8384  0.5377 -1.1214
12247TIP3    H236699   3.766   2.041   1.766  1.0251  2.7303 -1.9421
12248TIP3   OH236700   8.276   4.210   3.494  0.1626  0.3744  0.5689
12248TIP3    H136701   8.302   4.204   3.402 -0.1966 -0.3217  0.5089
12248TIP3    H236702   8.211   4.141   3.506 -2.1682  2.4259  0.5683
12249TIP3   OH236703   3.259   2.214   0.762  0.7139 -0.2229  0.1289
12249TIP3    H136704   3.346   2.175   0.751  1.0462  0.2696  0.8433
12249TIP3    H236705   3.266   2.299   0.717  0.2046 -0.6922 -0.8609
12250TIP3   OH236706   3.091   5.938   0.769 -0.6970  0.5762  0.5173
12250TIP3    H136707   3.117   6.020   0.811 -0.6752  1.5970 -1.3385
12250TIP3    H236708   3.027   5.965   0.703 -0.1666 -0.8049 -0.6118
12251TIP3   OH236709   2.443   5.542   3.973 -0.6497 -0.3417  0.5643
12251TIP3    H136710   2.415   5.452   3.989 -1.3833 -0.2456 -0.1448
12251TIP3    H236711   2.389   5.595   4.031 -1.4092 -0.2207 -0.2464
12252TIP3   OH236712   6.470   5.156   3.666 -0.2081  0.6444 -0.4975
12252TIP3    H136713   6.459   5.231   3.608 -0.2815  0.6464 -0.4803
12252TIP3    H236714   6.480   5.193   3.753  1.9123  0.7660 -0.7334
12253TIP3   OH236715   2.366   0.218   4.279 -0.0402  0.3211 -0.6319
12253TIP3    H136716   2.339   0.303   4.314  0.3408  0.4780 -0.7137
12253TIP3    H236717   2.403   0.171   4.354 -1.8361 -0.4599 -0.1873
12254TIP3   OH236718   3.379   6.140   3.194  0.6726 -0.1926  0.2456
12254TIP3    H136719   3.284   6.127   3.193  0.7772 -1.3852 -2.5235
12254TIP3    H236720   3.398   6.186   3.113  2.1796  3.5682  2.4634
12255TIP3   OH236721   7.711   1.860   3.870 -0.2085 -0.3651 -0.4592
12255TIP3    H136722   7.677   1.938   3.914  0.5216  0.3797 -1.1617
12255TIP3    H236723   7.687   1.873   3.778 -0.2483 -1.0713 -0.5521
12256TIP3   OH236724   3.652   6.789   3.144  0.2517  0.0381  0.0087
12256TIP3    H136725   3.655   6.695   3.128  2.0596  0.4306 -2.4977
12256TIP3    H236726   3.559   6.810   3.149 -0.1834 -1.8901  0.9416
12257TIP3   OH236727   3.885   6.739   0.668  0.6816  0.0697 -0.2120
12257TIP3    H136728   3.837   6.669   0.625 -1.3014  1.1250  0.1503
12257TIP3    H236729   3.822   6.810   0.676  1.7927  0.9077  1.9351
12258TIP3   OH236730   0.373   3.146   5.681 -0.1602 -0.3566 -0.1376
12258TIP3    H136731   0.342   3.124   5.769 -2.2321  0.8923 -0.4783
12258TIP3    H236732   0.407   3.235   5.689  0.4324 -0.5490 -0.4446
12259TIP3   OH236733   6.475   5.006   1.933  0.3929 -0.7214 -0.4260
12259TIP3    H136734   6.564   5.042   1.928  0.4315 -0.8478 -0.6813
12259TIP3    H236735   6.469   4.970   2.021  0.3594 -0.1087 -0.1753
12260TIP3   OH236736   0.450   2.417   5.638  0.0157 -0.1516 -0.0757
12260TIP3    H136737   0.474   2.420   5.730 -0.3346 -0.1835  0.0169
12260TIP3    H236738   0.416   2.504   5.619 -2.5583 -0.9112  0.5550
12261TIP3   OH236739   5.376   0.072   2.617 -0.3005 -0.4603 -0.5720
12261TIP3    H136740   5.448   0.104   2.671 -0.6673 -1.4140  0.5136
12261TIP3    H236741   5.349  -0.010   2.658 -1.5175 -0.5058 -1.3954
12262TIP3   OH236742   4.824   7.756   2.141 -0.5233  0.5230  0.2515
12262TIP3    H136743   4.780   7.734   2.223 -1.4802  0.1252 -0.3508
12262TIP3    H236744   4.826   7.852   2.139  0.1157  0.5338  1.0441
12263TIP3   OH236745   2.498   0.285   2.455  0.8566 -0.5102 -0.6537
12263TIP3    H136746   2.442   0.301   2.531  0.8799 -0.5404 -0.6299
12263TIP3    H236747   2.498   0.367   2.406  0.2275 -0.7191 -1.0219
12264TIP3   OH236748   3.595   6.417   2.053 -0.3311  0.4513 -0.0297
12264TIP3    H136749   3.669   6.472   2.029  1.9290 -1.8204  1.1656
12264TIP3    H236750   3.568   6.450   2.139 -0.9464  1.4855 -0.6058
12265TIP3   OH236751   6.527   6.837   6.483  0.1128 -0.1890  0.3980
12265TIP3    H136752   6.525   6.743   6.496  0.7390 -0.4227 -1.0376
12265TIP3    H236753   6.589   6.851   6.411 -2.2521  1.0231 -1.5768
12266TIP3   OH236754   5.479   6.171   1.095 -0.1820 -0.5455  0.5919
12266TIP3    H136755   5.491   6.222   1.175 -3.4964 -1.1070  1.6070
12266TIP3    H236756   5.462   6.235   1.027 -1.9048 -0.1507  1.3510
12267TIP3   OH236757   0.933   2.994   0.238  0.3807  0.1041  0.0311
12267TIP3    H136758   0.839   3.005   0.225  0.4542  1.2940  0.3669
12267TIP3    H236759   0.942   2.909   0.281 -0.6457  0.5136  1.1002
12268TIP3   OH236760   7.485   0.752   5.587 -0.0333 -0.4119 -0.0847
12268TIP3    H136761   7.418   0.737   5.520 -0.5449  1.0643  0.0702
12268TIP3    H236762   7.552   0.686   5.569 -0.1268 -0.0183 -2.0702
12269TIP3   OH236763   1.170   1.842   3.836 -0.1226  0.8066  0.0842
12269TIP3    H136764   1.220   1.894   3.899 -0.6849  1.1380  0.2638
12269TIP3    H236765   1.233   1.777   3.804  0.2188  0.7358  0.8613
12270TIP3   OH236766   1.374   4.552   3.004  0.0579  0.3811 -0.2186
12270TIP3    H136767   1.446   4.491   2.986  1.4835  1.7936  0.4806
12270TIP3    H236768   1.414   4.639   2.995 -1.4968  1.1984  0.4911
12271TIP3   OH236769   6.423   1.546   0.162 -0.1883  0.5973 -0.0346
12271TIP3    H136770   6.406   1.639   0.145 -1.8631  0.2749 -0.2443
12271TIP3    H236771   6.387   1.532   0.250 -1.5194 -0.2305 -0.6925
12272TIP3   OH236772   7.502   4.705   6.439 -0.1284  0.4736  0.1992
12272TIP3    H136773   7.550   4.635   6.395  0.5863  0.4252  1.0290
12272TIP3    H236774   7.425   4.663   6.476 -0.3157  0.3642 -0.3016
12273TIP3   OH236775   0.471   4.090   2.505 -0.2034 -0.1757 -0.1942
12273TIP3    H136776   0.484   4.015   2.563  0.4882 -1.0771 -1.4744
12273TIP3    H236777   0.426   4.155   2.560  2.5036 -0.0250  2.1092
12274TIP3   OH236778   6.912   5.000   0.515 -0.2041  0.5324  0.0094
12274TIP3    H136779   6.854   4.945   0.568 -0.5116 -0.3243 -1.1760
12274TIP3    H236780   6.980   4.941   0.484 -0.0305  1.0143 -0.5515
12275TIP3   OH236781   7.978   1.495   0.379  0.1910 -0.5079  0.5685
12275TIP3    H136782   7.924   1.570   0.355  1.4171  0.1183 -0.2904
12275TIP3    H236783   7.990   1.446   0.297 -0.2776 -1.4467  1.0408
12276TIP3   OH236784   2.411   6.922   6.549 -0.0240  0.7027 -0.4833
12276TIP3    H136785   2.370   6.865   6.613  0.5759  0.8310  0.0286
12276TIP3    H236786   2.452   6.991   6.601  0.9762  0.4860 -0.9487
12277TIP3   OH236787  -0.001   6.606   6.041  0.0857  0.6949  0.9094
12277TIP3    H136788  -0.022   6.693   6.007  2.1620  1.1096  0.5662
12277TIP3    H236789   0.028   6.557   5.964  1.8558  0.6704  1.5546
12278TIP3   OH236790   2.435   5.816   1.546  0.3484  0.3828 -0.6305
12278TIP3    H136791   2.527   5.841   1.548  0.2033  0.8678  0.7860
12278TIP3    H236792   2.396   5.857   1.623 -1.2362  0.8316 -1.6005
12279TIP3   OH236793   4.866   2.355   2.938 -0.7356  0.0652 -0.0691
12279TIP3    H136794   4.805   2.420   2.974 -0.1006 -0.3576  1.8769
12279TIP3    H236795   4.823   2.271   2.954 -1.3189 -0.0944 -2.1206
12280TIP3   OH236796   3.956   7.703   5.170 -0.5165  0.4112 -0.3846
12280TIP3    H136797   4.008   7.623   5.166  0.2550  0.9285 -1.1199
12280TIP3    H236798   3.870   7.678   5.136 -0.2390 -0.0772 -0.7401
12281TIP3   OH236799   1.976   4.639   5.333  0.5049  0.0827  0.3714
12281TIP3    H136800   1.938   4.622   5.419  1.5107  1.5060  1.1247
12281TIP3    H236801   2.056   4.586   5.332 -0.6862 -1.8209 -0.6756
12282TIP3   OH236802   4.052   6.209   1.650  0.5450  0.1861 -0.9989
12282TIP3    H136803   4.138   6.189   1.614  0.6029  0.8765 -1.2476
12282TIP3    H236804   4.063   6.293   1.694 -0.3087  0.9049 -2.1156
12283TIP3   OH236805   7.933   0.800   5.154 -0.7061 -0.5488 -0.5488
12283TIP3    H136806   8.002   0.865   5.161 -0.9075 -0.3286 -0.5836
12283TIP3    H236807   7.853   0.848   5.177 -0.8293 -0.8313 -0.3849
12284TIP3   OH236808   4.356   1.315   3.846 -0.0171  0.7970 -0.3204
12284TIP3    H136809   4.278   1.358   3.811  0.1525  1.2975 -0.1000
12284TIP3    H236810   4.425   1.382   3.837  0.1733  0.6924  0.3559
12285TIP3   OH236811   4.867   1.774   1.461 -0.4136  0.5900 -0.1495
12285TIP3    H136812   4.880   1.825   1.541 -0.0489  0.1449  0.0799
12285TIP3    H236813   4.872   1.839   1.391  4.0333  0.4911 -0.2171
12286TIP3   OH236814   6.549   2.902   4.265 -0.0124 -0.1987 -0.7484
12286TIP3    H136815   6.638   2.936   4.263  0.2900 -0.7316  1.6613
12286TIP3    H236816   6.536   2.865   4.177  2.3834 -0.7785 -0.9309
12287TIP3   OH236817   1.951   7.387   6.642  0.0915 -0.0864  0.4400
12287TIP3    H136818   1.994   7.437   6.572  1.7316  1.6787  2.5602
12287TIP3    H236819   1.957   7.443   6.719 -0.7925 -2.3126  2.2589
12288TIP3   OH236820   0.535   4.154   1.208 -0.5963  0.0038  0.1035
12288TIP3    H136821   0.470   4.108   1.155  0.3646  0.5321 -1.6094
12288TIP3    H236822   0.617   4.146   1.159  0.4885  0.0459  1.8049
12289TIP3   OH236823   0.683   6.922   3.595  0.2805 -0.2844 -0.2401
12289TIP3    H136824   0.735   6.928   3.675  1.0494 -0.8055 -0.6820
12289TIP3    H236825   0.660   7.012   3.574  0.6587 -0.0868  0.1876
12290TIP3   OH236826   5.069   0.787   2.433  0.2043 -0.3555  0.3541
12290TIP3    H136827   4.980   0.794   2.398  0.4949 -0.0923 -0.3724
12290TIP3    H236828   5.061   0.813   2.524 -0.5035 -0.5722  0.3633
12291TIP3   OH236829   5.417   2.617   3.453 -0.3192  0.2929 -0.3354
12291TIP3    H136830   5.397   2.702   3.493  0.0675  0.2080  0.0446
12291TIP3    H236831   5.353   2.557   3.491 -0.0489  0.2432  0.0459
12292TIP3   OH236832   0.892   5.658   6.122  0.1448  0.1413  0.1554
12292TIP3    H136833   0.942   5.739   6.128  0.3410 -0.0986  2.2799
12292TIP3    H236834   0.899   5.618   6.209 -0.8415 -1.6270 -0.5202
12293TIP3   OH236835   3.770   5.195   0.284  0.1844 -0.2209  0.0447
12293TIP3    H136836   3.831   5.266   0.306 -1.3125  1.2106 -0.1624
12293TIP3    H236837   3.696   5.207   0.344 -2.0084  1.0917 -2.6818
12294TIP3   OH236838   0.006   5.615   3.424 -0.2925  0.2415  0.1353
12294TIP3    H136839   0.090   5.633   3.381 -0.7649 -0.1141 -0.9840
12294TIP3    H236840  -0.022   5.699   3.460  0.8389  0.2317  1.0859
12295TIP3   OH236841   5.733   4.292   3.930  0.3994  0.0670 -0.3884
12295TIP3    H136842   5.670   4.231   3.891  1.4429 -0.6530 -1.0089
12295TIP3    H236843   5.726   4.371   3.876  0.0455 -0.0207 -0.4743
12296TIP3   OH236844   4.395   3.635   3.338  0.2987  0.3228  0.6025
12296TIP3    H136845   4.394   3.701   3.407  1.0178  0.4175  0.5349
12296TIP3    H236846   4.337   3.670   3.271 -0.0048  0.4722  0.9415
12297TIP3   OH236847   3.434   1.173   0.362  0.1223 -0.5069 -0.3427
12297TIP3    H136848   3.498   1.121   0.312  0.6520  0.3784 -0.6105
12297TIP3    H236849   3.405   1.240   0.301  1.9370  1.5699  0.9155
12298TIP3   OH236850   3.516   1.649   1.213  0.1226  0.2915  0.3223
12298TIP3    H136851   3.542   1.703   1.288  0.8150 -1.7261  1.6386
12298TIP3    H236852   3.594   1.643   1.159  0.8286 -1.3319  1.4571
12299TIP3   OH236853   4.920   0.064   5.792 -0.2951 -0.6284 -0.1745
12299TIP3    H136854   5.015   0.069   5.793 -0.2956 -0.2484 -0.8919
12299TIP3    H236855   4.898   0.044   5.701 -0.9464  0.5846 -0.3060
12300TIP3   OH236856   6.248   7.860   5.411 -0.2414  0.7153 -0.3752
12300TIP3    H136857   6.220   7.769   5.406  0.5351  0.3035  1.7889
12300TIP3    H236858   6.334   7.861   5.369  0.6177 -0.0000  1.2753
12301TIP3   OH236859   5.886   0.661  -0.004  0.3500  0.3853  0.0381
12301TIP3    H136860   5.873   0.585   0.053  0.0750 -0.9238 -1.6859
12301TIP3    H236861   5.830   0.729   0.033  1.1760  0.0249  2.0696
12302TIP3   OH236862   7.777   1.226   0.834  0.2801 -0.3321 -0.3547
12302TIP3    H136863   7.722   1.242   0.757 -0.0247 -1.2278 -0.3341
12302TIP3    H236864   7.732   1.156   0.881  0.1872  0.5505  0.9208
12303TIP3   OH236865   7.294   3.867   1.633 -0.1333 -0.1795 -0.3314
12303TIP3    H136866   7.305   3.772   1.642  2.7318  0.0808 -0.2755
12303TIP3    H236867   7.294   3.882   1.538 -0.8213 -0.2311 -0.3456
12304TIP3   OH236868   1.731   5.453   0.101  0.2029 -0.1635 -0.2574
12304TIP3    H136869   1.761   5.498   0.022 -0.9886  2.5711  0.7212
12304TIP3    H236870   1.685   5.376   0.069  1.2218 -0.0459 -2.1340
12305TIP3   OH236871   4.530   3.519   2.037 -0.1573  0.1525 -0.2245
12305TIP3    H136872   4.442   3.555   2.027 -0.6709 -0.5938  1.2434
12305TIP3    H236873   4.528   3.437   1.988 -0.6593 -0.4018  0.6821
12306TIP3   OH236874   6.433   2.132   0.477 -0.4676  0.6214  0.3290
12306TIP3    H136875   6.517   2.176   0.473  0.8235 -1.5028  1.6788
12306TIP3    H236876   6.403   2.128   0.386  1.4882  0.4207 -0.3591
12307TIP3   OH236877   0.938   7.143   3.550  0.2650 -0.3459 -0.5826
12307TIP3    H136878   0.998   7.217   3.549  0.9850 -0.9044 -0.1007
12307TIP3    H236879   0.873   7.166   3.616  0.0726  0.1648 -0.9475
12308TIP3   OH236880   0.872   3.273   6.329  0.3231 -0.1690 -0.1266
12308TIP3    H136881   0.907   3.249   6.414  0.9788  1.8366  0.2265
12308TIP3    H236882   0.885   3.196   6.274  2.3944 -0.5723  0.8647
12309TIP3   OH236883   4.043   2.287   1.643  1.0191  0.1861  0.0948
12309TIP3    H136884   4.021   2.264   1.734  0.8584  1.8274  0.4990
12309TIP3    H236885   4.017   2.378   1.635 -1.0507 -0.5025 -2.2929
12310TIP3   OH236886   3.253   2.607   6.189  0.0871  0.2607  0.0446
12310TIP3    H136887   3.161   2.626   6.169  0.0778 -0.1877 -0.3565
12310TIP3    H236888   3.269   2.522   6.149 -0.0709 -0.9324  2.3562
12311TIP3   OH236889   3.548   4.894   3.389 -0.3897 -0.2686 -0.3980
12311TIP3    H136890   3.538   4.986   3.415 -1.2881 -0.3504 -0.4087
12311TIP3    H236891   3.580   4.850   3.467 -1.5008 -0.2198  0.1057
12312TIP3   OH236892   6.018   3.308   6.589  0.3767 -0.0825  0.2138
12312TIP3    H136893   5.960   3.288   6.663  0.8265 -0.7695  0.3840
12312TIP3    H236894   5.963   3.295   6.512  0.9218 -3.2474  0.2271
12313TIP3   OH236895   7.329   6.119   5.194 -0.1160  0.4850  1.0846
12313TIP3    H136896   7.291   6.153   5.113  0.1073  2.7387  1.8427
12313TIP3    H236897   7.418   6.154   5.194  0.5035 -1.0326  1.4490
12314TIP3   OH236898   1.098   5.851   3.535  0.1180  0.9566 -0.1085
12314TIP3    H136899   1.140   5.847   3.621 -1.1287  0.7575  0.5210
12314TIP3    H236900   1.105   5.762   3.501 -0.7968  0.6306  0.5110
12315TIP3   OH236901   5.576   4.470   3.263 -0.4568  0.0640  0.3572
12315TIP3    H136902   5.504   4.525   3.293 -0.5232  0.6754 -0.8827
12315TIP3    H236903   5.634   4.464   3.339 -2.1243 -1.0532  1.6277
12316TIP3   OH236904   3.039   4.556   5.118  0.2032  0.0137 -0.7913
12316TIP3    H136905   2.944   4.563   5.128  0.3150 -0.6436  1.2667
12316TIP3    H236906   3.066   4.644   5.090 -0.9366  0.3720 -0.8453
12317TIP3   OH236907   1.646   7.658   4.920 -0.1908 -0.4209 -0.3103
12317TIP3    H136908   1.726   7.657   4.973 -0.5375  1.3932  0.3346
12317TIP3    H236909   1.575   7.663   4.984 -0.6539  1.0315 -0.8882
12318TIP3   OH236910   1.059   1.629   1.952  0.0176 -0.1015  0.1586
12318TIP3    H136911   1.135   1.643   1.896 -0.8205  2.2374 -0.4751
12318TIP3    H236912   0.986   1.668   1.904 -1.3814 -1.1751  1.3213
12319TIP3   OH236913   3.830   2.298   2.614 -0.1008  0.2548  0.6928
12319TIP3    H136914   3.901   2.347   2.572  0.6291 -1.4069 -0.1198
12319TIP3    H236915   3.874   2.247   2.682 -0.7434  0.2816  1.1299
12320TIP3   OH236916   1.750   2.920   3.992 -0.3573  0.0615  0.0018
12320TIP3    H136917   1.769   2.831   3.962 -1.7461  0.1221 -1.2228
12320TIP3    H236918   1.789   2.926   4.079  0.3292 -1.5209 -0.1671
12321TIP3   OH236919   2.379   2.791   0.983  0.4693 -0.2853 -0.0628
12321TIP3    H136920   2.304   2.732   0.975  0.1019  0.2677 -0.8236
12321TIP3    H236921   2.382   2.814   1.076 -1.9294  1.7486 -0.3849
12322TIP3   OH236922   5.919   7.055   4.889 -0.3010  0.1065 -0.2197
12322TIP3    H136923   5.980   7.087   4.822  2.2949 -0.8819  1.4776
12322TIP3    H236924   5.951   7.093   4.971  0.5977 -3.4970  1.3273
12323TIP3   OH236925   7.805   4.993   5.589 -0.0489  0.2575  0.6298
12323TIP3    H136926   7.893   5.028   5.572 -0.1219  0.6405  1.0047
12323TIP3    H236927   7.820   4.912   5.638  0.1011  0.1797  0.4563
12324TIP3   OH236928   6.713   4.204   2.631 -0.2570  0.2083 -0.0587
12324TIP3    H136929   6.770   4.222   2.706  0.2810 -0.6883 -0.2354
12324TIP3    H236930   6.763   4.141   2.578 -0.7303  0.6319 -1.0394
12325TIP3   OH236931   1.150   1.681   1.120  0.5650  0.1249 -0.2612
12325TIP3    H136932   1.061   1.686   1.087  0.5158  0.7906 -0.0493
12325TIP3    H236933   1.157   1.754   1.181  1.1493 -0.1278 -0.0163
12326TIP3   OH236934   7.914   2.081   2.842 -0.1017 -0.1755 -0.0475
12326TIP3    H136935   7.990   2.028   2.867  0.4586  0.2305 -0.8366
12326TIP3    H236936   7.936   2.114   2.755 -0.6653  0.9306  0.2094
12327TIP3   OH236937   1.818   5.586   4.107  0.9054 -0.3612 -0.3787
12327TIP3    H136938   1.762   5.509   4.116  0.3351  0.0837 -0.0174
12327TIP3    H236939   1.784   5.632   4.030  1.1771 -0.4152 -0.5317
12328TIP3   OH236940   5.566   6.967   5.840 -0.4672 -0.0824  0.1963
12328TIP3    H136941   5.602   7.046   5.799 -0.3447  0.8362  1.9448
12328TIP3    H236942   5.562   6.903   5.770 -0.0322  1.3071 -1.1629
12329TIP3   OH236943   3.262   7.669   2.027 -0.0161  0.2666  0.2874
12329TIP3    H136944   3.175   7.692   1.995 -0.4551 -1.9209 -0.2912
12329TIP3    H236945   3.322   7.725   1.978 -0.9976  0.5582 -0.6209
12330TIP3   OH236946   7.623   0.051   6.064 -0.2374 -0.3957  0.8235
12330TIP3    H136947   7.578   0.033   6.146 -1.1407 -0.2463  0.3764
12330TIP3    H236948   7.702  -0.002   6.067 -0.7806 -1.1929  1.3308
12331TIP3   OH236949   4.885   4.802   6.484 -0.5658  0.1019  0.1075
12331TIP3    H136950   4.967   4.762   6.515  0.2911  1.3834 -0.4111
12331TIP3    H236951   4.867   4.757   6.401  0.0645  0.3544 -0.1782
12332TIP3   OH236952   4.679   5.736   3.109  0.2868  0.5324 -0.7842
12332TIP3    H136953   4.676   5.659   3.166  0.0279  0.2654 -1.1542
12332TIP3    H236954   4.773   5.757   3.103  0.3335  0.4296 -0.4366
12333TIP3   OH236955   5.915   5.079   1.977  0.7518  0.3964 -0.0259
12333TIP3    H136956   5.902   4.998   1.926  0.9765  0.2231  0.1876
12333TIP3    H236957   5.927   5.049   2.067 -2.4481  0.8450  0.6780
12334TIP3   OH236958   4.222   2.051   6.044 -0.1774 -0.3648  0.2433
12334TIP3    H136959   4.201   2.144   6.035  0.6765  0.0112  1.7152
12334TIP3    H236960   4.299   2.038   5.989 -0.2044 -0.1545  0.1558
12335TIP3   OH236961   1.225   7.832   1.050  0.9050 -0.0990 -1.1482
12335TIP3    H136962   1.213   7.828   0.955  0.1003  0.2316 -1.0757
12335TIP3    H236963   1.179   7.755   1.083  0.3614  0.2881 -0.9725
12336TIP3   OH236964   1.034   7.377   5.591 -0.4625  0.0341  0.6048
12336TIP3    H136965   1.093   7.405   5.660  1.1215 -0.5631 -0.4536
12336TIP3    H236966   1.088   7.373   5.513 -1.9509 -0.3786 -0.4551
12337TIP3   OH236967   6.094   1.298   6.392  0.1668 -0.6729 -0.2917
12337TIP3    H136968   6.000   1.284   6.380 -0.2379  1.7767 -0.4876
12337TIP3    H236969   6.100   1.346   6.475  0.9387  1.3521 -1.4270
12338TIP3   OH236970   2.672   1.849   3.545 -0.1506  0.2991 -0.7010
12338TIP3    H136971   2.615   1.782   3.583  0.6093 -0.1621 -0.3713
12338TIP3    H236972   2.611   1.918   3.518 -0.6295  1.5614  3.0448
12339TIP3   OH236973   3.489   0.269   0.986 -0.0879  0.1846  0.6582
12339TIP3    H136974   3.559   0.303   1.041 -0.8208  0.6719  1.3292
12339TIP3    H236975   3.463   0.187   1.029 -0.3028  0.2975  0.7498
12340TIP3   OH236976   4.557   0.372   0.310 -0.2992  0.0956 -0.2184
12340TIP3    H136977   4.492   0.436   0.338  1.0899  1.6135 -0.2961
12340TIP3    H236978   4.563   0.384   0.215 -0.0268 -0.1437 -0.2337
12341TIP3   OH236979   1.235   6.580   2.674 -0.4300  0.0039  0.3366
12341TIP3    H136980   1.288   6.527   2.733 -1.3595 -0.5070  0.7287
12341TIP3    H236981   1.193   6.516   2.616 -0.0718  0.4516 -0.4332
12342TIP3   OH236982   4.594   2.134   3.716  0.4273  0.1566  0.5800
12342TIP3    H136983   4.670   2.116   3.660 -0.1923 -0.3947 -0.0900
12342TIP3    H236984   4.608   2.080   3.793  0.1496 -0.8173 -0.0445
12343TIP3   OH236985   2.662   1.821   5.597 -0.0118  0.0950  0.2652
12343TIP3    H136986   2.703   1.903   5.569  1.7926 -0.5632  0.8678
12343TIP3    H236987   2.599   1.848   5.664  2.6462  0.8417  2.6833
12344TIP3   OH236988   6.650   2.438   0.382  0.5540  0.2146 -0.5777
12344TIP3    H136989   6.641   2.408   0.472 -1.1587 -0.4258 -0.9178
12344TIP3    H236990   6.728   2.494   0.382  0.9284 -0.2713  1.1489
12345TIP3   OH236991   4.893   1.329   5.165 -0.0425 -0.3645  1.1474
12345TIP3    H136992   4.819   1.316   5.225 -1.8418 -1.7815 -1.1839
12345TIP3    H236993   4.910   1.242   5.129  0.9250  0.4280 -0.4134
12346TIP3   OH236994   4.891   5.111   4.866  0.0121 -0.5797  0.5845
12346TIP3    H136995   4.820   5.055   4.837  0.3933 -0.1613 -1.3312
12346TIP3    H236996   4.875   5.195   4.823  1.2358 -0.2448  0.7278
12347TIP3   OH236997   6.690   2.187   6.754 -0.7069  0.0663  0.3707
12347TIP3    H136998   6.707   2.281   6.761 -0.7412  0.0827  0.2358
12347TIP3    H236999   6.692   2.156   6.844  1.0872 -0.1122  0.3157
12348TIP3   OH237000   4.978   3.032   1.675  0.0123 -0.4096 -0.0573
12348TIP3    H137001   4.903   3.035   1.733 -0.8085 -0.5146 -1.0842
12348TIP3    H237002   5.049   3.073   1.725 -0.6301 -0.5924  1.0379
12349TIP3   OH237003   3.154   0.969   3.882  0.3855  0.4090  0.4589
12349TIP3    H137004   3.106   0.961   3.800 -0.0998  2.2769  0.5193
12349TIP3    H237005   3.190   0.881   3.897  0.1068 -0.0898 -1.4906
12350TIP3   OH237006   0.704   6.733   3.287 -0.0546  0.1212  0.0070
12350TIP3    H137007   0.718   6.701   3.197  0.7739 -0.2098  0.2365
12350TIP3    H237008   0.751   6.816   3.290 -1.8129  1.1846 -0.4483
12351TIP3   OH237009   5.244   3.026   5.415 -0.0835  0.1569 -0.3439
12351TIP3    H137010   5.322   3.029   5.471 -0.6324  0.3865  0.4170
12351TIP3    H237011   5.235   3.115   5.381  0.2351  0.0238 -0.7837
12352TIP3   OH237012   0.532   6.220   3.032 -0.0539  0.1664 -0.3226
12352TIP3    H137013   0.448   6.263   3.015 -0.2659  0.0076  0.2946
12352TIP3    H237014   0.566   6.198   2.945 -0.5764  0.3712 -0.5820
12353TIP3   OH237015   7.528   3.990   4.596  0.1345 -0.7903 -0.4588
12353TIP3    H137016   7.491   3.991   4.507 -0.4363 -2.1064 -0.2614
12353TIP3    H237017   7.453   4.006   4.653  0.5564  0.3894 -0.2103
12354TIP3   OH237018   6.374   7.055   5.346 -0.2776  0.2475 -0.0311
12354TIP3    H137019   6.356   6.968   5.382  1.0446 -0.1342 -0.2311
12354TIP3    H237020   6.358   7.115   5.419  1.1959 -0.4023  0.8657
12355TIP3   OH237021   0.551   3.124   4.015 -0.0239  0.1213 -0.4045
12355TIP3    H137022   0.535   3.173   4.095  1.0034  1.3013 -0.8894
12355TIP3    H237023   0.466   3.120   3.971 -0.1883  1.1650 -0.1921
12356TIP3   OH237024   7.294   5.456   3.754  0.4720  0.2146  0.1796
12356TIP3    H137025   7.340   5.432   3.834  0.4023 -1.3308 -0.1951
12356TIP3    H237026   7.279   5.550   3.761  0.7886  0.1692  1.8008
12357TIP3   OH237027   1.730   0.089   6.730  0.2046 -0.5314  0.2065
12357TIP3    H137028   1.655   0.032   6.749 -0.2617  0.2660  0.7966
12357TIP3    H237029   1.739   0.144   6.808  1.6960 -0.9185  0.3381
12358TIP3   OH237030   3.964   4.657   3.356 -0.0393  0.1624  0.2711
12358TIP3    H137031   3.926   4.699   3.279  1.6180  1.6327  0.2049
12358TIP3    H237032   4.051   4.629   3.328  0.0397 -0.6007  1.2097
12359TIP3   OH237033   1.897   6.289   6.013 -0.0714  0.1106 -0.1446
12359TIP3    H137034   1.946   6.220   6.057 -1.1954 -1.1893 -0.8447
12359TIP3    H237035   1.939   6.300   5.928  0.3559  0.6008  0.1225
12360TIP3   OH237036   1.802   5.638   4.551 -0.0896  0.1023  0.3263
12360TIP3    H137037   1.879   5.589   4.579 -1.3659 -2.1273  0.2515
12360TIP3    H237038   1.783   5.698   4.623  0.6512 -0.6433  1.1648
12361TIP3   OH237039   6.225   7.251   5.852  0.2734  0.0061 -0.0209
12361TIP3    H137040   6.282   7.182   5.885 -1.3717 -2.0269 -1.1654
12361TIP3    H237041   6.142   7.239   5.898 -0.5354  0.1784 -1.3625
12362TIP3   OH237042   7.879   4.867   2.480 -0.3975  0.1516  0.4730
12362TIP3    H137043   7.873   4.839   2.571  0.2711  1.7355  1.0303
12362TIP3    H237044   7.801   4.922   2.467 -0.1653  0.4413  0.2868
12363TIP3   OH237045   5.929   0.691   2.947 -0.6613 -0.0212  0.2795
12363TIP3    H137046   5.986   0.743   2.891 -1.4563 -0.5774 -1.1068
12363TIP3    H237047   5.977   0.683   3.030  0.4149  1.0733 -0.2094
12364TIP3   OH237048   7.157   0.870   0.274 -0.0738 -0.2030  0.8887
12364TIP3    H137049   7.097   0.833   0.209  0.6202  0.3528 -0.1025
12364TIP3    H237050   7.151   0.811   0.349 -1.1926 -0.6425  0.4845
12365TIP3   OH237051   7.409   4.111   6.480  0.3323  0.0440  0.2967
12365TIP3    H137052   7.412   4.113   6.384 -2.4242 -0.1415  0.1275
12365TIP3    H237053   7.323   4.146   6.501  1.7089  2.2391  2.8589
12366TIP3   OH237054   1.701   2.593   6.390 -0.6501 -0.0003 -0.1923
12366TIP3    H137055   1.712   2.688   6.379  0.4549 -0.1438 -0.4163
12366TIP3    H237056   1.719   2.557   6.303  0.8249 -0.5537  0.3168
12367TIP3   OH237057   6.070   3.907   0.280  0.0505 -1.4475 -0.0795
12367TIP3    H137058   6.161   3.931   0.266  0.3122 -2.4341 -0.1568
12367TIP3    H237059   6.065   3.883   0.373 -0.2173 -1.0603  0.0105
12368TIP3   OH237060   5.616   2.030   0.940  0.3870  0.0723 -0.0798
12368TIP3    H137061   5.582   2.110   0.901  1.0748  0.2510 -0.3283
12368TIP3    H237062   5.666   2.060   1.016 -0.0510 -0.1934  0.3235
12369TIP3   OH237063   1.997   5.577   0.428 -0.3997  0.6881  0.0570
12369TIP3    H137064   1.991   5.563   0.523 -1.2997 -0.2687 -0.1140
12369TIP3    H237065   2.025   5.668   0.419 -1.9321  1.3355  1.2421
12370TIP3   OH237066   6.656   6.644   2.667 -0.2025 -0.0700  0.5312
12370TIP3    H137067   6.718   6.714   2.646 -0.4824  0.9581  2.7645
12370TIP3    H237068   6.709   6.565   2.671  0.3423  0.2089 -0.8709
12371TIP3   OH237069   1.488   3.123   0.064  0.0005  0.2272  0.4293
12371TIP3    H137070   1.412   3.148   0.011 -0.4487  1.7869  1.7572
12371TIP3    H237071   1.560   3.174   0.028  0.4465 -1.1295 -0.7212
12372TIP3   OH237072   6.124   7.594   5.443  0.0340 -0.3101  0.2198
12372TIP3    H137073   6.082   7.562   5.363 -0.3599 -1.8750  0.9991
12372TIP3    H237074   6.064   7.659   5.478  0.0079  0.0779 -0.5303
12373TIP3   OH237075   4.612   2.475   0.794  0.2867 -0.0672 -0.2068
12373TIP3    H137076   4.646   2.536   0.729 -0.1985  0.3655 -0.0627
12373TIP3    H237077   4.621   2.521   0.878  0.0786 -0.2598 -0.0747
12374TIP3   OH237078   5.011   1.557   0.258  0.4463 -0.0923 -0.5262
12374TIP3    H137079   5.042   1.534   0.171 -0.1005  0.8696 -0.9909
12374TIP3    H237080   4.949   1.629   0.244  0.0799 -0.1528  0.6200
12375TIP3   OH237081   4.826   2.468   6.231  0.0796 -0.2485 -0.8414
12375TIP3    H137082   4.846   2.376   6.249 -0.8526 -0.2125  0.5874
12375TIP3    H237083   4.787   2.500   6.313  0.3638  1.4135 -1.3240
12376TIP3   OH237084   4.341   7.522   1.209  0.2369 -0.1163  0.0233
12376TIP3    H137085   4.382   7.450   1.257  0.1454  0.0576  0.3645
12376TIP3    H237086   4.292   7.479   1.139  1.3021 -0.3109 -0.6293
12377TIP3   OH237087   6.281   5.219   3.008  0.3543 -0.3754 -0.0379
12377TIP3    H137088   6.234   5.172   3.078 -0.8298 -0.4066 -0.8153
12377TIP3    H237089   6.220   5.217   2.934  0.1561  2.5464 -0.0625
12378TIP3   OH237090   4.192   1.203   1.356  0.3243  0.0855  0.3407
12378TIP3    H137091   4.284   1.228   1.365  0.0703  0.4537  2.7469
12378TIP3    H237092   4.186   1.120   1.403 -0.2786 -0.7961 -1.2480
12379TIP3   OH237093   3.268   0.031   0.207  0.4077  0.5587 -0.0776
12379TIP3    H137094   3.343  -0.027   0.225 -0.3005 -0.3271  0.1339
12379TIP3    H237095   3.307   0.116   0.190  1.9196 -0.7165 -4.6192
12380TIP3   OH237096   1.464   7.278   1.213 -0.0072 -0.1980 -0.4956
12380TIP3    H137097   1.369   7.285   1.216 -0.0247 -0.0031 -1.3356
12380TIP3    H237098   1.481   7.184   1.222 -0.3973 -0.4919 -2.3255
12381TIP3   OH237099   3.594   3.388   1.978 -0.3490 -0.1042  0.7108
12381TIP3    H137100   3.515   3.377   1.924 -0.1093  1.3929  0.0247
12381TIP3    H237101   3.624   3.298   1.993 -1.5700 -0.6514  0.0781
12382TIP3   OH237102   7.299   3.669   3.992 -0.2267  0.8928  0.4671
12382TIP3    H137103   7.339   3.613   4.058  0.2290  0.8916  0.1877
12382TIP3    H237104   7.207   3.641   3.990  0.3343 -1.0476 -0.8837
12383TIP3   OH237105   4.557   7.589   4.025  0.0762 -0.0635 -0.5076
12383TIP3    H137106   4.592   7.520   4.082 -3.0818 -0.2868  1.3839
12383TIP3    H237107   4.593   7.670   4.061  0.2383 -0.4142  0.1373
12384TIP3   OH237108   7.257   1.324   3.042  0.2589  0.5336  0.2281
12384TIP3    H137109   7.166   1.347   3.063  0.5109  2.4407 -0.5555
12384TIP3    H237110   7.276   1.373   2.962  1.8410 -0.2040  0.1186
12385TIP3   OH237111   7.741   3.516   2.783  0.1148  0.5118  0.3615
12385TIP3    H137112   7.691   3.444   2.820 -0.4121  0.8279  0.2900
12385TIP3    H237113   7.674   3.575   2.748  0.3951  2.1255  2.3653
12386TIP3   OH237114   7.626   5.499   0.096 -0.6553 -0.2365 -0.1323
12386TIP3    H137115   7.617   5.425   0.036 -1.8440  0.1257 -0.4245
12386TIP3    H237116   7.537   5.516   0.127 -0.1491 -0.0911  1.3553
12387TIP3   OH237117   5.156   2.992   0.918  0.3013  0.5767 -0.4407
12387TIP3    H137118   5.171   2.898   0.908 -1.2486  0.1523  0.8601
12387TIP3    H237119   5.161   3.008   1.012  1.5557  2.0049 -0.7165
12388TIP3   OH237120   4.829   2.948   2.152  0.1390  0.2394 -0.2074
12388TIP3    H137121   4.889   2.881   2.186  0.3125  0.5099  0.0240
12388TIP3    H237122   4.885   3.024   2.138  0.2226 -0.0727 -1.7801
12389TIP3   OH237123   2.324   7.496   5.713 -0.0211 -0.5746 -0.0510
12389TIP3    H137124   2.358   7.514   5.801 -0.4807 -1.7702  0.4034
12389TIP3    H237125   2.394   7.522   5.654  1.0063 -1.3590  0.7726
12390TIP3   OH237126   7.937   0.060   5.949 -0.0387 -0.3023  0.0478
12390TIP3    H137127   7.958   0.145   5.911 -0.5142 -0.3374 -0.3151
12390TIP3    H237128   7.911   0.006   5.874  1.0649 -1.0279  0.1712
12391TIP3   OH237129   4.494   7.805   0.102  0.6737 -0.1986 -0.2394
12391TIP3    H137130   4.485   7.889   0.147 -0.1354 -0.3067 -0.1925
12391TIP3    H237131   4.416   7.799   0.048 -0.3374 -1.8479  1.2991
12392TIP3   OH237132   0.930   7.005   5.761  0.0700 -0.3575 -0.1524
12392TIP3    H137133   0.934   7.098   5.785  0.1069 -1.0074  2.6952
12392TIP3    H237134   0.957   6.958   5.840 -0.4198 -2.8341 -1.3467
12393TIP3   OH237135   5.947   2.737   6.060  0.2324 -0.1619  0.2074
12393TIP3    H137136   5.953   2.816   6.115 -0.9041 -0.5239  0.8951
12393TIP3    H237137   5.972   2.766   5.973 -0.7659  1.1289  0.3172
12394TIP3   OH237138   1.194   5.006   3.523  0.0870  0.6717 -0.7352
12394TIP3    H137139   1.137   5.005   3.600 -0.6473 -1.1206 -1.2716
12394TIP3    H237140   1.277   5.041   3.555 -0.9240  2.2764  0.3056
12395TIP3   OH237141   0.476   3.905   4.221 -0.3942 -0.1840 -0.3542
12395TIP3    H137142   0.421   3.891   4.297 -1.0026  0.1777 -0.7191
12395TIP3    H237143   0.533   3.828   4.218  0.9194  0.6422  1.5086
12396TIP3   OH237144   4.683   5.868   3.439 -0.3314 -0.3783 -0.0197
12396TIP3    H137145   4.637   5.884   3.357 -2.4579 -1.1668  0.9613
12396TIP3    H237146   4.710   5.776   3.434 -1.3468 -0.7117  0.5719
12397TIP3   OH237147   7.216   1.643   5.852  0.5454  0.8004 -0.1385
12397TIP3    H137148   7.233   1.641   5.758  1.7398 -1.6491  0.0249
12397TIP3    H237149   7.271   1.714   5.885 -0.2878  2.0239 -1.3270
12398TIP3   OH237150   4.061   0.878  -0.010 -0.2665  0.5229 -0.1650
12398TIP3    H137151   3.975   0.893   0.029  0.4274  0.6798  1.4057
12398TIP3    H237152   4.071   0.783  -0.011 -0.9169  0.4487 -1.4681
12399TIP3   OH237153   7.890   5.470   3.217  0.4504 -0.1108  0.2348
12399TIP3    H137154   7.860   5.555   3.186  0.1239 -0.4269 -0.3175
12399TIP3    H237155   7.811   5.416   3.221  0.4130  0.0110  1.9450
12400TIP3   OH237156   1.976   6.668   0.758  0.6201  0.0832  0.0641
12400TIP3    H137157   1.982   6.755   0.797 -0.7932  0.9805 -1.5869
12400TIP3    H237158   1.883   6.645   0.764  0.9012 -1.1383  0.0797
12401TIP3   OH237159   3.630   5.973   2.768  0.0100 -0.1472 -0.1234
12401TIP3    H137160   3.548   5.928   2.749 -0.7956  0.9790  0.5615
12401TIP3    H237161   3.650   5.947   2.859  1.0849 -1.3785 -0.6747
12402TIP3   OH237162   1.746   1.973   5.672 -0.3240 -0.3113  0.4467
12402TIP3    H137163   1.807   1.908   5.706 -0.8094 -1.0715 -0.0954
12402TIP3    H237164   1.660   1.945   5.706 -0.5323  0.0489  0.2197
12403TIP3   OH237165   0.972   7.384   2.786  0.1849 -0.0815  0.4148
12403TIP3    H137166   0.976   7.474   2.754 -1.8218  0.0216  0.2778
12403TIP3    H237167   0.991   7.330   2.709  0.7961  0.2161  0.3552
12404TIP3   OH237168   1.154   1.597   5.376 -0.2816 -0.1386  0.2567
12404TIP3    H137169   1.166   1.559   5.462 -0.7011  0.3007  0.5131
12404TIP3    H237170   1.228   1.658   5.366 -0.1422 -0.3114  0.2361
12405TIP3   OH237171   6.262   6.757   1.221  0.3979  0.3056 -0.1856
12405TIP3    H137172   6.261   6.665   1.194 -0.1598 -0.9748  3.6013
12405TIP3    H237173   6.169   6.782   1.222  0.4572  0.5190 -0.0370
12406TIP3   OH237174   2.655   0.373   4.019 -0.9085  0.2630  0.2520
12406TIP3    H137175   2.586   0.311   3.998 -1.0682 -0.5566  2.8478
12406TIP3    H237176   2.622   0.421   4.095 -0.0808  2.4027 -0.6587
12407TIP3   OH237177   3.149   7.195   2.095 -0.2131 -0.1022 -0.2420
12407TIP3    H137178   3.215   7.190   2.025  0.1409 -1.4753  0.1471
12407TIP3    H237179   3.077   7.140   2.063 -0.6432  0.3855 -0.1201
12408TIP3   OH237180   3.847   4.296   3.026 -0.1889  0.1310 -0.2345
12408TIP3    H137181   3.758   4.265   3.039 -0.0413  0.4445  1.9972
12408TIP3    H237182   3.838   4.375   2.973 -1.4232  0.9031  1.0567
12409TIP3   OH237183   3.528   6.165  -0.015 -0.2851  0.4844 -0.1844
12409TIP3    H137184   3.575   6.246  -0.033  2.9834 -0.9169  1.3149
12409TIP3    H237185   3.534   6.154   0.080 -2.0419 -0.7688 -0.1658
12410TIP3   OH237186   7.489   7.410   4.991 -0.2243 -0.0744 -0.2979
12410TIP3    H137187   7.443   7.399   4.908 -1.2090 -0.5778  0.2981
12410TIP3    H237188   7.477   7.327   5.037 -2.4619  1.2330  1.6962
12411TIP3   OH237189   5.603   4.471   1.292  0.5323  0.1875  0.0977
12411TIP3    H137190   5.685   4.504   1.254 -0.0760  1.4489 -0.1557
12411TIP3    H237191   5.546   4.547   1.297 -0.3929 -0.5295  0.9479
12412TIP3   OH237192   4.090   5.517   1.926  0.5120 -0.1964  0.4919
12412TIP3    H137193   4.146   5.456   1.879  2.5111  2.1616 -0.3714
12412TIP3    H237194   4.016   5.533   1.867 -0.4835 -2.2848  1.0696
12413TIP3   OH237195   6.140   6.683   5.521 -0.0946 -0.3628 -0.1372
12413TIP3    H137196   6.216   6.703   5.467 -1.6813  2.6966 -1.4676
12413TIP3    H237197   6.175   6.676   5.610  1.9995 -1.3574 -0.9715
12414TIP3   OH237198   0.273   6.452   1.194 -0.9002  0.1371  0.0301
12414TIP3    H137199   0.189   6.455   1.149 -1.0623  1.7421  0.3634
12414TIP3    H237200   0.323   6.524   1.156  0.0692 -0.3621  0.3225
12415TIP3   OH237201   2.570   1.188   4.469  0.0198  0.3964 -0.3414
12415TIP3    H137202   2.656   1.147   4.484  0.2216  0.6268 -0.8237
12415TIP3    H237203   2.514   1.116   4.441 -0.8990 -0.4322  3.2259
12416TIP3   OH237204   2.550   6.130   1.741  0.3337  0.4178 -0.0216
12416TIP3    H137205   2.605   6.206   1.723 -1.3862  1.3183 -1.8293
12416TIP3    H237206   2.481   6.134   1.675 -0.8426 -1.7184  0.9771
12417TIP3   OH237207   0.780   2.788   2.609 -0.4418  0.0266 -0.2568
12417TIP3    H137208   0.724   2.764   2.535  0.1834  2.3715 -1.5953
12417TIP3    H237209   0.869   2.769   2.579 -0.3144 -1.4252  0.9379
12418TIP3   OH237210   4.030   5.654   6.406  0.5260 -0.1336  0.1576
12418TIP3    H137211   4.076   5.571   6.390  1.1643 -0.0103  1.2628
12418TIP3    H237212   3.972   5.664   6.331  0.3888 -1.6253  0.0345
12419TIP3   OH237213   1.051   4.008   6.747  0.4996 -0.5972 -0.1331
12419TIP3    H137214   0.979   4.040   6.802 -1.6186 -1.8440 -1.9644
12419TIP3    H237215   1.061   3.916   6.773  0.3246 -0.8542 -0.9345
12420TIP3   OH237216   4.262   7.230   3.741 -0.2415 -0.2018 -0.5906
12420TIP3    H137217   4.260   7.193   3.829  0.4608 -0.3755 -0.6427
12420TIP3    H237218   4.354   7.251   3.726 -0.2263 -0.9419 -1.6003
12421TIP3   OH237219   4.916   1.936   1.686  0.8662  0.4971  0.0865
12421TIP3    H137220   4.951   1.886   1.760  0.9871  0.2269 -0.1529
12421TIP3    H237221   4.921   2.027   1.715  0.7578  0.3823  0.4770
12422TIP3   OH237222   6.397   6.058   2.274 -0.1668 -0.3808 -0.0469
12422TIP3    H137223   6.334   6.098   2.333  0.7522  0.6315  0.2749
12422TIP3    H237224   6.451   6.002   2.330 -1.0348 -1.6121 -0.3934
12423TIP3   OH237225   5.443   4.182   0.675 -0.2676  0.0491  0.1018
12423TIP3    H137226   5.464   4.152   0.587 -0.0726  0.0522  0.1477
12423TIP3    H237227   5.451   4.104   0.730  2.3118  0.5539  0.5859
12424TIP3   OH237228   1.347   1.121   6.705  0.2122  0.6559 -0.3066
12424TIP3    H137229   1.441   1.106   6.693  0.2429  0.3823  0.2299
12424TIP3    H237230   1.309   1.033   6.708  0.4613  0.5040  3.3789
12425TIP3   OH237231   2.866   7.071   4.804 -0.0200 -0.4421 -0.6081
12425TIP3    H137232   2.864   7.141   4.869  0.2312 -0.5995 -0.4316
12425TIP3    H237233   2.797   7.095   4.742 -0.2469 -0.2805 -0.2981
12426TIP3   OH237234   2.859   0.107   2.041 -0.2327 -0.2004 -0.5796
12426TIP3    H137235   2.911   0.183   2.065 -0.8626 -0.3622  1.4791
12426TIP3    H237236   2.826   0.127   1.954 -1.7261  2.6650  0.5165
12427TIP3   OH237237   5.665   6.700   5.189  0.6104 -0.1874 -0.0763
12427TIP3    H137238   5.637   6.781   5.231  0.6275 -0.0938 -0.2421
12427TIP3    H237239   5.738   6.726   5.133  0.9687 -0.4140  0.2795
12428TIP3   OH237240   2.166   6.462   4.698 -0.0527  0.0562  0.5104
12428TIP3    H137241   2.101   6.492   4.634  1.9574  0.0742 -1.6299
12428TIP3    H237242   2.186   6.539   4.750 -0.6760  0.4009  0.2575
12429TIP3   OH237243   3.066   6.473   3.807  0.1737  0.4867 -0.0889
12429TIP3    H137244   3.074   6.442   3.897 -1.9984  0.5683  0.2009
12429TIP3    H237245   3.047   6.394   3.756 -0.6087  0.6896 -0.1249
12430TIP3   OH237246   0.752   5.831   4.787  0.3239 -0.3970  0.7734
12430TIP3    H137247   0.735   5.789   4.702  1.3246 -0.5491  0.6453
12430TIP3    H237248   0.664   5.853   4.820 -0.3124 -2.9857  1.0502
12431TIP3   OH237249   1.884   7.331   2.643  0.1179  0.1446  0.0878
12431TIP3    H137250   1.937   7.315   2.720  0.0707  1.8883  0.5205
12431TIP3    H237251   1.940   7.308   2.569  0.8287  0.2485  0.5894
12432TIP3   OH237252   2.113   4.955   0.703 -0.2325  0.4978 -0.0202
12432TIP3    H137253   2.046   4.907   0.654  0.3041 -0.6773  0.3470
12432TIP3    H237254   2.070   4.983   0.783 -0.0529 -1.1886  0.7188
12433TIP3   OH237255   0.381   7.291   0.084  0.3521 -0.2811 -0.7214
12433TIP3    H137256   0.455   7.350   0.092  0.0786 -0.0985  0.7061
12433TIP3    H237257   0.311   7.333   0.134 -0.0166 -1.5308 -0.1427
12434TIP3   OH237258   5.811   2.639   1.557 -0.4831  0.2306 -0.2673
12434TIP3    H137259   5.819   2.659   1.464  1.4498 -0.9201 -0.4022
12434TIP3    H237260   5.797   2.724   1.599 -1.9279  0.7051 -1.6289
12435TIP3   OH237261   5.225   2.489   3.575 -0.2811  0.9411 -0.3646
12435TIP3    H137262   5.251   2.487   3.667 -0.9377 -0.4303 -0.1913
12435TIP3    H237263   5.168   2.566   3.568  0.2614  1.4116  0.2152
12436TIP3   OH237264   1.525   5.233   0.897  0.2023  0.5282 -0.2303
12436TIP3    H137265   1.522   5.193   0.810  1.0511 -0.4187  0.1570
12436TIP3    H237266   1.479   5.316   0.886 -0.3409  0.1048 -1.4078
12437TIP3   OH237267   7.953   5.713   0.728 -0.0451  0.3286  0.8358
12437TIP3    H137268   8.041   5.678   0.743 -0.0369 -1.2786 -2.0519
12437TIP3    H237269   7.895   5.647   0.766  0.0119 -0.2949 -0.1267
12438TIP3   OH237270   7.081   5.173   5.880 -0.1244 -0.1450 -0.1697
12438TIP3    H137271   7.101   5.108   5.947 -1.9727  0.7762  1.3823
12438TIP3    H237272   6.988   5.161   5.861  0.4534 -0.7466 -3.0702
12439TIP3   OH237273   1.728   3.716   0.120  0.2118  0.0424  0.0883
12439TIP3    H137274   1.662   3.696   0.187 -1.0937  0.9117 -0.8707
12439TIP3    H237275   1.691   3.679   0.040  0.2485  1.6356 -0.7117
12440TIP3   OH237276   1.188   3.802   3.534 -0.1107 -0.1657 -0.0213
12440TIP3    H137277   1.102   3.778   3.568 -0.3841  0.0861 -0.5136
12440TIP3    H237278   1.174   3.887   3.492  0.6845  0.5596  1.1121
12441TIP3   OH237279   5.071   2.201   5.118 -0.4183 -0.1001 -0.0520
12441TIP3    H137280   5.144   2.253   5.152 -1.7842 -0.2294  3.4463
12441TIP3    H237281   5.111   2.117   5.094  0.7870  0.2438  0.6714
12442TIP3   OH237282   2.456   7.658   0.460 -0.4355 -0.2912  0.0849
12442TIP3    H137283   2.448   7.726   0.392  0.4831 -0.3173 -0.0693
12442TIP3    H237284   2.481   7.707   0.539 -1.2682 -0.2874  0.3477
12443TIP3   OH237285   6.517   7.072   6.146  0.1878 -0.2596  0.5443
12443TIP3    H137286   6.553   7.018   6.217  0.0193  0.6032  1.3006
12443TIP3    H237287   6.582   7.141   6.132 -0.3881  0.3396  0.7761
12444TIP3   OH237288   2.776   4.640   5.063 -0.5011  0.1813 -0.2275
12444TIP3    H137289   2.765   4.729   5.096 -0.1500 -0.4322  1.7031
12444TIP3    H237290   2.687   4.607   5.053 -0.6241  0.5752 -0.4629
12445TIP3   OH237291   5.982   7.680   2.937  0.1812 -0.1042 -0.1585
12445TIP3    H137292   6.016   7.700   2.850  0.0467 -2.1233 -0.7305
12445TIP3    H237293   5.887   7.674   2.925  0.1716 -0.5203  0.0827
12446TIP3   OH237294   6.731   6.236   1.883  0.4768 -0.0321 -0.2275
12446TIP3    H137295   6.740   6.175   1.810  1.2994  2.3400 -2.2384
12446TIP3    H237296   6.675   6.306   1.849  0.2101  0.7609  1.7024
12447TIP3   OH237297   1.345   6.259   4.979 -0.1462  0.3039  0.1724
12447TIP3    H137298   1.439   6.251   4.964 -0.1884 -1.1601  0.5577
12447TIP3    H237299   1.336   6.255   5.075 -0.7136 -1.4092  0.0826
12448TIP3   OH237300   5.977   5.328   6.328  0.8006 -0.1964  0.9948
12448TIP3    H137301   5.973   5.317   6.423 -1.4595  2.1269  1.2864
12448TIP3    H237302   6.054   5.382   6.313  1.2872 -0.7468  1.4730
12449TIP3   OH237303   1.074   0.444   3.392 -0.3609 -0.0179 -0.0298
12449TIP3    H137304   1.052   0.523   3.439 -0.0651 -0.0949  0.2421
12449TIP3    H237305   1.142   0.402   3.445  0.2804  0.1102 -0.7326
12450TIP3   OH237306   5.639   5.300   4.319  0.2485  0.2446 -0.3320
12450TIP3    H137307   5.643   5.326   4.411  0.3914 -0.0572 -0.2512
12450TIP3    H237308   5.693   5.221   4.315  0.0399  0.1187 -0.6275
12451TIP3   OH237309   8.255   6.387   0.814 -0.5491  0.4540  0.5416
12451TIP3    H137310   8.331   6.428   0.772  0.7539 -1.7450  0.5656
12451TIP3    H237311   8.180   6.440   0.786  1.0609  3.7246  1.8290
12452TIP3   OH237312   5.487   1.907   2.302  0.1424  0.1614  0.2937
12452TIP3    H137313   5.482   1.910   2.206 -0.9755  0.3117  0.3463
12452TIP3    H237314   5.524   1.992   2.327 -0.3996  0.4709  0.0434
12453TIP3   OH237315   6.390   1.073   3.435  0.1074 -0.1768 -0.0129
12453TIP3    H137316   6.473   1.098   3.392 -0.2206  0.7193 -0.1509
12453TIP3    H237317   6.378   0.981   3.412  0.5144 -0.0169 -0.9091
12454TIP3   OH237318   0.614   4.917   1.714  0.0621 -0.4299  0.7121
12454TIP3    H137319   0.618   4.989   1.651 -3.3169 -0.9021 -0.2740
12454TIP3    H237320   0.584   4.842   1.662  0.6171 -1.7893  2.2772
12455TIP3   OH237321   3.094   4.291   5.074  0.1800 -0.0107  0.1250
12455TIP3    H137322   3.095   4.385   5.090  0.5390 -0.1184  0.7745
12455TIP3    H237323   3.177   4.260   5.111 -0.5175 -0.7711  1.0966
12456TIP3   OH237324   6.657   2.357   0.645 -0.3004  0.0795 -0.4898
12456TIP3    H137325   6.670   2.263   0.637 -1.7890 -0.0911 -1.1023
12456TIP3    H237326   6.711   2.382   0.720 -1.6819 -1.6530  1.1640
12457TIP3   OH237327   4.292   5.136   4.754  0.4172  0.2080  0.5045
12457TIP3    H137328   4.324   5.081   4.825  1.7090  1.1813  0.7037
12457TIP3    H237329   4.353   5.209   4.750  0.4435  0.1406 -1.6667
12458TIP3   OH237330   3.015   0.537   5.889 -0.2480 -0.3813 -0.1474
12458TIP3    H137331   2.987   0.554   5.979 -0.1752 -0.1733 -0.1641
12458TIP3    H237332   3.109   0.524   5.896 -0.1728  0.1118 -0.2631
12459TIP3   OH237333   3.010   7.289   2.987  0.0871 -0.0065 -0.1874
12459TIP3    H137334   3.061   7.261   3.063 -1.7989 -1.9358  0.4855
12459TIP3    H237335   2.923   7.307   3.022 -0.4695  0.4397 -1.7032
12460TIP3   OH237336   2.351   7.374   2.115  0.2128 -0.1687  0.4368
12460TIP3    H137337   2.436   7.350   2.077 -0.5660 -1.4519 -0.5304
12460TIP3    H237338   2.357   7.343   2.206  0.3530 -1.3611  0.0406
12461TIP3   OH237339   0.745   3.578   4.555 -0.0580  0.3948  0.3253
12461TIP3    H137340   0.817   3.514   4.555 -0.6211 -0.2906  1.8606
12461TIP3    H237341   0.667   3.527   4.534 -0.4202  0.6930  0.9165
12462TIP3   OH237342   7.169   4.679   4.890 -0.1763  0.1101 -0.3494
12462TIP3    H137343   7.218   4.717   4.963  1.0490 -1.5586 -0.2513
12462TIP3    H237344   7.227   4.690   4.815 -0.9512  0.7832 -0.8720
12463TIP3   OH237345   5.671   6.558   5.889  0.3245  0.1544  0.4747
12463TIP3    H137346   5.631   6.586   5.807  1.1375 -0.4509 -0.1506
12463TIP3    H237347   5.630   6.612   5.956 -0.4997  0.5196 -0.3095
12464TIP3   OH237348   6.500   0.544   0.081 -0.3142 -0.3104 -0.2249
12464TIP3    H137349   6.568   0.522   0.144  1.8544  4.5323 -0.3867
12464TIP3    H237350   6.425   0.570   0.135  0.1735  0.1427  0.2505
12465TIP3   OH237351   0.592   7.548   4.826 -0.0922  0.0158 -0.3541
12465TIP3    H137352   0.570   7.591   4.909 -0.1792 -0.5594 -0.0743
12465TIP3    H237353   0.573   7.614   4.759 -0.3998  0.3496  0.0564
12466TIP3   OH237354   8.014   5.551   2.678 -0.2632  0.4477 -0.1622
12466TIP3    H137355   8.068   5.487   2.631  0.8065  1.5150 -0.4208
12466TIP3    H237356   7.927   5.512   2.679  0.3492 -0.9908 -0.3640
12467TIP3   OH237357   6.513   7.302   4.587  0.4950  0.4498  0.0468
12467TIP3    H137358   6.458   7.357   4.642  2.7214 -0.3303  3.3282
12467TIP3    H237359   6.586   7.359   4.562  1.3301 -0.1512  1.0298
12468TIP3   OH237360   1.330   1.008   1.740 -0.2170  0.2258 -0.0461
12468TIP3    H137361   1.241   1.026   1.770 -0.0117 -0.6973  1.1879
12468TIP3    H237362   1.319   0.948   1.666 -0.6715  1.5190 -1.0724
12469TIP3   OH237363   6.370   2.981   4.916 -0.2662  0.0696 -0.2293
12469TIP3    H137364   6.305   3.018   4.856 -1.3175  1.7269  1.8293
12469TIP3    H237365   6.369   3.039   4.992  1.9475 -1.2193  0.8875
12470TIP3   OH237366   2.572   7.254   6.282  0.1355 -0.6527  0.1276
12470TIP3    H137367   2.606   7.318   6.219 -1.0907  0.4416  0.5107
12470TIP3    H237368   2.484   7.234   6.249  0.2291 -1.5761  0.4326
12471TIP3   OH237369   0.556   0.128   2.978 -0.2350  0.5685  0.1549
12471TIP3    H137370   0.503   0.110   2.900 -1.8419 -0.1370  1.3665
12471TIP3    H237371   0.594   0.042   3.000 -0.7365  0.5180  0.8244
12472TIP3   OH237372   0.082   6.836   4.258 -0.1629  0.3075  0.6394
12472TIP3    H137373   0.132   6.915   4.237 -2.8141  2.2513  1.1253
12472TIP3    H237374   0.028   6.820   4.181  0.4131 -1.1436  0.5034
12473TIP3   OH237375   6.120   3.461   0.664  0.0710 -0.2136 -0.0861
12473TIP3    H137376   6.201   3.466   0.612 -0.6512 -0.7372 -1.2878
12473TIP3    H237377   6.115   3.547   0.707  1.0556 -0.0303 -0.2964
12474TIP3   OH237378   5.248   7.727   5.647  0.0820 -0.6496 -0.5558
12474TIP3    H137379   5.222   7.675   5.722  1.2974 -0.9689 -0.3276
12474TIP3    H237380   5.176   7.718   5.585 -0.3626 -1.4322  0.0544
12475TIP3   OH237381   1.959   5.866   2.253  0.1320 -0.0270  0.0976
12475TIP3    H137382   1.976   5.774   2.235  0.3496  0.1616 -0.7031
12475TIP3    H237383   1.953   5.907   2.166  0.3243  0.7584  0.4429
12476TIP3   OH237384   7.757   0.807   0.901 -0.0839  0.3956 -0.4412
12476TIP3    H137385   7.847   0.839   0.906 -0.2808  0.7921  0.9739
12476TIP3    H237386   7.761   0.717   0.932 -0.2266  0.5391  0.0035
12477TIP3   OH237387   4.427   4.703   0.004  0.4019 -0.2026 -0.3028
12477TIP3    H137388   4.485   4.693   0.079 -1.7728  0.2034  1.5518
12477TIP3    H237389   4.396   4.614  -0.014 -0.9695 -0.0152  0.9525
12478TIP3   OH237390   8.147   3.223   0.208 -0.2660 -0.4784  0.2117
12478TIP3    H137391   8.110   3.135   0.215  1.3966 -1.1879  0.5169
12478TIP3    H237392   8.235   3.215   0.244 -0.1882  1.3961  0.5413
12479TIP3   OH237393   5.272   1.919   5.429 -0.2014 -0.3142  0.5143
12479TIP3    H137394   5.197   1.873   5.467 -0.4010  0.7115  1.4068
12479TIP3    H237395   5.329   1.850   5.397 -1.1540 -1.1386  0.5370
12480TIP3   OH237396   3.118   2.473   4.707  0.0894  0.0226 -0.1198
12480TIP3    H137397   3.159   2.544   4.756 -0.8127  0.5729 -0.1502
12480TIP3    H237398   3.024   2.489   4.715 -0.1224 -1.0483 -0.2986
12481TIP3   OH237399   5.713   7.226   1.414 -0.2028  0.1787  0.0184
12481TIP3    H137400   5.802   7.212   1.444  0.1836  1.6652 -0.3580
12481TIP3    H237401   5.698   7.156   1.349  0.8892  0.2535 -0.3267
12482TIP3   OH237402   4.431   4.978   1.132 -0.3921 -0.3342 -0.9002
12482TIP3    H137403   4.489   5.053   1.146 -3.4182  1.6451  2.8443
12482TIP3    H237404   4.379   5.002   1.055  0.0680  0.4266 -0.9814
12483TIP3   OH237405   1.308   0.769   5.385  0.6202  0.1945  0.5170
12483TIP3    H137406   1.285   0.804   5.471 -0.8790  1.4016 -0.3157
12483TIP3    H237407   1.402   0.784   5.377  1.0276 -1.0905  2.4229
12484TIP3   OH237408   7.790   6.899   3.982 -0.4011 -0.1784  0.4588
12484TIP3    H137409   7.805   6.897   4.076  0.5357 -0.4889  0.3111
12484TIP3    H237410   7.821   6.815   3.950  0.1281  0.2650 -0.2382
12485TIP3   OH237411   2.227   2.356   2.811  0.1445  0.1461  0.0128
12485TIP3    H137412   2.320   2.378   2.803  0.4232 -0.3906  1.4414
12485TIP3    H237413   2.197   2.346   2.721  1.6642 -0.4155 -0.4667
12486TIP3   OH237414   8.238   5.676   5.592 -0.7449 -0.1071 -0.1148
12486TIP3    H137415   8.160   5.635   5.628 -0.3157 -1.8753 -1.0643
12486TIP3    H237416   8.250   5.634   5.506  1.8460 -0.7633  0.4666
12487TIP3   OH237417   6.188   4.627   4.875  0.7856 -0.2382  0.3097
12487TIP3    H137418   6.267   4.618   4.929  1.8608  0.2443 -1.1325
12487TIP3    H237419   6.206   4.576   4.796  0.2772  1.0629 -0.6879
12488TIP3   OH237420   1.624   3.404   0.233 -0.3164 -0.5556  0.9422
12488TIP3    H137421   1.705   3.405   0.285  0.0380  1.2580  0.4400
12488TIP3    H237422   1.559   3.364   0.291  0.5724 -0.6038  1.9525
12489TIP3   OH237423   5.777   4.160   1.522 -0.2167  0.0141  0.3879
12489TIP3    H137424   5.788   4.176   1.428 -2.9680  0.7435  0.0919
12489TIP3    H237425   5.863   4.176   1.560  1.5303 -2.3713 -2.2247
12490TIP3   OH237426   4.018   2.457   3.499 -0.3589  0.4718  0.2027
12490TIP3    H137427   4.028   2.545   3.535 -0.3505 -0.3944  2.4901
12490TIP3    H237428   3.982   2.405   3.571  0.4280 -1.6047 -0.7928
12491TIP3   OH237429   5.416   0.542   6.019  0.6704 -0.1819  0.1841
12491TIP3    H137430   5.321   0.540   6.011  0.6229 -2.6985  0.4931
12491TIP3    H237431   5.433   0.555   6.112  0.6571  0.7870  0.0580
12492TIP3   OH237432   1.533   2.136   1.011 -0.1261  0.2331 -0.0120
12492TIP3    H137433   1.467   2.108   1.075 -0.1582  0.7482  0.1808
12492TIP3    H237434   1.570   2.216   1.047  1.0664 -0.3836  0.1953
12493TIP3   OH237435   3.877   7.379   4.201  0.2517  0.1791  1.0794
12493TIP3    H137436   3.939   7.433   4.153 -0.7711  0.2868 -0.1924
12493TIP3    H237437   3.810   7.441   4.231 -0.8561 -0.3075 -0.2704
12494TIP3   OH237438   2.392   5.789   2.830  0.0424 -0.1036  0.1646
12494TIP3    H137439   2.453   5.857   2.856  0.8017 -0.5737 -0.3280
12494TIP3    H237440   2.420   5.763   2.742  0.0127 -1.3088  0.4836
12495TIP3   OH237441   0.521   5.170   4.150 -0.0244 -0.2016  0.3070
12495TIP3    H137442   0.574   5.095   4.123 -0.2492 -0.8503  1.6360
12495TIP3    H237443   0.431   5.146   4.128  0.0496  0.3129 -0.6297
12496TIP3   OH237444   0.779   0.663   2.856 -1.0634 -0.0134 -0.4204
12496TIP3    H137445   0.687   0.668   2.828 -1.2906  0.8859  0.4210
12496TIP3    H237446   0.784   0.722   2.932 -0.0376 -0.8916  0.2239
12497TIP3   OH237447   2.203   2.486   6.662 -0.0572  0.2208 -0.0352
12497TIP3    H137448   2.144   2.512   6.590 -0.9396  1.0624  0.9406
12497TIP3    H237449   2.171   2.401   6.689  0.6943 -0.4062 -1.0419
12498TIP3   OH237450   6.785   2.520   4.579  0.1957 -0.3253  0.1451
12498TIP3    H137451   6.813   2.428   4.574 -0.0861 -0.3412 -3.0227
12498TIP3    H237452   6.862   2.566   4.611  0.1856 -1.6728  2.2922
12499TIP3   OH237453   3.760   2.717   4.842  0.2174  0.2731  0.1098
12499TIP3    H137454   3.722   2.714   4.930  0.6143  1.1193  0.3287
12499TIP3    H237455   3.752   2.628   4.809  0.2555 -0.1093  1.0884
12500TIP3   OH237456   3.762   3.596   0.959  0.7063  0.0226 -0.0782
12500TIP3    H137457   3.837   3.537   0.954  0.7027  0.0160 -0.0558
12500TIP3    H237458   3.794   3.670   1.011  0.4919 -0.2903  0.5124
12501TIP3   OH237459   7.148   4.056   0.208 -0.2626 -0.6334  0.2549
12501TIP3    H137460   7.119   4.012   0.289 -0.6706 -1.2559 -0.2216
12501TIP3    H237461   7.067   4.082   0.165 -0.0511 -0.5475 -0.0889
12502TIP3   OH237462   0.812   0.003   4.113 -0.1077  0.1619 -0.5754
12502TIP3    H137463   0.852  -0.058   4.052 -1.1601 -0.5644 -0.5714
12502TIP3    H237464   0.844   0.089   4.086  0.0699 -0.2264 -1.6415
12503TIP3   OH237465   2.649   1.154   6.148  0.4053 -0.0566  0.1513
12503TIP3    H137466   2.707   1.108   6.209 -0.0229 -1.0367 -0.1646
12503TIP3    H237467   2.639   1.241   6.186  4.1432  1.0996 -1.0505
12504TIP3   OH237468   2.946   1.180   2.455 -0.1113  0.5127 -0.0919
12504TIP3    H137469   2.969   1.144   2.541  1.1519 -0.7321 -0.9025
12504TIP3    H237470   2.855   1.152   2.442  0.5128 -1.6332 -0.2527
12505TIP3   OH237471   5.581   6.932   5.331  0.1901  0.4507 -0.3324
12505TIP3    H137472   5.623   6.922   5.417  0.3074  1.8257 -0.2097
12505TIP3    H237473   5.643   6.983   5.280  1.4963 -2.8039 -2.2853
12506TIP3   OH237474   6.347   0.620   5.498 -0.1330  0.0001  0.2040
12506TIP3    H137475   6.287   0.567   5.445 -0.8465  1.9531 -1.0211
12506TIP3    H237476   6.434   0.597   5.466 -0.3847 -0.8589  0.1111
12507TIP3   OH237477   8.028   7.690   0.500 -0.2351 -0.1705  0.2075
12507TIP3    H137478   7.948   7.739   0.520 -0.4624 -1.2052  2.0804
12507TIP3    H237479   8.010   7.648   0.416 -0.5703  1.7452 -0.7505
12508TIP3   OH237480   1.610   0.839   0.020 -0.0893  0.3889 -0.0735
12508TIP3    H137481   1.563   0.894   0.083 -1.2487  0.1938 -0.7393
12508TIP3    H237482   1.682   0.802   0.070 -0.3678  1.0716  0.8624
12509TIP3   OH237483   5.082   0.278   4.209 -0.4273 -0.2663 -0.3913
12509TIP3    H137484   4.996   0.321   4.214 -1.1285 -1.5901 -0.5286
12509TIP3    H237485   5.067   0.202   4.153  1.7449  1.5061 -3.7691
12510TIP3   OH237486   7.258   5.841   3.529 -0.0609  0.2260  0.1478
12510TIP3    H137487   7.168   5.861   3.503  0.1206  0.8236 -0.0422
12510TIP3    H237488   7.300   5.926   3.538  1.1156 -0.0439 -2.0228
12511TIP3   OH237489   4.099   2.702   2.259  0.0486  0.0930 -0.4118
12511TIP3    H137490   4.129   2.784   2.298 -1.5423  0.8893 -0.8167
12511TIP3    H237491   4.161   2.685   2.188  1.7244 -0.2701  1.0386
12512TIP3   OH237492   2.085   7.488   6.400  0.4097 -0.6461 -0.1601
12512TIP3    H137493   2.163   7.509   6.348 -0.2527 -0.6095 -1.1661
12512TIP3    H237494   2.013   7.493   6.337 -0.3443 -1.1649  0.6548
12513TIP3   OH237495   2.513   1.815   1.798  0.6492  0.3464 -0.2070
12513TIP3    H137496   2.462   1.810   1.879 -1.9433  2.1805 -1.5752
12513TIP3    H237497   2.537   1.724   1.780  0.0484 -0.2793  1.8384
12514TIP3   OH237498   1.181   4.242   2.564 -0.9968 -0.5048  0.0818
12514TIP3    H137499   1.112   4.188   2.603  0.3773 -1.9205  0.6219
12514TIP3    H237500   1.177   4.221   2.470 -2.9142  1.3472 -0.3571
12515TIP3   OH237501   0.591   2.736   1.946  0.6001  0.1048  0.2355
12515TIP3    H137502   0.518   2.708   2.001  0.0117  1.3001  0.1044
12515TIP3    H237503   0.554   2.804   1.890  1.8804  0.9404  0.3638
12516TIP3   OH237504   4.664   1.287   5.321  0.5517  0.6291  0.2423
12516TIP3    H137505   4.598   1.220   5.300 -0.7801  1.7593  0.6775
12516TIP3    H237506   4.707   1.253   5.399 -0.0942  0.2522  0.4509
12517TIP3   OH237507   5.818   7.381   4.747 -0.1069 -0.0411 -0.5763
12517TIP3    H137508   5.768   7.300   4.741  0.0150 -0.1525 -0.1288
12517TIP3    H237509   5.800   7.427   4.665  0.3652 -0.8289 -1.1403
12518TIP3   OH237510   6.522   4.647   5.921 -0.5124  0.2999  0.1205
12518TIP3    H137511   6.537   4.708   5.993 -0.8337 -2.4158  2.6814
12518TIP3    H237512   6.602   4.652   5.869  0.3433  1.3404  1.4669
12519TIP3   OH237513   4.408   0.544   5.394 -0.3580 -0.4156 -0.4643
12519TIP3    H137514   4.457   0.464   5.375  0.0994 -0.5660  1.2420
12519TIP3    H237515   4.422   0.560   5.487 -1.1817  1.1631 -0.5731
12520TIP3   OH237516   1.865   5.952   5.324 -0.2285  0.2339  0.4794
12520TIP3    H137517   1.860   6.035   5.277 -0.9314 -0.1929 -0.2122
12520TIP3    H237518   1.953   5.952   5.362 -0.3177  1.4244  0.7518
12521TIP3   OH237519   8.071   2.130   2.231 -0.2928 -0.1220  0.3749
12521TIP3    H137520   8.002   2.075   2.267  0.9305 -1.0939  1.3410
12521TIP3    H237521   8.033   2.167   2.152 -2.2947  0.2915  1.4727
12522TIP3   OH237522   4.465   4.973   3.051  0.5029 -0.1737  0.1938
12522TIP3    H137523   4.480   5.004   2.962 -0.1272 -2.1039 -0.6383
12522TIP3    H237524   4.369   4.971   3.059  0.4939 -2.0956  0.0847
12523TIP3   OH237525   5.813   2.056   2.646 -0.3040 -0.1097  0.1066
12523TIP3    H137526   5.806   2.146   2.615 -1.4983 -0.0507  0.4787
12523TIP3    H237527   5.722   2.026   2.652 -0.0051 -0.7832  1.5855
12524TIP3   OH237528   5.517   4.986   5.994 -0.4337 -0.6723  0.0064
12524TIP3    H137529   5.600   4.975   5.948  0.2646  1.5809  0.6211
12524TIP3    H237530   5.537   4.961   6.085 -0.3201  0.1410  0.2155
12525TIP3   OH237531   2.106   3.349   4.488 -0.4125  0.5439 -0.3958
12525TIP3    H137532   2.142   3.415   4.429  1.8081  0.4831  0.7965
12525TIP3    H237533   2.153   3.362   4.571 -3.0480  0.2912  1.2455
12526TIP3   OH237534   1.348   5.187   6.746 -0.0360  0.1283 -0.4776
12526TIP3    H137535   1.406   5.262   6.734  1.0813 -0.7299 -0.5804
12526TIP3    H237536   1.407   5.113   6.756 -1.0576 -0.4290  1.9697
12527TIP3   OH237537   5.550   0.278   6.074  0.4800 -0.0542 -0.0087
12527TIP3    H137538   5.525   0.233   6.155  2.0401  1.2659  1.2831
12527TIP3    H237539   5.470   0.324   6.047 -0.2097 -0.9202  0.4732
12528TIP3   OH237540   4.056   4.944   3.392 -0.5027 -0.0067 -0.2157
12528TIP3    H137541   4.036   5.006   3.463 -0.9950 -0.5355  0.1136
12528TIP3    H237542   3.994   4.873   3.404 -1.1397  0.2752 -1.6855
12529TIP3   OH237543   0.317   0.942   0.745 -0.2318  0.3522  0.2046
12529TIP3    H137544   0.360   1.011   0.695  1.6290  0.3117  1.6652
12529TIP3    H237545   0.368   0.934   0.825 -1.8545 -1.0560  1.1732
12530TIP3   OH237546   2.320   0.852   6.397  0.2678 -0.1924  0.6084
12530TIP3    H137547   2.403   0.834   6.354 -0.1536 -0.8033  0.0367
12530TIP3    H237548   2.336   0.830   6.489  0.0626 -2.6842  0.1085
12531TIP3   OH237549   7.810   2.450   2.673  0.4384 -0.4953 -0.1444
12531TIP3    H137550   7.837   2.365   2.637  0.7962 -0.4306 -0.0321
12531TIP3    H237551   7.750   2.428   2.745  1.8296 -0.7147  0.9853
12532TIP3   OH237552   0.335   3.534   2.045 -0.6551  0.8755  0.0422
12532TIP3    H137553   0.330   3.617   1.998 -0.6070  0.5689 -0.5082
12532TIP3    H237554   0.278   3.474   1.996  0.1677  0.2794 -0.2110
12533TIP3   OH237555   1.354   6.860   3.173 -0.3202  0.6409  0.4619
12533TIP3    H137556   1.335   6.818   3.089 -1.4053  0.5767  0.7227
12533TIP3    H237557   1.434   6.910   3.158 -1.0940  1.5118 -0.9270
12534TIP3   OH237558   1.503   5.538   4.598  0.3200  0.1677  0.4020
12534TIP3    H137559   1.459   5.518   4.515 -0.1387  0.7272  0.5076
12534TIP3    H237560   1.521   5.632   4.594 -0.6581  0.4162  1.3803
12535TIP3   OH237561   5.735   2.466   2.045  0.2635 -0.0558  0.0371
12535TIP3    H137562   5.747   2.381   2.003  0.9776  0.4511 -0.8406
12535TIP3    H237563   5.708   2.524   1.974  2.1089  0.9622  0.1019
12536TIP3   OH237564   2.917   4.722   4.508  0.0671  0.6783  0.7692
12536TIP3    H137565   2.828   4.738   4.541 -0.4603  1.5447 -0.9303
12536TIP3    H237566   2.915   4.755   4.418  1.3211 -1.7303 -0.2453
12537TIP3   OH237567   4.168   1.052   3.270 -0.1063 -0.2140 -0.4815
12537TIP3    H137568   4.102   0.984   3.285 -0.1995  0.2466  1.5851
12537TIP3    H237569   4.167   1.067   3.176 -1.9999 -1.1509 -0.6542
12538TIP3   OH237570   4.579   7.053   1.244  0.2737  0.5958  0.0317
12538TIP3    H137571   4.587   7.128   1.303  1.2102 -0.3236  1.1108
12538TIP3    H237572   4.608   7.087   1.159 -1.4043  2.0259 -0.0238
12539TIP3   OH237573   4.052   6.425   4.038 -0.0742 -0.2111 -0.2894
12539TIP3    H137574   4.031   6.466   4.122  0.7381 -0.4275  0.0252
12539TIP3    H237575   3.975   6.371   4.018  1.1681 -3.2920  2.2648
12540TIP3   OH237576   7.220   2.964   3.775  0.1749  0.3704  0.1844
12540TIP3    H137577   7.300   2.911   3.777  0.6185  1.0294  0.9624
12540TIP3    H237578   7.208   2.992   3.865  1.6452  3.9596 -0.5370
12541TIP3   OH237579   4.723   1.160   4.023  0.3147 -0.2131 -0.0589
12541TIP3    H137580   4.732   1.158   4.118  2.5304 -0.1270 -0.2055
12541TIP3    H237581   4.811   1.178   3.991 -0.2091 -1.0345 -2.1641
12542TIP3   OH237582   7.277   4.357   1.693  0.5401 -0.2540  0.4706
12542TIP3    H137583   7.265   4.452   1.694  0.2988 -0.2881  0.6782
12542TIP3    H237584   7.230   4.325   1.770  0.1716 -0.5949  0.1119
12543TIP3   OH237585   1.268   1.358   2.655  0.2992 -0.7335  0.4121
12543TIP3    H137586   1.364   1.356   2.663  0.1404 -1.5046  2.7212
12543TIP3    H237587   1.239   1.279   2.700 -1.5162  0.6194  1.7500
12544TIP3   OH237588   6.381   5.468   1.779  0.1753 -0.0723  0.5275
12544TIP3    H137589   6.369   5.417   1.859  0.6162  1.3288  1.5051
12544TIP3    H237590   6.305   5.445   1.725  0.0088 -1.2258  1.2245
12545TIP3   OH237591   1.113   7.838   5.201  0.0612 -0.0305 -0.0459
12545TIP3    H137592   1.098   7.890   5.280  0.1989  2.5959 -1.6339
12545TIP3    H237593   1.160   7.760   5.232  1.3267  1.5473  2.3130
12546TIP3   OH237594   6.949   2.974   6.024  0.7086  0.4440  0.0714
12546TIP3    H137595   7.031   2.944   6.063 -0.5078 -1.7330  1.1593
12546TIP3    H237596   6.881   2.921   6.067 -1.2163  1.7149 -1.2340
12547TIP3   OH237597   1.668   6.754   6.796 -0.0395 -0.4257 -0.1377
12547TIP3    H137598   1.729   6.828   6.797 -1.3636  0.7295 -1.0344
12547TIP3    H237599   1.586   6.790   6.761 -0.3547 -2.6116 -1.9097
12548TIP3   OH237600   1.561   6.087   5.051 -0.2221  0.0370  0.0211
12548TIP3    H137601   1.596   6.127   5.131  1.5068  0.9031 -1.1164
12548TIP3    H237602   1.621   6.014   5.033 -0.7126 -0.2698 -0.3870
12549TIP3   OH237603   8.269   5.577   4.924  0.3655  0.3267  0.7953
12549TIP3    H137604   8.350   5.605   4.968  0.8605 -1.0517  0.7862
12549TIP3    H237605   8.222   5.659   4.909  1.3739  1.0825  1.5476
12550TIP3   OH237606   0.316   4.881   6.024  0.1173  0.1333 -0.4330
12550TIP3    H137607   0.339   4.819   6.093  1.4561  0.7143 -0.3227
12550TIP3    H237608   0.267   4.829   5.960 -0.6568 -0.5351  0.6769
12551TIP3   OH237609   6.079   1.769   1.773 -0.3396 -0.1613  0.2446
12551TIP3    H137610   6.055   1.812   1.856  0.8808  0.6158  0.2151
12551TIP3    H237611   6.106   1.841   1.716  2.5792 -0.9766  0.4720
12552TIP3   OH237612   1.915   6.298   3.831  0.1178 -0.2058 -0.2765
12552TIP3    H137613   1.919   6.223   3.771  0.1241 -1.0021  0.6922
12552TIP3    H237614   1.822   6.322   3.833  0.3527  1.0379 -2.0239
12553TIP3   OH237615   5.654   5.137   2.403 -0.2711  0.0012 -0.0770
12553TIP3    H137616   5.605   5.071   2.354 -0.1162 -0.9304  0.9826
12553TIP3    H237617   5.620   5.131   2.492  2.2345 -1.2478  0.9145
12554TIP3   OH237618   8.149   2.082   1.173  0.2306  0.7819 -0.0409
12554TIP3    H137619   8.096   2.101   1.096  0.1371 -1.8200 -0.7389
12554TIP3    H237620   8.237   2.111   1.149  0.5622 -1.4622 -1.9132
12555TIP3   OH237621   0.162   1.883   2.378  0.7588  0.0659  0.1451
12555TIP3    H137622   0.158   1.976   2.360  0.5867 -0.4856 -3.2605
12555TIP3    H237623   0.246   1.870   2.422  0.0892  1.9445  2.1372
12556TIP3   OH237624   7.045   1.424   1.309  0.0423 -0.2339  0.0254
12556TIP3    H137625   7.115   1.359   1.313  0.3454 -0.0142 -1.4589
12556TIP3    H237626   7.006   1.421   1.397 -0.6693 -3.1993 -0.2561
12557TIP3   OH237627   7.742   6.631   6.605 -0.1500 -0.1316  0.1896
12557TIP3    H137628   7.829   6.599   6.629  0.0177  1.2601  1.6903
12557TIP3    H237629   7.744   6.639   6.510  1.8115  0.9716  0.2629
12558TIP3   OH237630   7.399   2.543   1.202  0.3160 -0.1926  0.5310
12558TIP3    H137631   7.384   2.473   1.138 -1.7099  0.1338  0.5966
12558TIP3    H237632   7.469   2.596   1.164 -1.1146  0.2448 -1.6687
12559TIP3   OH237633   6.241   6.753   2.192  0.0750 -0.0935  0.3400
12559TIP3    H137634   6.264   6.701   2.114 -1.9143 -0.9946  0.3099
12559TIP3    H237635   6.308   6.822   2.194  0.7847 -0.6449 -1.5758
12560TIP3   OH237636   2.752   0.206   0.673  0.0188 -0.0296  0.2749
12560TIP3    H137637   2.735   0.136   0.610 -1.6348  0.0797  0.5609
12560TIP3    H237638   2.784   0.160   0.751 -0.8518 -0.4716  0.3883
12561TIP3   OH237639   4.919   6.666   0.448 -0.0575  0.6526  0.7752
12561TIP3    H137640   4.927   6.711   0.364 -2.6444  0.9204  0.5703
12561TIP3    H237641   5.009   6.649   0.475  0.8932  1.9549 -1.2832
12562TIP3   OH237642   6.429   7.393   0.697  0.3851 -0.1932 -0.1998
12562TIP3    H137643   6.364   7.443   0.748  0.8348  0.8933 -0.6793
12562TIP3    H237644   6.422   7.304   0.732 -0.7319  0.0992  0.3807
12563TIP3   OH237645   4.927   4.295   2.519  0.2014 -0.0751  0.1671
12563TIP3    H137646   4.865   4.305   2.591  0.9279 -0.5951  0.8765
12563TIP3    H237647   5.013   4.307   2.558  0.5579  1.5114 -0.9634
12564TIP3   OH237648   7.487   5.234   6.317  0.2590  0.1511  0.4069
12564TIP3    H137649   7.571   5.215   6.359  1.2638 -1.2785 -2.0519
12564TIP3    H237650   7.452   5.149   6.292 -0.6611  0.8578 -0.8698
12565TIP3   OH237651   1.207   2.432   1.303  0.1848 -0.5536  0.1034
12565TIP3    H137652   1.237   2.427   1.212  1.8061  0.5773  0.5414
12565TIP3    H237653   1.117   2.399   1.300  0.2931 -0.7949 -1.8573
12566TIP3   OH237654   2.227   6.380   6.159  0.5004  0.0961 -0.1813
12566TIP3    H137655   2.282   6.371   6.081 -1.3116 -2.0970 -1.3333
12566TIP3    H237656   2.184   6.294   6.168 -2.6884  1.6145  0.6187
12567TIP3   OH237657   3.888   7.040   1.479  0.1828  0.5511  0.2560
12567TIP3    H137658   3.940   7.012   1.404 -0.1224 -1.4708  0.7364
12567TIP3    H237659   3.819   6.974   1.486 -1.6375  2.3860  0.4746
12568TIP3   OH237660   3.975   4.854   5.599  0.1754  0.2189  0.1552
12568TIP3    H137661   3.950   4.876   5.509  1.5512  0.8808 -0.0970
12568TIP3    H237662   4.008   4.764   5.594 -0.5781 -0.0634  0.1782
12569TIP3   OH237663   3.538   6.669   5.717 -0.3632  0.6365  0.2840
12569TIP3    H137664   3.540   6.580   5.684 -0.8135  0.9104 -0.4904
12569TIP3    H237665   3.549   6.724   5.640 -0.5806  1.2607  0.6879
12570TIP3   OH237666   5.831   1.512   6.387  0.5876 -0.0478 -0.8102
12570TIP3    H137667   5.810   1.438   6.331 -1.8337  0.7071 -1.0271
12570TIP3    H237668   5.787   1.587   6.347  1.4271  1.1683  0.3914
12571TIP3   OH237669   6.336   4.703   6.329  0.5891 -0.0212  0.0561
12571TIP3    H137670   6.416   4.698   6.382  0.5388 -0.4300  0.0978
12571TIP3    H237671   6.274   4.645   6.373  0.3226  0.1633 -0.0707
12572TIP3   OH237672   4.532   2.051   0.624 -0.3298 -0.1092  0.0333
12572TIP3    H137673   4.490   2.047   0.710  1.5221 -0.9365  0.9743
12572TIP3    H237674   4.602   1.985   0.629  0.2923  0.3468 -1.8528
12573TIP3   OH237675   1.629   3.681   2.595 -0.0335 -0.3721  0.3340
12573TIP3    H137676   1.663   3.767   2.569 -0.2981 -0.8063 -1.6428
12573TIP3    H237677   1.602   3.692   2.686  2.3472  0.8926  0.9729
12574TIP3   OH237678   0.279   7.726   5.288  0.0001 -0.2468  0.0359
12574TIP3    H137679   0.227   7.677   5.224  1.3799  0.0472 -1.3646
12574TIP3    H237680   0.313   7.658   5.347 -2.5967 -0.3685  1.5481
12575TIP3   OH237681   7.632   0.128   4.253  0.7523  0.1576 -0.1279
12575TIP3    H137682   7.626   0.206   4.309 -0.1498  2.0041 -2.5867
12575TIP3    H237683   7.726   0.110   4.247  1.0013  1.2147  0.3369
12576TIP3   OH237684   2.962   0.901   0.614 -0.0472 -0.2206  0.1117
12576TIP3    H137685   2.895   0.969   0.619  0.2475  0.1999 -1.2975
12576TIP3    H237686   3.037   0.937   0.662 -0.1331  0.1509 -0.0306
12577TIP3   OH237687   6.867   5.749   2.803 -0.6669  0.4948 -0.1157
12577TIP3    H137688   6.819   5.831   2.794  0.8128  1.2859 -1.3770
12577TIP3    H237689   6.958   5.776   2.816 -0.1328 -0.9502 -0.6422
12578TIP3   OH237690   2.444   5.289   2.139  0.0293  0.1239 -0.0621
12578TIP3    H137691   2.500   5.216   2.114  0.6331  0.9588 -1.2458
12578TIP3    H237692   2.439   5.343   2.061  1.6951  2.7133  1.4768
12579TIP3   OH237693   7.589   5.410   6.155  0.1180  0.2972 -0.3619
12579TIP3    H137694   7.556   5.386   6.242  0.9718 -0.4361 -0.2247
12579TIP3    H237695   7.548   5.348   6.095  0.1481  0.2871 -0.3723
12580TIP3   OH237696   6.158   0.027   1.506  0.2633  0.2658  0.2012
12580TIP3    H137697   6.221  -0.036   1.470 -0.4997  0.0984 -0.9157
12580TIP3    H237698   6.159   0.100   1.444  0.4413  0.9280  0.9720
12581TIP3   OH237699   1.180   1.102   2.312  0.1767 -0.0005 -1.1122
12581TIP3    H137700   1.239   1.172   2.338 -0.1621 -0.5246  1.3382
12581TIP3    H237701   1.098   1.147   2.290  0.6709  0.5269 -1.9206
12582TIP3   OH237702   4.454   7.022   0.130  0.3111 -0.1383 -0.2904
12582TIP3    H137703   4.535   7.029   0.181  1.4248 -2.9498 -1.4729
12582TIP3    H237704   4.483   7.018   0.039 -1.3895  1.1206 -0.9458
12583TIP3   OH237705   3.888   1.934   5.179  0.3474  0.2563 -0.4421
12583TIP3    H137706   3.887   1.924   5.274  0.6667 -0.5088 -0.5198
12583TIP3    H237707   3.915   2.025   5.165 -0.1562  0.5128  0.2016
12584TIP3   OH237708   3.748   1.948   0.085  0.1970 -0.6040  0.0653
12584TIP3    H137709   3.666   1.900   0.095  0.3825 -1.0393 -0.4619
12584TIP3    H237710   3.757   1.997   0.167 -2.0163  1.7272 -0.9753
12585TIP3   OH237711   3.370   0.746   4.251  0.3361  0.0853  0.6057
12585TIP3    H137712   3.465   0.734   4.248  0.4564  1.1635 -0.3339
12585TIP3    H237713   3.345   0.712   4.337  1.7805  1.1228  1.4908
12586TIP3   OH237714   7.433   7.495   2.273  0.0508  0.0192 -0.5961
12586TIP3    H137715   7.396   7.530   2.192  1.8576 -0.9048 -1.8837
12586TIP3    H237716   7.372   7.426   2.299 -0.5163  0.2786 -1.2012
12587TIP3   OH237717   0.904   1.900   6.209  0.1178  0.2467  0.2625
12587TIP3    H137718   0.950   1.829   6.163  3.5671  3.2185 -1.3144
12587TIP3    H237719   0.829   1.920   6.153  1.2246  0.2560 -1.2786
12588TIP3   OH237720   4.182   2.959   1.938 -0.3621  0.0322  0.2431
12588TIP3    H137721   4.234   3.021   1.887 -1.3151 -0.1685 -1.0210
12588TIP3    H237722   4.188   2.876   1.890  0.9496 -0.9387  1.9390
12589TIP3   OH237723   3.982   0.353   6.116  0.0096  0.1737 -0.1915
12589TIP3    H137724   3.977   0.262   6.144  0.5824  0.4521  0.8537
12589TIP3    H237725   3.901   0.392   6.148  0.6695  0.4948  1.1459
12590TIP3   OH237726   3.198   4.410   3.915  0.2828  0.8005  0.3542
12590TIP3    H137727   3.170   4.334   3.965  1.1652 -0.0523 -0.4194
12590TIP3    H237728   3.142   4.411   3.838 -0.1843  1.3537  0.6835
12591TIP3   OH237729   7.040   6.032   2.062 -0.2502  0.6578 -0.6332
12591TIP3    H137730   7.088   6.017   2.143  0.6704 -1.6622 -1.5406
12591TIP3    H237731   7.106   6.065   2.000 -0.7297  1.4202 -0.7566
12592TIP3   OH237732   0.281   7.275   5.576  0.1794  0.0303 -0.3305
12592TIP3    H137733   0.253   7.248   5.663 -0.0492  2.0121  0.2563
12592TIP3    H237734   0.262   7.199   5.520 -1.1663 -0.7045  1.0526
12593TIP3   OH237735   5.071   7.510   1.641 -0.2160  0.3614  0.2895
12593TIP3    H137736   5.119   7.432   1.613  0.9266  0.9634  0.5085
12593TIP3    H237737   5.106   7.529   1.728  0.5645  1.9456 -0.3511
12594TIP3   OH237738   3.894   7.216   1.207  0.6285  0.1172  0.1271
12594TIP3    H137739   3.844   7.157   1.263 -0.1748  0.8032  0.1507
12594TIP3    H237740   3.871   7.190   1.118  2.4227 -1.4179  0.0623
12595TIP3   OH237741   6.426   2.135   6.661  0.3716 -0.1392 -0.0348
12595TIP3    H137742   6.518   2.157   6.677  0.8061  0.1277 -2.5135
12595TIP3    H237743   6.387   2.218   6.632 -0.6212 -0.2990  0.7981
12596TIP3   OH237744   1.278   6.091   0.542 -0.0412  0.0863 -0.9389
12596TIP3    H137745   1.355   6.072   0.595 -0.2672 -0.8830 -0.9464
12596TIP3    H237746   1.210   6.034   0.577 -0.6550  0.6584 -1.1807
12597TIP3   OH237747   4.472   1.063   3.957  0.8045  0.0643 -0.4602
12597TIP3    H137748   4.558   1.092   3.988  0.5605  0.2739  0.0236
12597TIP3    H237749   4.422   1.144   3.948  0.5230 -0.0963 -0.3343
12598TIP3   OH237750   1.981   0.934   0.599 -0.3127 -0.4863  0.1903
12598TIP3    H137751   1.937   0.948   0.683  1.2005  2.9102  0.5613
12598TIP3    H237752   2.041   0.860   0.616 -0.9412 -0.6907  1.6920
12599TIP3   OH237753   0.944   0.222   0.779  0.2054 -0.5612  1.0047
12599TIP3    H137754   0.948   0.229   0.874  1.6112  2.0325  0.8591
12599TIP3    H237755   1.030   0.189   0.753  0.0967 -0.5457  0.6188
12600TIP3   OH237756   4.281   2.018   1.330  0.0706 -0.4523 -0.1342
12600TIP3    H137757   4.306   2.039   1.240 -1.1086 -0.7552 -0.5460
12600TIP3    H237758   4.224   2.090   1.357  1.4710  0.3334  0.8700
12601TIP3   OH237759   1.312   4.806   0.586 -0.7510 -0.6469  0.1197
12601TIP3    H137760   1.233   4.853   0.559 -0.3124  0.4554  0.7167
12601TIP3    H237761   1.328   4.743   0.515 -2.7463 -1.6416  0.4893
12602TIP3   OH237762   6.119   2.081   4.870  0.1806  0.1657 -0.2628
12602TIP3    H137763   6.213   2.084   4.853  0.1396 -1.2253 -0.8340
12602TIP3    H237764   6.110   2.029   4.949 -0.0161  1.9629  0.9644
12603TIP3   OH237765   3.172   1.302   5.703  0.7865  0.5800  0.0739
12603TIP3    H137766   3.208   1.223   5.744  0.4852  1.5234  2.2876
12603TIP3    H237767   3.091   1.320   5.751 -1.2670  0.1506 -2.8899
12604TIP3   OH237768   3.034   3.536   6.255 -0.0014  0.1794 -0.3131
12604TIP3    H137769   3.039   3.465   6.192 -0.5680 -0.6935  0.5911
12604TIP3    H237770   3.114   3.587   6.242  0.1322 -0.2945 -1.3560
12605TIP3   OH237771   3.930   2.498   2.352  0.3013  0.1292  0.3348
12605TIP3    H137772   3.890   2.459   2.275 -1.4932  0.5126  1.0252
12605TIP3    H237773   3.998   2.555   2.318 -0.2460  0.0418 -0.9426
12606TIP3   OH237774   4.564   0.733   6.619  0.4675  0.3539 -0.1160
12606TIP3    H137775   4.570   0.827   6.603 -1.6441  0.5280 -0.2471
12606TIP3    H237776   4.527   0.697   6.538  1.6784 -0.6695 -0.2423
12607TIP3   OH237777   7.176   3.273   5.754 -0.3808  0.0681  0.1703
12607TIP3    H137778   7.092   3.230   5.736 -0.4210  0.6230 -1.0758
12607TIP3    H237779   7.199   3.245   5.843 -1.7917 -0.2467  0.4609
12608TIP3   OH237780   6.589   1.851   1.757 -0.3853  0.1754 -0.7683
12608TIP3    H137781   6.548   1.769   1.786 -1.2152  0.7139 -0.4025
12608TIP3    H237782   6.682   1.838   1.773 -0.3613 -1.1459 -1.7922
12609TIP3   OH237783   3.472   7.008   1.816 -0.5303 -0.5426 -0.7659
12609TIP3    H137784   3.434   6.984   1.731  1.5710 -1.3552 -1.5623
12609TIP3    H237785   3.516   7.091   1.800  0.7987 -1.2304 -0.8044
12610TIP3   OH237786   1.282   2.431   4.269  0.0953  0.5606  0.4343
12610TIP3    H137787   1.367   2.394   4.291 -0.5027 -0.7476  0.6686
12610TIP3    H237788   1.237   2.440   4.353 -0.7644 -0.7768  0.1490
12611TIP3   OH237789   3.516   3.642   0.578  0.4049 -0.0012  0.1636
12611TIP3    H137790   3.511   3.619   0.485 -2.1676 -0.3782  0.3175
12611TIP3    H237791   3.511   3.558   0.624  0.1499  0.2819  0.6601
12612TIP3   OH237792   5.197   2.343   4.356  0.1736  0.0737  0.2935
12612TIP3    H137793   5.248   2.264   4.370 -1.0933 -0.7956  0.2055
12612TIP3    H237794   5.195   2.387   4.441  2.2376  0.8823 -0.0335
12613TIP3   OH237795   1.103   0.235   1.324 -0.0121 -0.2645 -0.2153
12613TIP3    H137796   1.013   0.266   1.334 -0.6021 -2.0174  0.2769
12613TIP3    H237797   1.154   0.291   1.381 -0.6753  1.1533 -0.9546
12614TIP3   OH237798   4.380   0.281   1.959  0.4695 -0.1293  0.1136
12614TIP3    H137799   4.370   0.349   2.025  0.3835 -0.5514  0.5416
12614TIP3    H237800   4.474   0.279   1.941  0.3939  0.5533 -0.3919
12615TIP3   OH237801   1.770   7.694   0.134  0.0190 -0.0543  0.0718
12615TIP3    H137802   1.748   7.779   0.095  2.6554 -0.5165 -2.7298
12615TIP3    H237803   1.688   7.646   0.133 -0.8267  1.3122 -1.4625
12616TIP3   OH237804   5.745   5.745   4.438 -0.1725 -0.3135  0.1668
12616TIP3    H137805   5.748   5.813   4.370  1.6698 -1.1705 -0.6663
12616TIP3    H237806   5.767   5.791   4.519  1.2481  0.0775 -0.4201
12617TIP3   OH237807   5.973   1.265   1.990  0.2307 -0.3043 -0.0536
12617TIP3    H137808   5.980   1.223   1.904  0.4426  0.6946 -0.5477
12617TIP3    H237809   5.884   1.245   2.019  0.4173 -1.3142 -0.1416
12618TIP3   OH237810   3.619   2.551   5.755  0.2716  0.7010 -0.1490
12618TIP3    H137811   3.547   2.487   5.759  0.8797 -0.1731 -1.7951
12618TIP3    H237812   3.663   2.531   5.672  2.7748  0.8251  1.0493
12619TIP3   OH237813   2.287   3.610   5.760  0.1232 -0.3195  0.1363
12619TIP3    H137814   2.348   3.618   5.833  0.0127 -2.2210  0.4967
12619TIP3    H237815   2.328   3.658   5.688  1.4056 -0.4729  0.7495
12620TIP3   OH237816   6.071   5.915   0.143 -0.8665  0.9621  0.3471
12620TIP3    H137817   6.110   5.851   0.203  2.2270  0.6018 -1.8113
12620TIP3    H237818   6.048   5.864   0.065  1.8302  2.3117 -1.4968
12621TIP3   OH237819   5.775   2.776   4.363 -0.8418 -0.8549 -0.4165
12621TIP3    H137820   5.700   2.717   4.366 -1.3630 -0.4404 -3.0657
12621TIP3    H237821   5.832   2.739   4.296 -0.1105  0.4501 -0.5430
12622TIP3   OH237822   0.680   0.325   2.004 -0.0074 -0.4291  0.7264
12622TIP3    H137823   0.617   0.275   2.056 -0.6688  0.7589  1.1137
12622TIP3    H237824   0.757   0.332   2.060 -1.1066  1.7914  2.0858
12623TIP3   OH237825   2.278   3.434   3.521  0.7247 -0.4538 -0.3801
12623TIP3    H137826   2.281   3.339   3.522  1.5256 -0.4383 -0.7889
12623TIP3    H237827   2.185   3.455   3.530  0.6984 -1.2299  1.6717
12624TIP3   OH237828   4.108   2.138   6.276  0.1475 -0.5384  0.1544
12624TIP3    H137829   4.022   2.165   6.243  1.0663  0.9313 -1.1948
12624TIP3    H237830   4.149   2.094   6.201  1.4012  0.7842  0.0326
12625TIP3   OH237831   7.062   3.334   1.921  0.0063 -0.2629 -0.2793
12625TIP3    H137832   7.065   3.378   2.006 -0.8980  1.2399 -0.9904
12625TIP3    H237833   6.993   3.269   1.930 -0.5227  0.3230 -0.0514
12626TIP3   OH237834   6.187   2.413   1.846 -0.4390 -0.2798 -0.3953
12626TIP3    H137835   6.132   2.490   1.855 -0.3592 -0.1552 -0.9070
12626TIP3    H237836   6.276   2.444   1.866 -0.7256 -0.8364  2.0681
12627TIP3   OH237837   5.710   5.431   4.089 -0.0784  0.0811 -0.7081
12627TIP3    H137838   5.699   5.395   4.177  0.6061  0.4800 -0.4578
12627TIP3    H237839   5.700   5.356   4.031  2.0953 -0.7109 -0.1597
12628TIP3   OH237840   2.152   0.903   4.789  0.5459  0.4968 -0.4025
12628TIP3    H137841   2.138   0.997   4.801 -0.4467  0.3125  0.0165
12628TIP3    H237842   2.158   0.892   4.694 -0.9352  0.8032 -0.5636
12629TIP3   OH237843   0.813   2.527   4.126  0.3227 -0.3184  0.0740
12629TIP3    H137844   0.816   2.431   4.130 -0.9522 -0.4162 -0.7935
12629TIP3    H237845   0.736   2.550   4.179 -1.0405  0.0112 -1.9463
12630TIP3   OH237846   1.611   4.402   2.744  0.2061  0.1801  0.2000
12630TIP3    H137847   1.658   4.364   2.818 -0.6630 -0.3718  0.4843
12630TIP3    H237848   1.663   4.479   2.720  1.6339 -0.7938  0.0273
12631TIP3   OH237849   5.054   3.511   0.873  0.1374 -0.1987  0.1690
12631TIP3    H137850   5.051   3.418   0.850 -0.2577  0.1000 -1.0537
12631TIP3    H237851   4.986   3.521   0.940  1.5301 -1.1453  1.8096
12632TIP3   OH237852   1.176   3.166   3.677 -0.2963 -0.0452  0.3884
12632TIP3    H137853   1.227   3.242   3.650  0.8655 -0.5455  1.0869
12632TIP3    H237854   1.198   3.098   3.613 -0.2752 -0.1869  0.5430
12633TIP3   OH237855   1.042   7.619   6.344  0.0999  0.5284  0.7651
12633TIP3    H137856   1.119   7.588   6.295 -0.6996  0.3826 -0.4450
12633TIP3    H237857   1.066   7.607   6.436  1.1629 -0.4172  0.3934
12634TIP3   OH237858   1.471   6.117   0.717  0.3678  0.2158 -0.3928
12634TIP3    H137859   1.546   6.135   0.659  0.2931  0.2983 -0.4641
12634TIP3    H237860   1.462   6.197   0.769 -0.6358  0.8206 -1.4483
12635TIP3   OH237861   0.255   5.610   5.940  0.0417 -0.4461 -0.7321
12635TIP3    H137862   0.194   5.671   5.900 -0.2171 -0.3283 -0.1668
12635TIP3    H237863   0.321   5.666   5.981  1.1822 -0.5704 -2.2842
12636TIP3   OH237864   8.167   0.600   0.647  0.6192 -0.2970 -0.2168
12636TIP3    H137865   8.230   0.651   0.698  0.3328 -0.6696  0.5331
12636TIP3    H237866   8.093   0.587   0.707  0.4436 -1.0842 -0.5945
12637TIP3   OH237867   3.312   4.245   0.473 -0.4776  0.1903 -0.2467
12637TIP3    H137868   3.343   4.266   0.561  0.4974 -1.0568 -0.2718
12637TIP3    H237869   3.361   4.304   0.415  1.9005 -1.6609 -0.2759
12638TIP3   OH237870   3.260   6.497   2.578  0.0442  0.2125  0.4220
12638TIP3    H137871   3.311   6.577   2.584  0.0574  0.2166  0.2691
12638TIP3    H237872   3.219   6.501   2.492  1.4644 -0.7782 -0.3484
12639TIP3   OH237873   2.527   2.055   3.455 -0.3070  0.3871  0.4317
12639TIP3    H137874   2.589   2.128   3.460 -0.0431  0.0759  2.7246
12639TIP3    H237875   2.474   2.074   3.377  2.1326  1.0494 -1.1797
12640TIP3   OH237876   2.238   4.889   2.780  0.2891 -0.2527  0.3633
12640TIP3    H137877   2.189   4.904   2.699  1.8483 -1.3651 -0.8587
12640TIP3    H237878   2.268   4.976   2.806 -1.4472  0.3163  0.6122
12641TIP3   OH237879   3.338   3.845   0.994 -0.7726  0.2467  0.6163
12641TIP3    H137880   3.300   3.870   0.910 -1.3352  0.3517  0.8990
12641TIP3    H237881   3.417   3.795   0.971 -1.5349 -0.7167  0.0054
12642TIP3   OH237882   6.215   3.046   2.390  0.2658 -0.1334  0.4323
12642TIP3    H137883   6.290   3.094   2.356  0.5200  0.1983  1.4253
12642TIP3    H237884   6.142   3.108   2.385  0.6902  0.5535  2.1344
12643TIP3   OH237885   8.068   1.367   5.991  0.7412 -0.0101  0.3074
12643TIP3    H137886   8.126   1.380   6.066  0.6175 -1.6758  0.7272
12643TIP3    H237887   8.120   1.316   5.929  0.9100  1.5222 -0.8731
12644TIP3   OH237888   0.323   3.884   0.574  0.1447  0.7600  0.8192
12644TIP3    H137889   0.254   3.826   0.541 -0.0479  0.7422  1.2510
12644TIP3    H237890   0.401   3.856   0.526  0.2285 -0.3909  1.5713
12645TIP3   OH237891   2.596   0.068   1.432  0.0946 -0.6105 -0.5486
12645TIP3    H137892   2.580   0.162   1.422 -2.9336 -0.9465  0.1921
12645TIP3    H237893   2.678   0.063   1.481 -1.1789  1.8227  2.1608
12646TIP3   OH237894   4.707   5.542   6.771  0.5054 -0.1851  0.2359
12646TIP3    H137895   4.777   5.606   6.784 -0.0848  0.4557  0.3226
12646TIP3    H237896   4.749   5.458   6.789  1.6719  0.0143 -1.3031
12647TIP3   OH237897   5.088   2.869   4.781 -0.3615 -0.8772  0.5172
12647TIP3    H137898   5.126   2.782   4.791  0.7932 -0.1748  3.1137
12647TIP3    H237899   4.995   2.853   4.767 -0.1801 -2.5293  0.9882
12648TIP3   OH237900   1.998   3.876   3.075  0.0761  0.4031 -0.0072
12648TIP3    H137901   2.089   3.899   3.058  0.4013 -0.1685  0.8925
12648TIP3    H237902   1.993   3.864   3.170 -1.1547  1.3425  0.0836
12649TIP3   OH237903   2.641   3.860   2.676  0.0169  0.3448  0.0344
12649TIP3    H137904   2.733   3.888   2.687 -0.2017  1.0228  0.2107
12649TIP3    H237905   2.595   3.902   2.749 -0.6627  1.1120 -0.8058
12650TIP3   OH237906   7.607   0.510   3.838 -0.1823  0.1360  0.1613
12650TIP3    H137907   7.534   0.533   3.781 -0.3326  1.0481  0.6958
12650TIP3    H237908   7.676   0.573   3.816  0.3256 -0.5099 -0.1098
12651TIP3   OH237909   0.474   5.750   0.044 -0.0588  0.5316 -0.1020
12651TIP3    H137910   0.479   5.801   0.125  0.0221 -0.9629  0.8695
12651TIP3    H237911   0.480   5.815  -0.026 -3.4717  2.3147  1.0042
12652TIP3   OH237912   5.686   4.482   3.708 -0.0588 -0.2080  0.0002
12652TIP3    H137913   5.717   4.448   3.624  0.8090  0.1363  0.1649
12652TIP3    H237914   5.639   4.562   3.685  0.4992  0.0898 -0.1423
12653TIP3   OH237915   1.817   1.821   4.641  0.7386 -0.5852  0.0017
12653TIP3    H137916   1.786   1.802   4.552  0.1792 -0.0447  0.0768
12653TIP3    H237917   1.744   1.796   4.697  1.0597 -0.8399  0.3082
12654TIP3   OH237918   3.411   6.654   5.432  0.0638  0.6648  0.6015
12654TIP3    H137919   3.425   6.736   5.479  1.6707 -0.4731  2.2524
12654TIP3    H237920   3.344   6.608   5.482 -1.0371  1.0384 -0.4763
12655TIP3   OH237921   3.689   0.874   4.536 -0.2044  0.0045 -0.3248
12655TIP3    H137922   3.686   0.967   4.561 -0.3468 -0.3139  0.9188
12655TIP3    H237923   3.763   0.838   4.585  0.2500 -0.4105 -1.2992
12656TIP3   OH237924   5.539   6.080   2.368 -0.3126 -0.0399  0.1965
12656TIP3    H137925   5.473   6.045   2.308 -1.4812  2.6353 -0.2281
12656TIP3    H237926   5.607   6.116   2.311  1.7436 -2.8710  0.6300
12657TIP3   OH237927   5.049   4.181   4.448  0.2457 -0.1765  0.9801
12657TIP3    H137928   4.975   4.184   4.509  1.7357 -0.5092  2.8884
12657TIP3    H237929   5.040   4.097   4.403 -0.6393 -0.1100  1.0178
12658TIP3   OH237930   0.933   6.458   0.606  0.2475 -0.1053  0.4499
12658TIP3    H137931   0.864   6.464   0.672 -0.4245 -2.1597  0.0224
12658TIP3    H237932   0.998   6.399   0.645 -0.2251 -1.4680 -0.7308
12659TIP3   OH237933   7.453   7.195   3.207 -0.6036 -0.0487  0.6796
12659TIP3    H137934   7.405   7.116   3.232 -1.4459  0.1842 -0.1494
12659TIP3    H237935   7.407   7.266   3.252 -2.6987  0.4914 -2.0152
12660TIP3   OH237936   8.306   6.564   2.902 -0.3208 -0.1911  0.6609
12660TIP3    H137937   8.278   6.475   2.881 -0.5392  0.3521 -1.6009
12660TIP3    H237938   8.293   6.572   2.997 -2.2453 -1.8991  0.6071
12661TIP3   OH237939   1.475   0.336   3.361  0.2551  0.3376 -0.2176
12661TIP3    H137940   1.567   0.363   3.373  0.1985  0.6169 -0.4127
12661TIP3    H237941   1.435   0.408   3.313  0.3757 -0.5908 -1.7730
12662TIP3   OH237942   6.761   4.553   4.067  0.4440  0.0097 -0.3470
12662TIP3    H137943   6.729   4.481   4.012 -0.7499  1.1263 -1.1696
12662TIP3    H237944   6.802   4.614   4.006  0.6144  0.4765  0.2194
12663TIP3   OH237945   6.505   3.336   4.918 -0.0207 -0.6773 -0.8382
12663TIP3    H137946   6.453   3.308   4.994  0.0922 -1.1381 -0.9265
12663TIP3    H237947   6.517   3.430   4.931  1.8565 -1.0851  0.8722
12664TIP3   OH237948   7.254   1.356   1.090  0.2230 -0.2038 -0.0022
12664TIP3    H137949   7.262   1.285   1.154  0.5828 -0.7860 -0.6799
12664TIP3    H237950   7.343   1.367   1.055  0.2089  0.7104  0.2207
12665TIP3   OH237951   3.777   3.974   5.961 -0.4915 -0.2538  0.0205
12665TIP3    H137952   3.776   4.065   5.932 -0.0076  0.4805  2.1070
12665TIP3    H237953   3.836   3.930   5.900  0.8864  1.3054  0.1516
12666TIP3   OH237954   7.841   4.003   0.017 -0.2876 -0.0461 -0.2793
12666TIP3    H137955   7.861   4.072  -0.046 -0.1072 -1.2459 -1.5683
12666TIP3    H237956   7.750   4.018   0.041  0.4114  2.0766  1.3469
12667TIP3   OH237957   1.990   6.918   2.741 -0.2802  0.3276 -0.2140
12667TIP3    H137958   1.904   6.914   2.700  0.0441  0.2122 -0.8887
12667TIP3    H237959   1.993   6.843   2.800 -0.8346  0.6258  0.2052
12668TIP3   OH237960   2.196   6.857   3.480  0.1985  0.7565 -0.1505
12668TIP3    H137961   2.128   6.803   3.440  1.2928  0.0688 -1.1448
12668TIP3    H237962   2.276   6.836   3.431  1.5148  0.2458  2.0528
12669TIP3   OH237963   2.807   0.838   5.365  0.4606 -0.2000  0.1460
12669TIP3    H137964   2.730   0.894   5.366  0.7155  0.1452  0.8741
12669TIP3    H237965   2.808   0.800   5.277 -0.2351  0.2097 -0.0429
12670TIP3   OH237966   0.818   0.638   2.054 -0.3119 -0.2697  0.4688
12670TIP3    H137967   0.810   0.721   2.102  0.7809 -0.0233  0.2542
12670TIP3    H237968   0.821   0.571   2.123  0.6927  0.0358  0.7372
12671TIP3   OH237969   3.524   4.945   5.517 -0.4773  0.0798  0.5780
12671TIP3    H137970   3.618   4.951   5.535 -0.4486 -0.9231  0.8251
12671TIP3    H237971   3.485   5.013   5.572  0.1762  1.1682 -0.2518
12672TIP3   OH237972   0.667   3.920   1.883 -0.1904 -0.4182 -0.0169
12672TIP3    H137973   0.574   3.940   1.875 -0.0204  1.3174  1.6441
12672TIP3    H237974   0.671   3.850   1.949 -0.2891 -0.0672  0.3651
12673TIP3   OH237975   2.201   0.379   5.137  0.0407  0.3833 -0.2776
12673TIP3    H137976   2.260   0.308   5.111 -0.1983  0.8661 -2.2484
12673TIP3    H237977   2.113   0.345   5.119 -0.0951  1.0051 -0.8108
12674TIP3   OH237978   2.366   6.514   2.799  0.1821  0.5096  0.2238
12674TIP3    H137979   2.418   6.451   2.749  0.3967  0.0972  0.9594
12674TIP3    H237980   2.285   6.469   2.819  0.4003  0.4066  0.8886
12675TIP3   OH237981   3.898   5.835   6.114  0.2706  0.2588 -0.0786
12675TIP3    H137982   3.849   5.833   6.196  0.6001 -1.6295  0.1391
12675TIP3    H237983   3.988   5.857   6.141  0.3702 -0.3207  0.0876
12676TIP3   OH237984   1.505   5.928   2.147 -0.1526  0.3383  0.2747
12676TIP3    H137985   1.527   5.841   2.179 -1.0266 -0.2187 -0.5987
12676TIP3    H237986   1.559   5.940   2.069  0.4081  0.8366  0.7262
12677TIP3   OH237987   6.222   3.214   6.058  0.0255  0.5388  1.0875
12677TIP3    H137988   6.133   3.214   6.093 -0.1817 -0.2198  0.5823
12677TIP3    H237989   6.259   3.298   6.086 -0.4377  0.3468  2.3157
12678TIP3   OH237990   1.813   7.502   2.049 -1.0557  0.5169 -0.3683
12678TIP3    H137991   1.887   7.542   2.003 -1.3326  1.2513 -0.1896
12678TIP3    H237992   1.794   7.423   1.999  0.3160 -0.0706  0.0060
12679TIP3   OH237993   6.351   3.600   0.610  0.1749 -0.5775  0.9130
12679TIP3    H137994   6.425   3.646   0.570  0.6075 -0.1645  2.1470
12679TIP3    H237995   6.354   3.625   0.703 -3.0437  1.5457  0.6179
12680TIP3   OH237996   7.156   3.420   0.312 -0.6238  0.2329 -0.5155
12680TIP3    H137997   7.164   3.324   0.308 -1.0845  0.1268  0.5830
12680TIP3    H237998   7.192   3.451   0.229  0.6677 -0.8224 -0.3921
12681TIP3   OH237999   1.101   5.594   3.412  0.1459  0.7203 -0.0728
12681TIP3    H138000   1.061   5.581   3.326  1.5949  0.8888 -0.8115
12681TIP3    H238001   1.102   5.507   3.451 -1.1017  0.7480  0.0654
12682TIP3   OH238002   4.436   2.409   0.278  0.4190  0.0701 -0.0205
12682TIP3    H138003   4.346   2.396   0.249  0.6525  0.8434 -1.1709
12682TIP3    H238004   4.473   2.470   0.214  1.6588  0.0321  0.6302
12683TIP3   OH238005   2.926   6.382   5.566  0.1708 -0.2745  0.1159
12683TIP3    H138006   2.929   6.286   5.568  0.8613 -0.2793 -0.5821
12683TIP3    H238007   2.953   6.408   5.654  0.7562 -0.7141  0.0737
12684TIP3   OH238008   5.473   5.377   2.438  0.3131 -0.5089  0.1908
12684TIP3    H138009   5.547   5.373   2.499 -0.8586  1.5016  1.8481
12684TIP3    H238010   5.398   5.345   2.489 -0.4057 -0.3082 -0.7051
12685TIP3   OH238011   2.484   1.957   1.006 -0.1188  0.0364 -0.3443
12685TIP3    H138012   2.390   1.948   1.019  0.2011 -1.0551  1.6711
12685TIP3    H238013   2.516   2.001   1.085  1.0183  0.9383 -1.2537
12686TIP3   OH238014   0.526   2.349   3.649  0.2619 -0.0587  0.4833
12686TIP3    H138015   0.522   2.442   3.674 -0.2938 -0.7301  3.1612
12686TIP3    H238016   0.618   2.325   3.662  0.8289  0.4875 -1.9968
12687TIP3   OH238017   7.476   1.867   1.335  0.0271 -0.0972  0.0939
12687TIP3    H138018   7.388   1.856   1.372  0.2326  0.2660  0.6940
12687TIP3    H238019   7.501   1.956   1.359  0.0999  0.2175 -1.0684
12688TIP3   OH238020   7.539   1.118   2.883  0.0669  0.1971 -0.4960
12688TIP3    H138021   7.586   1.053   2.935 -0.5768  2.0394  2.6526
12688TIP3    H238022   7.446   1.096   2.896 -0.1264  1.1683 -0.1906
12689TIP3   OH238023   3.526   1.140   5.564  0.0655  0.3053 -0.1116
12689TIP3    H138024   3.450   1.118   5.511 -0.7230 -1.2276  1.5255
12689TIP3    H238025   3.519   1.083   5.641  2.1238  1.1120  0.7633
12690TIP3   OH238026   2.316   2.872   5.906 -0.3433  0.1758 -0.4302
12690TIP3    H138027   2.283   2.950   5.951 -2.1358 -0.7713 -0.0306
12690TIP3    H238028   2.278   2.876   5.818 -0.9431 -0.5296 -0.2171
12691TIP3   OH238029   2.863   6.718   2.148  0.3204  0.4196  0.3622
12691TIP3    H138030   2.796   6.656   2.175 -0.1435  0.5513 -0.4402
12691TIP3    H238031   2.914   6.671   2.082  1.1048  0.2802  1.0480
12692TIP3   OH238032   1.083   7.714   5.571 -0.1097 -0.1994  0.3838
12692TIP3    H138033   1.176   7.693   5.578 -0.1375 -0.4243  0.0774
12692TIP3    H238034   1.078   7.808   5.590  0.6098  0.6185 -2.9298
12693TIP3   OH238035   5.198   5.294   3.449  0.8275  0.0970 -0.1367
12693TIP3    H138036   5.290   5.292   3.421  0.8074  0.3093 -0.2216
12693TIP3    H238037   5.190   5.220   3.509  1.3423  0.7143  0.7266
12694TIP3   OH238038   6.551   5.557   3.007 -0.2694 -0.3852  0.2255
12694TIP3    H138039   6.645   5.569   3.008 -0.1997 -0.9144  0.2042
12694TIP3    H238040   6.530   5.538   2.915 -0.6613  1.7045 -0.1635
12695TIP3   OH238041   5.443   0.915   0.232 -0.3774 -0.0027 -0.4088
12695TIP3    H138042   5.453   0.942   0.141 -1.7253 -1.7086 -1.1033
12695TIP3    H238043   5.452   0.820   0.231  2.3425  0.0920  1.6785
12696TIP3   OH238044   1.978   1.642   1.978  0.6167  1.0744 -0.5799
12696TIP3    H138045   1.969   1.716   1.919  0.8254  0.3539 -1.5402
12696TIP3    H238046   2.065   1.652   2.017  0.8879  1.0214 -1.1602
12697TIP3   OH238047   0.338   7.086   6.470 -0.0939 -0.3499 -0.0842
12697TIP3    H138048   0.420   7.083   6.519  0.2662  0.7621 -0.5851
12697TIP3    H238049   0.351   7.027   6.396  0.8713  1.0189 -1.0445
12698TIP3   OH238050   8.273   3.649   5.634  0.6873 -0.5604 -0.1425
12698TIP3    H138051   8.294   3.556   5.632  0.5710 -0.7041  2.4644
12698TIP3    H238052   8.196   3.656   5.690 -0.3013  0.9648 -1.5957
12699TIP3   OH238053   4.232   5.636   5.428  0.3420 -0.4687  0.2851
12699TIP3    H138054   4.286   5.630   5.507  0.3377 -0.3840  0.2943
12699TIP3    H238055   4.269   5.570   5.369  1.7380  0.9447 -0.4802
12700TIP3   OH238056   0.300   0.837   5.642 -0.0872  0.3037 -0.0984
12700TIP3    H138057   0.329   0.817   5.553  1.6271  0.3152  0.4136
12700TIP3    H238058   0.257   0.758   5.673 -0.0094  0.0361 -0.6746
12701TIP3   OH238059   2.064   4.146   1.515 -0.8208  0.1205  0.4992
12701TIP3    H138060   2.080   4.207   1.587 -1.7833  1.6517 -0.5276
12701TIP3    H238061   2.143   4.092   1.511  1.0576  2.7220  0.0779
12702TIP3   OH238062   5.270   5.692   2.573 -0.0389  0.0279  0.0043
12702TIP3    H138063   5.319   5.682   2.654  0.1413 -0.2250 -0.1364
12702TIP3    H238064   5.211   5.766   2.590 -0.6264 -0.5735  0.6756
12703TIP3   OH238065   2.302   2.028   0.665 -0.2438 -0.3401  0.1328
12703TIP3    H138066   2.295   1.966   0.592 -0.4377 -1.1288  0.8024
12703TIP3    H238067   2.396   2.046   0.671 -0.1342 -0.9119  0.2014
12704TIP3   OH238068   5.275   1.468   3.478 -0.2423 -0.1039  0.1827
12704TIP3    H138069   5.284   1.563   3.483 -1.7749  0.0870 -0.1665
12704TIP3    H238070   5.226   1.444   3.556  0.0007 -0.5903  0.1898
12705TIP3   OH238071   6.507   3.685   6.105  0.5130  0.1450 -0.0636
12705TIP3    H138072   6.598   3.688   6.132  0.7575  1.2260 -0.9236
12705TIP3    H238073   6.457   3.699   6.185  1.1691  1.5686  0.1343
12706TIP3   OH238074   4.160   6.410   6.771 -0.2795  0.2140 -0.4201
12706TIP3    H138075   4.194   6.470   6.705  0.3379  0.7125  0.3438
12706TIP3    H238076   4.066   6.427   6.773 -0.0614  1.4088  0.0359
12707TIP3   OH238077   0.206   5.664   2.593 -0.3982  0.3231 -0.0120
12707TIP3    H138078   0.165   5.747   2.617 -0.8743 -0.1265  0.7380
12707TIP3    H238079   0.140   5.618   2.542 -0.2807  0.2262 -0.0778
12708TIP3   OH238080   4.349   3.783   0.783  0.1310 -0.6039  0.0348
12708TIP3    H138081   4.418   3.754   0.724  0.1201 -3.1245  1.1112
12708TIP3    H238082   4.269   3.777   0.731  0.5969  2.0423 -1.1239
12709TIP3   OH238083   3.102   6.418   4.084  0.6069  0.2314  0.3341
12709TIP3    H138084   3.015   6.445   4.114 -1.1334 -2.4385 -1.7825
12709TIP3    H238085   3.128   6.350   4.146 -0.6420 -1.6570 -1.1233
12710TIP3   OH238086   6.975   7.731   1.269  0.0645  0.3072 -0.1795
12710TIP3    H138087   6.918   7.767   1.201 -0.6029 -1.1786 -0.4500
12710TIP3    H238088   6.917   7.714   1.342  0.5995  0.9433  0.4071
12711TIP3   OH238089   0.101   0.610   6.325  0.1698 -0.5021 -0.0275
12711TIP3    H138090   0.064   0.651   6.247 -2.3121 -2.8266 -0.2300
12711TIP3    H238091   0.183   0.571   6.294 -0.5132 -0.9506 -1.3712
12712TIP3   OH238092   2.996   1.459   3.931  0.1577  0.8182  0.0727
12712TIP3    H138093   3.032   1.380   3.972  1.3222  1.4693  0.3384
12712TIP3    H238094   2.972   1.516   4.003 -0.9005  0.6395 -0.1162
12713TIP3   OH238095   3.486   6.885   5.547  0.0109  0.3585 -0.5057
12713TIP3    H138096   3.528   6.942   5.482 -0.4144 -0.4636 -1.5393
12713TIP3    H238097   3.508   6.924   5.631 -0.1670  1.9787 -1.1718
12714TIP3   OH238098   2.575   5.129   3.022  0.3402 -0.0494  0.9157
12714TIP3    H138099   2.493   5.091   3.055  0.3308  0.1368  1.1120
12714TIP3    H238100   2.609   5.064   2.961 -0.4381  0.2835  0.1029
12715TIP3   OH238101   0.042   7.330   1.148 -0.2231  0.0047 -0.1104
12715TIP3    H138102   0.084   7.250   1.117  0.2194  0.4103 -0.5763
12715TIP3    H238103   0.064   7.335   1.241  1.0852  0.4098 -0.4299
12716TIP3   OH238104   7.552   2.281   2.623  0.0571 -0.3180  0.4831
12716TIP3    H138105   7.488   2.351   2.637  1.5682  1.1217  0.5671
12716TIP3    H238106   7.535   2.250   2.534 -0.1614  0.7046  0.1555
12717TIP3   OH238107   7.028   2.132   2.308 -0.5894 -0.0290 -0.7562
12717TIP3    H138108   6.949   2.145   2.360  0.0803 -0.8830  0.5277
12717TIP3    H238109   7.094   2.188   2.351  0.3431 -1.8216  0.2488
12718TIP3   OH238110   6.625   4.789   0.864 -0.5125 -0.0942 -0.0258
12718TIP3    H138111   6.628   4.854   0.935  0.7999 -0.8672  0.6555
12718TIP3    H238112   6.593   4.710   0.907 -0.8014 -0.2679 -0.5588
12719TIP3   OH238113   8.111   0.926   2.718  0.9138  0.0901 -0.2337
12719TIP3    H138114   8.102   1.021   2.713  0.9413  0.3182  2.4270
12719TIP3    H238115   8.181   0.905   2.657 -0.1499  1.5297 -2.0742
12720TIP3   OH238116   5.807   0.634   1.694 -0.1382 -0.1717  0.5043
12720TIP3    H138117   5.790   0.728   1.698  2.0596  0.2589  1.7037
12720TIP3    H238118   5.721   0.594   1.687 -1.1860  1.8926  0.7355
12721TIP3   OH238119   6.051   2.209   2.936  0.0537 -0.3246  0.0935
12721TIP3    H138120   6.041   2.149   2.862 -1.0575 -0.9996  0.7638
12721TIP3    H238121   6.051   2.296   2.896  1.0023 -0.7379 -0.8316
12722TIP3   OH238122   5.521   1.040   4.481 -0.4118  0.3212 -0.2470
12722TIP3    H138123   5.459   1.052   4.409 -2.6274  0.7897  1.6065
12722TIP3    H238124   5.472   0.989   4.546  0.5247  2.0801  1.9849
12723TIP3   OH238125   7.903   4.980   5.214  0.0561  0.0966  0.1136
12723TIP3    H138126   7.978   5.002   5.159 -0.3671  0.9862 -0.1301
12723TIP3    H238127   7.847   4.926   5.159 -0.4851  1.1880 -0.4517
12724TIP3   OH238128   0.446   4.704   4.075 -0.1913 -0.6386 -0.2171
12724TIP3    H138129   0.413   4.629   4.024  0.6512 -1.1588 -0.0160
12724TIP3    H238130   0.367   4.744   4.112 -0.7335 -0.8756 -1.0743
12725TIP3   OH238131   0.515   5.096   2.971  0.2932  0.0380  0.0649
12725TIP3    H138132   0.478   5.046   3.044 -1.2098 -0.5551 -1.0681
12725TIP3    H238133   0.576   5.036   2.929  0.3471  0.0075  0.1858
12726TIP3   OH238134   1.308   0.933   1.456  0.0092  0.2057  0.0167
12726TIP3    H138135   1.297   1.012   1.404 -0.2816  0.0116 -0.2176
12726TIP3    H238136   1.235   0.876   1.430 -1.8950  1.2085  2.6760
12727TIP3   OH238137   5.526   4.266   4.451 -0.6750  0.2483 -0.1969
12727TIP3    H138138   5.618   4.278   4.428 -0.4270 -1.0069  0.1006
12727TIP3    H238139   5.479   4.270   4.367 -0.1644 -0.7184 -0.5412
12728TIP3   OH238140   4.276   5.383   2.214  0.1382  0.6758  0.2948
12728TIP3    H138141   4.292   5.348   2.126 -0.6944  0.8535  0.0697
12728TIP3    H238142   4.346   5.447   2.227  1.9310 -1.2617  0.8484
12729TIP3   OH238143   7.590   3.902   2.206 -0.2802  0.0491 -0.3141
12729TIP3    H138144   7.595   3.816   2.165  3.6526 -1.3426  2.4465
12729TIP3    H238145   7.655   3.955   2.160  0.1456  0.2380  0.4829
12730TIP3   OH238146   4.566   7.756   5.979  0.1988  0.3537  0.6833
12730TIP3    H138147   4.485   7.766   5.929  0.7694  1.3022 -0.0846
12730TIP3    H238148   4.548   7.797   6.063 -0.6208 -0.8410  1.1154
12731TIP3   OH238149   0.712   5.080   1.250 -0.3861  0.2126  0.0513
12731TIP3    H138150   0.745   5.131   1.324  0.2298  0.8483 -0.6533
12731TIP3    H238151   0.748   4.992   1.264  2.1178  0.9972 -0.9573
12732TIP3   OH238152   7.260   2.478   5.452  0.1661  0.0162 -0.3611
12732TIP3    H138153   7.331   2.462   5.515 -0.3224  0.6291  0.3631
12732TIP3    H238154   7.270   2.571   5.429  0.5076 -0.2666 -1.4128
12733TIP3   OH238155   5.661   4.184   3.446 -0.4820 -0.5515 -0.4122
12733TIP3    H138156   5.591   4.138   3.492 -1.6391 -0.1774 -1.7293
12733TIP3    H238157   5.663   4.142   3.359  1.5292 -1.1415 -0.1334
12734TIP3   OH238158   7.971   0.455   5.543  0.4984  0.2202  0.1360
12734TIP3    H138159   7.946   0.498   5.461 -1.5445  1.1353  1.1656
12734TIP3    H238160   7.888   0.424   5.580  1.5375 -1.5330  1.1594
12735TIP3   OH238161   3.227   3.524   4.658 -0.2697 -0.2678  0.1227
12735TIP3    H138162   3.201   3.541   4.748 -0.8753 -0.3553 -0.0299
12735TIP3    H238163   3.161   3.463   4.625 -0.5087  0.3696 -0.6151
12736TIP3   OH238164   5.397   4.326   2.408 -0.1892 -0.6389 -0.1563
12736TIP3    H138165   5.473   4.336   2.465 -1.2988 -0.3871  1.3322
12736TIP3    H238166   5.412   4.389   2.337  1.2949 -1.0854 -0.2598
12737TIP3   OH238167   7.304   4.563   0.089 -0.1343  0.3511 -0.0878
12737TIP3    H138168   7.212   4.563   0.061 -0.6072  0.0126  1.4199
12737TIP3    H238169   7.353   4.576   0.007 -1.5634  2.1272 -0.7432
12738TIP3   OH238170   7.803   1.970   5.313  0.0743 -0.3440 -0.7307
12738TIP3    H138171   7.742   2.022   5.261  0.5315 -0.0840 -1.0135
12738TIP3    H238172   7.890   2.003   5.289  0.4627 -2.0685 -1.8533
12739TIP3   OH238173   5.151   6.495   2.133 -0.5468  0.0104 -0.7432
12739TIP3    H138174   5.201   6.485   2.052 -1.1109 -1.6422 -0.9295
12739TIP3    H238175   5.165   6.412   2.179 -1.2523  0.4457  0.2719
12740TIP3   OH238176   4.863   3.500   1.076  0.2273 -0.6067 -0.4862
12740TIP3    H138177   4.864   3.419   1.127 -2.5225 -0.0369  0.6756
12740TIP3    H238178   4.889   3.568   1.138  0.1980 -0.3231 -0.7806
12741TIP3   OH238179   0.289   2.633   1.704 -0.4105  0.7608 -0.7195
12741TIP3    H138180   0.246   2.596   1.627  0.2659  3.3752 -2.4937
12741TIP3    H238181   0.360   2.572   1.724 -0.5679  0.0441 -2.2179
12742TIP3   OH238182   5.436   6.577   3.811 -0.0594  0.0676  0.1381
12742TIP3    H138183   5.464   6.510   3.748  3.0180  1.4872 -0.1860
12742TIP3    H238184   5.482   6.555   3.892 -0.7415  0.5865  0.6783
12743TIP3   OH238185   1.906   0.192   2.018 -0.4160 -1.0200 -0.0717
12743TIP3    H138186   1.826   0.159   1.978 -0.2887  0.6988 -1.8871
12743TIP3    H238187   1.890   0.285   2.032  0.3944 -1.1175  1.8594
12744TIP3   OH238188   0.790   0.604   3.251  0.1852 -0.4772 -0.0943
12744TIP3    H138189   0.829   0.580   3.166  1.3234 -2.7919  0.9827
12744TIP3    H238190   0.859   0.650   3.297  0.1055 -0.5937  0.1428
12745TIP3   OH238191   7.215   2.702   1.338  0.5305  0.0979 -0.6270
12745TIP3    H138192   7.139   2.677   1.286 -2.5157  0.3483  3.2517
12745TIP3    H238193   7.290   2.663   1.292 -2.2236 -2.7310 -3.1485
12746TIP3   OH238194   6.168   2.044   2.166 -0.0682 -0.3800  0.2876
12746TIP3    H138195   6.258   2.032   2.136  1.0798  1.8803  2.4673
12746TIP3    H238196   6.154   2.139   2.164 -2.8913 -0.7184 -1.1384
12747TIP3   OH238197   2.948   0.778   4.541 -0.4784  0.0389  0.1587
12747TIP3    H138198   3.009   0.730   4.485 -1.3387  1.0893 -1.7579
12747TIP3    H238199   3.004   0.838   4.591  0.3167 -1.0156  0.5808
12748TIP3   OH238200   2.787   7.402   2.126  0.0434 -0.3686  0.2109
12748TIP3    H138201   2.878   7.431   2.118  1.2901 -3.6170  1.2195
12748TIP3    H238202   2.761   7.430   2.214  0.2039  0.1808  0.0892
12749TIP3   OH238203   1.175   2.378   2.615 -0.1619  0.2653 -0.0459
12749TIP3    H138204   1.194   2.384   2.708  0.8689  0.9283 -0.2704
12749TIP3    H238205   1.097   2.432   2.602 -2.1264 -2.1739  0.8453
12750TIP3   OH238206   6.691   7.606   5.523  0.4801 -0.5241 -0.1431
12750TIP3    H138207   6.785   7.611   5.536  0.6104 -0.2656 -1.1004
12750TIP3    H238208   6.672   7.675   5.460 -0.2249 -1.1294 -0.6081
12751TIP3   OH238209   3.505   0.641   5.594  0.1303 -1.1172  0.0328
12751TIP3    H138210   3.421   0.599   5.614 -0.8145 -0.3290 -1.9913
12751TIP3    H238211   3.492   0.732   5.620 -0.4399 -0.5193 -2.1530
12752TIP3   OH238212   3.540   6.032   6.658  0.0367  0.2018 -0.4961
12752TIP3    H138213   3.514   6.098   6.593  2.0891 -0.1786 -1.7892
12752TIP3    H238214   3.472   5.965   6.653 -0.9483  1.1685 -0.6914
12753TIP3   OH238215   3.732   1.011   0.716 -0.2347 -0.2741  0.0932
12753TIP3    H138216   3.713   1.097   0.678  0.2008 -0.2567 -0.0912
12753TIP3    H238217   3.646   0.968   0.721 -0.2372 -0.5109 -1.4762
12754TIP3   OH238218   7.804   2.064   2.337 -0.4187  0.6055 -0.6330
12754TIP3    H138219   7.729   2.092   2.284 -0.6461  0.4021 -0.4202
12754TIP3    H238220   7.790   1.970   2.350 -1.1774  0.9259  1.0870
12755TIP3   OH238221   0.303   2.212   0.813  0.2493 -0.1293  0.3670
12755TIP3    H138222   0.335   2.174   0.731 -0.7446 -1.4276  0.5493
12755TIP3    H238223   0.319   2.145   0.879 -1.5739 -0.2951  0.7046
12756TIP3   OH238224   7.517   0.296   2.432  0.1434 -0.0581 -0.1402
12756TIP3    H138225   7.491   0.347   2.509 -2.3007 -1.3158 -0.0064
12756TIP3    H238226   7.453   0.320   2.365  0.5420 -0.9967 -0.8859
12757TIP3   OH238227   3.055   0.578   1.676 -0.5078  0.2276  0.4117
12757TIP3    H138228   3.006   0.561   1.757 -1.1250 -0.2902 -0.0531
12757TIP3    H238229   3.078   0.671   1.680 -0.7038  0.2517  1.0861
12758TIP3   OH238230   1.200   3.223   5.039  0.6231  0.4788 -0.6642
12758TIP3    H138231   1.154   3.141   5.056  1.4029  0.3698  1.2379
12758TIP3    H238232   1.153   3.263   4.966  0.5805 -1.9172 -2.0542
12759TIP3   OH238233   4.060   6.463   1.744 -0.3562 -0.4540 -0.1913
12759TIP3    H138234   4.094   6.504   1.665  1.4571  1.3926  1.4204
12759TIP3    H238235   4.078   6.527   1.814  0.5768 -3.0660  2.1447
12760TIP3   OH238236   0.304   2.121   3.582 -0.3747 -0.2342  0.4538
12760TIP3    H138237   0.384   2.123   3.634 -0.9518 -4.6649  1.9275
12760TIP3    H238238   0.237   2.161   3.638  0.2581  1.2591  0.1953
12761TIP3   OH238239   6.417   2.898   6.555 -0.0191 -0.3113  0.4334
12761TIP3    H138240   6.454   2.870   6.639  0.8406  0.3822  0.3031
12761TIP3    H238241   6.325   2.871   6.559  0.2266 -1.0696  1.2310
12762TIP3   OH238242   5.902   6.676   5.754 -0.3987 -0.1002 -0.0365
12762TIP3    H138243   5.830   6.646   5.809  1.6127 -1.3470  2.1251
12762TIP3    H238244   5.913   6.607   5.688 -1.6179  0.4800 -0.8839
12763TIP3   OH238245   4.315   1.663   6.050  0.3800  0.1708 -0.1180
12763TIP3    H138246   4.232   1.619   6.068  1.1821 -1.0368  0.7919
12763TIP3    H238247   4.330   1.717   6.128 -0.6857  2.3007 -1.2939
12764TIP3   OH238248   6.347   1.645   3.895  0.1684 -0.4936 -0.1551
12764TIP3    H138249   6.405   1.719   3.913 -0.4958  0.2147 -0.8315
12764TIP3    H238250   6.406   1.571   3.883  0.9844  0.2726 -1.1363
12765TIP3   OH238251   0.105   7.535   3.504  0.4824 -0.7254 -0.7301
12765TIP3    H138252   0.081   7.623   3.478  3.1234  0.4940  0.4819
12765TIP3    H238253   0.166   7.505   3.436  0.9316 -0.8964 -0.2631
12766TIP3   OH238254   1.756   5.922   2.864  0.3422  0.1578 -0.7478
12766TIP3    H138255   1.751   5.828   2.882  1.4194  0.5902  2.4184
12766TIP3    H238256   1.838   5.933   2.817  2.7217 -0.1538  2.9142
12767TIP3   OH238257   1.773   6.940   4.988  0.0313 -0.3317 -0.1472
12767TIP3    H138258   1.702   7.000   4.969 -0.6437 -1.0637  0.0009
12767TIP3    H238259   1.835   6.952   4.916 -0.5865 -0.2120 -0.6684
12768TIP3   OH238260   7.457   7.492   0.688 -0.0946 -0.1979 -0.1247
12768TIP3    H138261   7.464   7.441   0.768  1.3659 -0.3694 -0.3249
12768TIP3    H238262   7.366   7.518   0.683 -0.8313 -2.4940  0.1757
12769TIP3   OH238263   7.671   6.084   0.357 -0.5116 -0.2701 -0.2489
12769TIP3    H138264   7.613   6.085   0.432  1.0394 -0.3183  1.0063
12769TIP3    H238265   7.687   5.991   0.340  1.9693 -0.3308  1.7476
12770TIP3   OH238266   2.435   0.982   2.499 -0.2136 -0.2447 -0.2007
12770TIP3    H138267   2.350   1.020   2.476 -0.4867 -2.1019 -2.7207
12770TIP3    H238268   2.415   0.914   2.563 -0.7101 -0.9272 -1.0672
12771TIP3   OH238269   1.118   0.192   6.612  0.8025 -0.5083  0.1347
12771TIP3    H138270   1.186   0.150   6.664  0.4047 -0.4750  0.6831
12771TIP3    H238271   1.165   0.232   6.539  1.0901 -2.8342 -1.0472
12772TIP3   OH238272   6.987   1.381   0.573 -0.6089  0.0213 -0.0121
12772TIP3    H138273   6.896   1.411   0.569 -1.7719 -3.2353 -0.8282
12772TIP3    H238274   6.981   1.286   0.574  2.8472 -0.4182 -2.5259
12773TIP3   OH238275   3.580   6.213   0.268 -0.3009 -0.4185  0.2225
12773TIP3    H138276   3.641   6.147   0.300 -3.1201 -2.6673  1.3924
12773TIP3    H238277   3.585   6.283   0.333 -0.6023 -1.6125  1.5837
12774TIP3   OH238278   2.161   2.995   6.554 -0.1463  0.0601 -0.2108
12774TIP3    H138279   2.194   2.937   6.623  0.3877  2.0131  1.2832
12774TIP3    H238280   2.206   3.078   6.570 -0.8977  0.9163 -2.2475
12775TIP3   OH238281   1.180   0.529   5.352  0.2544  0.3790 -0.2529
12775TIP3    H138282   1.229   0.608   5.374  1.2294 -0.4754  0.7648
12775TIP3    H238283   1.197   0.516   5.259  2.3683 -0.1125  0.1407
12776TIP3   OH238284   7.932   3.625   3.267 -0.0348 -0.7297 -0.1582
12776TIP3    H138285   7.880   3.700   3.239 -2.6254 -2.2664  0.2150
12776TIP3    H238286   7.983   3.658   3.341 -0.3141  0.9070 -0.6481
12777TIP3   OH238287   6.027   4.413   2.747  0.4875  0.5486 -0.0357
12777TIP3    H138288   6.097   4.474   2.767  1.1930 -0.2405 -0.0573
12777TIP3    H238289   6.060   4.360   2.674 -0.5850  0.9203 -0.8290
12778TIP3   OH238290   7.168   2.818   6.427  0.3411 -0.1739  0.1174
12778TIP3    H138291   7.197   2.765   6.502  0.8040 -0.3801 -0.1986
12778TIP3    H238292   7.216   2.781   6.353 -1.0877 -0.8243 -0.5091
12779TIP3   OH238293   5.234   7.737   1.649 -0.5220 -0.4903 -0.0948
12779TIP3    H138294   5.211   7.659   1.598  0.8373 -0.8001 -0.2944
12779TIP3    H238295   5.327   7.724   1.671 -0.6632  0.3868  1.1221
12780TIP3   OH238296   4.579   2.844   0.779 -0.0532 -0.2302  0.2055
12780TIP3    H138297   4.591   2.806   0.866 -0.3811  1.8794  1.2324
12780TIP3    H238298   4.583   2.939   0.794 -1.5013  0.2047 -1.8590
12781TIP3   OH238299   2.416   4.016   1.914  0.3939 -0.3295  0.2942
12781TIP3    H138300   2.496   4.014   1.967  0.3232 -0.4317  0.3963
12781TIP3    H238301   2.424   3.941   1.856 -1.0315 -2.2321  2.3514
12782TIP3   OH238302   4.945   6.102   2.012 -0.1427 -0.1578  0.1610
12782TIP3    H138303   4.880   6.154   2.059 -0.2151 -0.1836  0.0888
12782TIP3    H238304   5.029   6.129   2.050 -0.1014  0.6574 -0.4810
12783TIP3   OH238305   3.484   1.677   1.719  0.0421  0.9329 -0.5499
12783TIP3    H138306   3.572   1.670   1.755 -0.6574  0.2864  1.1649
12783TIP3    H238307   3.431   1.620   1.775 -1.8240  2.8336 -0.2823
12784TIP3   OH238308   0.093   0.395   6.512 -0.2502  0.7257  0.0724
12784TIP3    H138309   0.169   0.427   6.561  0.4055  0.1522 -0.5256
12784TIP3    H238310   0.077   0.463   6.446  1.3502 -0.2187 -1.4146
12785TIP3   OH238311   0.433   6.636   4.621 -0.1715  0.0301  0.4119
12785TIP3    H138312   0.461   6.704   4.682 -0.1316 -1.2783  1.9270
12785TIP3    H238313   0.514   6.603   4.582 -0.1646  0.5683 -0.0517
12786TIP3   OH238314   3.177   0.459   4.930 -0.7621  0.5723  0.2939
12786TIP3    H138315   3.215   0.522   4.990 -0.4965 -0.4946  1.2873
12786TIP3    H238316   3.252   0.419   4.886 -0.9958  2.5845 -2.1403
12787TIP3   OH238317   7.753   6.352   6.535  0.1575 -0.1153 -0.0581
12787TIP3    H138318   7.807   6.385   6.464 -0.3064  1.2138  0.1874
12787TIP3    H238319   7.805   6.369   6.614  0.0098 -0.1732  0.0523
12788TIP3   OH238320   8.030   6.579   4.452  0.2888 -0.1696  0.3073
12788TIP3    H138321   8.061   6.658   4.407  0.1422 -0.3183 -0.0571
12788TIP3    H238322   8.074   6.581   4.537 -0.3210  0.7254  0.6150
12789TIP3   OH238323   3.796   4.413   4.768  0.0828 -0.4477  0.1054
12789TIP3    H138324   3.764   4.334   4.724 -1.2494 -0.3276  0.7961
12789TIP3    H238325   3.812   4.475   4.698  1.7129 -1.4931 -0.5036
12790TIP3   OH238326   3.752   4.350   6.188 -0.4051 -0.3165  0.0955
12790TIP3    H138327   3.823   4.393   6.141 -0.8931 -0.7417 -1.0542
12790TIP3    H238328   3.674   4.400   6.164 -0.5033  0.2087  1.4287
12791TIP3   OH238329   3.796   0.074   2.430  0.5048 -0.1472 -0.2650
12791TIP3    H138330   3.812  -0.009   2.474  1.6335 -0.5355 -1.3275
12791TIP3    H238331   3.716   0.060   2.380  0.6928 -0.6247 -0.4443
12792TIP3   OH238332   7.365   0.764   1.198 -0.2501 -0.3338 -0.5908
12792TIP3    H138333   7.287   0.718   1.166 -0.4339 -1.0307  0.7670
12792TIP3    H238334   7.343   0.787   1.288  0.8569  0.0884 -0.4190
12793TIP3   OH238335   6.449   1.130   4.669  0.3418 -0.1516  0.2962
12793TIP3    H138336   6.420   1.043   4.644  0.5053  0.3233 -1.6724
12793TIP3    H238337   6.377   1.188   4.644  0.4193  0.3431  1.1704
12794TIP3   OH238338   4.245   1.653   0.798 -0.2369 -0.3531 -0.3336
12794TIP3    H138339   4.336   1.646   0.824 -0.7636 -0.7901  1.5539
12794TIP3    H238340   4.214   1.562   0.791 -0.8856 -0.2208  0.5391
12795TIP3   OH238341   6.418   0.579   1.399 -0.8210  0.1828  0.1417
12795TIP3    H138342   6.420   0.484   1.389  1.3488  0.3406 -1.8492
12795TIP3    H238343   6.336   0.606   1.357  0.3193 -0.5957 -2.8228
12796TIP3   OH238344   7.797   2.745   4.264  0.4198 -0.0800  0.3348
12796TIP3    H138345   7.874   2.708   4.307  1.9635 -0.0835 -2.2647
12796TIP3    H238346   7.800   2.712   4.175 -2.4393  0.2191  0.0304
12797TIP3   OH238347   4.708   3.463   5.712 -0.1106 -0.0712 -0.0657
12797TIP3    H138348   4.643   3.446   5.644 -1.0430 -0.5084  0.9062
12797TIP3    H238349   4.690   3.398   5.780  1.7105 -0.5663 -0.0012
12798TIP3   OH238350   0.350   0.208   5.539 -0.5670 -0.1302 -0.2800
12798TIP3    H138351   0.382   0.298   5.535 -0.4981 -0.1676 -0.5697
12798TIP3    H238352   0.294   0.200   5.462  0.7666 -0.8614 -1.2010
12799TIP3   OH238353   3.724   2.235   3.326  0.0205  0.3884  0.6278
12799TIP3    H138354   3.698   2.220   3.417  0.8486 -0.7098  0.7059
12799TIP3    H238355   3.707   2.151   3.282 -5.1092  2.1548 -1.5081
12800TIP3   OH238356   4.513   3.734   2.822 -0.5296  0.0982  0.4789
12800TIP3    H138357   4.608   3.719   2.814 -0.3853  1.6268 -1.2024
12800TIP3    H238358   4.475   3.646   2.823  0.8132 -0.5300 -0.3741
12801TIP3   OH238359   6.697   6.063   0.325  0.1574 -0.5775  0.5294
12801TIP3    H138360   6.752   6.045   0.249 -1.3316 -0.7838 -0.5400
12801TIP3    H238361   6.688   5.978   0.368  0.2286 -0.6484  0.4047
12802TIP3   OH238362   8.082   4.690   2.415  0.2130 -0.2665  0.5152
12802TIP3    H138363   8.049   4.699   2.326  1.4252  1.4347  0.1852
12802TIP3    H238364   8.006   4.704   2.471 -0.4189 -0.6303 -0.2258
12803TIP3   OH238365   6.289   3.237   0.478 -1.1645  0.1930  0.3286
12803TIP3    H138366   6.289   3.278   0.391 -1.2195  2.9612  1.5437
12803TIP3    H238367   6.381   3.215   0.493 -0.7049  2.0996  0.5628
12804TIP3   OH238368   0.826   3.924   6.270 -0.1289  0.4509 -0.0568
12804TIP3    H138369   0.907   3.932   6.321  0.0818  1.0183 -0.4773
12804TIP3    H238370   0.855   3.891   6.185 -0.5773 -1.3845  0.4579
12805TIP3   OH238371   4.363   5.677   2.494 -0.0613  0.5576 -0.4542
12805TIP3    H138372   4.339   5.758   2.450  0.7498  0.6653 -0.7221
12805TIP3    H238373   4.415   5.629   2.428 -0.3287 -0.0680 -0.2189
12806TIP3   OH238374   4.234   3.616   3.729  0.5673 -0.2168  0.2525
12806TIP3    H138375   4.168   3.643   3.793 -0.8530 -1.6969 -0.5125
12806TIP3    H238376   4.184   3.567   3.663  2.2055 -0.0021 -1.2054
12807TIP3   OH238377   4.731   6.394   3.855  0.1126 -0.7038 -0.5244
12807TIP3    H138378   4.755   6.477   3.814  0.0885 -0.4695 -0.0645
12807TIP3    H238379   4.813   6.362   3.893  0.0688 -0.7716 -0.4877
12808TIP3   OH238380   6.464   5.409   1.330  0.3914 -0.1167 -0.3687
12808TIP3    H138381   6.540   5.387   1.276 -1.0223 -0.5733 -2.2690
12808TIP3    H238382   6.490   5.384   1.419  1.4772 -2.9914 -1.3568
12809TIP3   OH238383   6.613   3.180   4.116  0.3464 -0.3677  0.0441
12809TIP3    H138384   6.526   3.170   4.155  0.0926 -0.5156 -0.5545
12809TIP3    H238385   6.633   3.094   4.079  0.7532 -0.3356  0.1758
12810TIP3   OH238386   0.645   5.114   3.277 -0.2434 -0.1826 -0.0587
12810TIP3    H138387   0.574   5.051   3.289  0.5318 -1.4576 -1.7272
12810TIP3    H238388   0.695   5.110   3.358 -1.1676 -0.4330  0.5120
12811TIP3   OH238389   0.990   3.566   4.831  0.9946 -0.6288 -0.1830
12811TIP3    H138390   0.937   3.489   4.848  0.5030 -0.1615  0.4451
12811TIP3    H238391   1.081   3.536   4.838  0.8226 -0.8605  1.4761
12812TIP3   OH238392   4.915   0.402   2.262  0.1925 -0.0625 -0.3849
12812TIP3    H138393   4.991   0.454   2.238  1.9847 -2.3149 -0.0002
12812TIP3    H238394   4.889   0.357   2.181 -0.4101  0.2697 -0.3865
12813TIP3   OH238395   8.029   6.569   0.989  0.5478 -0.5195  0.4840
12813TIP3    H138396   7.988   6.487   1.015 -2.7286  0.2414 -1.6755
12813TIP3    H238397   8.054   6.556   0.898  2.0744  0.2178  0.7594
12814TIP3   OH238398   8.028   6.626   2.496  0.0666  0.5354 -0.1936
12814TIP3    H138399   7.990   6.550   2.539  0.3290 -0.1428 -1.1335
12814TIP3    H238400   8.041   6.690   2.567  1.1075 -0.7827  0.8561
12815TIP3   OH238401   5.383   4.315   3.160  0.2465 -0.1159 -0.0101
12815TIP3    H138402   5.456   4.374   3.178  0.2187  0.4480 -1.5969
12815TIP3    H238403   5.307   4.372   3.153  0.0484 -0.4446 -0.5786
12816TIP3   OH238404   3.686   6.195   5.817 -0.1498  0.6651  0.5782
12816TIP3    H138405   3.652   6.168   5.731 -0.8005  0.7502  0.8045
12816TIP3    H238406   3.756   6.133   5.835  0.0073  0.6636 -0.0305
12817TIP3   OH238407   0.790   0.402   5.783 -0.2972  0.2424  0.9515
12817TIP3    H138408   0.863   0.443   5.736 -0.0313  1.7173  2.5556
12817TIP3    H238409   0.750   0.343   5.719  2.0534 -0.3239 -0.0789
12818TIP3   OH238410   2.694   4.129   3.091 -1.3721  0.6345 -0.2422
12818TIP3    H138411   2.602   4.157   3.093 -1.4653  0.2765  0.7670
12818TIP3    H238412   2.744   4.210   3.093 -1.6584  0.8002  0.2331
12819TIP3   OH238413   4.105   7.174   5.101 -0.0560 -0.0896 -0.2995
12819TIP3    H138414   4.038   7.117   5.138  0.7865 -0.8246  0.1286
12819TIP3    H238415   4.064   7.211   5.023 -0.8679 -0.7294 -0.1925
12820TIP3   OH238416   4.092   0.901   4.471  0.4075 -0.1720  0.4483
12820TIP3    H138417   4.089   0.835   4.401  2.1276  0.3714 -0.1974
12820TIP3    H238418   4.066   0.854   4.550  1.4005 -1.5916 -0.0307
12821TIP3   OH238419   0.623   3.367   5.515 -0.4534  0.0264  0.1987
12821TIP3    H138420   0.585   3.359   5.602 -1.8474 -1.0436 -0.4730
12821TIP3    H238421   0.716   3.384   5.531 -0.8325  0.7185  1.8800
12822TIP3   OH238422   4.585   2.910   5.499 -0.4254  0.1091 -0.1799
12822TIP3    H138423   4.596   2.930   5.406 -0.9163 -0.0329 -0.2696
12822TIP3    H238424   4.631   2.981   5.544  1.2780 -0.7203 -0.5309
12823TIP3   OH238425   4.598   2.033   1.806 -0.2998  0.0976 -0.1658
12823TIP3    H138426   4.620   1.946   1.775  1.4889  0.2252  0.6216
12823TIP3    H238427   4.672   2.058   1.862 -2.2812  0.8126  2.2868
12824TIP3   OH238428   8.072   0.609   3.419  0.6894 -0.2584 -0.1974
12824TIP3    H138429   8.098   0.518   3.429  0.0798 -0.5800 -1.3430
12824TIP3    H238430   7.993   0.618   3.472  0.7601 -0.3926 -0.0693
12825TIP3   OH238431   4.724   3.930   2.981  0.5293 -0.0593  0.3723
12825TIP3    H138432   4.687   3.934   3.069  1.1142  0.1153  0.6163
12825TIP3    H238433   4.650   3.909   2.924  0.4654 -2.2442  1.1353
12826TIP3   OH238434   0.600   5.720   5.839  0.0303  0.4064 -0.0135
12826TIP3    H138435   0.581   5.626   5.834 -0.6414  0.4856  0.9615
12826TIP3    H238436   0.683   5.729   5.792  0.1123 -0.6753 -0.1162
12827TIP3   OH238437   8.262   3.645   0.880  0.1838  0.1382  0.3828
12827TIP3    H138438   8.345   3.605   0.854  0.6849  1.2591  0.1838
12827TIP3    H238439   8.258   3.631   0.974 -0.3234 -1.5589  0.1398
12828TIP3   OH238440   8.235   2.701   3.339  0.0826 -0.4715 -0.1256
12828TIP3    H138441   8.147   2.664   3.331 -0.3877  0.6972 -0.6671
12828TIP3    H238442   8.230   2.757   3.416  0.5617 -0.9413  0.2492
12829TIP3   OH238443   6.576   6.318   0.111 -0.0690 -0.1546 -0.1200
12829TIP3    H138444   6.503   6.256   0.118 -1.3102  1.2435 -0.0102
12829TIP3    H238445   6.609   6.325   0.201 -0.5067 -0.0093  0.0355
12830TIP3   OH238446   1.559   7.023   2.050  0.5673  0.1890 -0.7859
12830TIP3    H138447   1.464   7.014   2.048  0.5549 -1.2346  1.3805
12830TIP3    H238448   1.590   6.935   2.073  1.9892  1.5738  3.5656
12831TIP3   OH238449   8.000   4.739   4.862  0.0553 -0.6826  0.2334
12831TIP3    H138450   8.058   4.812   4.880 -0.4549  0.6519 -2.8984
12831TIP3    H238451   8.058   4.662   4.861  1.0138 -0.0002  1.2157
12832TIP3   OH238452   6.035   6.550   0.357 -0.3296 -0.3507 -0.0126
12832TIP3    H138453   6.065   6.599   0.433  0.9140 -0.5373 -0.3709
12832TIP3    H238454   5.995   6.616   0.300  3.1785  0.7329 -1.4569
12833TIP3   OH238455   3.633   7.633   5.999  0.1633 -0.4945  0.8374
12833TIP3    H138456   3.594   7.641   6.087 -2.4852 -1.8376 -0.0839
12833TIP3    H238457   3.646   7.724   5.970 -0.4806 -0.0090  1.9886
12834TIP3   OH238458   2.479   0.210   6.732  0.3672  0.0641 -0.2585
12834TIP3    H138459   2.443   0.270   6.797  0.7443 -0.4651  0.4501
12834TIP3    H238460   2.421   0.219   6.656 -1.5411 -1.0855  0.9825
12835TIP3   OH238461   4.540   1.837   3.493  0.3867  0.1829 -0.2474
12835TIP3    H138462   4.616   1.861   3.440  1.2822  0.1179  0.9808
12835TIP3    H238463   4.482   1.913   3.487  1.3812  1.0124  0.2964
12836TIP3   OH238464   4.940   3.602   0.636  0.0012 -0.1803  0.3706
12836TIP3    H138465   4.941   3.520   0.585  1.1024 -0.3186  0.5986
12836TIP3    H238466   5.000   3.586   0.709  0.4179  0.9184  0.2831
12837TIP3   OH238467   2.395   3.374   5.328  0.0549 -0.6521 -0.6152
12837TIP3    H138468   2.365   3.289   5.295 -0.0379 -1.1773  0.7319
12837TIP3    H238469   2.428   3.354   5.416 -1.3078  0.9408  0.3194
12838TIP3   OH238470   6.323   2.954   1.859  0.2265 -0.1352  0.4464
12838TIP3    H138471   6.261   2.898   1.813 -1.9822  0.1200  2.8805
12838TIP3    H238472   6.303   3.043   1.828  2.1722 -0.3639 -1.7003
12839TIP3   OH238473   4.063   1.659   2.498  0.1909 -0.5047 -0.4169
12839TIP3    H138474   3.975   1.639   2.465  0.9008 -0.8192 -2.2750
12839TIP3    H238475   4.050   1.685   2.589 -1.8874  0.0318 -0.8223
12840TIP3   OH238476   2.387   0.910   6.672  0.3783 -0.4839 -0.1749
12840TIP3    H138477   2.372   0.866   6.757  1.2332  0.2769  0.3856
12840TIP3    H238478   2.478   0.938   6.676  0.1495  0.3975 -0.9666
12841TIP3   OH238479   3.069   1.711   0.172 -0.0585  0.3002 -0.3820
12841TIP3    H138480   3.059   1.663   0.254  0.0023 -0.1933 -0.6569
12841TIP3    H238481   3.160   1.740   0.171  0.5143 -1.3632 -1.1461
12842TIP3   OH238482   2.203   4.134   3.309  0.6408 -0.3507 -0.3648
12842TIP3    H138483   2.211   4.072   3.381  1.3850  1.1438  0.8946
12842TIP3    H238484   2.292   4.144   3.276  0.6522  0.5081 -0.1168
12843TIP3   OH238485   5.279   2.646   4.818  0.5363  0.1127 -0.2450
12843TIP3    H138486   5.307   2.555   4.822 -0.1181 -0.0809  0.0834
12843TIP3    H238487   5.320   2.687   4.895 -0.6886 -0.3519  0.6809
12844TIP3   OH238488   0.125   7.701   0.309  0.3878 -0.7249 -0.1644
12844TIP3    H138489   0.061   7.647   0.355 -0.6703  0.2457 -0.4707
12844TIP3    H238490   0.107   7.685   0.216 -1.7849  2.1394 -0.3668
12845TIP3   OH238491   7.879   6.202   6.768 -0.1372 -0.1707  0.1958
12845TIP3    H138492   7.861   6.123   6.819 -0.5122  1.4546  2.7225
12845TIP3    H238493   7.974   6.204   6.760 -0.0404 -0.2264  1.2265
12846TIP3   OH238494   7.758   7.572   3.826  0.1866 -0.0847  0.5865
12846TIP3    H138495   7.717   7.515   3.761 -0.8828  0.1813  1.0054
12846TIP3    H238496   7.841   7.530   3.846 -0.4396 -1.3368  0.6528
12847TIP3   OH238497   8.269   1.273   2.984  0.2382 -0.0748  0.4067
12847TIP3    H138498   8.230   1.238   3.064 -0.3158 -0.3112  0.0420
12847TIP3    H238499   8.357   1.302   3.010 -0.2241  0.5874  1.2723
12848TIP3   OH238500   6.073   6.943   5.657  0.3595 -0.1210 -0.5526
12848TIP3    H138501   6.147   6.996   5.628  0.5158 -0.4429 -0.7474
12848TIP3    H238502   6.037   6.905   5.577 -1.6437  2.0720 -0.8154
12849TIP3   OH238503   5.822   5.721   3.140  0.2316 -0.3515  0.0462
12849TIP3    H138504   5.806   5.743   3.048  2.0230 -0.4834 -0.3370
12849TIP3    H238505   5.841   5.627   3.140 -1.3261 -0.6942  0.8050
12850TIP3   OH238506   3.501   7.113   6.476 -0.3325 -0.3480 -0.5495
12850TIP3    H138507   3.491   7.165   6.556 -1.3321 -2.3063  0.6855
12850TIP3    H238508   3.591   7.080   6.480 -0.4490 -0.6270 -0.0850
12851TIP3   OH238509   2.243   3.832   6.524  0.2803 -0.5271 -0.0564
12851TIP3    H138510   2.237   3.878   6.608  0.0273 -2.1778  0.8571
12851TIP3    H238511   2.212   3.744   6.542  1.6702 -1.3767 -1.5389
12852TIP3   OH238512   6.880   6.040   2.318  0.0134  0.3947  0.3371
12852TIP3    H138513   6.868   5.962   2.371  2.5357  0.1282  0.6295
12852TIP3    H238514   6.826   6.025   2.241  0.5206 -1.6988  0.3358
12853TIP3   OH238515   5.380   2.101   4.824 -0.4465 -0.8287  0.1124
12853TIP3    H138516   5.449   2.164   4.843 -0.4824 -0.3100 -1.3178
12853TIP3    H238517   5.368   2.052   4.905  1.6672 -0.9942  0.3726
12854TIP3   OH238518   1.143   1.325   1.985 -0.0840  0.2362 -0.0692
12854TIP3    H138519   1.116   1.300   2.073 -3.7934 -1.0015 -1.3706
12854TIP3    H238520   1.113   1.416   1.976  0.0752  0.2822 -0.1317
12855TIP3   OH238521   2.259   6.710   5.865 -0.8141  0.7392 -0.1983
12855TIP3    H138522   2.303   6.786   5.827 -0.8033  0.5389 -0.5958
12855TIP3    H238523   2.330   6.650   5.888 -0.8962  0.0100 -1.7121
12856TIP3   OH238524   7.899   7.208   3.408 -0.2442  0.2871  0.2861
12856TIP3    H138525   7.827   7.211   3.471 -1.7005 -1.1357 -1.1766
12856TIP3    H238526   7.935   7.120   3.418  1.3792  1.0018  1.0263
12857TIP3   OH238527   5.301   7.626   2.807  0.5341  0.1340 -0.1907
12857TIP3    H138528   5.316   7.534   2.828  1.0950 -0.3195 -2.3258
12857TIP3    H238529   5.284   7.668   2.892  0.6133 -1.8527  0.8586
12858TIP3   OH238530   1.506   4.055   0.726  0.1972 -0.2782  0.0037
12858TIP3    H138531   1.513   4.089   0.816 -1.7975 -1.5708  0.7300
12858TIP3    H238532   1.533   3.963   0.734 -1.7372 -0.9066 -0.2979
12859TIP3   OH238533   5.283   6.800   2.782  0.1155  0.2362 -0.9806
12859TIP3    H138534   5.349   6.765   2.842  0.1826 -0.9758 -1.7490
12859TIP3    H238535   5.202   6.798   2.833  0.6911  2.1396  0.1248
12860TIP3   OH238536   5.401   3.596   4.900  0.2296  0.1515 -0.0077
12860TIP3    H138537   5.328   3.624   4.844 -0.9835  0.2532  1.5641
12860TIP3    H238538   5.444   3.678   4.924  1.0028  0.0803 -1.0675
12861TIP3   OH238539   5.143   5.618   3.026  0.0803 -0.0059  0.5038
12861TIP3    H138540   5.129   5.551   3.093  1.8618 -0.2232  0.6971
12861TIP3    H238541   5.112   5.579   2.945  1.0795 -1.0813  0.6221
12862TIP3   OH238542   7.125   6.145   1.804  0.0181  0.1070  0.1253
12862TIP3    H138543   7.187   6.120   1.736  0.0138 -0.1025  0.2007
12862TIP3    H238544   7.160   6.228   1.839 -0.0069  0.2416 -0.1651
12863TIP3   OH238545   5.958   5.386   5.605 -0.4759  0.7433  0.1674
12863TIP3    H138546   5.951   5.323   5.676 -1.2751  1.1341  0.4417
12863TIP3    H238547   5.890   5.359   5.542 -0.4898  1.0374  0.0565
12864TIP3   OH238548   1.381   2.156   5.138 -0.4114  0.5562 -0.0068
12864TIP3    H138549   1.292   2.150   5.173 -1.2603 -1.1264 -2.1871
12864TIP3    H238550   1.373   2.215   5.062 -0.1052 -0.9322 -1.2518
12865TIP3   OH238551   4.139   5.936   0.463  0.0502 -0.4045  0.5779
12865TIP3    H138552   4.129   5.916   0.370  1.1701 -1.7218  0.7117
12865TIP3    H238553   4.152   6.031   0.465  2.3507 -0.5914 -0.8733
12866TIP3   OH238554   0.676   5.928   4.198  0.0656 -0.4005 -0.2350
12866TIP3    H138555   0.649   5.952   4.287 -0.3108 -0.1892 -0.3999
12866TIP3    H238556   0.741   5.993   4.174  0.2991 -0.5645 -0.0474
12867TIP3   OH238557   2.042   4.869   4.819 -0.3797  0.2987 -0.0679
12867TIP3    H138558   1.958   4.884   4.862 -0.0115 -0.6843  1.0913
12867TIP3    H238559   2.079   4.794   4.867  2.0591  1.9646  0.8352
12868TIP3   OH238560   7.084   0.170   3.263  0.7297 -0.5273 -0.0331
12868TIP3    H138561   7.117   0.081   3.253  1.7451 -0.1837  0.0338
12868TIP3    H238562   7.138   0.222   3.202 -0.4075 -0.0802 -0.6999
12869TIP3   OH238563   2.178   6.244   3.456 -0.4530  0.3483 -0.4021
12869TIP3    H138564   2.178   6.164   3.404  0.3777  0.4461 -0.5656
12869TIP3    H238565   2.237   6.303   3.409  0.3668  0.4150  0.6579
12870TIP3   OH238566   1.122   2.191   6.270 -0.1339 -0.5763  0.1537
12870TIP3    H138567   1.043   2.167   6.318 -0.8663  1.4072  0.0267
12870TIP3    H238568   1.158   2.107   6.240 -1.0805 -1.6826  1.8847
12871TIP3   OH238569   6.759   3.930   5.460  0.1569  0.1331  0.1276
12871TIP3    H138570   6.702   3.947   5.385  2.7221 -1.0409 -2.2394
12871TIP3    H238571   6.767   3.834   5.462  2.3713  0.2811  0.0574
12872TIP3   OH238572   3.077   1.905   3.954 -0.1197  0.1993  0.3942
12872TIP3    H138573   3.015   1.881   4.023 -1.6058  0.5847 -0.7478
12872TIP3    H238574   3.022   1.932   3.880  1.4096 -0.1189 -0.9333
12873TIP3   OH238575   5.335   7.276   0.771 -0.2232 -0.8242 -0.2305
12873TIP3    H138576   5.398   7.220   0.725 -0.4934 -2.2390  1.0577
12873TIP3    H238577   5.390   7.333   0.825  0.0209 -0.3719 -0.9370
12874TIP3   OH238578   5.022   0.923   0.895 -0.1883 -0.2435 -0.5187
12874TIP3    H138579   4.927   0.923   0.885 -0.3872 -2.1486  0.8815
12874TIP3    H238580   5.038   0.979   0.971 -0.6914 -3.5571  2.2209
12875TIP3   OH238581   5.591   7.050   3.868 -0.3018  0.2069 -0.2701
12875TIP3    H138582   5.611   7.079   3.957 -1.2186 -0.8290  0.2982
12875TIP3    H238583   5.618   6.958   3.867 -0.2394  0.2312 -1.0908
12876TIP3   OH238584   5.933   2.864   5.524 -0.4055 -0.1686  0.1623
12876TIP3    H138585   5.972   2.945   5.557 -1.9814  0.9766 -0.6643
12876TIP3    H238586   5.871   2.838   5.591 -0.7241 -0.0493 -0.0835
12877TIP3   OH238587   8.169   1.488   4.763  0.2362  0.0928 -0.0966
12877TIP3    H138588   8.236   1.427   4.731 -0.0237 -0.1925 -0.1035
12877TIP3    H238589   8.119   1.510   4.685  0.9690  1.1414 -0.2931
12878TIP3   OH238590   7.001   0.732   5.502 -0.0582 -0.0254 -0.4098
12878TIP3    H138591   6.957   0.817   5.499  0.9947  0.5897  0.6231
12878TIP3    H238592   6.981   0.697   5.589 -1.2335 -1.2789 -1.1522
12879TIP3   OH238593   0.160   4.838   2.385  0.6964 -0.4649 -0.4338
12879TIP3    H138594   0.255   4.837   2.386  0.7174  0.4826  0.3512
12879TIP3    H238595   0.135   4.754   2.346  1.8214 -1.7054  1.3483
12880TIP3   OH238596   2.204   3.308   2.853 -0.8289 -0.4608  0.3030
12880TIP3    H138597   2.214   3.308   2.757 -1.0579  0.9695  0.2633
12880TIP3    H238598   2.142   3.237   2.870 -2.9519  0.9845 -0.8910
12881TIP3   OH238599   5.252   4.247   5.973  0.4528 -0.8796  0.1898
12881TIP3    H138600   5.323   4.286   6.024  0.9472 -1.2700 -0.1945
12881TIP3    H238601   5.220   4.175   6.028 -0.1193 -0.2730  0.6715
12882TIP3   OH238602   1.117   6.247   0.687  0.0632 -0.1719 -0.0303
12882TIP3    H138603   1.187   6.224   0.626 -0.3846 -0.3476 -0.4874
12882TIP3    H238604   1.057   6.172   0.684 -0.8911  0.5827 -0.7554
12883TIP3   OH238605   7.206   4.280   5.626 -0.4007  0.5116  0.0514
12883TIP3    H138606   7.121   4.237   5.612 -0.0129 -0.1604 -0.3147
12883TIP3    H238607   7.235   4.303   5.537 -0.2514  0.8441  0.1861
12884TIP3   OH238608   6.306   6.489   6.619 -0.1390 -0.5230 -0.0075
12884TIP3    H138609   6.240   6.508   6.686  0.4385  0.2415  0.3648
12884TIP3    H238610   6.337   6.401   6.640  1.1207  0.2673  1.6982
12885TIP3   OH238611   7.437   4.074   4.362  0.4730 -0.3350  0.0766
12885TIP3    H138612   7.430   4.023   4.281  0.8944 -2.2448  1.1893
12885TIP3    H238613   7.528   4.104   4.363  0.4625 -0.2954 -0.1804
12886TIP3   OH238614   6.918   1.301   3.619  0.7178  0.0622  0.1414
12886TIP3    H138615   6.825   1.309   3.637  1.0674  1.9327  1.3372
12886TIP3    H238616   6.960   1.362   3.679  2.5519  0.8686 -1.8258
12887TIP3   OH238617   6.125   4.391   4.322  0.3498 -0.5156 -0.3041
12887TIP3    H138618   6.106   4.460   4.385  0.5691 -1.0069  0.3116
12887TIP3    H238619   6.217   4.405   4.298  0.4855 -0.7668  0.0527
12888TIP3   OH238620   5.976   4.832   2.989  0.4052  0.2038  0.2795
12888TIP3    H138621   5.887   4.863   2.975  0.4375  0.8458  1.3859
12888TIP3    H238622   5.968   4.772   3.064  0.7146 -0.6815 -0.3844
12889TIP3   OH238623   3.519   0.435   4.351  0.0650 -0.2809 -0.0485
12889TIP3    H138624   3.428   0.418   4.325 -0.4066  1.3714  0.4204
12889TIP3    H238625   3.567   0.440   4.268 -0.3496 -0.6704 -0.3159
12890TIP3   OH238626   2.713   3.524   5.558  0.5322 -0.3343 -0.0570
12890TIP3    H138627   2.757   3.442   5.537 -1.5824 -1.4198 -0.4492
12890TIP3    H238628   2.636   3.498   5.608  1.1932  1.6280  2.1789
12891TIP3   OH238629   5.335   2.726   1.996  0.3137 -0.6341 -0.3878
12891TIP3    H138630   5.267   2.775   2.042  1.2859 -0.5490  1.0106
12891TIP3    H238631   5.413   2.734   2.051  0.4983 -3.8668  0.0394
12892TIP3   OH238632   7.026   7.142   5.552  0.1178 -0.4648 -0.0316
12892TIP3    H138633   7.051   7.141   5.644 -1.5205 -1.0786  0.4451
12892TIP3    H238634   6.981   7.226   5.540 -2.1634 -1.5369  0.4979
12893TIP3   OH238635   6.684   7.299   6.753  0.0318 -0.2566  0.3357
12893TIP3    H138636   6.738   7.281   6.830  1.0636  1.0796 -0.0365
12893TIP3    H238637   6.598   7.263   6.775  0.7342 -1.3366  1.4435
12894TIP3   OH238638   7.419   4.715   0.466 -0.1538  0.1869  0.1130
12894TIP3    H138639   7.477   4.764   0.408  2.2022 -0.8353  1.4930
12894TIP3    H238640   7.333   4.756   0.454  0.6246  1.2327 -2.6223
12895TIP3   OH238641   4.481   6.080   5.656  0.4318 -0.4798  0.1173
12895TIP3    H138642   4.508   6.101   5.566 -0.3410 -0.2320 -0.0626
12895TIP3    H238643   4.460   6.165   5.694 -1.6867 -0.7769 -0.2721
12896TIP3   OH238644   3.750   1.880   4.017 -0.0658  0.3725  0.0450
12896TIP3    H138645   3.793   1.913   4.096  0.8769 -3.0043  1.1187
12896TIP3    H238646   3.667   1.843   4.047 -0.1466 -0.0781 -0.6935
12897TIP3   OH238647   2.159   1.737   3.364  0.3156  0.9238  0.4455
12897TIP3    H138648   2.102   1.812   3.346 -0.5808  0.1571  0.0384
12897TIP3    H238649   2.187   1.750   3.455 -0.8041  1.1285  0.7815
12898TIP3   OH238650   1.798   4.176   4.281  0.2186  0.3245  0.8674
12898TIP3    H138651   1.866   4.128   4.234 -0.4956 -0.6700  0.8185
12898TIP3    H238652   1.794   4.261   4.237  1.5849  0.4891  1.0290
12899TIP3   OH238653   1.778   4.574   0.483 -0.0724 -0.0543  0.3235
12899TIP3    H138654   1.871   4.552   0.486  0.4538  1.4790 -1.9327
12899TIP3    H238655   1.760   4.588   0.390 -2.9027 -1.5214  0.5441
12900TIP3   OH238656   4.554   2.040   6.490 -0.2478  0.1316 -0.4894
12900TIP3    H138657   4.578   2.129   6.515  1.0385 -0.2998 -0.0996
12900TIP3    H238658   4.532   1.996   6.572 -0.4153 -0.0449 -0.6262
12901TIP3   OH238659   5.647   7.560   0.454 -0.5429  0.7101  0.5612
12901TIP3    H138660   5.654   7.637   0.398 -1.7590  1.5021  1.4303
12901TIP3    H238661   5.552   7.546   0.462 -0.3516 -0.2440  1.2500
12902TIP3   OH238662   7.262   3.408   1.528  0.3153 -0.5584 -0.1396
12902TIP3    H138663   7.276   3.421   1.434  0.6181 -0.5186 -0.0903
12902TIP3    H238664   7.229   3.318   1.535 -0.3681 -0.3271 -0.3449
12903TIP3   OH238665   8.102   2.467   2.517  0.2350 -0.7741  0.0501
12903TIP3    H138666   8.085   2.560   2.497  0.2550 -1.1692 -1.9945
12903TIP3    H238667   8.047   2.449   2.594  0.4711  0.9890  0.6906
12904TIP3   OH238668   6.561   3.512   3.588 -0.0055 -0.0263  0.0154
12904TIP3    H138669   6.598   3.457   3.658 -0.3726 -0.0402  0.1983
12904TIP3    H238670   6.581   3.601   3.615  1.8535 -0.0781 -0.9702
12905TIP3   OH238671   3.326   1.399   4.080 -0.1427 -0.7767 -0.6506
12905TIP3    H138672   3.382   1.406   4.003  2.2768 -1.9626  0.8865
12905TIP3    H238673   3.247   1.356   4.048  0.4765 -0.5725 -2.5883
12906TIP3   OH238674   6.886   3.808   0.771  0.9592  0.5250  0.7243
12906TIP3    H138675   6.861   3.745   0.839 -0.3755 -1.6252 -1.5947
12906TIP3    H238676   6.948   3.760   0.716 -0.1402  1.1540 -1.1429
12907TIP3   OH238677   0.549   7.165   3.489 -0.2455  0.2240 -0.1621
12907TIP3    H138678   0.467   7.200   3.453 -1.5360  0.9431  3.0577
12907TIP3    H238679   0.578   7.232   3.551  2.0084 -0.6916 -0.1378
12908TIP3   OH238680   2.572   5.355   4.593 -0.6314  0.8203 -0.1611
12908TIP3    H138681   2.650   5.310   4.627 -0.7998  1.2994  0.9058
12908TIP3    H238682   2.543   5.300   4.520  1.1070  0.9976 -1.0492
12909TIP3   OH238683   6.620   3.753   1.097 -0.3392  0.0015 -0.3562
12909TIP3    H138684   6.530   3.786   1.100 -0.8790 -1.4505  0.7232
12909TIP3    H238685   6.661   3.791   1.175 -1.3335 -2.6754  1.6307
12910TIP3   OH238686   1.221   6.625   0.976  0.6915  0.3674 -0.1422
12910TIP3    H138687   1.241   6.608   0.884 -0.4080  1.4062 -0.6005
12910TIP3    H238688   1.128   6.604   0.985  0.9208 -0.2827  0.8893
12911TIP3   OH238689   7.893   4.720   1.130 -0.5181  0.1172 -0.0148
12911TIP3    H138690   7.878   4.638   1.085  0.2100 -0.1224  0.1695
12911TIP3    H238691   7.975   4.707   1.177 -0.3427  0.9827 -0.0675
12912TIP3   OH238692   3.479   7.244   2.131 -0.0439 -0.2438  0.0134
12912TIP3    H138693   3.508   7.257   2.041  0.3357  1.0508  0.3027
12912TIP3    H238694   3.461   7.332   2.163 -2.3794 -0.8345  0.5043
12913TIP3   OH238695   7.139   6.123   5.833 -0.3373 -0.2646  0.1055
12913TIP3    H138696   7.103   6.062   5.768 -1.1589  0.2831  0.0349
12913TIP3    H238697   7.177   6.066   5.901  0.4053 -0.8400 -0.7694
12914TIP3   OH238698   6.374   3.860   1.206  0.0865 -0.7288  0.2425
12914TIP3    H138699   6.388   3.801   1.279  0.9085  1.3954  1.8986
12914TIP3    H238700   6.313   3.926   1.240  1.0011  0.6748 -0.7305
12915TIP3   OH238701   3.578   0.889   0.367 -0.3436 -0.1254 -0.7019
12915TIP3    H138702   3.580   0.963   0.306  1.2442 -0.6399 -1.3140
12915TIP3    H238703   3.666   0.853   0.364  0.1347  0.4161  2.6507
12916TIP3   OH238704   6.428   2.161   0.192  0.0883  0.1660 -0.5562
12916TIP3    H138705   6.432   2.229   0.125  1.2025  0.1842 -0.4760
12916TIP3    H238706   6.481   2.090   0.158  0.8655  0.2701  0.4075
12917TIP3   OH238707   7.588   4.294   2.985  0.0153  0.1824 -0.7543
12917TIP3    H138708   7.586   4.382   3.023  1.9488  0.3849 -1.0084
12917TIP3    H238709   7.547   4.238   3.051 -0.8968  1.2060 -0.4284
12918TIP3   OH238710   7.156   6.026   2.323  0.5835 -0.0469  0.0298
12918TIP3    H138711   7.061   6.034   2.338  0.7183 -0.1802  1.0509
12918TIP3    H238712   7.179   5.942   2.363  0.9401 -0.5905 -1.2874
12919TIP3   OH238713   0.988   5.453   0.215 -0.1812 -0.5258 -0.3461
12919TIP3    H138714   0.966   5.523   0.153  1.9851  0.2874 -0.2649
12919TIP3    H238715   0.908   5.442   0.267 -0.0764  3.2979  0.9538
12920TIP3   OH238716   5.421   7.785   3.394  0.3639 -0.4116 -0.1792
12920TIP3    H138717   5.336   7.740   3.394  0.1537 -0.0202 -0.5623
12920TIP3    H238718   5.483   7.719   3.426  0.1137 -1.0779 -1.0160
12921TIP3   OH238719   0.285   2.921   3.306  0.0985  0.1240 -0.0709
12921TIP3    H138720   0.304   2.836   3.346  1.4330 -0.5887 -2.0996
12921TIP3    H238721   0.236   2.900   3.227  1.7909  1.0938 -1.4313
12922TIP3   OH238722   6.732   4.739   0.268  0.0954 -0.2762 -0.6782
12922TIP3    H138723   6.662   4.679   0.296 -0.1773  0.8146  1.1875
12922TIP3    H238724   6.686   4.811   0.224  0.0047  0.4378  0.5419
12923TIP3   OH238725   3.887   0.128   1.778  0.0892 -0.5923 -0.6403
12923TIP3    H138726   3.902   0.038   1.806  1.4797 -1.1057 -2.7254
12923TIP3    H238727   3.947   0.180   1.830 -1.0808 -0.7592  0.9364
12924TIP3   OH238728   7.423   5.850   0.586  0.1239  0.3566  0.1682
12924TIP3    H138729   7.511   5.830   0.618  0.0170  0.4981  0.5600
12924TIP3    H238730   7.375   5.878   0.664 -0.6713 -1.0374  0.1955
12925TIP3   OH238731   8.108   7.769   6.211  0.6760  0.5246 -0.7355
12925TIP3    H138732   8.197   7.784   6.243  0.5428 -0.7481  0.2930
12925TIP3    H238733   8.083   7.685   6.248 -0.9756  0.8685 -0.9936
12926TIP3   OH238734   5.699   1.469   6.017 -0.1207  0.0161 -0.0541
12926TIP3    H138735   5.672   1.378   6.007 -0.7302  0.1334  0.4551
12926TIP3    H238736   5.795   1.465   6.027 -0.0188 -0.4643 -1.1564
12927TIP3   OH238737   7.156   2.242   3.990  0.3200 -0.5064  0.4956
12927TIP3    H138738   7.129   2.175   3.928  0.9101 -1.9745  1.7478
12927TIP3    H238739   7.231   2.285   3.948 -0.4274 -0.2203 -0.5696
12928TIP3   OH238740   6.882   5.802   5.412  0.5869 -0.0047 -0.1242
12928TIP3    H138741   6.950   5.795   5.345  1.3977  1.7616  0.4614
12928TIP3    H238742   6.916   5.750   5.485  1.2641  0.7358  0.1059
12929TIP3   OH238743   3.090   4.509   4.265 -0.2992 -0.0496 -0.2248
12929TIP3    H138744   3.137   4.552   4.336  3.7700 -0.9089 -2.0888
12929TIP3    H238745   3.052   4.581   4.214  0.8197  0.9222  0.2561
12930TIP3   OH238746   1.556   1.147   1.789 -0.5650 -0.2771 -0.2728
12930TIP3    H138747   1.476   1.095   1.784 -0.3910 -0.7838  1.4797
12930TIP3    H238748   1.608   1.118   1.714 -0.6293 -2.4317  0.4231
12931TIP3   OH238749   1.545   2.014   4.752 -0.1834  0.4612 -0.4317
12931TIP3    H138750   1.461   1.968   4.750 -0.1067  0.3056 -0.1327
12931TIP3    H238751   1.577   2.002   4.841 -0.0150  0.8325 -0.4383
12932TIP3   OH238752   0.508   0.263   3.829  0.0372  0.3196  0.3284
12932TIP3    H138753   0.542   0.346   3.797  0.6731 -0.0288  0.0699
12932TIP3    H238754   0.456   0.229   3.756  1.3430 -0.3920 -0.3020
12933TIP3   OH238755   7.417   0.134   0.726 -0.6860  0.3319 -0.1781
12933TIP3    H138756   7.391   0.226   0.723 -0.4054  0.3976 -0.7046
12933TIP3    H238757   7.407   0.109   0.818  1.4573  1.5287  0.4532
12934TIP3   OH238758   4.314   7.333   5.861  0.4426  0.8281  0.3101
12934TIP3    H138759   4.266   7.415   5.847  0.6360  1.1617  1.4560
12934TIP3    H238760   4.397   7.360   5.899 -0.3301  0.0452  2.7793
12935TIP3   OH238761   0.577   0.075   0.195 -0.5682  0.3878 -0.1777
12935TIP3    H138762   0.620   0.041   0.273  0.1620  3.6794  1.0128
12935TIP3    H238763   0.554  -0.003   0.144  0.9968 -1.7765  2.1965
12936TIP3   OH238764   6.104   2.633   4.732 -0.4619 -0.3593 -0.0421
12936TIP3    H138765   6.096   2.642   4.637 -0.1168  1.6366  0.0602
12936TIP3    H238766   6.161   2.557   4.744  1.0464  0.4661 -1.5216
12937TIP3   OH238767   2.636   5.567   1.721 -0.3690 -0.5540  0.6189
12937TIP3    H138768   2.644   5.538   1.812  1.7859 -2.2584 -0.0171
12937TIP3    H238769   2.697   5.641   1.714 -1.3286  0.2684  0.7873
12938TIP3   OH238770   0.528   5.158   0.343  0.2392 -0.6048  0.2198
12938TIP3    H138771   0.516   5.065   0.326  0.4813 -0.7004  0.5566
12938TIP3    H238772   0.613   5.164   0.387  0.3782 -0.1866 -0.1010
12939TIP3   OH238773   2.745   7.770   4.991 -0.3725 -0.7060  0.6670
12939TIP3    H138774   2.808   7.763   5.063 -0.6355  0.3988  1.0244
12939TIP3    H238775   2.792   7.736   4.915  1.1089  1.1742  0.6738
12940TIP3   OH238776   6.219   1.281   0.131  0.1905  0.0008  0.2548
12940TIP3    H138777   6.247   1.207   0.076  1.8027  1.1498 -0.5138
12940TIP3    H238778   6.298   1.332   0.145 -0.9509  1.7478  0.5468
12941TIP3   OH238779   1.492   2.414   1.619 -0.4863 -0.4532 -0.4537
12941TIP3    H138780   1.510   2.463   1.699 -1.4545  0.4103 -0.7465
12941TIP3    H238781   1.485   2.323   1.648  3.0394 -0.7780 -0.1333
12942TIP3   OH238782   6.142   2.919   6.618 -0.0023  0.0764 -0.5188
12942TIP3    H138783   6.186   3.003   6.635 -1.6072  0.5653  1.6897
12942TIP3    H238784   6.094   2.901   6.698 -0.9111 -2.2512 -1.5034
12943TIP3   OH238785   6.308   5.600   1.430  0.3845  0.5396 -0.4936
12943TIP3    H138786   6.372   5.543   1.388  2.2156  3.3560 -1.8066
12943TIP3    H238787   6.248   5.540   1.474  3.3396 -2.3102  0.0323
12944TIP3   OH238788   1.107   3.778   0.795  0.3464 -0.0543  0.1004
12944TIP3    H138789   1.190   3.814   0.825  1.0989 -0.9357 -0.8606
12944TIP3    H238790   1.121   3.684   0.791 -1.3867 -0.4649  1.9271
12945TIP3   OH238791   0.309   5.120   6.456  0.5652  0.0576 -0.4618
12945TIP3    H138792   0.396   5.082   6.470  0.2272 -1.5904 -2.2876
12945TIP3    H238793   0.306   5.139   6.362 -0.4800  1.6724 -0.1383
12946TIP3   OH238794   3.768   5.546   6.236  0.5446 -0.3966  0.1369
12946TIP3    H138795   3.841   5.539   6.174  0.3106 -2.6449  0.0256
12946TIP3    H238796   3.691   5.557   6.181  0.1571 -3.8117 -0.1846
12947TIP3   OH238797   7.913   7.016   2.555  0.5295  0.1038 -0.6545
12947TIP3    H138798   7.846   6.961   2.515 -0.3498  0.4490  0.2985
12947TIP3    H238799   7.915   7.095   2.501  0.6579 -0.1852 -1.0796
12948TIP3   OH238800   7.519   7.432   2.944  0.0724 -0.4460 -0.3132
12948TIP3    H138801   7.589   7.406   2.884 -0.1485 -1.8351 -0.0011
12948TIP3    H238802   7.552   7.408   3.031 -0.3730 -0.1546 -0.0584
12949TIP3   OH238803   7.487   5.665   3.672  0.5256 -0.4670  0.3548
12949TIP3    H138804   7.409   5.677   3.618 -0.5187 -0.0370  1.8951
12949TIP3    H238805   7.503   5.571   3.672  0.3000 -0.5083 -0.3646
12950TIP3   OH238806   7.435   5.230   4.709 -0.3896 -1.0191 -0.2572
12950TIP3    H138807   7.422   5.174   4.785  0.5090 -1.2255 -0.2494
12950TIP3    H238808   7.529   5.246   4.707 -0.4733 -0.5934 -1.0290
12951TIP3   OH238809   7.474   6.780   0.541 -0.1895  0.2176  0.4947
12951TIP3    H138810   7.467   6.843   0.470 -1.8786  0.1979  0.6221
12951TIP3    H238811   7.527   6.709   0.505 -0.7950  0.3344 -0.6602
12952TIP3   OH238812   6.916   4.477   3.462  0.3729  0.1295 -0.1125
12952TIP3    H138813   6.897   4.564   3.425 -1.0164 -1.1877 -2.7493
12952TIP3    H238814   6.861   4.473   3.540  1.7020  2.1829  1.0259
12953TIP3   OH238815   4.643   6.387   6.337 -0.0113  0.1449  0.3841
12953TIP3    H138816   4.632   6.477   6.308 -0.5814 -0.0354  0.0334
12953TIP3    H238817   4.574   6.338   6.293 -0.8811 -0.1501  2.0150
12954TIP3   OH238818   0.775   3.651   0.497  0.4488  0.3348  0.0781
12954TIP3    H138819   0.740   3.580   0.443 -0.5249  1.7318 -1.1987
12954TIP3    H238820   0.867   3.657   0.472  0.2710  0.2356 -0.6206
12955TIP3   OH238821   7.331   0.254   6.133  0.1782 -0.2474 -0.7987
12955TIP3    H138822   7.241   0.222   6.137  0.0018  0.3085 -0.2276
12955TIP3    H238823   7.345   0.272   6.040 -0.0456 -1.0314 -0.9949
12956TIP3   OH238824   0.698   2.015   2.909 -0.2886 -0.6796  0.5278
12956TIP3    H138825   0.718   2.103   2.875 -0.6902 -1.0839 -0.8167
12956TIP3    H238826   0.781   1.968   2.906 -0.4846 -0.9934 -0.8404
12957TIP3   OH238827   7.754   2.638   0.816  0.1095  0.8110  0.2233
12957TIP3    H138828   7.694   2.713   0.813 -0.2702  0.5919  1.7016
12957TIP3    H238829   7.811   2.655   0.892 -1.1652 -1.2357  1.7481
12958TIP3   OH238830   2.574   3.721   3.104  0.0027 -1.1688  0.0498
12958TIP3    H138831   2.614   3.705   3.189  0.7713 -0.1231 -0.0915
12958TIP3    H238832   2.594   3.642   3.053  0.1106 -1.5168  0.6284
12959TIP3   OH238833   0.857   2.481   6.622 -0.0118 -0.2748  0.1278
12959TIP3    H138834   0.943   2.461   6.658  0.0413  1.1705  0.8895
12959TIP3    H238835   0.858   2.443   6.535  0.4708 -2.4450  1.0272
12960TIP3   OH238836   5.310   0.946   4.665  0.2771 -0.1309 -0.2404
12960TIP3    H138837   5.233   1.002   4.657 -0.2316 -0.8386 -0.3099
12960TIP3    H238838   5.276   0.861   4.692  1.0976 -0.2713  0.3957
12961TIP3   OH238839   4.911   1.337   2.809  0.1627 -0.0322 -0.2048
12961TIP3    H138840   4.840   1.338   2.745 -0.7722 -0.5955  0.7751
12961TIP3    H238841   4.959   1.419   2.794 -2.5593  1.9720  1.0922
12962TIP3   OH238842   7.975   6.978   5.524 -0.9224 -0.2656 -0.0449
12962TIP3    H138843   7.965   7.073   5.529 -4.0251 -0.4229 -0.6415
12962TIP3    H238844   8.025   6.955   5.602  1.6761  1.9708 -0.9140
12963TIP3   OH238845   1.171   5.138   1.657  0.1028 -0.1293  0.0121
12963TIP3    H138846   1.210   5.225   1.646 -2.3927  0.9038 -1.4311
12963TIP3    H238847   1.164   5.128   1.752 -0.9870  1.9779  0.2272
12964TIP3   OH238848   5.192   4.726   0.956  0.3401 -0.3120  0.2637
12964TIP3    H138849   5.121   4.759   0.901  1.5056  0.7122 -0.6822
12964TIP3    H238850   5.169   4.754   1.045 -1.0059 -1.0200  0.1631
12965TIP3   OH238851   3.757   6.194   2.103  0.3823  0.1630 -0.3169
12965TIP3    H138852   3.834   6.198   2.047  0.4688  0.7372 -0.1618
12965TIP3    H238853   3.689   6.239   2.054  0.4327  0.5845 -0.0056
12966TIP3   OH238854   1.205   1.877   6.013 -0.0626 -0.2737  0.0061
12966TIP3    H138855   1.207   1.908   6.103  0.7046  0.9483 -0.4078
12966TIP3    H238856   1.226   1.955   5.960  1.1678 -1.3168 -1.1253
12967TIP3   OH238857   2.392   2.047   5.045 -0.1653 -0.0552  0.2188
12967TIP3    H138858   2.366   2.095   4.966 -0.0759 -0.1702  0.1195
12967TIP3    H238859   2.343   2.090   5.115  2.4117  2.4501  0.6719
12968TIP3   OH238860   3.888   1.661   6.473  0.0771 -0.1164  1.1233
12968TIP3    H138861   3.858   1.724   6.407  2.3795  0.7300  0.7803
12968TIP3    H238862   3.831   1.677   6.548 -1.0195  0.6120  0.1829
12969TIP3   OH238863   2.967   0.450   0.913 -0.0637  0.0553 -0.0909
12969TIP3    H138864   3.055   0.480   0.937  1.4120 -3.1958 -0.8812
12969TIP3    H238865   2.971   0.438   0.818 -1.8139  0.9481 -0.3259
12970TIP3   OH238866   4.098   2.269   5.423 -0.4137  0.1799  0.5281
12970TIP3    H138867   4.109   2.177   5.447 -1.0616 -0.2817 -0.8270
12970TIP3    H238868   4.005   2.277   5.400 -0.4606  1.2868  1.0580
12971TIP3   OH238869   0.125   4.377   6.465 -0.0667 -0.1667 -0.7293
12971TIP3    H138870   0.171   4.437   6.407  1.0591 -0.0130  0.2907
12971TIP3    H238871   0.092   4.308   6.408 -2.7947  2.1340 -2.2151
12972TIP3   OH238872   2.775   7.067   3.023  0.2649 -0.3615 -0.4428
12972TIP3    H138873   2.826   7.057   2.942  0.6646  2.6878 -0.6662
12972TIP3    H238874   2.758   6.977   3.050  2.2976 -1.5218 -2.5411
12973TIP3   OH238875   8.000   0.810   5.556 -0.1872  0.0443  0.6087
12973TIP3    H138876   7.963   0.894   5.528 -0.8906 -0.2520  0.6382
12973TIP3    H238877   8.065   0.789   5.489 -0.4102  0.3395  0.2963
12974TIP3   OH238878   4.576   2.016   6.202 -0.3870 -0.0944 -0.3805
12974TIP3    H138879   4.527   2.098   6.204 -0.3876 -0.1071  0.3801
12974TIP3    H238880   4.603   2.002   6.293  1.0045 -0.1044 -0.7786
12975TIP3   OH238881   7.452   0.754   5.851  0.1383  0.2822 -0.4401
12975TIP3    H138882   7.472   0.731   5.760 -0.2046 -0.0702 -0.4315
12975TIP3    H238883   7.401   0.835   5.845  0.1368  0.2725 -0.5586
12976TIP3   OH238884   5.734   1.929   5.186  0.1510 -0.8677 -0.8004
12976TIP3    H138885   5.720   1.876   5.108  0.2308  1.2364 -2.3161
12976TIP3    H238886   5.666   1.997   5.182  0.8412 -0.0726  0.3572
12977TIP3   OH238887   7.741   3.163   3.031 -0.0374 -0.6441 -0.2277
12977TIP3    H138888   7.787   3.105   2.970  1.2685  0.2639 -0.1310
12977TIP3    H238889   7.810   3.215   3.071 -1.0975  0.2828  0.4293
12978TIP3   OH238890   3.044   3.553   2.455 -0.1694  0.0931  0.0158
12978TIP3    H138891   2.999   3.469   2.445 -0.9902  0.6598 -1.3363
12978TIP3    H238892   2.994   3.614   2.401  1.3499  1.0902 -0.3319
12979TIP3   OH238893   1.023   5.860   6.271 -0.7387 -0.5344 -0.0597
12979TIP3    H138894   1.096   5.834   6.328  0.0039  0.3484 -0.5804
12979TIP3    H238895   0.945   5.830   6.317 -0.1752  0.4126  1.5974
12980TIP3   OH238896   5.167   3.597   6.298  0.5047  0.4509  0.1158
12980TIP3    H138897   5.250   3.639   6.321  1.0917  0.0672 -1.2236
12980TIP3    H238898   5.127   3.657   6.235  0.9476 -0.5470 -1.1519
12981TIP3   OH238899   6.427   6.112   0.756 -0.0037 -0.3883 -0.0630
12981TIP3    H138900   6.499   6.112   0.819  0.7005 -1.1819 -0.8390
12981TIP3    H238901   6.375   6.188   0.779  1.4183  0.5531  0.1492
12982TIP3   OH238902   0.578   2.987   6.609 -0.6329 -0.4462  0.3493
12982TIP3    H138903   0.654   2.948   6.565  1.0123  1.1766  1.5910
12982TIP3    H238904   0.546   2.918   6.667  0.4819 -0.8819  0.4825
12983TIP3   OH238905   0.456   1.406   5.912 -0.5337 -0.0432 -0.1001
12983TIP3    H138906   0.493   1.350   5.980 -2.2882 -1.1784 -0.0287
12983TIP3    H238907   0.527   1.415   5.848  0.6056 -0.2693  1.0950
12984TIP3   OH238908   6.294   2.577   3.486  0.4649 -0.8121 -0.5719
12984TIP3    H138909   6.248   2.568   3.403  0.9122 -0.0732 -0.9094
12984TIP3    H238910   6.360   2.645   3.470  1.0995 -1.2407  0.1424
12985TIP3   OH238911   7.514   3.665   2.073  0.4534 -0.1246  0.1689
12985TIP3    H138912   7.562   3.608   2.134  0.2724 -0.4228  0.0367
12985TIP3    H238913   7.437   3.613   2.048  0.0053  0.3942  0.4635
12986TIP3   OH238914   3.468   0.355   2.104 -0.0310 -0.0512  0.1076
12986TIP3    H138915   3.392   0.364   2.047 -0.6006 -0.5292  0.7708
12986TIP3    H238916   3.526   0.294   2.058 -1.0593 -1.4433  0.6048
12987TIP3   OH238917   2.430   6.326   1.070  0.4582 -0.2451 -0.4776
12987TIP3    H138918   2.370   6.307   0.998  0.2740  0.5639 -0.5504
12987TIP3    H238919   2.400   6.411   1.105  1.2283 -0.0881 -0.1702
12988TIP3   OH238920   5.687   0.718   4.328 -0.3980  0.3277 -0.0912
12988TIP3    H138921   5.722   0.806   4.310 -1.3851  1.0405  1.2884
12988TIP3    H238922   5.600   0.719   4.287 -0.5579  0.1296  0.2440
12989TIP3   OH238923   3.072   6.835   5.707 -0.3144  0.5585 -0.0394
12989TIP3    H138924   3.123   6.836   5.626 -0.7748  1.4652 -0.3462
12989TIP3    H238925   3.125   6.883   5.770  0.6836 -1.3571  0.6462
12990TIP3   OH238926   0.350   0.109   2.767 -0.0358 -0.0681  0.2309
12990TIP3    H138927   0.373   0.202   2.774 -0.4622  0.2610 -2.0965
12990TIP3    H238928   0.255   0.109   2.760  0.0460 -0.5253 -1.2313
12991TIP3   OH238929   3.382   0.289   6.663 -0.0080  0.0877  0.5339
12991TIP3    H138930   3.301   0.238   6.659  0.8313 -1.2034 -1.0309
12991TIP3    H238931   3.451   0.223   6.654  1.2006  1.2570  1.0567
12992TIP3   OH238932   5.446   2.620   1.159  0.0022  0.0121 -0.2049
12992TIP3    H138933   5.464   2.688   1.094  0.4625 -1.3942 -1.6352
12992TIP3    H238934   5.524   2.563   1.156  0.3732  0.2921  2.1406
12993TIP3   OH238935   0.765   1.380   6.480 -0.1999  0.3267 -0.3246
12993TIP3    H138936   0.753   1.315   6.549 -0.8360  1.5057  0.7225
12993TIP3    H238937   0.806   1.455   6.525 -0.4397  1.0360 -1.2619
12994TIP3   OH238938   4.492   4.928   1.894  0.0697 -0.2406  0.1036
12994TIP3    H138939   4.586   4.941   1.884  0.1252  0.0984  0.9395
12994TIP3    H238940   4.466   4.875   1.819  1.0527 -0.9524  0.2482
12995TIP3   OH238941   6.775   1.853   0.425 -0.4547 -0.1540 -0.2272
12995TIP3    H138942   6.758   1.812   0.340  0.7446 -0.3145 -0.3991
12995TIP3    H238943   6.711   1.813   0.484 -2.5268  1.2339 -1.3895
12996TIP3   OH238944   1.091   1.252   0.674 -0.7212  0.1564  0.0675
12996TIP3    H138945   1.174   1.292   0.649 -1.1773  1.5633  0.7027
12996TIP3    H238946   1.115   1.165   0.705  0.2818 -0.1512 -1.5054
12997TIP3   OH238947   6.838   1.295   3.956 -0.0417 -0.6839 -0.0958
12997TIP3    H138948   6.933   1.288   3.951 -0.2262 -2.9953 -2.7246
12997TIP3    H238949   6.819   1.383   3.922  1.1105 -0.4762 -0.2405
12998TIP3   OH238950   7.793   2.142   4.406  0.3225  0.2573 -0.5802
12998TIP3    H138951   7.741   2.087   4.466 -2.1696  0.0925 -2.7113
12998TIP3    H238952   7.883   2.112   4.419 -0.2575 -0.5789  2.1779
12999TIP3   OH238953   8.275   7.547   1.014  0.1237 -0.0197 -0.1438
12999TIP3    H138954   8.305   7.463   1.049  1.0263 -0.3932 -1.7138
12999TIP3    H238955   8.337   7.568   0.945  0.0999  2.1291  0.4192
13000TIP3   OH238956   6.090   4.232   5.079  0.2509  0.5032 -0.2927
13000TIP3    H138957   6.158   4.289   5.114 -0.0027  0.0103  1.0602
13000TIP3    H238958   6.130   4.145   5.077 -1.0717 -0.3501  3.1185
13001TIP3   OH238959   5.272   1.166   1.022 -0.0042  0.0048 -0.0164
13001TIP3    H138960   5.314   1.114   1.091 -0.8294 -1.0660 -0.3019
13001TIP3    H238961   5.179   1.169   1.048 -0.2561 -0.0985 -0.8930
13002TIP3   OH238962   7.218   6.949   4.488  0.4970 -0.6683  0.2195
13002TIP3    H138963   7.182   6.887   4.424 -0.2103  0.5551 -0.6072
13002TIP3    H238964   7.312   6.948   4.471  0.2317  0.4357 -1.6299
13003TIP3   OH238965   6.003   1.938   3.826  0.4643  0.0918  0.5325
13003TIP3    H138966   6.017   1.875   3.755 -2.3655 -0.0434  0.0071
13003TIP3    H238967   6.014   2.024   3.785 -0.7065  0.0033 -0.0108
13004TIP3   OH238968   3.974   2.095   2.711 -0.1854 -0.2784  0.3158
13004TIP3    H138969   4.061   2.055   2.722  0.1130  0.1218 -0.5108
13004TIP3    H238970   3.937   2.050   2.635  0.3150  1.2409 -0.8844
13005TIP3   OH238971   6.421   2.130   4.281 -0.3712  0.2182 -0.0988
13005TIP3    H138972   6.336   2.129   4.325 -0.5862 -0.3546 -0.5143
13005TIP3    H238973   6.480   2.085   4.341 -0.3537  0.6426  0.2037
13006TIP3   OH238974   8.176   7.389   3.375  0.1679 -0.3243 -0.1570
13006TIP3    H138975   8.232   7.350   3.308  0.2130 -0.2521 -0.1619
13006TIP3    H238976   8.198   7.482   3.373  1.1980 -0.5072  0.9052
13007TIP3   OH238977   0.042   3.764   4.798 -0.1430 -0.5506 -0.3707
13007TIP3    H138978  -0.016   3.722   4.861  0.8595 -1.4347  0.0068
13007TIP3    H238979   0.020   3.723   4.714  0.2880 -1.2867 -0.1368
13008TIP3   OH238980   3.149   2.681   3.606 -0.5592  0.4155  0.1972
13008TIP3    H138981   3.082   2.704   3.669 -2.2492  1.4823 -1.8517
13008TIP3    H238982   3.149   2.753   3.542 -0.2285 -1.3833 -1.9861
13009TIP3   OH238983   1.841   0.848   6.459  0.0694 -0.0904  0.4804
13009TIP3    H138984   1.880   0.920   6.409  0.1274 -1.4372 -1.5281
13009TIP3    H238985   1.760   0.828   6.413  0.1024 -1.3580  0.9399
13010TIP3   OH238986   5.418   0.911   6.607  0.2268  0.4044 -0.4854
13010TIP3    H138987   5.346   0.884   6.664  0.2732 -2.6159 -1.6739
13010TIP3    H238988   5.494   0.914   6.665 -0.1965  0.0489  0.1027
13011TIP3   OH238989   1.998   6.242   5.459 -0.0440  0.5505  0.3577
13011TIP3    H138990   2.021   6.275   5.372  0.1615 -1.1003 -0.2407
13011TIP3    H238991   2.047   6.160   5.468 -0.3452  0.5008  1.8930
13012TIP3   OH238992   7.084   3.518   5.735  0.0216  0.5939 -0.5463
13012TIP3    H138993   7.145   3.444   5.742 -0.1404  0.4869 -0.2365
13012TIP3    H238994   7.001   3.478   5.708  0.0800  0.7367 -0.9426
13013TIP3   OH238995   4.317   1.024   6.228 -0.9242 -0.0895 -0.4159
13013TIP3    H138996   4.239   1.035   6.282 -1.4952 -1.0464 -0.9998
13013TIP3    H238997   4.329   1.108   6.186 -1.5549  0.1235 -0.1892
13014TIP3   OH238998   6.132   6.215   1.898  0.2316  0.0682 -0.0216
13014TIP3    H138999   6.104   6.304   1.920 -1.4593 -0.8527  1.8964
13014TIP3    H239000   6.213   6.201   1.949  1.1328  0.8440 -1.1989
13015TIP3   OH239001   4.925   5.224   6.774 -0.3010 -0.2239  0.1609
13015TIP3    H139002   4.952   5.134   6.761  2.4566  0.5095  0.1883
13015TIP3    H239003   4.830   5.219   6.789 -0.1955 -3.0907  0.3872
13016TIP3   OH239004   5.582   5.816   6.444  0.6840 -0.5972 -0.2323
13016TIP3    H139005   5.633   5.894   6.465 -0.4150  0.0075  0.3378
13016TIP3    H239006   5.604   5.753   6.514  2.1044 -1.0901 -1.0838
13017TIP3   OH239007   2.493   4.753   4.225  0.5199  0.5551  0.1686
13017TIP3    H139008   2.521   4.680   4.171  0.1753  0.8535 -0.4266
13017TIP3    H239009   2.416   4.720   4.271 -0.5071  0.9715 -1.1797
13018TIP3   OH239010   2.755   3.149   2.482 -0.3724  0.3554  0.8490
13018TIP3    H139011   2.676   3.128   2.432 -1.1511  0.3309  2.0672
13018TIP3    H239012   2.725   3.158   2.572  1.0487  0.2054  1.3556
13019TIP3   OH239013   3.688   0.565   6.592  0.1939  0.1736 -0.2572
13019TIP3    H139014   3.670   0.659   6.598  1.0592  0.2783  0.8909
13019TIP3    H239015   3.603   0.526   6.571 -0.4435  1.0928  0.5497
13020TIP3   OH239016   6.371   7.243   2.004 -0.5987 -0.2925  0.0032
13020TIP3    H139017   6.351   7.336   2.013 -1.4386 -0.4351 -0.3034
13020TIP3    H239018   6.389   7.230   1.911 -0.5875 -0.4597  0.0279
13021TIP3   OH239019   5.576   1.177   4.746  0.0119  0.3028  0.5652
13021TIP3    H139020   5.497   1.224   4.775  0.3749  1.7436 -0.7030
13021TIP3    H239021   5.545   1.118   4.677 -0.1077  0.1166  0.7747
13022TIP3   OH239022   0.039   0.954   3.950 -0.0420  0.4163 -0.0392
13022TIP3    H139023   0.004   0.998   3.873  0.0237  0.8802  0.1966
13022TIP3    H239024   0.101   1.016   3.987 -1.2977  0.8891  1.3481
13023TIP3   OH239025   3.697   3.821   6.322  0.4060  0.1681  0.3803
13023TIP3    H139026   3.662   3.839   6.410 -1.4861  0.9731 -0.4698
13023TIP3    H239027   3.763   3.889   6.309  0.0747  0.5938  0.8500
13024TIP3   OH239028   2.873   2.135   1.244  0.1668  0.0183  0.5155
13024TIP3    H139029   2.847   2.043   1.242 -0.7595  0.2678 -1.6683
13024TIP3    H239030   2.807   2.179   1.191  1.0691  1.8269  0.8386
13025TIP3   OH239031   7.214   0.778   2.874 -0.0784 -0.0879 -0.1901
13025TIP3    H139032   7.237   0.867   2.902  0.7713 -0.3330 -0.1019
13025TIP3    H239033   7.178   0.737   2.952  1.3539 -0.4475  0.2930
13026TIP3   OH239034   2.814   1.373   1.827 -0.0937 -1.0585 -0.5567
13026TIP3    H139035   2.892   1.329   1.791 -0.9616 -1.7349 -1.6853
13026TIP3    H239036   2.757   1.302   1.855 -0.1731 -0.5587  0.6066
13027TIP3   OH239037   4.736   0.528   4.147  0.0621  0.4615  0.4237
13027TIP3    H139038   4.646   0.525   4.181  0.8232  0.2968  2.6023
13027TIP3    H239039   4.786   0.474   4.208  1.6613  0.5434 -0.7509
13028TIP3   OH239040   2.395   3.275   1.832 -0.2588  0.3988  0.0635
13028TIP3    H139041   2.489   3.295   1.837 -0.0021 -0.8372  0.5150
13028TIP3    H239042   2.366   3.318   1.752  0.8271  0.3121 -0.3977
13029TIP3   OH239043   4.128   5.988   3.570  0.6785  0.7035 -0.0293
13029TIP3    H139044   4.220   5.976   3.545  0.4428 -0.9946 -0.1966
13029TIP3    H239045   4.080   5.982   3.488  0.1599 -1.9638  0.3623
13030TIP3   OH239046   0.951   1.867   5.437  0.1203 -0.2871  0.5009
13030TIP3    H139047   1.031   1.903   5.476  0.3392 -1.1278  0.8623
13030TIP3    H239048   0.913   1.813   5.507  0.9098 -2.4410 -0.6233
13031TIP3   OH239049   3.317   0.087   5.225  0.3310 -0.1037  0.3487
13031TIP3    H139050   3.382   0.035   5.273 -0.5737 -0.0821  1.6649
13031TIP3    H239051   3.345   0.083   5.134  2.0849 -0.2124  0.8643
13032TIP3   OH239052   7.985   5.270   3.977  0.8591 -0.4495  0.4012
13032TIP3    H139053   7.953   5.210   3.909  2.6464 -0.0961 -0.8293
13032TIP3    H239054   7.910   5.326   3.997  0.2820 -0.5487 -1.3241
13033TIP3   OH239055   6.835   7.770   1.995 -0.3353  0.1418 -0.2787
13033TIP3    H139056   6.834   7.747   2.088 -0.3774  0.4308 -0.2064
13033TIP3    H239057   6.923   7.748   1.965 -0.3924 -0.1634 -0.2255
13034TIP3   OH239058   0.448   0.759   1.092  0.3732 -0.2770 -0.1399
13034TIP3    H139059   0.374   0.734   1.147  0.7868 -0.9684  0.1089
13034TIP3    H239060   0.526   0.740   1.145  0.7388  2.6183  0.5540
13035TIP3   OH239061   0.800   5.697   1.776 -0.2002  0.0722 -0.4563
13035TIP3    H139062   0.770   5.735   1.859  1.8290  1.7116 -0.3863
13035TIP3    H239063   0.761   5.754   1.709 -1.4264 -0.9478 -0.6399
13036TIP3   OH239064   2.665   4.396   5.285 -0.3581  0.5297  0.0125
13036TIP3    H139065   2.710   4.460   5.339  1.0420 -0.6523  0.3059
13036TIP3    H239066   2.731   4.329   5.266 -1.2291  0.1290 -1.8816
13037TIP3   OH239067   3.680   6.600   0.274 -1.1686  0.1495  0.5094
13037TIP3    H139068   3.656   6.565   0.359  1.5161 -1.5165  0.6793
13037TIP3    H239069   3.745   6.668   0.293  0.7525 -1.4053 -0.1970
13038TIP3   OH239070   3.007   0.187   6.509  0.0364  0.2168 -0.4502
13038TIP3    H139071   3.086   0.209   6.459  0.9720  2.1896  1.7135
13038TIP3    H239072   3.039   0.150   6.591 -1.3013  0.2969  0.1402
13039TIP3   OH239073   0.872   1.122   4.113  0.2019  0.0028 -0.1335
13039TIP3    H139074   0.836   1.186   4.052  1.3211 -0.2701 -1.1113
13039TIP3    H239075   0.798   1.065   4.134 -0.2873  0.3227 -0.9501
13040TIP3   OH239076   3.391   7.655   1.193  0.2861 -0.1450  0.1657
13040TIP3    H139077   3.335   7.729   1.167 -0.2385 -0.5430  0.1536
13040TIP3    H239078   3.460   7.695   1.246  0.6099  0.5056 -0.7020
13041TIP3   OH239079   2.552   1.686   3.722 -0.1535 -0.5747  0.3925
13041TIP3    H139080   2.493   1.672   3.796  0.3586  0.9992  1.1181
13041TIP3    H239081   2.623   1.622   3.736  0.0366 -0.1698  1.3734
13042TIP3   OH239082   2.960   3.538   4.080  0.5711 -0.7915 -0.5230
13042TIP3    H139083   3.026   3.607   4.078 -0.2584  0.0117 -0.4816
13042TIP3    H239084   2.989   3.480   4.151  0.2709  0.5489  0.7469
13043TIP3   OH239085   0.970   6.567   1.309 -0.1220  0.4117 -0.3359
13043TIP3    H139086   1.025   6.497   1.273  1.0872  1.6963 -1.1254
13043TIP3    H239087   0.991   6.568   1.402  1.6243  1.1594 -0.6804
13044TIP3   OH239088   6.110   2.964   3.980  0.6316  0.0596 -0.1311
13044TIP3    H139089   6.174   2.945   3.911  1.4868  0.8980  0.4090
13044TIP3    H239090   6.034   2.911   3.957  1.5712 -1.0984 -0.7155
13045TIP3   OH239091   3.136   2.282   6.280 -0.5382  0.3983 -0.6226
13045TIP3    H139092   3.201   2.271   6.211  0.5440 -1.2434  0.5852
13045TIP3    H239093   3.093   2.197   6.285  1.1822 -0.4262  2.3861
13046TIP3   OH239094   7.173   6.147   0.835  0.3379  0.1984 -0.1465
13046TIP3    H139095   7.253   6.117   0.792 -1.0968  0.0957 -3.0520
13046TIP3    H239096   7.182   6.242   0.839  0.7589  0.1578 -0.1118
13047TIP3   OH239097   7.093  -0.018   5.901 -0.0934  0.6519 -0.0416
13047TIP3    H139098   7.062   0.039   5.971  1.1390 -0.3238  1.3633
13047TIP3    H239099   7.025  -0.013   5.834 -0.6406  2.7080  0.5862
13048TIP3   OH239100   7.614   5.206   2.117  0.2329 -0.2538  0.1057
13048TIP3    H139101   7.547   5.202   2.185 -0.0105  0.8392 -0.0481
13048TIP3    H239102   7.656   5.291   2.129  1.2980 -0.7312 -0.0924
13049TIP3   OH239103   7.103   1.534   4.173  0.1823  0.6540 -0.7789
13049TIP3    H139104   7.177   1.474   4.162  1.8026  1.8841  2.2520
13049TIP3    H239105   7.085   1.567   4.085  1.0616 -2.0738 -2.0941
13050TIP3   OH239106   2.746   7.683   3.422 -0.3001  0.1036  0.2665
13050TIP3    H139107   2.763   7.673   3.515 -1.6169  0.1850  0.5335
13050TIP3    H239108   2.823   7.646   3.379  0.1796 -0.2156  1.3805
13051TIP3   OH239109   1.102   3.529   6.719 -0.0446 -0.2421  0.0475
13051TIP3    H139110   1.020   3.508   6.765  0.9183 -1.5090  1.2931
13051TIP3    H239111   1.084   3.508   6.627 -0.6147 -2.2718  0.5564
13052TIP3   OH239112   4.649   6.828   5.421 -0.3119 -0.0834  0.6181
13052TIP3    H139113   4.710   6.901   5.422  1.2046 -1.3011  0.9186
13052TIP3    H239114   4.698   6.755   5.459 -2.0476 -1.0529  1.1229
13053TIP3   OH239115   0.900   2.647   1.665 -0.0948  0.3418 -0.1275
13053TIP3    H139116   0.866   2.685   1.584 -0.1494  2.2906  0.7614
13053TIP3    H239117   0.927   2.722   1.717 -0.8967 -0.8150  2.0563
13054TIP3   OH239118   1.584   1.647   0.401 -0.1197 -0.2697  0.8386
13054TIP3    H139119   1.499   1.690   0.397  0.6753  1.5236  1.8856
13054TIP3    H239120   1.628   1.675   0.321 -0.2277 -0.5471  0.6824
13055TIP3   OH239121   2.754   0.065   5.381  0.7068  0.2965  0.2364
13055TIP3    H139122   2.740   0.016   5.300 -0.9527 -1.1267  1.3203
13055TIP3    H239123   2.789   0.000   5.443 -0.0445  0.8195  1.2447
13056TIP3   OH239124   6.192   0.849   0.830 -0.4876 -0.5951  0.6609
13056TIP3    H139125   6.136   0.924   0.851  1.7140  1.2015  0.5331
13056TIP3    H239126   6.238   0.830   0.912  2.4371  1.3848 -0.3751
13057TIP3   OH239127   3.468   6.657   1.338 -0.1154  0.5230  0.8209
13057TIP3    H139128   3.454   6.573   1.382 -1.6431 -0.2168 -0.9155
13057TIP3    H239129   3.558   6.680   1.358  0.9799 -2.4582 -0.0845
13058TIP3   OH239130   8.205   0.309   1.867 -0.3644  0.0917 -0.4127
13058TIP3    H139131   8.129   0.353   1.830  0.5957  1.5602 -0.7223
13058TIP3    H239132   8.170   0.228   1.904 -1.7534 -0.2045 -2.2491
13059TIP3   OH239133   5.952   6.410   0.848  0.0167 -0.5172  0.0755
13059TIP3    H139134   5.904   6.428   0.928  1.8278  1.2747  0.8565
13059TIP3    H239135   5.973   6.317   0.852  0.2803 -0.4012  1.8089
13060TIP3   OH239136   0.024   1.222   6.188 -0.8514  0.2816 -0.5120
13060TIP3    H139137  -0.015   1.292   6.240  0.1893  0.5451 -0.0713
13060TIP3    H239138   0.099   1.262   6.145 -0.8068 -0.3294 -1.0283
13061TIP3   OH239139   5.023   2.103   3.697  0.6594 -0.3462 -0.2103
13061TIP3    H139140   4.984   2.041   3.635 -0.6303  0.1059  0.1133
13061TIP3    H239141   4.999   2.189   3.663 -1.9532 -0.0703  1.9667
13062TIP3   OH239142   5.593   7.440   1.890  0.6456 -0.0883  0.0462
13062TIP3    H139143   5.682   7.467   1.868 -0.6060  2.4038 -2.4608
13062TIP3    H239144   5.576   7.365   1.834  1.0811 -0.4604  0.4045
13063TIP3   OH239145   7.982   2.387   5.397  0.5781  0.2237 -0.3456
13063TIP3    H139146   8.022   2.472   5.418 -0.6784  1.0473 -1.1812
13063TIP3    H239147   7.980   2.341   5.481 -0.7306  1.9059  0.6298
13064TIP3   OH239148   1.149   3.295   2.061 -1.0640  0.3012  0.0038
13064TIP3    H139149   1.239   3.306   2.031 -1.0467 -1.0274 -0.4995
13064TIP3    H239150   1.153   3.222   2.124 -2.0512 -1.0919 -1.4769
13065TIP3   OH239151   3.349   0.763   1.956 -0.5013  0.0670  0.3490
13065TIP3    H139152   3.264   0.801   1.931  0.0313  0.5405 -0.8036
13065TIP3    H239153   3.344   0.672   1.929 -0.6251  0.1117  0.2195
13066TIP3   OH239154   4.791   4.216   2.973 -0.3639 -0.4512 -0.4460
13066TIP3    H139155   4.771   4.122   2.970 -1.6966 -0.3535  2.1619
13066TIP3    H239156   4.886   4.220   2.982 -0.4510 -1.7545  1.8662
13067TIP3   OH239157   0.333   5.084   4.789 -0.2100  0.4281 -0.2284
13067TIP3    H139158   0.343   4.997   4.750 -1.4081  0.3168 -0.3388
13067TIP3    H239159   0.346   5.145   4.716  0.8736  0.3670 -0.1016
13068TIP3   OH239160   4.640   4.339   1.786  0.1896  0.4360  0.2208
13068TIP3    H139161   4.615   4.431   1.779 -0.2514  0.2287 -1.3586
13068TIP3    H239162   4.563   4.296   1.824 -0.2023  0.4879 -0.5007
13069TIP3   OH239163   1.646   1.025   6.630  0.1914  0.1784  0.3971
13069TIP3    H139164   1.578   0.999   6.568 -0.5017 -0.5376  1.4128
13069TIP3    H239165   1.694   0.944   6.648  1.1409  0.6224 -0.0976
13070TIP3   OH239166   7.902   5.778   4.386 -0.3102  0.4669 -0.3379
13070TIP3    H139167   7.845   5.721   4.336 -1.6916  1.2281  0.3019
13070TIP3    H239168   7.984   5.780   4.336 -1.5069  0.9628 -2.4129
13071TIP3   OH239169   2.225   6.449   1.441 -0.4263  0.8899  0.3356
13071TIP3    H139170   2.273   6.447   1.358 -1.0813 -0.4059 -0.0238
13071TIP3    H239171   2.243   6.537   1.476  0.2397  1.2915 -0.9400
13072TIP3   OH239172   0.065   3.642   4.567 -0.5529 -0.2610 -0.0436
13072TIP3    H139173   0.073   3.547   4.556 -0.0695 -0.4586  1.6925
13072TIP3    H239174   0.017   3.672   4.490 -0.9437 -1.9508 -0.4844
13073TIP3   OH239175   1.045   5.618   1.075 -0.2236 -0.0161  0.0666
13073TIP3    H139176   0.988   5.668   1.134  1.5959  1.8605  0.3490
13073TIP3    H239177   1.120   5.593   1.129  0.6165  0.1400 -1.0007
13074TIP3   OH239178   6.685   1.801   4.914 -0.2350 -0.1710  0.3590
13074TIP3    H139179   6.680   1.748   4.994  0.7509  0.7278  1.0567
13074TIP3    H239180   6.772   1.841   4.918  0.3339 -1.0644 -1.8262
13075TIP3   OH239181   7.286   5.432   4.326 -0.3444 -0.3037 -0.1840
13075TIP3    H139182   7.228   5.432   4.250  0.9665  0.4979 -1.2350
13075TIP3    H239183   7.368   5.394   4.294  0.6316  1.1418  0.4742
13076TIP3   OH239184   7.495   4.397   4.192 -0.4337  0.5864 -0.1797
13076TIP3    H139185   7.512   4.435   4.105 -1.3224 -2.6774 -1.9258
13076TIP3    H239186   7.403   4.372   4.189 -0.0324 -1.1765  1.0282
13077TIP3   OH239187   1.914   6.650   5.014 -0.0837  0.1221 -0.1529
13077TIP3    H139188   1.973   6.640   5.089  0.6461 -0.1259 -0.7437
13077TIP3    H239189   1.839   6.698   5.049 -0.1576 -0.7419  0.9377
13078TIP3   OH239190   1.491   7.620   4.707 -0.2815  0.3881  0.2142
13078TIP3    H139191   1.538   7.546   4.668  0.0154  0.8293 -0.2772
13078TIP3    H239192   1.544   7.644   4.783 -0.6381 -0.2068  0.6646
13079TIP3   OH239193   1.825   1.688   0.785  0.3979 -0.0766  0.0021
13079TIP3    H139194   1.863   1.725   0.865  1.5532 -2.8540  0.8544
13079TIP3    H239195   1.896   1.690   0.721  0.2938 -0.3177 -0.1215
13080TIP3   OH239196   4.681   5.420   2.976  0.3828  0.3807  0.3207
13080TIP3    H139197   4.604   5.469   3.005 -0.2222 -0.1232 -0.3994
13080TIP3    H239198   4.741   5.487   2.942  0.5768  0.8493  1.5106
13081TIP3   OH239199   0.754   4.636   6.209  0.1929 -0.1708  0.8091
13081TIP3    H139200   0.726   4.655   6.119  0.3557 -1.1418  0.5433
13081TIP3    H239201   0.694   4.687   6.264 -0.3847 -0.1569  0.1740
13082TIP3   OH239202   2.334   0.345   6.543  0.0377 -0.7537  0.0563
13082TIP3    H139203   2.379   0.385   6.468 -1.3270 -2.0393 -1.5499
13082TIP3    H239204   2.285   0.417   6.582  0.0523 -0.2230 -0.8606
13083TIP3   OH239205   3.298   3.138   4.677 -0.7940 -0.4866  0.3807
13083TIP3    H139206   3.317   3.203   4.609 -1.4806 -0.4150  0.2538
13083TIP3    H239207   3.385   3.109   4.707 -0.4848 -0.2698 -0.2821
13084TIP3   OH239208   1.909   2.562   3.209 -0.7265  0.1462 -0.2548
13084TIP3    H139209   1.926   2.480   3.255 -0.1435 -0.2602 -1.1710
13084TIP3    H239210   1.996   2.598   3.191 -0.9760  1.1738  0.4787
13085TIP3   OH239211   6.032   7.209   6.083  0.6405  0.4001  0.0938
13085TIP3    H139212   6.078   7.143   6.135  0.8464 -0.1451 -0.7713
13085TIP3    H239213   5.943   7.209   6.118  0.5774 -0.5034 -0.0533
13086TIP3   OH239214   0.207   5.247   3.536  0.1196 -0.0528  0.5804
13086TIP3    H139215   0.136   5.310   3.531 -0.0804 -0.2264  1.1362
13086TIP3    H239216   0.199   5.209   3.623  1.9256  1.1307  1.3050
13087TIP3   OH239217   3.561   7.377   5.296 -0.6645  0.4668  0.4146
13087TIP3    H139218   3.518   7.423   5.225  0.8699  2.9032  0.9292
13087TIP3    H239219   3.654   7.380   5.274 -0.3863 -1.2586  1.1727
13088TIP3   OH239220   4.725   1.391   1.525  0.9366  0.0848 -0.3449
13088TIP3    H139221   4.773   1.465   1.561  0.7793  0.1333 -0.2302
13088TIP3    H239222   4.761   1.315   1.569 -1.2920  0.3746  2.2440
13089TIP3   OH239223   1.977   4.274   4.896  0.0908  0.3796  0.0988
13089TIP3    H139224   2.043   4.332   4.859 -0.5371  1.2830  0.3675
13089TIP3    H239225   1.905   4.275   4.833  0.4558 -0.8926 -0.3784
13090TIP3   OH239226   0.755   6.609   4.716  0.1546 -0.7193  0.1314
13090TIP3    H139227   0.849   6.587   4.719  0.2001 -0.4268  1.1482
13090TIP3    H239228   0.741   6.665   4.792 -0.4394  0.9047 -1.1298
13091TIP3   OH239229   5.790   5.347   3.712  0.1308 -0.3031  0.2133
13091TIP3    H139230   5.794   5.417   3.646 -0.6308  0.3736  0.8590
13091TIP3    H239231   5.872   5.299   3.702 -1.1234 -2.0699 -3.2245
13092TIP3   OH239232   1.723   1.281   1.996  0.1812 -0.3012  0.1368
13092TIP3    H139233   1.677   1.235   1.926  1.9375 -1.2498 -0.4628
13092TIP3    H239234   1.731   1.371   1.965 -0.4729 -0.3300 -0.1323
13093TIP3   OH239235   6.119   6.963   4.086  0.8681 -0.3035  0.5881
13093TIP3    H139236   6.169   6.980   4.166  2.7048  0.0250 -0.5749
13093TIP3    H239237   6.103   7.049   4.049 -1.0678 -0.3653  1.1943
13094TIP3   OH239238   0.547   6.427   1.951  0.2017  0.3491 -0.0776
13094TIP3    H139239   0.484   6.369   1.907 -0.8526  1.5129 -0.1299
13094TIP3    H239240   0.563   6.497   1.888 -0.7104  1.6173  1.0519
13095TIP3   OH239241   5.633   1.660   3.335  0.1286  0.3117  0.0845
13095TIP3    H139242   5.593   1.743   3.359  1.1475  0.5866  0.9184
13095TIP3    H239243   5.709   1.684   3.282 -0.3806 -0.1659 -0.8897
13096TIP3   OH239244   2.272   1.947   0.417 -0.1992  0.0108  0.4984
13096TIP3    H139245   2.204   1.890   0.382  0.1378  0.2047 -0.5193
13096TIP3    H239246   2.253   2.033   0.379 -0.1195  0.3504  1.2156
13097TIP3   OH239247   3.137   2.390   1.355 -0.1039 -0.2019  0.5774
13097TIP3    H139248   3.120   2.366   1.446  0.8072 -0.1015  0.7850
13097TIP3    H239249   3.230   2.416   1.354  0.4399 -1.9833 -0.7406
13098TIP3   OH239250   8.203   2.020   2.570 -0.1827  0.2469 -0.0678
13098TIP3    H139251   8.288   2.030   2.527 -0.7274  1.2982 -0.9810
13098TIP3    H239252   8.147   1.982   2.502 -0.5807  0.0942  0.3434
13099TIP3   OH239253   5.680   0.299   4.606 -0.0453 -0.6069 -0.5584
13099TIP3    H139254   5.758   0.271   4.654  0.6504  2.1064  0.0405
13099TIP3    H239255   5.715   0.347   4.530 -0.8401  3.9453  1.6216
13100TIP3   OH239256   3.758   6.243   4.909  0.1222  0.6215 -0.0872
13100TIP3    H139257   3.704   6.298   4.967  0.0650  1.6055 -1.0319
13100TIP3    H239258   3.775   6.164   4.960 -0.0392  1.3923  1.2178
13101TIP3   OH239259   6.588   7.438   2.295 -0.3595  0.5773  0.1923
13101TIP3    H139260   6.561   7.361   2.245 -0.4878  1.3839 -1.0188
13101TIP3    H239261   6.599   7.507   2.229  0.8489  1.3012  1.1127
13102TIP3   OH239262   5.199   6.626   6.030 -0.9063  0.1157 -0.6575
13102TIP3    H139263   5.138   6.671   6.088  0.9088  2.2907 -0.3166
13102TIP3    H239264   5.204   6.537   6.065 -0.9215  0.9797  1.7222
13103TIP3   OH239265   5.790   3.244   1.900  0.1785 -0.1851  0.0262
13103TIP3    H139266   5.847   3.255   1.823 -0.4715 -1.9373 -0.7606
13103TIP3    H239267   5.794   3.150   1.919 -0.6851  0.0305  1.3674
13104TIP3   OH239268   3.358   2.950   5.298 -0.0162 -0.5023  0.9161
13104TIP3    H139269   3.324   2.979   5.382 -0.9148 -0.4908  0.5638
13104TIP3    H239270   3.280   2.939   5.243  0.6572  1.4154 -0.5480
13105TIP3   OH239271   3.833   6.147   2.753 -0.2027  0.1700  0.5478
13105TIP3    H139272   3.761   6.084   2.757 -0.4897  0.3710 -1.0214
13105TIP3    H239273   3.797   6.222   2.706  0.2321  1.4182  2.0951
13106TIP3   OH239274   4.881   4.520   3.025 -0.6021  0.5665  0.2245
13106TIP3    H139275   4.817   4.512   3.095  0.7647  0.3852  1.4997
13106TIP3    H239276   4.828   4.524   2.945 -2.1869  0.4261  1.2144
13107TIP3   OH239277   6.476   2.595   1.446  0.1258 -0.4570  0.2843
13107TIP3    H139278   6.419   2.641   1.384 -0.3310 -1.2064  0.1193
13107TIP3    H239279   6.509   2.520   1.396 -1.2914 -1.8290  1.2829
13108TIP3   OH239280   1.465   1.644   1.816  0.5750 -0.0184  0.5564
13108TIP3    H139281   1.380   1.676   1.784  0.4899 -1.0138 -0.2634
13108TIP3    H239282   1.444   1.560   1.857  0.9773  0.3599  1.5470
13109TIP3   OH239283   2.641   5.913   1.238 -0.3903  0.0976 -0.2950
13109TIP3    H139284   2.727   5.928   1.200 -0.1114 -1.2005 -0.1981
13109TIP3    H239285   2.658   5.891   1.329 -0.9155  0.9804  0.0300
13110TIP3   OH239286   1.712   2.228   5.096 -0.0236 -0.4559 -0.2935
13110TIP3    H139287   1.681   2.303   5.147  0.9154  0.0050 -0.3739
13110TIP3    H239288   1.637   2.169   5.091 -0.1086 -0.5673  1.7098
13111TIP3   OH239289   3.073   0.969   2.269 -0.4319 -0.2713 -0.6193
13111TIP3    H139290   3.080   1.016   2.352  1.8016  1.0974 -1.4745
13111TIP3    H239291   2.999   1.010   2.224 -0.5338  0.2090 -0.0250
13112TIP3   OH239292   5.192   5.875   2.990 -0.5552 -0.9902  0.2164
13112TIP3    H139293   5.214   5.903   3.079 -0.1267 -0.1401 -0.1431
13112TIP3    H239294   5.193   5.780   2.994 -0.6729 -0.9693  1.1536
13113TIP3   OH239295   2.269   4.068   4.450 -0.2305  0.1963 -0.1065
13113TIP3    H139296   2.361   4.054   4.474 -0.0600  1.6766  0.1758
13113TIP3    H239297   2.266   4.050   4.356  0.5298  0.9264 -0.2825
13114TIP3   OH239298   6.952   3.473   1.226 -0.3056 -0.4549 -0.5170
13114TIP3    H139299   6.918   3.425   1.302  0.3267 -0.4805 -0.2475
13114TIP3    H239300   6.987   3.554   1.262 -0.8256 -0.0489 -0.9005
13115TIP3   OH239301   0.822   1.267   4.637  0.3821  0.6207  0.3055
13115TIP3    H139302   0.765   1.214   4.693 -1.2198  1.0197 -0.8805
13115TIP3    H239303   0.861   1.203   4.576  0.0255  0.5332  0.1654
13116TIP3   OH239304   1.916   0.997   2.416  0.0070  0.3968  0.0831
13116TIP3    H139305   1.897   1.024   2.326 -0.2720  0.6659  0.2201
13116TIP3    H239306   1.838   1.021   2.465  0.4357  0.9180  0.5341
13117TIP3   OH239307   4.494   6.980   2.757  0.4665  0.8346  0.0779
13117TIP3    H139308   4.453   7.034   2.689 -2.7648  0.0039  1.1842
13117TIP3    H239309   4.564   7.034   2.792  0.5887  2.2629 -2.2113
13118TIP3   OH239310   6.121   5.770   3.112  0.7936 -0.0058 -0.5828
13118TIP3    H139311   6.068   5.788   3.190  0.9729  2.2266 -0.8938
13118TIP3    H239312   6.207   5.807   3.133  0.6152  1.3934 -2.0848
13119TIP3   OH239313   3.222   5.282   1.476  0.5200 -0.2255  0.9616
13119TIP3    H139314   3.294   5.343   1.461  0.4713  0.3727  2.8959
13119TIP3    H239315   3.144   5.337   1.479  0.1936 -0.6586  0.5953
13120TIP3   OH239316   0.036   6.662   4.465  0.7238  0.3727  0.4524
13120TIP3    H139317  -0.030   6.722   4.499  1.4123  0.8211  1.0355
13120TIP3    H239318   0.085   6.714   4.401 -1.2024 -0.7477 -2.0720
13121TIP3   OH239319   5.100   5.262   0.187 -0.0793  0.2980 -0.2909
13121TIP3    H139320   5.134   5.350   0.201  0.4360  0.2851 -1.3461
13121TIP3    H239321   5.013   5.263   0.227 -0.0822  1.2935 -0.3032
13122TIP3   OH239322   6.481   5.811   0.166  0.1365  0.0401  0.7994
13122TIP3    H139323   6.559   5.784   0.215  1.0906 -0.5485 -0.9746
13122TIP3    H239324   6.516   5.852   0.087 -1.3724  0.6222  0.4120
13123TIP3   OH239325   3.199   3.611   2.686  0.0566  0.4979 -0.3337
13123TIP3    H139326   3.206   3.706   2.674 -2.4241  0.9594  1.1440
13123TIP3    H239327   3.150   3.581   2.610 -2.3181  1.0299  0.9111
13124TIP3   OH239328   3.924   2.179   2.253  0.5007 -0.3751 -0.1319
13124TIP3    H139329   4.018   2.178   2.234  1.0289  1.3001  1.9823
13124TIP3    H239330   3.919   2.199   2.346 -1.9866  1.4715 -0.5676
13125TIP3   OH239331   1.770   7.074   4.564  0.3316  0.3262 -0.4480
13125TIP3    H139332   1.849   7.108   4.523  0.7630  1.1901  1.0029
13125TIP3    H239333   1.699   7.129   4.529  0.9044  2.2417  1.1552
13126TIP3   OH239334   6.916   6.515   4.646 -0.9167  0.0865 -0.3019
13126TIP3    H139335   6.941   6.453   4.577 -1.5540  0.2689 -0.7095
13126TIP3    H239336   6.894   6.461   4.721  0.7212 -0.0863  0.1038
13127TIP3   OH239337   3.905   0.199   3.954  0.4243  0.1331 -0.4024
13127TIP3    H139338   3.830   0.194   4.014  0.2443  1.0889 -0.5295
13127TIP3    H239339   3.951   0.115   3.965  0.3346  0.2486  0.9972
13128TIP3   OH239340   5.641   0.932   2.025  0.5022  0.5203 -0.3078
13128TIP3    H139341   5.690   0.897   2.099  1.5765  0.2742 -1.1086
13128TIP3    H239342   5.561   0.879   2.022  1.0456 -0.3385 -0.1103
13129TIP3   OH239343   0.818   2.140   1.851  0.5814 -0.9235  0.0240
13129TIP3    H139344   0.858   2.172   1.770  2.5336  0.1813  1.3599
13129TIP3    H239345   0.840   2.047   1.853  1.2686 -0.7753 -0.3179
13130TIP3   OH239346   1.254   1.471   5.591 -0.6359  0.3694 -0.0463
13130TIP3    H139347   1.221   1.464   5.680  0.3699 -0.8899  0.2649
13130TIP3    H239348   1.247   1.382   5.556 -0.2971  0.6844 -0.9477
13131TIP3   OH239349   6.177   2.738   1.736  0.2689 -0.2753  0.2092
13131TIP3    H139350   6.165   2.710   1.645  3.3242 -1.7394  0.1519
13131TIP3    H239351   6.103   2.699   1.783 -1.0459  0.0248 -1.4745
13132TIP3   OH239352   4.576   2.212   2.925  0.8045 -0.4961  0.5143
13132TIP3    H139353   4.590   2.240   3.015  0.1376 -0.6571  0.6792
13132TIP3    H239354   4.642   2.144   2.909  0.6667 -0.7478  1.0149
13133TIP3   OH239355   1.045   2.962   5.395  0.2528 -0.3032 -0.3230
13133TIP3    H139356   1.119   3.020   5.412  0.2113 -0.5663  0.8961
13133TIP3    H239357   1.085   2.876   5.382  0.2357 -0.2251 -0.9086
13134TIP3   OH239358   2.879   2.386   4.239 -0.0482 -0.1861  0.0118
13134TIP3    H139359   2.825   2.307   4.235  0.0759 -0.2489 -0.4976
13134TIP3    H239360   2.829   2.451   4.190 -0.4482  0.2403  0.9529
13135TIP3   OH239361   5.503   7.078   6.745  0.0361 -0.2417 -0.0064
13135TIP3    H139362   5.423   7.105   6.699 -1.2021 -1.2213  1.4563
13135TIP3    H239363   5.532   7.158   6.790  0.6842  0.4639 -1.6182
13136TIP3   OH239364   1.889   1.162   6.639 -0.2977  0.4988 -0.0617
13136TIP3    H139365   1.852   1.130   6.557  0.5223 -0.8269  0.0584
13136TIP3    H239366   1.888   1.086   6.697 -1.6538  1.6272  1.4613
13137TIP3   OH239367   7.037   4.395   0.616  0.0741 -0.0884  0.2552
13137TIP3    H139368   6.970   4.328   0.630  0.9179 -1.0290 -0.0681
13137TIP3    H239369   7.001   4.474   0.656 -1.9230 -0.1370 -1.2897
13138TIP3   OH239370   8.038   3.401   6.086  0.4993 -0.5833 -0.9999
13138TIP3    H139371   7.964   3.350   6.117 -0.1807 -0.0671 -1.7386
13138TIP3    H239372   8.046   3.472   6.150  0.3470 -0.6302 -0.9289
13139TIP3   OH239373   7.869   5.736   5.990 -0.3156  0.9981 -0.1332
13139TIP3    H139374   7.808   5.810   5.999 -2.9068 -1.0912  0.7796
13139TIP3    H239375   7.862   5.690   6.074  0.5645 -0.7525 -0.9796
13140TIP3   OH239376   1.552   3.122   5.247  0.2069  0.1176  0.2982
13140TIP3    H139377   1.524   3.121   5.339  0.3609  2.6723  0.4673
13140TIP3    H239378   1.643   3.094   5.249  0.9104  2.2252  1.3104
13141TIP3   OH239379   0.510   7.248   0.642 -0.1131 -0.1177  0.1188
13141TIP3    H139380   0.467   7.244   0.556 -1.5413 -0.9614  0.8328
13141TIP3    H239381   0.462   7.316   0.689  0.3687  0.0330  0.3917
13142TIP3   OH239382   2.953   4.016   2.421  0.3143  0.1435  0.3712
13142TIP3    H139383   3.029   4.073   2.435  1.9093 -1.6478 -0.4753
13142TIP3    H239384   2.882   4.076   2.399  0.7382  2.0879  3.7458
13143TIP3   OH239385   2.279   7.128   3.456 -0.3255  0.1841  0.1197
13143TIP3    H139386   2.189   7.150   3.479 -0.3741 -1.1947  1.4486
13143TIP3    H239387   2.276   7.034   3.435  0.6576  0.3058 -0.6351
13144TIP3   OH239388   3.549   7.342   5.786 -0.1747  0.7618 -0.1707
13144TIP3    H139389   3.540   7.364   5.879 -2.1302  1.4894 -0.4718
13144TIP3    H239390   3.547   7.427   5.742 -1.0202  0.3416 -0.9613
13145TIP3   OH239391   7.146   0.088   4.646 -0.1031 -0.3620 -0.4966
13145TIP3    H139392   7.229   0.087   4.693  0.1984  0.7884 -0.9739
13145TIP3    H239393   7.080   0.077   4.715  0.3592  0.5564  0.1167
13146TIP3   OH239394   3.277   4.283   2.716 -0.0480 -0.4300  0.1865
13146TIP3    H139395   3.321   4.334   2.783 -4.0149  1.0232  2.0115
13146TIP3    H239396   3.306   4.321   2.633  0.3612  1.9356  1.3425
13147TIP3   OH239397   4.671   6.099   5.158  0.0586  0.5574  0.1543
13147TIP3    H139398   4.681   6.012   5.119 -1.3625  0.1096  0.7222
13147TIP3    H239399   4.759   6.137   5.155  0.4975 -0.4903 -1.0377
13148TIP3   OH239400   3.846   6.964   3.060  0.1498  0.6964 -0.0050
13148TIP3    H139401   3.792   7.043   3.068 -0.4399  0.4263 -1.0940
13148TIP3    H239402   3.787   6.892   3.078  0.5947  0.4738  0.5989
13149TIP3   OH239403   2.864   2.429   1.306  0.5022  0.2576 -0.3253
13149TIP3    H139404   2.959   2.428   1.319  0.5073  0.6262 -0.3324
13149TIP3    H239405   2.850   2.374   1.229  0.5949 -0.8120  0.4094
13150TIP3   OH239406   3.791   1.797   6.240  0.5547 -0.0874 -0.3711
13150TIP3    H139407   3.865   1.842   6.200 -0.4545  1.2042 -0.8700
13150TIP3    H239408   3.799   1.706   6.210  1.6117  0.1499 -0.8523
13151TIP3   OH239409   1.596   5.905   6.119  0.2277  0.6557 -0.4782
13151TIP3    H139410   1.678   5.927   6.163 -0.3741  1.0151  0.4922
13151TIP3    H239411   1.535   5.886   6.190 -0.4463  0.0685 -1.1982
13152TIP3   OH239412   0.911   6.740   4.170  0.4493  0.5264  0.2473
13152TIP3    H139413   0.903   6.659   4.120 -1.6251  1.0907 -0.4454
13152TIP3    H239414   0.957   6.800   4.111  0.7022  0.2912  0.2024
13153TIP3   OH239415   3.141   6.183   5.981 -0.0067 -0.0170  0.6425
13153TIP3    H139416   3.232   6.156   5.970  0.0823  0.6691 -0.5012
13153TIP3    H239417   3.138   6.224   6.068  0.7752 -0.0243  0.6799
13154TIP3   OH239418   0.420   6.862   4.879 -0.4097  0.3678  0.2949
13154TIP3    H139419   0.378   6.783   4.912 -0.3160  0.2849  0.2193
13154TIP3    H239420   0.348   6.917   4.849 -0.4486  0.0810 -0.1552
13155TIP3   OH239421   2.376   7.369   0.306 -0.3100 -0.0281 -0.2449
13155TIP3    H139422   2.290   7.393   0.270  1.0811  1.8209 -2.6298
13155TIP3    H239423   2.409   7.450   0.345  0.0611 -0.9331  1.3962
13156TIP3   OH239424   2.430   3.501   2.698 -0.2175 -0.0128 -0.3705
13156TIP3    H139425   2.389   3.573   2.746  0.0602  0.9891 -1.5854
13156TIP3    H239426   2.495   3.544   2.642 -0.5055 -1.1499 -1.6086
13157TIP3   OH239427   5.157   0.819   2.168 -0.2579  0.6217  0.0735
13157TIP3    H139428   5.106   0.893   2.136 -0.4869  0.2761 -0.3694
13157TIP3    H239429   5.137   0.815   2.262 -1.1780  0.3937 -0.1231
13158TIP3   OH239430   7.558   0.374   0.512 -0.4129 -0.2024 -0.1843
13158TIP3    H139431   7.553   0.395   0.606  2.4466  2.5641 -0.5199
13158TIP3    H239432   7.491   0.306   0.500 -1.2601 -0.3033  3.7225
13159TIP3   OH239433   3.747   3.682   3.020  0.2616 -0.2100  0.3264
13159TIP3    H139434   3.797   3.615   3.067  1.5547  1.3552  1.2773
13159TIP3    H239435   3.743   3.756   3.080 -1.2813  0.5460 -0.6260
13160TIP3   OH239436   6.670   1.481   0.076  0.4455 -0.0461  0.7735
13160TIP3    H139437   6.680   1.576   0.089  1.4117 -0.0094 -0.1175
13160TIP3    H239438   6.580   1.463   0.103  0.3745  1.0581  1.3371
13161TIP3   OH239439   2.766   0.111   3.936  0.2151  0.1629  0.1400
13161TIP3    H139440   2.682   0.131   3.979  0.3445 -1.1133  1.0583
13161TIP3    H239441   2.745   0.038   3.877  0.6613 -0.1323  0.3407
13162TIP3   OH239442   3.826   1.196   5.190  0.0630 -0.0892 -0.0405
13162TIP3    H139443   3.913   1.210   5.228 -0.4982  1.8673  0.6086
13162TIP3    H239444   3.843   1.149   5.108  1.9289  2.0200 -0.9477
13163TIP3   OH239445   7.969   1.389   0.128 -0.8500  0.1656  0.9251
13163TIP3    H139446   8.020   1.370   0.049 -0.6030  0.1435  1.0872
13163TIP3    H239447   7.885   1.421   0.096 -0.1984  1.6685  0.6397
13164TIP3   OH239448   2.947   1.445   2.133 -0.1059  0.0849 -0.0136
13164TIP3    H139449   2.874   1.399   2.173 -0.2982  1.8632  1.8669
13164TIP3    H239450   3.022   1.425   2.190  0.3158  0.2562 -0.5002
13165TIP3   OH239451   4.283   2.180   0.599  0.6568 -0.3060 -0.0392
13165TIP3    H139452   4.330   2.097   0.597  2.0426  0.3865  1.6604
13165TIP3    H239453   4.347   2.245   0.568  1.3122  0.8042  3.2888
13166TIP3   OH239454   6.736   3.204   5.781  0.1657 -0.4436 -0.2873
13166TIP3    H139455   6.820   3.157   5.778 -0.1299 -1.0049  0.0078
13166TIP3    H239456   6.712   3.203   5.873 -0.3638 -0.6513 -0.4245
13167TIP3   OH239457   2.062   1.169   2.969 -0.4591  0.1877  0.3617
13167TIP3    H139458   2.084   1.076   2.960  0.5402 -0.1088  4.0226
13167TIP3    H239459   1.967   1.172   2.965 -0.5704 -1.2101  1.2337
13168TIP3   OH239460   0.989   0.544   6.707 -0.1897 -0.3730 -0.3347
13168TIP3    H139461   1.078   0.573   6.730  0.6883 -3.0465 -0.0094
13168TIP3    H239462   0.991   0.533   6.612 -1.1157  2.2508 -0.7327
13169TIP3   OH239463   1.515   1.438   5.388  0.1744 -1.2677 -0.5153
13169TIP3    H139464   1.484   1.350   5.411  0.0555 -0.5864  2.3502
13169TIP3    H239465   1.559   1.469   5.467  0.3672  1.1964 -1.5059
13170TIP3   OH239466   0.917   0.303   1.055 -0.1196 -0.0099 -0.4756
13170TIP3    H139467   0.832   0.333   1.022 -1.0087 -2.8075 -1.0302
13170TIP3    H239468   0.894   0.244   1.127  1.5130  0.9762  0.9074
13171TIP3   OH239469   4.426   6.191   4.424  0.0289  0.5497  0.0503
13171TIP3    H139470   4.407   6.283   4.441  1.1888  0.7425  0.3821
13171TIP3    H239471   4.391   6.144   4.499 -0.3753  0.7409 -0.0185
13172TIP3   OH239472   6.054   0.103   5.820  0.0274 -0.2656  0.6602
13172TIP3    H139473   6.012   0.030   5.865  0.3147  0.2310  1.7753
13172TIP3    H239474   6.118   0.063   5.762 -2.4950 -1.1210 -1.7778
13173TIP3   OH239475   3.134   6.167   3.762 -0.5136  0.2481  0.0212
13173TIP3    H139476   3.079   6.184   3.686 -0.0013  2.2573  0.0344
13173TIP3    H239477   3.219   6.205   3.739 -0.4735  1.3209  1.7305
13174TIP3   OH239478   5.402   2.883   0.389  0.4877 -0.1919 -0.0977
13174TIP3    H139479   5.421   2.961   0.337 -0.0645 -0.1031 -0.1710
13174TIP3    H239480   5.383   2.815   0.325  2.0922 -0.7072 -0.0741
13175TIP3   OH239481   2.361   6.362   0.386  0.6371  0.0196 -0.1385
13175TIP3    H139482   2.310   6.284   0.407 -0.3271  0.8431  0.7199
13175TIP3    H239483   2.396   6.391   0.470  0.2783  0.9788 -0.3073
13176TIP3   OH239484   7.246   1.874   0.375  0.0089  0.2531 -0.1078
13176TIP3    H139485   7.220   1.786   0.402  1.2503 -0.2000 -0.3104
13176TIP3    H239486   7.243   1.871   0.279  2.9036 -0.5639 -0.2763
13177TIP3   OH239487   0.239   6.650   2.799 -0.2304  0.0021  0.0197
13177TIP3    H139488   0.292   6.571   2.815 -1.6893 -1.5277 -2.0778
13177TIP3    H239489   0.154   6.631   2.839  0.2369  1.7994  2.0345
13178TIP3   OH239490   4.722   0.528   3.019  0.3554 -0.1620 -0.4759
13178TIP3    H139491   4.664   0.478   2.962 -0.1611 -1.3947  1.0692
13178TIP3    H239492   4.787   0.566   2.960 -0.9066 -0.3048 -2.0187
13179TIP3   OH239493   3.904   0.152   5.617 -0.2881 -0.4196  0.2152
13179TIP3    H139494   3.905   0.244   5.644 -1.0937  0.0050 -1.1548
13179TIP3    H239495   3.983   0.115   5.658  0.2419  0.9563  0.5029
13180TIP3   OH239496   7.512   3.354   3.826  0.4419  0.1701 -0.4757
13180TIP3    H139497   7.475   3.442   3.831  2.5515  1.1427 -0.9072
13180TIP3    H239498   7.455   3.301   3.881 -1.1590  1.6854 -0.5761
13181TIP3   OH239499   7.640   0.168   1.513 -0.4369 -0.2137 -0.3684
13181TIP3    H139500   7.599   0.166   1.599  1.9438  1.6923  0.9537
13181TIP3    H239501   7.708   0.100   1.517 -1.1426 -0.9930 -1.2455
13182TIP3   OH239502   0.662   2.797   5.424 -0.0347  0.5095 -0.1318
13182TIP3    H139503   0.628   2.867   5.479 -0.8736 -1.0646  1.4430
13182TIP3    H239504   0.720   2.747   5.481 -0.7556 -1.0360 -0.6835
13183TIP3   OH239505   6.012   7.156   3.327 -0.7549  0.4807 -0.2102
13183TIP3    H139506   6.041   7.070   3.297 -0.7831  0.0785  0.8671
13183TIP3    H239507   5.935   7.175   3.273 -0.4436  0.0666 -0.8119
13184TIP3   OH239508   4.928   5.831   0.817  0.5527  0.0757  0.3352
13184TIP3    H139509   4.941   5.806   0.909 -0.0960 -0.8435  0.1915
13184TIP3    H239510   4.836   5.854   0.811  0.5138 -0.1894 -0.1582
13185TIP3   OH239511   4.352   0.102   5.342  0.0509  0.3008 -0.3933
13185TIP3    H139512   4.297   0.090   5.265  1.2285  0.1621 -1.2397
13185TIP3    H239513   4.324   0.033   5.402  1.7028 -2.1436 -2.2459
13186TIP3   OH239514   6.463   6.357   2.318  0.2403  0.2863 -0.1251
13186TIP3    H139515   6.391   6.366   2.380  0.3180  1.0743 -0.1463
13186TIP3    H239516   6.515   6.284   2.353 -0.9485 -0.7722 -0.5073
13187TIP3   OH239517   4.504   3.562   6.265  0.3239  0.5252  0.7221
13187TIP3    H139518   4.471   3.637   6.315 -1.4522 -0.0322  0.4668
13187TIP3    H239519   4.556   3.601   6.195 -1.3171  1.6207  0.0479
13188TIP3   OH239520   0.232   1.639   6.160  0.4930  0.6345 -0.0253
13188TIP3    H139521   0.240   1.639   6.256 -2.1516 -0.1093  0.2672
13188TIP3    H239522   0.258   1.728   6.134  1.2332  0.8537  1.3688
13189TIP3   OH239523   3.152   2.166   0.495 -0.7356  0.4871  0.5472
13189TIP3    H139524   3.140   2.148   0.588  0.9390  2.3114  1.1675
13189TIP3    H239525   3.063   2.168   0.459 -1.5247  1.3920  2.4406
13190TIP3   OH239526   5.617   4.735   4.975  0.8783 -0.1378  0.1088
13190TIP3    H139527   5.671   4.811   4.954 -1.0049  1.1746 -0.2545
13190TIP3    H239528   5.652   4.703   5.058  3.2941 -0.4396 -0.9470
13191TIP3   OH239529   6.106   1.956   1.139 -0.2148  0.2691 -0.4364
13191TIP3    H139530   6.164   1.879   1.140 -0.9947 -0.3283 -0.1655
13191TIP3    H239531   6.021   1.921   1.165 -0.6541  1.1738 -0.6586
13192TIP3   OH239532   1.702   1.958   6.385  0.2032  0.3261 -0.0608
13192TIP3    H139533   1.795   1.976   6.367  0.3951  1.7757  2.1094
13192TIP3    H239534   1.663   1.947   6.298  2.6296 -1.8300 -1.0346
13193TIP3   OH239535   3.911   7.755   2.339 -0.0168 -0.0075  0.1162
13193TIP3    H139536   3.986   7.761   2.398 -0.8695 -2.3899  1.5640
13193TIP3    H239537   3.836   7.744   2.397 -1.4369  1.6159 -1.3287
13194TIP3   OH239538   1.734   6.150   0.584  0.0335  0.1374 -0.1172
13194TIP3    H139539   1.708   6.174   0.495  0.3843  0.7517 -0.0570
13194TIP3    H239540   1.807   6.089   0.572  0.9503  1.2335 -0.2449
13195TIP3   OH239541   0.117   5.935   2.915 -0.4028 -0.4479  0.4247
13195TIP3    H139542   0.049   5.976   2.862  1.6637 -1.7497 -3.7401
13195TIP3    H239543   0.089   5.845   2.925 -0.4813 -0.3615  1.0024
13196TIP3   OH239544   7.816   6.287   3.474 -0.1899 -0.1227 -0.6976
13196TIP3    H139545   7.837   6.340   3.551 -0.1037  1.2799 -1.6494
13196TIP3    H239546   7.868   6.208   3.485 -0.0199  0.1363  0.5739
13197TIP3   OH239547   5.465   2.958   3.832 -0.0765  0.4286  0.2134
13197TIP3    H139548   5.411   3.022   3.784 -0.8114  0.3629  0.9332
13197TIP3    H239549   5.414   2.938   3.910 -0.1748 -1.5575 -0.3108
13198TIP3   OH239550   3.506   7.074   3.329 -0.1657  0.0861 -0.5504
13198TIP3    H139551   3.514   7.138   3.258 -0.1946  0.8562  0.1365
13198TIP3    H239552   3.581   7.016   3.317 -0.5836 -0.2653 -1.6697
13199TIP3   OH239553   0.656   3.821   6.471 -0.4312 -0.2712  0.8631
13199TIP3    H139554   0.621   3.738   6.439  0.2879 -1.1614  2.2703
13199TIP3    H239555   0.695   3.862   6.394 -1.5538 -0.8291 -0.0252
13200TIP3   OH239556   5.947   3.249   6.152 -0.4170  0.2291  0.2024
13200TIP3    H139557   5.912   3.276   6.237 -0.0868  0.0966  0.3839
13200TIP3    H239558   5.904   3.307   6.089  0.0309  0.9593  0.5555
13201TIP3   OH239559   7.456   5.500   2.156  0.0319 -0.4281 -0.4207
13201TIP3    H139560   7.399   5.450   2.098 -0.5518  2.1616 -2.2798
13201TIP3    H239561   7.490   5.571   2.101 -0.6806  2.3235  2.3881
13202TIP3   OH239562   2.179   0.189   3.108  0.5553 -0.2144  0.3043
13202TIP3    H139563   2.254   0.246   3.090 -0.1914  0.1039 -2.1938
13202TIP3    H239564   2.119   0.244   3.159  0.3352  0.9081 -1.0996
13203TIP3   OH239565   0.990   4.243   4.274  0.0805  0.0677 -0.2509
13203TIP3    H139566   0.982   4.147   4.280  1.2209 -0.1078 -1.1953
13203TIP3    H239567   0.911   4.271   4.229 -0.4322 -0.3884  0.3453
13204TIP3   OH239568   3.489   2.333   0.447 -0.2382 -0.0657 -0.6998
13204TIP3    H139569   3.433   2.273   0.397 -0.3631  0.4749 -1.2146
13204TIP3    H239570   3.477   2.418   0.405 -1.7306  0.7930  1.3240
13205TIP3   OH239571   1.619   7.358   5.242  0.0505  0.3003  0.0094
13205TIP3    H139572   1.693   7.302   5.265  0.1462  0.5811  0.3952
13205TIP3    H239573   1.579   7.315   5.166 -0.2492 -0.6302  0.6747
13206TIP3   OH239574   1.364   6.820   5.522 -0.3642  0.2752 -0.4541
13206TIP3    H139575   1.320   6.739   5.498 -0.1171 -0.3204  1.0256
13206TIP3    H239576   1.294   6.884   5.534 -0.8238 -0.5322  1.3861
13207TIP3   OH239577   5.054   5.519   2.034 -0.2100 -0.0210  0.3983
13207TIP3    H139578   5.116   5.447   2.041 -2.6824 -2.3190  0.1169
13207TIP3    H239579   5.069   5.557   1.948  1.4875  0.2055  0.7707
13208TIP3   OH239580   0.627   1.407   0.491 -0.2070 -0.1059  0.0086
13208TIP3    H139581   0.631   1.401   0.586 -1.0029  1.1315  0.1493
13208TIP3    H239582   0.552   1.354   0.466 -0.7354  0.5349  0.2019
13209TIP3   OH239583   6.578   3.617   2.705 -0.4918  0.4667 -0.2291
13209TIP3    H139584   6.599   3.625   2.798 -0.8462  0.7764 -0.1776
13209TIP3    H239585   6.523   3.539   2.699  0.4609 -0.2192 -0.3342
13210TIP3   OH239586   7.941   7.070   1.166  0.5275  0.1218  0.1492
13210TIP3    H139587   7.851   7.061   1.198  0.5533  1.0566  0.5085
13210TIP3    H239588   7.957   7.164   1.165  1.0882  0.0407 -1.0850
13211TIP3   OH239589   7.550   5.973   1.882 -0.7497 -0.2211  0.1778
13211TIP3    H139590   7.569   5.945   1.793 -0.1806 -0.9858  0.5217
13211TIP3    H239591   7.585   6.062   1.888 -2.2657  0.4648 -0.8361
13212TIP3   OH239592   7.820   0.857   4.838  0.5030  0.3400 -0.6389
13212TIP3    H139593   7.833   0.771   4.876 -2.2575 -0.5162 -1.3988
13212TIP3    H239594   7.791   0.911   4.912  3.1504  0.9687  0.0386
13213TIP3   OH239595   3.490   7.100   4.828 -0.1809 -0.1034  0.7153
13213TIP3    H139596   3.526   7.128   4.744 -0.3837 -3.5072 -0.6302
13213TIP3    H239597   3.403   7.140   4.832  0.0132  0.4655 -0.4314
13214TIP3   OH239598   6.818   6.112   3.773  0.0450  0.2713 -0.1644
13214TIP3    H139599   6.752   6.133   3.839 -0.2363 -0.9036 -0.0453
13214TIP3    H239600   6.898   6.095   3.823  0.5896  2.1549 -0.3398
13215TIP3   OH239601   4.865   6.686   1.395  0.5140  0.2062  0.5112
13215TIP3    H139602   4.831   6.775   1.401 -0.3488 -0.1041  0.3300
13215TIP3    H239603   4.788   6.630   1.399  0.8705 -0.4769 -1.2068
13216TIP3   OH239604   0.548   0.028   1.176  0.2445 -0.1475 -0.7079
13216TIP3    H139605   0.535   0.022   1.082 -1.8405 -0.8926 -0.4218
13216TIP3    H239606   0.493   0.101   1.204 -2.1898 -2.1951  0.3247
13217TIP3   OH239607   3.977   6.301   4.756 -0.3300 -0.3459  0.3110
13217TIP3    H139608   3.947   6.391   4.748  2.0740  0.6314  1.2585
13217TIP3    H239609   3.919   6.262   4.821 -1.3128  0.5569 -0.0070
13218TIP3   OH239610   3.254   4.478   3.095 -0.0319  0.2820  0.3235
13218TIP3    H139611   3.191   4.519   3.036 -0.2160 -1.4428 -0.7614
13218TIP3    H239612   3.238   4.518   3.180 -2.0362  0.4736 -0.1025
13219TIP3   OH239613   2.592   0.171   3.258 -0.0923  0.1934  0.0991
13219TIP3    H139614   2.668   0.160   3.201 -0.7003 -1.8988 -0.3926
13219TIP3    H239615   2.524   0.208   3.201  0.3088  1.4345  0.3805
13220TIP3   OH239616   3.375   5.175   2.417  0.2765  0.1424 -0.1059
13220TIP3    H139617   3.319   5.178   2.340  0.3234  1.8070 -0.1134
13220TIP3    H239618   3.456   5.217   2.389 -0.2461  2.1957  1.2166
13221TIP3   OH239619   0.907   4.038   2.331 -0.1670 -0.7182  0.2501
13221TIP3    H139620   0.831   4.080   2.291 -0.3933 -1.0386  0.3313
13221TIP3    H239621   0.915   3.955   2.284  0.2370 -0.6126  0.1305
13222TIP3   OH239622   2.078   0.814   3.196  0.1457  0.4608 -0.2003
13222TIP3    H139623   2.081   0.747   3.128 -1.3570 -0.9885  1.0822
13222TIP3    H239624   1.990   0.851   3.188  0.6202  1.6116 -0.2460
13223TIP3   OH239625   7.353   5.873   4.856 -0.0201 -0.3483  0.2411
13223TIP3    H139626   7.339   5.835   4.942 -0.8428  1.1986  0.8371
13223TIP3    H239627   7.410   5.949   4.873 -0.1946 -0.0265 -0.5764
13224TIP3   OH239628   1.758   5.233   2.532  0.4000 -0.2186 -0.2679
13224TIP3    H139629   1.784   5.239   2.440  0.1348 -1.4697 -0.4393
13224TIP3    H239630   1.840   5.238   2.581  0.7493 -1.6433 -0.6843
13225TIP3   OH239631   1.339   5.305   3.625 -0.0106 -0.3075 -0.0950
13225TIP3    H139632   1.391   5.330   3.701 -0.2977  1.0610 -0.3314
13225TIP3    H239633   1.254   5.280   3.662  0.0349 -0.1974  0.0857
13226TIP3   OH239634   5.466   6.330   1.309 -0.3547 -0.3670 -0.5663
13226TIP3    H139635   5.541   6.385   1.331 -0.1587 -0.1076 -1.8286
13226TIP3    H239636   5.390   6.379   1.340 -0.0173 -0.7422  0.9456
13227TIP3   OH239637   1.498   3.145   4.512 -0.5209 -0.1763  0.0900
13227TIP3    H139638   1.468   3.074   4.455 -1.4160 -0.2595  0.6411
13227TIP3    H239639   1.440   3.140   4.588 -0.6620  1.2019  0.1050
13228TIP3   OH239640   3.825   1.765   4.883  1.0290  0.2932  0.1632
13228TIP3    H139641   3.907   1.726   4.915  1.0175 -0.8290 -1.1107
13228TIP3    H239642   3.790   1.811   4.960  1.3804 -1.6596  1.5686
13229TIP3   OH239643   2.920   4.851   2.348 -0.1116  0.3871  0.3911
13229TIP3    H139644   2.853   4.906   2.307  0.6435  0.7206 -0.4436
13229TIP3    H239645   2.955   4.905   2.419  2.0768  1.9535 -1.6936
13230TIP3   OH239646   6.588   3.759   0.740  0.2985 -0.5856  0.2923
13230TIP3    H139647   6.680   3.781   0.727  0.3877  0.2159  2.0327
13230TIP3    H239648   6.541   3.810   0.674  1.0282 -0.2740  0.0100
13231TIP3   OH239649   2.441   1.815   5.278  0.5047  0.0859 -0.3553
13231TIP3    H139650   2.404   1.877   5.215 -1.0141 -1.2690 -0.8923
13231TIP3    H239651   2.409   1.845   5.363 -1.7279 -0.8766 -0.7815
13232TIP3   OH239652   5.809   7.464   2.401  0.4531 -0.5625  0.5696
13232TIP3    H139653   5.826   7.480   2.308 -1.8056  1.9541  0.4602
13232TIP3    H239654   5.838   7.374   2.415  2.3232 -0.5267 -2.1591
13233TIP3   OH239655   4.603   2.147   1.519  0.1257  0.1897 -0.4988
13233TIP3    H139656   4.595   2.184   1.607  0.4963  0.7270 -0.6852
13233TIP3    H239657   4.558   2.062   1.524 -1.7244  1.1267 -0.3548
13234TIP3   OH239658   5.254   3.000   1.176 -0.3041  0.5460  0.1528
13234TIP3    H139659   5.258   3.055   1.254 -1.9288  1.5214 -0.3907
13234TIP3    H239660   5.306   2.923   1.198 -0.0408  1.1666  1.8804
13235TIP3   OH239661   7.298   0.582   4.933  0.3080  0.3138  0.7058
13235TIP3    H139662   7.333   0.610   4.849  1.7612 -0.4352  1.0418
13235TIP3    H239663   7.230   0.519   4.911  3.9792 -3.8347  0.0148
13236TIP3   OH239664   7.292   3.701   5.187  0.5698  0.7102  0.1880
13236TIP3    H139665   7.326   3.643   5.120  1.3009  0.9827  0.3165
13236TIP3    H239666   7.207   3.730   5.153  0.8836  0.7553 -0.5665
13237TIP3   OH239667   7.706   4.854   0.079  0.1497  0.0852 -0.2282
13237TIP3    H139668   7.745   4.767   0.087  0.8206  0.5479  2.6406
13237TIP3    H239669   7.780   4.914   0.083 -0.1854  0.8584 -3.4211
13238TIP3   OH239670   5.731   5.776   2.889 -0.1770 -0.2411 -0.3917
13238TIP3    H139671   5.688   5.861   2.880 -0.5722 -0.1275  2.0068
13238TIP3    H239672   5.778   5.765   2.807 -1.1097  1.7179 -1.2662
13239TIP3   OH239673   5.775   6.647   3.667  0.5301  0.1658 -0.1175
13239TIP3    H139674   5.729   6.680   3.744 -1.5796  0.2632 -1.3378
13239TIP3    H239675   5.833   6.579   3.701 -0.8704 -0.3046  1.4685
13240TIP3   OH239676   8.303   0.504   3.619  0.0952 -0.6795  0.0330
13240TIP3    H139677   8.241   0.441   3.655  2.7567 -4.4964 -1.3998
13240TIP3    H239678   8.389   0.466   3.637  2.0399  3.1806 -0.0207
13241TIP3   OH239679   4.466   0.576   4.190 -0.0141  0.6360 -0.5740
13241TIP3    H139680   4.473   0.657   4.139  1.3165  0.8657 -0.0897
13241TIP3    H239681   4.412   0.518   4.136 -0.8267  1.7714 -1.0181
13242TIP3   OH239682   3.295   7.342   1.735  0.4969 -0.3956 -0.2818
13242TIP3    H139683   3.385   7.339   1.767 -0.1484  0.4600  1.7470
13242TIP3    H239684   3.286   7.429   1.696 -0.1164  0.4989  1.7518
13243TIP3   OH239685   5.389   0.627   6.522  0.5377  0.3712 -0.6446
13243TIP3    H139686   5.386   0.586   6.608  2.6174 -0.8389 -1.0867
13243TIP3    H239687   5.375   0.720   6.539  0.9159  0.1576  0.9902
13244TIP3   OH239688   5.575   4.786   5.543  0.2940  0.1433 -0.3173
13244TIP3    H139689   5.547   4.739   5.465 -0.1618 -2.3379  1.2480
13244TIP3    H239690   5.495   4.797   5.594  0.8004  0.5302  0.4055
13245TIP3   OH239691   3.112   0.833   0.387  0.1011 -0.0549 -0.3453
13245TIP3    H139692   3.051   0.860   0.456  2.1108 -1.7988  2.3219
13245TIP3    H239693   3.176   0.904   0.382  0.0011  0.0374 -0.3011
13246TIP3   OH239694   7.557   4.346   3.904 -0.5333  0.2035  0.7689
13246TIP3    H139695   7.607   4.330   3.823 -1.5516  1.1296 -0.0812
13246TIP3    H239696   7.500   4.270   3.911 -1.0054  0.4870  0.1514
13247TIP3   OH239697   1.398   6.199   2.952 -0.0340  0.5930 -0.6935
13247TIP3    H139698   1.451   6.162   2.882 -0.3521  0.4809 -0.8778
13247TIP3    H239699   1.332   6.132   2.970  1.5054 -0.4597  1.4063
13248TIP3   OH239700   2.697   6.443   5.172  0.1603 -0.2992 -0.3400
13248TIP3    H139701   2.782   6.426   5.212 -0.7113 -1.0807  1.2660
13248TIP3    H239702   2.666   6.357   5.144 -0.1531 -0.0339 -0.8304
13249TIP3   OH239703   6.438   4.591   4.974  0.0316 -0.0888 -0.0230
13249TIP3    H139704   6.476   4.678   4.968  2.8655 -1.1640  0.6565
13249TIP3    H239705   6.513   4.532   4.976 -1.7299 -2.4890  0.7858
13250TIP3   OH239706   4.950   4.052   3.785 -0.2808  0.4602  0.4214
13250TIP3    H139707   5.000   4.063   3.704  0.1514 -0.3727  0.5621
13250TIP3    H239708   4.985   4.119   3.844  0.6132 -0.0416  0.4799
13251TIP3   OH239709   5.542   2.257   5.055 -0.0272 -0.5066  0.1258
13251TIP3    H139710   5.510   2.188   5.113 -0.5445  0.1523  0.6439
13251TIP3    H239711   5.621   2.290   5.100  1.4593 -2.1280 -1.1458
13252TIP3   OH239712   6.199   3.907   4.890 -0.0401  0.2132  0.0117
13252TIP3    H139713   6.174   3.814   4.889 -0.2767  0.2727 -1.3729
13252TIP3    H239714   6.235   3.921   4.978 -1.9533 -0.6479  0.9933
13253TIP3   OH239715   1.849   7.680   3.223  0.3841  0.2781  0.5489
13253TIP3    H139716   1.840   7.586   3.234  1.6052  0.1896  0.8153
13253TIP3    H239717   1.942   7.695   3.208  0.5511  1.6654  2.6170
13254TIP3   OH239718   3.895   6.357   6.523 -0.3319 -0.3018  0.2303
13254TIP3    H139719   3.949   6.351   6.602 -2.2670  0.9533  1.7501
13254TIP3    H239720   3.864   6.268   6.508  1.4249 -0.8747 -0.1698
13255TIP3   OH239721   0.174   3.974   5.326  0.1276 -0.7982 -0.2402
13255TIP3    H139722   0.151   4.066   5.335  0.3463 -0.6603 -1.0091
13255TIP3    H239723   0.102   3.936   5.277  0.1670 -0.9815 -0.1570
13256TIP3   OH239724   1.640   0.697   2.901  0.1830  0.1683  0.4789
13256TIP3    H139725   1.618   0.790   2.890  1.0810  0.5601  1.7739
13256TIP3    H239726   1.630   0.680   2.994  1.2091 -0.7143  0.4513
13257TIP3   OH239727   4.041   6.444   5.701 -0.3895 -0.6201  0.7567
13257TIP3    H139728   4.064   6.375   5.639  1.7092  0.0548  0.7262
13257TIP3    H239729   3.978   6.499   5.654 -0.4286 -1.2889  0.0085
13258TIP3   OH239730   8.072   5.710   3.990  0.0476 -0.3444  0.3902
13258TIP3    H139731   8.148   5.738   3.941  0.2149 -2.0078 -0.3772
13258TIP3    H239732   8.090   5.618   4.011 -0.8936 -0.2229  1.8747
13259TIP3   OH239733   0.554   3.869   0.430 -0.2178 -0.4332 -0.5050
13259TIP3    H139734   0.559   3.894   0.338  1.4559  2.1498  0.1769
13259TIP3    H239735   0.637   3.825   0.449  0.4797  1.1125  0.2367
13260TIP3   OH239736   0.485   2.027   3.880 -0.4326  0.0275 -0.0443
13260TIP3    H139737   0.553   1.975   3.923 -1.3141 -0.1899  1.1329
13260TIP3    H239738   0.442   2.073   3.952 -1.6402  0.0338 -0.7550
13261TIP3   OH239739   4.921   3.938   1.035  0.7351 -0.3308 -0.0367
13261TIP3    H139740   4.915   3.978   1.122  1.4889 -0.5722  0.1334
13261TIP3    H239741   5.003   3.971   0.999 -0.3980  1.1833 -1.4013
13262TIP3   OH239742   7.704   2.928   3.864 -0.7362 -0.1302 -0.1051
13262TIP3    H139743   7.736   2.847   3.902 -0.7993 -0.0790  0.0559
13262TIP3    H239744   7.729   2.996   3.926 -1.0705 -0.0773 -0.0257
13263TIP3   OH239745   7.791   0.684   3.614  0.3248 -0.3858 -0.0305
13263TIP3    H139746   7.781   0.779   3.611 -0.3326 -0.4793 -0.8941
13263TIP3    H239747   7.836   0.668   3.697  1.1082  0.7320 -0.2207
13264TIP3   OH239748   2.757   2.856   6.212  0.3698 -0.1133  0.5318
13264TIP3    H139749   2.737   2.798   6.139  1.5703  0.7981 -0.5640
13264TIP3    H239750   2.754   2.800   6.290  0.2519 -1.3525 -0.3468
13265TIP3   OH239751   5.199   2.010   1.262  0.0150  0.3234 -0.0650
13265TIP3    H139752   5.188   1.990   1.355 -0.2227  0.7843  0.0131
13265TIP3    H239753   5.183   1.927   1.218 -0.2336  0.1788  0.2855
13266TIP3   OH239754   8.081   6.783   4.278 -0.0321 -0.2261  0.2752
13266TIP3    H139755   7.996   6.826   4.272 -0.4417 -0.5774  2.7548
13266TIP3    H239756   8.144   6.854   4.264 -0.6940  0.2069 -0.6487
13267TIP3   OH239757   4.026   4.695   3.022  0.4299 -0.6639 -0.2453
13267TIP3    H139758   4.071   4.736   2.949 -1.8270  2.2117 -0.2268
13267TIP3    H239759   3.938   4.675   2.989 -0.0276 -1.1071  1.1387
13268TIP3   OH239760   7.423   3.321   6.440 -0.2465  0.4243  0.0316
13268TIP3    H139761   7.503   3.372   6.427  0.2842 -0.3642  0.1261
13268TIP3    H239762   7.438   3.273   6.522 -0.6996  0.0626 -0.0939
13269TIP3   OH239763   2.905   0.963   1.620  0.2825 -0.0109  0.2887
13269TIP3    H139764   2.975   0.993   1.563  0.2111 -0.7751 -0.2215
13269TIP3    H239765   2.878   0.878   1.583  0.2332 -0.5259  1.4560
13270TIP3   OH239766   2.025   2.037   4.811 -0.2519 -0.1765 -0.0349
13270TIP3    H139767   1.969   2.114   4.823 -0.6799 -0.3409 -0.8771
13270TIP3    H239768   1.964   1.966   4.789  0.2504 -0.4226 -0.6844
13271TIP3   OH239769   8.104   5.910   0.959 -0.1405  0.1169  0.3435
13271TIP3    H139770   8.079   5.956   0.878 -0.0968 -0.0373  0.2429
13271TIP3    H239771   8.025   5.864   0.986 -0.6258  1.4215  1.2480
13272TIP3   OH239772   5.598   1.282   4.049  0.0814  0.1975 -0.3958
13272TIP3    H139773   5.670   1.238   4.093 -0.2192  0.5462  0.4873
13272TIP3    H239774   5.617   1.275   3.956  1.4134  0.5495 -0.1636
13273TIP3   OH239775   1.522   5.826   4.674 -0.6846 -0.3353  1.0165
13273TIP3    H139776   1.582   5.877   4.728  2.6090 -1.9946 -0.7538
13273TIP3    H239777   1.541   5.854   4.584 -1.9013 -1.6112  0.3279
13274TIP3   OH239778   1.882   0.524   1.723 -0.1765 -0.1855  0.0774
13274TIP3    H139779   1.970   0.502   1.691 -0.2770  0.3075 -0.5494
13274TIP3    H239780   1.869   0.615   1.697 -0.1933  0.3154  1.7044
13275TIP3   OH239781   8.283   5.356   3.482 -0.1800 -0.0729  0.2366
13275TIP3    H139782   8.191   5.349   3.459 -0.1892  1.3432 -0.2306
13275TIP3    H239783   8.302   5.450   3.481  0.7385 -0.1603  2.4350
13276TIP3   OH239784   4.652   2.302   3.179  0.2619 -0.1052 -0.1901
13276TIP3    H139785   4.737   2.311   3.222  0.5019 -0.4101 -0.5891
13276TIP3    H239786   4.590   2.294   3.251  0.4612  0.9399  0.1293
13277TIP3   OH239787   3.793   7.228   1.685  0.2747  0.5508  0.1016
13277TIP3    H139788   3.846   7.180   1.621  0.2659  2.3703 -1.3429
13277TIP3    H239789   3.827   7.317   1.682 -0.6325  0.9760  1.6615
13278TIP3   OH239790   7.170   2.848   5.715 -0.1448 -0.3219 -0.1148
13278TIP3    H139791   7.252   2.842   5.763  0.6034 -2.0007 -1.5263
13278TIP3    H239792   7.176   2.781   5.647 -1.8122  0.9197 -1.5838
13279TIP3   OH239793   1.932   0.237   6.603 -0.1962  0.1948  0.5398
13279TIP3    H139794   1.925   0.321   6.647 -0.6792 -0.6870  2.2383
13279TIP3    H239795   1.866   0.182   6.646  1.4840 -1.6387  0.9188
13280TIP3   OH239796   5.106   2.400   0.991  0.7740  0.0588  0.4902
13280TIP3    H139797   5.176   2.369   1.048  0.9743 -3.0124 -1.2297
13280TIP3    H239798   5.149   2.419   0.907 -0.3300 -1.5650 -0.5023
13281TIP3   OH239799   4.781   3.297   4.502 -0.0344 -0.4551  0.2999
13281TIP3    H139800   4.740   3.289   4.588  0.4306 -0.6683  0.5017
13281TIP3    H239801   4.797   3.391   4.492 -2.0428 -0.1524 -0.4712
13282TIP3   OH239802   7.821   6.977   0.070 -0.3340  0.1258 -0.3074
13282TIP3    H139803   7.866   6.895   0.091 -0.9526 -0.1680 -0.1142
13282TIP3    H239804   7.768   6.957  -0.007  1.4233  1.0256 -1.8316
13283TIP3   OH239805   0.928   0.112   5.279  0.0072  0.4945  0.1031
13283TIP3    H139806   0.877   0.173   5.225 -0.2564  0.6842  0.5618
13283TIP3    H239807   1.017   0.146   5.276 -0.2470  1.2783  0.8648
13284TIP3   OH239808   5.320   3.966   3.818 -0.2665 -0.1678 -0.3915
13284TIP3    H139809   5.279   4.034   3.766  1.6903  2.4361  1.2319
13284TIP3    H239810   5.253   3.943   3.883 -1.1002 -0.1621 -1.2180
13285TIP3   OH239811   5.778   3.786   2.866  0.4492  0.4662 -0.7890
13285TIP3    H139812   5.848   3.792   2.931 -0.8772  1.2553  0.6181
13285TIP3    H239813   5.747   3.696   2.872  0.9328  0.2819 -0.9935
13286TIP3   OH239814   6.117   7.375   1.681  0.5537  0.5212 -0.2267
13286TIP3    H139815   6.206   7.345   1.699  0.2036 -0.6034 -0.2918
13286TIP3    H239816   6.114   7.387   1.586  0.1526 -1.1237 -0.4442
13287TIP3   OH239817   3.051   7.003   1.334 -0.1223  0.2234 -0.1545
13287TIP3    H139818   3.127   6.958   1.298  1.4080  1.7012  1.0280
13287TIP3    H239819   3.027   7.068   1.267  0.4165  0.5347 -0.0503
13288TIP3   OH239820   1.200   2.804   5.720 -0.3563 -0.1051  0.1173
13288TIP3    H139821   1.119   2.762   5.693  0.0290 -1.8498  1.5228
13288TIP3    H239822   1.171   2.881   5.770 -1.1374 -0.5299  0.3341
13289TIP3   OH239823   5.031   3.830   0.228  0.5803 -0.1583 -0.1054
13289TIP3    H139824   4.974   3.808   0.154 -0.7172  2.5888 -0.0547
13289TIP3    H239825   5.118   3.842   0.188 -0.1539  1.5486 -1.3004
13290TIP3   OH239826   7.323   7.591   3.675  0.4504  0.0114  0.4311
13290TIP3    H139827   7.338   7.497   3.680  0.1120  0.0211  2.6860
13290TIP3    H239828   7.282   7.604   3.590 -1.1067 -2.1350  0.7651
13291TIP3   OH239829   5.678   1.693   3.683  0.0961 -0.6298 -0.2653
13291TIP3    H139830   5.631   1.710   3.601  0.4288  2.8525  0.1546
13291TIP3    H239831   5.766   1.669   3.655 -0.2844 -1.3688 -0.9117
13292TIP3   OH239832   3.432   4.718   2.873 -0.2728 -0.0930  0.2827
13292TIP3    H139833   3.439   4.758   2.959 -2.4599 -0.1435  0.5504
13292TIP3    H239834   3.472   4.782   2.814 -1.2212  1.2449  1.0322
13293TIP3   OH239835   7.451   7.421   3.917 -0.0236  0.4202 -0.1670
13293TIP3    H139836   7.494   7.433   3.833 -0.1354 -1.0330 -0.4488
13293TIP3    H239837   7.523   7.410   3.980  0.1263 -2.2614 -0.6746
13294TIP3   OH239838   6.185   1.016   3.670  0.0589  0.6173 -0.2842
13294TIP3    H139839   6.254   0.954   3.694 -1.0442 -0.7426 -0.4777
13294TIP3    H239840   6.140   1.035   3.753  1.5668  2.7344  0.1276
13295TIP3   OH239841   4.946   4.079   5.950 -0.1923 -0.4516  0.4166
13295TIP3    H139842   4.910   4.127   6.024  1.1177  1.8613 -0.3629
13295TIP3    H239843   4.868   4.045   5.904 -1.0756 -0.5497  1.9249
13296TIP3   OH239844   6.225   7.245   4.485  0.1492 -0.5535  0.0650
13296TIP3    H139845   6.314   7.215   4.501  0.3144 -1.3356 -2.0477
13296TIP3    H239846   6.209   7.226   4.393 -1.3097  1.9214 -0.2771
13297TIP3   OH239847   6.013   4.761   5.508 -0.1471 -0.0736  0.3711
13297TIP3    H139848   5.976   4.844   5.477  0.3095 -0.1686 -0.4671
13297TIP3    H239849   6.032   4.776   5.600  1.2702  1.2414 -0.0999
13298TIP3   OH239850   7.599   6.817   3.361 -0.9635 -0.1434 -0.1686
13298TIP3    H139851   7.550   6.735   3.361 -0.6023 -0.3723  0.8715
13298TIP3    H239852   7.638   6.822   3.448  0.1639  0.4564 -0.6839
13299TIP3   OH239853   0.785   7.015   3.876  0.4779 -0.0295  0.1420
13299TIP3    H139854   0.717   7.079   3.894 -1.1361 -1.3520 -1.0038
13299TIP3    H239855   0.862   7.048   3.924 -1.5990  0.1929  3.7093
13300TIP3   OH239856   6.192   4.938   5.294 -0.1958  0.0180  0.4194
13300TIP3    H139857   6.139   4.862   5.270  0.6104 -0.6410  0.6842
13300TIP3    H239858   6.178   4.999   5.222  1.8205 -1.7361 -1.6155
13301TIP3   OH239859   5.189   4.967   5.323 -0.3913 -0.3799 -0.0524
13301TIP3    H139860   5.246   4.960   5.246 -0.8478  0.3368 -0.4723
13301TIP3    H239861   5.187   4.879   5.360  0.9452 -0.4305 -0.0493
13302TIP3   OH239862   7.837   0.277   6.119 -0.4161  0.0327 -0.6353
13302TIP3    H139863   7.776   0.313   6.184  0.8207 -0.7880  1.0558
13302TIP3    H239864   7.801   0.191   6.098 -0.3050 -0.0986 -0.2924
13303TIP3   OH239865   5.261   5.264   6.624  0.0482 -0.1664  0.8026
13303TIP3    H139866   5.226   5.241   6.710 -0.3502 -1.0408  0.4212
13303TIP3    H239867   5.355   5.245   6.631  0.1264  0.3796  1.2422
13304TIP3   OH239868   1.506   6.187   2.272  0.0561 -0.1618 -0.2980
13304TIP3    H139869   1.497   6.100   2.232 -0.1017  0.5865 -2.0095
13304TIP3    H239870   1.534   6.243   2.199 -0.3228  1.3134  0.6551
13305TIP3   OH239871   7.294   6.252   5.573 -0.5523 -0.3843 -0.2599
13305TIP3    H139872   7.260   6.257   5.484 -0.9363  0.9689 -0.0556
13305TIP3    H239873   7.216   6.244   5.628 -0.4073  0.1033  0.0293
13306TIP3   OH239874   5.696   7.152   4.133 -0.5413 -0.0609  0.0374
13306TIP3    H139875   5.640   7.169   4.209  0.1964 -0.6698  0.7400
13306TIP3    H239876   5.742   7.071   4.156 -0.6366 -0.4949 -1.2537
13307TIP3   OH239877   6.341   1.995   4.575 -0.1741 -0.3309 -0.0845
13307TIP3    H139878   6.296   2.069   4.534  0.8120 -0.2807 -1.1250
13307TIP3    H239879   6.297   1.917   4.540  0.3937 -0.2769 -0.9499
13308TIP3   OH239880   5.784   3.862   0.527 -0.1263  0.7354  0.3244
13308TIP3    H139881   5.752   3.829   0.611 -1.3743  1.0597 -0.0022
13308TIP3    H239882   5.730   3.818   0.461  1.3974 -0.1685 -0.3965
13309TIP3   OH239883   2.565   3.676   0.149  0.7793 -0.2475 -0.0358
13309TIP3    H139884   2.641   3.733   0.133  1.4321 -0.9501  0.4543
13309TIP3    H239885   2.586   3.631   0.231  0.0297 -0.7895 -0.1308
13310TIP3   OH239886   1.385   4.312   3.522 -0.5684 -0.1362 -0.0674
13310TIP3    H139887   1.387   4.394   3.572  2.1971 -0.1456 -0.0058
13310TIP3    H239888   1.475   4.281   3.525 -1.1043 -2.0560 -1.9867
13311TIP3   OH239889   2.749   1.471   2.769  0.0251  0.2735 -0.4727
13311TIP3    H139890   2.794   1.522   2.836  0.2767 -0.2069 -0.2741
13311TIP3    H239891   2.728   1.535   2.701  2.5291  0.2316 -1.3853
13312TIP3   OH239892   4.899   0.685   3.941  0.1933 -0.0323 -0.1816
13312TIP3    H139893   4.832   0.747   3.912  0.4214  1.0069  1.3369
13312TIP3    H239894   4.873   0.663   4.031  1.5417 -0.0607  0.2254
13313TIP3   OH239895   4.049   2.796   1.476  0.1399  0.0611 -0.0507
13313TIP3    H139896   4.114   2.805   1.407  1.0362  1.8093  0.9310
13313TIP3    H239897   3.967   2.826   1.437 -0.0809 -1.8836 -1.2107
13314TIP3   OH239898   2.161   6.244   5.817 -0.0917  0.2290 -0.0040
13314TIP3    H139899   2.255   6.260   5.823  0.0061 -0.8492  2.5261
13314TIP3    H239900   2.132   6.302   5.747  2.6129 -0.3339 -1.7850
13315TIP3   OH239901   3.883   4.330   5.369 -0.5801  0.2305 -0.1323
13315TIP3    H139902   3.964   4.328   5.421 -0.9713 -0.5052  0.4656
13315TIP3    H239903   3.887   4.249   5.318 -0.8270  0.3154 -0.2847
13316TIP3   OH239904   5.528   5.490   0.728 -0.0048 -0.3123 -0.0922
13316TIP3    H139905   5.553   5.576   0.762 -0.7338  1.4442 -3.5359
13316TIP3    H239906   5.433   5.494   0.720  0.1317 -0.2119 -2.8347
13317TIP3   OH239907   3.948   4.945   0.537 -0.3302 -0.3238 -0.4570
13317TIP3    H139908   3.936   4.906   0.450 -0.5452 -0.1890 -0.4882
13317TIP3    H239909   3.974   4.871   0.592 -3.3222 -1.0877  0.0796
13318TIP3   OH239910   3.002   2.286   2.271  0.2580 -0.7025 -0.2341
13318TIP3    H139911   3.021   2.362   2.215  1.4494 -0.0433  1.0281
13318TIP3    H239912   3.035   2.310   2.357 -2.8634 -1.0628  1.2046
13319TIP3   OH239913   5.897   0.170   5.242 -0.0875 -0.0226 -0.4905
13319TIP3    H139914   5.892   0.190   5.336  0.0556 -1.7185 -0.0854
13319TIP3    H239915   5.851   0.242   5.200 -0.1810  0.7660  0.8791
13320TIP3   OH239916   8.242   0.238   6.643  0.1768 -0.3450 -0.2448
13320TIP3    H139917   8.311   0.268   6.584  1.7172  0.1607  1.6938
13320TIP3    H239918   8.279   0.160   6.685  0.0629  0.5152  1.5740
13321TIP3   OH239919   7.355   2.228   2.093  0.0864 -0.4125 -0.0418
13321TIP3    H139920   7.344   2.134   2.076  1.8404 -0.7518  0.4921
13321TIP3    H239921   7.396   2.232   2.179 -1.5316  0.9475  0.7118
13322TIP3   OH239922   6.246   7.562   0.834  0.1141  0.2684 -0.4054
13322TIP3    H139923   6.156   7.590   0.817 -0.8379 -2.0478  0.4726
13322TIP3    H239924   6.252   7.560   0.930  1.1912  0.5958 -0.4575
13323TIP3   OH239925   6.347   3.858   5.333  0.1637 -0.0025  0.1917
13323TIP3    H139926   6.409   3.808   5.386 -0.9765 -1.2027  0.4346
13323TIP3    H239927   6.277   3.882   5.394  0.0113  0.6858 -0.2399
13324TIP3   OH239928   2.728   3.426   4.428  0.2684 -0.3990 -0.1164
13324TIP3    H139929   2.795   3.493   4.414  1.3469 -1.4727 -0.1958
13324TIP3    H239930   2.725   3.378   4.346 -0.3107 -0.6240  0.0324
13325TIP3   OH239931   6.408   4.720   0.548 -0.0537  0.1748  0.2712
13325TIP3    H139932   6.368   4.777   0.483 -1.4006 -0.3849  0.5670
13325TIP3    H239933   6.393   4.765   0.632  1.8764  1.0091  0.2114
13326TIP3   OH239934   6.408   3.697   1.427  0.6032 -0.3099  0.1729
13326TIP3    H139935   6.467   3.704   1.502  2.1252 -0.2445 -0.9953
13326TIP3    H239936   6.404   3.604   1.408 -0.0555 -0.3613  0.5164
13327TIP3   OH239937   3.721   7.166   4.322  0.0309  0.1731 -0.0216
13327TIP3    H139938   3.715   7.115   4.403 -0.8898  0.7958  0.3220
13327TIP3    H239939   3.648   7.228   4.327  1.3781  1.8644 -0.1886
13328TIP3   OH239940   8.267   3.111   4.032  0.4384  0.3249  0.3402
13328TIP3    H139941   8.298   3.051   3.964 -0.5031 -0.4865  0.6021
13328TIP3    H239942   8.330   3.183   4.032  0.7098  0.1129 -1.0770
13329TIP3   OH239943   7.749   6.212   0.658 -0.1993 -0.0652  0.1746
13329TIP3    H139944   7.722   6.212   0.750 -1.5501 -0.4015 -0.2119
13329TIP3    H239945   7.668   6.205   0.609  0.3720  1.5883 -1.1039
13330TIP3   OH239946   3.734   2.818   4.558  0.6058 -0.8470  0.0481
13330TIP3    H139947   3.765   2.785   4.642 -1.4724 -0.8415  0.8559
13330TIP3    H239948   3.705   2.740   4.510  2.5680 -0.9593 -1.0756
13331TIP3   OH239949   1.918   3.577   2.084  0.0009  0.3107 -0.2464
13331TIP3    H139950   1.888   3.491   2.056  1.4089 -0.1661 -0.3856
13331TIP3    H239951   1.960   3.562   2.169  1.1280  0.6679 -0.7176
13332TIP3   OH239952   4.645   5.482   0.323  0.1614  0.2893  0.1547
13332TIP3    H139953   4.626   5.555   0.265 -0.7975 -0.1209 -0.0649
13332TIP3    H239954   4.566   5.470   0.375  0.3627 -0.4708  0.3104
13333TIP3   OH239955   7.699   3.249   4.019  0.3776  0.3470  0.4547
13333TIP3    H139956   7.737   3.172   4.061  0.7271  0.0474 -0.3775
13333TIP3    H239957   7.654   3.214   3.942  0.4090  0.9548  0.1578
13334TIP3   OH239958   3.084   1.094   6.514  0.0224  0.2380 -0.0929
13334TIP3    H139959   3.129   1.175   6.538 -0.5150  1.3395 -2.5249
13334TIP3    H239960   2.991   1.113   6.525 -0.1287  0.1370 -1.0488
13335TIP3   OH239961   7.297   7.326   1.183 -0.0690 -0.0724 -0.0495
13335TIP3    H139962   7.212   7.332   1.225  0.1022 -0.3816  0.3441
13335TIP3    H239963   7.330   7.416   1.181 -1.1841  0.3556 -1.8630
13336TIP3   OH239964   6.824   6.181   4.604 -0.0834  0.0061  0.0440
13336TIP3    H139965   6.867   6.100   4.631 -0.8996 -0.4825 -0.1113
13336TIP3    H239966   6.812   6.230   4.685  0.2641 -0.0978  0.1602
13337TIP3   OH239967   2.014   1.639   4.449  0.5169 -0.2115 -0.3408
13337TIP3    H139968   1.921   1.660   4.459  0.2503 -1.2052 -0.6445
13337TIP3    H239969   2.046   1.633   4.539 -0.2006 -1.8900 -0.1569
13338TIP3   OH239970   7.607   5.382   1.592  0.2920  0.1051 -0.7290
13338TIP3    H139971   7.597   5.462   1.643 -1.0442 -0.1607 -0.5171
13338TIP3    H239972   7.524   5.373   1.545 -0.5847 -2.3648  1.0550
13339TIP3   OH239973   4.832   4.033   4.051 -0.3381  0.3175  0.0412
13339TIP3    H139974   4.871   4.026   3.964  0.9059  0.3667  0.5755
13339TIP3    H239975   4.900   4.002   4.110 -1.3182 -0.1340  0.9757
13340TIP3   OH239976   2.085   5.510   1.649  0.0022  0.5659  0.5119
13340TIP3    H139977   2.038   5.459   1.715 -0.5382 -0.5968 -0.7221
13340TIP3    H239978   2.137   5.446   1.602  0.5072  1.3944 -0.0855
13341TIP3   OH239979   1.963   5.749   3.109 -0.1460 -0.0529  0.2351
13341TIP3    H139980   1.898   5.816   3.131 -0.1513 -0.2739  0.8980
13341TIP3    H239981   1.948   5.679   3.172  0.5839 -0.2101  0.2399
13342TIP3   OH239982   0.131   1.102   0.854 -0.2529 -0.0280 -0.1031
13342TIP3    H139983   0.201   1.071   0.797 -0.0137  0.5128 -0.1124
13342TIP3    H239984   0.061   1.130   0.795  0.3176  1.3068 -0.1845
13343TIP3   OH239985   7.280   7.548   6.304  0.7969 -0.6697  1.1402
13343TIP3    H139986   7.322   7.595   6.376  1.2141 -1.5222  1.4757
13343TIP3    H239987   7.235   7.475   6.347 -0.0985 -0.4118  0.6659
13344TIP3   OH239988   5.212   0.050   1.242 -0.0003 -0.2225 -0.3304
13344TIP3    H139989   5.227   0.142   1.264 -0.5159 -0.2430  0.1258
13344TIP3    H239990   5.275   0.002   1.295  0.1849 -0.1459 -0.4768
13345TIP3   OH239991   0.746   7.286   3.694  0.7835 -0.3894  0.0303
13345TIP3    H139992   0.652   7.305   3.691 -0.2178 -4.3373  0.7045
13345TIP3    H239993   0.781   7.350   3.756 -2.0373 -0.6160  2.0798
13346TIP3   OH239994   7.514   4.817   6.683 -0.0514 -0.3104  0.2241
13346TIP3    H139995   7.577   4.771   6.627  1.1638  2.3074 -0.7267
13346TIP3    H239996   7.440   4.836   6.625 -1.0430 -1.9082  0.9018
13347TIP3   OH239997   5.666   0.618   5.954  0.2161  0.0724  0.3237
13347TIP3    H139998   5.572   0.610   5.965  0.3204 -0.8196  0.7187
13347TIP3    H239999   5.678   0.670   5.875 -0.6149 -1.0469 -0.5646
13348TIP3   OH240000   4.910   5.809   2.069  0.0291  0.2891  0.7967
13348TIP3    H140001   4.940   5.900   2.065  0.3934  0.1299 -1.0663
13348TIP3    H240002   4.814   5.815   2.064  0.0888  0.5627 -0.3077
13349TIP3   OH240003   6.071   3.503   5.802  0.1336 -0.1015 -0.2946
13349TIP3    H140004   6.077   3.552   5.720  0.5484 -0.6914 -0.6222
13349TIP3    H240005   6.122   3.555   5.864  1.2502 -0.4980 -0.8383
13350TIP3   OH240006   2.677   6.101   5.856 -0.1470 -0.1453  0.2213
13350TIP3    H140007   2.693   6.041   5.784  2.8380  0.6501  0.0820
13350TIP3    H240008   2.723   6.062   5.931  1.3943  1.5849  0.2612
13351TIP3   OH240009   6.277   6.226   6.663  0.0351  0.3325  0.4524
13351TIP3    H140010   6.208   6.203   6.602 -1.2653 -0.1422  2.0317
13351TIP3    H240011   6.323   6.143   6.679 -0.4038  0.1994  1.0412
13352TIP3   OH240012   7.448   2.145   6.194 -0.3941 -0.1385 -0.4179
13352TIP3    H140013   7.424   2.157   6.102  0.2166 -2.5135 -0.9525
13352TIP3    H240014   7.383   2.083   6.227  0.2298 -0.3760  0.3643
13353TIP3   OH240015   5.328   6.056   6.798  0.4692  0.1881 -0.1903
13353TIP3    H140016   5.251   6.108   6.823 -0.2191 -0.4605 -0.9008
13353TIP3    H240017   5.355   6.092   6.714  1.5790  1.0746  0.5203
13354TIP3   OH240018   2.995   0.514   6.162  0.2035 -0.0190 -0.4027
13354TIP3    H140019   3.032   0.545   6.244 -3.0368  0.9635  0.8287
13354TIP3    H240020   2.943   0.437   6.186 -0.5476  0.0945 -1.5789
13355TIP3   OH240021   4.287   2.409   1.707  0.3906  0.0634  0.0988
13355TIP3    H140022   4.223   2.346   1.675 -0.0955  0.3730  0.4437
13355TIP3    H240023   4.302   2.384   1.798  2.4312 -1.3609 -0.5432
13356TIP3   OH240024   4.560   7.824   1.930  0.2641  0.6084  0.3042
13356TIP3    H140025   4.480   7.834   1.982  0.8173  1.0892  1.0709
13356TIP3    H240026   4.590   7.735   1.949  1.2960  1.2891  2.0343
13357TIP3   OH240027   2.378   5.577   6.048 -0.3975  0.0548 -0.5438
13357TIP3    H140028   2.465   5.619   6.047 -0.3698  0.0374  0.4169
13357TIP3    H240029   2.363   5.556   6.140 -0.7675 -1.3278 -0.9103
13358TIP3   OH240030   0.016   4.196   3.222 -0.2327  0.0434  0.2326
13358TIP3    H140031   0.102   4.195   3.180 -0.7252 -1.4667 -0.8204
13358TIP3    H240032  -0.046   4.177   3.152 -1.5363  1.7786  0.8395
13359TIP3   OH240033   3.434   4.298   3.307  0.0396  0.3957 -0.2747
13359TIP3    H140034   3.385   4.343   3.375  0.7018  0.4781  0.1595
13359TIP3    H240035   3.499   4.245   3.355  0.7005  0.6794 -0.8389
13360TIP3   OH240036   3.493   5.410   1.474 -0.1654  0.0882  0.3903
13360TIP3    H140037   3.547   5.340   1.510 -2.2313 -1.2304  1.1028
13360TIP3    H240038   3.544   5.444   1.401  1.6965 -0.9144  1.1427
13361TIP3   OH240039   6.305   0.149   6.422  0.1498 -0.6753 -0.7695
13361TIP3    H140040   6.278   0.217   6.484  0.7434  0.3320 -1.5903
13361TIP3    H240041   6.399   0.139   6.437  0.2132 -0.7371 -1.2035
13362TIP3   OH240042   3.201   6.331   6.594 -0.2137  0.1135  0.0971
13362TIP3    H140043   3.229   6.364   6.508  0.2169  1.2815  0.6611
13362TIP3    H240044   3.282   6.321   6.643 -0.5408  0.6323  0.7583
13363TIP3   OH240045   5.339   1.526   1.139 -0.4464 -0.6322  0.5663
13363TIP3    H140046   5.388   1.489   1.066 -0.2536  1.0821 -0.2113
13363TIP3    H240047   5.394   1.509   1.216 -0.9932 -3.0935  0.4934
13364TIP3   OH240048   2.594   3.237   4.949 -0.1699  0.4159  0.1662
13364TIP3    H140049   2.609   3.240   5.044 -1.5137 -0.6743  0.4535
13364TIP3    H240050   2.518   3.180   4.939 -0.0307  0.4829 -1.5866
13365TIP3   OH240051   6.923   0.112   0.343  0.0690  0.1205  0.0855
13365TIP3    H140052   6.970   0.097   0.425 -2.2083 -1.8906  1.1583
13365TIP3    H240053   6.920   0.026   0.301  0.0686  0.8546 -1.5213
13366TIP3   OH240054   7.768   1.607   5.293  0.3707  0.2469 -0.0690
13366TIP3    H140055   7.682   1.642   5.272  0.1727 -0.9406 -1.4463
13366TIP3    H240056   7.787   1.547   5.221  1.5005 -0.9883  1.2032
13367TIP3   OH240057   0.058   6.745   0.979 -0.3304 -0.1190  0.2010
13367TIP3    H140058  -0.013   6.780   1.033 -1.0066  0.1376 -0.8212
13367TIP3    H240059   0.058   6.651   0.999  2.2937  0.4605  3.8737
13368TIP3   OH240060   0.005   3.388   2.708 -0.0757  0.1006  0.2014
13368TIP3    H140061   0.078   3.442   2.736  1.0139 -0.9257 -0.5665
13368TIP3    H240062   0.003   3.397   2.612 -0.3601 -0.6033  0.1309
13369TIP3   OH240063   7.165   1.130   0.374 -0.2208  0.3580  0.3086
13369TIP3    H140064   7.108   1.099   0.444 -0.0342  2.6125  1.5535
13369TIP3    H240065   7.175   1.054   0.316 -0.9129 -1.3964  2.3443
13370TIP3   OH240066   2.263   3.993   6.027 -0.1613  0.0428  0.2820
13370TIP3    H140067   2.236   4.078   6.062 -0.6745 -0.4331  1.0623
13370TIP3    H240068   2.229   3.929   6.090  2.0414 -0.6379  0.8532
13371TIP3   OH240069   0.158   2.681   1.402 -0.4448 -0.4174  0.2797
13371TIP3    H140070   0.116   2.598   1.425 -1.6028 -0.0647 -0.4675
13371TIP3    H240071   0.149   2.687   1.307 -0.6414  0.7065  0.3547
13372TIP3   OH240072   4.962   5.286   0.997  0.2921  0.0926 -0.5247
13372TIP3    H140073   5.002   5.214   1.046 -1.0539 -0.9442 -0.8536
13372TIP3    H240074   5.023   5.359   1.005  0.0101  0.1057  2.9864
13373TIP3   OH240075   0.546   4.836   3.107 -0.0590  0.0749 -0.1889
13373TIP3    H140076   0.478   4.796   3.053 -0.3628  1.2645 -0.7294
13373TIP3    H240077   0.544   4.786   3.189 -0.7238 -0.7071 -0.6691
13374TIP3   OH240078   7.078   0.832   4.907 -0.8791  0.0589  0.3538
13374TIP3    H140079   7.043   0.798   4.825 -0.2665 -2.0733  0.9063
13374TIP3    H240080   7.123   0.913   4.883 -0.8781 -0.4318 -1.3832
13375TIP3   OH240081   7.602   5.144   2.461 -0.3715 -0.1299 -0.2100
13375TIP3    H140082   7.677   5.203   2.453 -1.5379  1.3445 -0.9445
13375TIP3    H240083   7.528   5.197   2.431 -1.5157 -1.9207 -0.6711
13376TIP3   OH240084   2.298   4.491   3.617  0.6395  0.5140  0.7216
13376TIP3    H140085   2.391   4.503   3.601  0.9516  1.5796  2.9678
13376TIP3    H240086   2.279   4.545   3.694 -1.4015 -1.2266  1.5551
13377TIP3   OH240087   7.936   2.296   3.309 -0.1738  0.1262  0.2727
13377TIP3    H140088   8.023   2.283   3.346 -0.1791  0.0283  0.2501
13377TIP3    H240089   7.930   2.232   3.238  0.4338  1.3662 -0.9360
13378TIP3   OH240090   2.545   7.418   4.657  0.3644  0.1121 -0.1412
13378TIP3    H140091   2.478   7.456   4.600  1.5992  1.9089 -0.4919
13378TIP3    H240092   2.548   7.477   4.732  2.0463  0.5330 -0.4946
13379TIP3   OH240093   0.757   6.506   5.443  0.4021  0.1379  0.0244
13379TIP3    H140094   0.741   6.567   5.371  0.1931  2.4608  1.9040
13379TIP3    H240095   0.850   6.515   5.462  0.3054  0.1659  0.5227
13380TIP3   OH240096   5.015   7.454   6.007  0.2540 -0.3332  0.0162
13380TIP3    H140097   5.027   7.412   6.093  1.9916 -1.1759 -0.5942
13380TIP3    H240098   4.920   7.455   5.994  0.0036 -0.8990  1.6085
13381TIP3   OH240099   7.420  -0.006   5.398  0.4062  0.6419 -0.3047
13381TIP3    H140100   7.508   0.030   5.385  0.1890  1.1799 -0.2720
13381TIP3    H240101   7.382   0.049   5.466 -0.1640  0.7621 -0.7170
13382TIP3   OH240102   5.558   1.465   3.077 -0.1901 -0.5911  0.3867
13382TIP3    H140103   5.617   1.490   3.149 -0.4798 -1.3119  0.8935
13382TIP3    H240104   5.562   1.369   3.076  0.4395 -0.5750 -1.1004
13383TIP3   OH240105   1.156   5.413   3.919  0.2120 -0.1851  0.1653
13383TIP3    H140106   1.206   5.361   3.982 -0.9298  0.1489  1.3860
13383TIP3    H240107   1.183   5.504   3.936 -1.9605  0.1876  2.0009
13384TIP3   OH240108   2.273   2.840   1.543  0.3986 -0.2635  0.2798
13384TIP3    H140109   2.226   2.760   1.568 -1.3107  0.1666 -1.3014
13384TIP3    H240110   2.229   2.909   1.592  1.6604 -0.2208  1.3913
13385TIP3   OH240111   8.216   3.347   1.284 -0.1189 -0.1960  0.1707
13385TIP3    H140112   8.236   3.433   1.248  1.7450 -0.4669  0.4297
13385TIP3    H240113   8.230   3.356   1.378 -1.2850 -0.4445  0.3826
13386TIP3   OH240114   3.463   3.120   6.634 -0.2740 -0.4764 -0.2399
13386TIP3    H140115   3.478   3.166   6.551 -2.5082 -0.4453 -0.6665
13386TIP3    H240116   3.390   3.061   6.616  0.3676 -1.7866  1.2342
13387TIP3   OH240117   1.080   0.102   1.964  0.1415 -0.0918  0.1096
13387TIP3    H140118   1.086   0.155   2.043  0.1165 -0.0702  0.0968
13387TIP3    H240119   1.171   0.079   1.944  0.3288  1.2893 -0.7964
13388TIP3   OH240120   4.048   3.554   3.405  0.4478 -0.0100  0.0172
13388TIP3    H140121   3.978   3.620   3.401  0.0747 -0.3369  0.9701
13388TIP3    H240122   4.084   3.552   3.316 -1.9183 -1.0885 -1.0124
13389TIP3   OH240123   3.804   4.076   6.227 -0.7807  0.2936  0.6894
13389TIP3    H140124   3.785   4.166   6.202  1.3373  1.2360  2.1775
13389TIP3    H240125   3.809   4.028   6.144 -0.1565  1.9489 -0.2767
13390TIP3   OH240126   0.542   2.692   0.051 -0.2451 -0.1650 -0.0484
13390TIP3    H140127   0.464   2.724   0.095 -0.8370  0.0538 -1.2309
13390TIP3    H240128   0.603   2.673   0.123 -1.2125  0.0622  0.8683
13391TIP3   OH240129   5.934   7.686   1.298  0.0038 -0.1245 -0.0090
13391TIP3    H140130   6.009   7.723   1.250  0.0880 -1.2005 -0.7485
13391TIP3    H240131   5.925   7.742   1.375  1.2663  0.3209 -0.1578
13392TIP3   OH240132   3.845   0.785   0.389  0.3986 -0.4209  0.1672
13392TIP3    H140133   3.826   0.755   0.478  0.6025  1.9941  1.1030
13392TIP3    H240134   3.920   0.843   0.399  0.3704 -0.0196 -1.5841
13393TIP3   OH240135   6.301   1.930   6.736 -0.0415  0.5251 -0.7947
13393TIP3    H140136   6.217   1.958   6.702 -0.3197  0.9486  0.1947
13393TIP3    H240137   6.358   2.006   6.726  0.1242  0.3593 -1.1270
13394TIP3   OH240138   6.554   3.111   5.608  0.2377  0.1843 -0.2096
13394TIP3    H140139   6.588   3.023   5.588 -1.4791 -0.7421  0.6687
13394TIP3    H240140   6.613   3.144   5.676 -0.4628 -1.3654  1.2576
13395TIP3   OH240141   8.274   6.127   1.030  0.0089  0.5551 -0.0094
13395TIP3    H140142   8.226   6.160   1.106 -0.1838 -0.8081  0.4805
13395TIP3    H240143   8.207   6.117   0.962 -0.4451 -1.3389  0.6713
13396TIP3   OH240144   0.044   6.998   0.267 -0.3155 -0.1585  0.5713
13396TIP3    H140145  -0.050   6.984   0.253 -0.6281  1.1603  1.1753
13396TIP3    H240146   0.049   7.038   0.353  0.7419  0.5266  0.2051
13397TIP3   OH240147   6.576   3.949   5.252  0.1594  0.0546  0.0751
13397TIP3    H140148   6.634   3.916   5.183 -0.2939  1.1753 -0.8887
13397TIP3    H240149   6.492   3.906   5.236  0.0955  0.1981  0.0213
13398TIP3   OH240150   3.776   6.514   3.104  0.2360 -0.6175  0.2605
13398TIP3    H140151   3.793   6.528   3.011  1.8869 -1.1717  0.4495
13398TIP3    H240152   3.813   6.428   3.122  0.3692 -0.3043  1.5452
13399TIP3   OH240153   5.200   6.988   5.354 -0.4319  0.3860  0.5357
13399TIP3    H140154   5.163   7.021   5.272 -0.0702  0.2378  0.3103
13399TIP3    H240155   5.126   6.987   5.415 -1.1096 -1.1544 -0.2669
13400TIP3   OH240156   2.298   0.304   6.256 -0.4216  0.0133 -0.4792
13400TIP3    H140157   2.347   0.386   6.265  0.1943 -0.3656 -0.3413
13400TIP3    H240158   2.345   0.255   6.189  0.5365 -1.1551  0.9718
13401TIP3   OH240159   3.418   5.685   3.330 -0.7184 -0.0736  0.1464
13401TIP3    H140160   3.434   5.592   3.343 -0.3541  0.0164  0.3452
13401TIP3    H240161   3.442   5.702   3.239  1.3588  0.2717  0.7152
13402TIP3   OH240162   5.707   6.799   3.898  0.0447 -0.2125 -0.0860
13402TIP3    H140163   5.640   6.763   3.956 -0.0443 -2.1566 -1.3087
13402TIP3    H240164   5.789   6.768   3.935 -0.0117 -1.4455 -0.9342
13403TIP3   OH240165   2.505   1.520   1.974  0.0714 -0.3182 -0.2476
13403TIP3    H140166   2.460   1.549   2.052  1.4456 -1.3006  0.9721
13403TIP3    H240167   2.459   1.441   1.946  0.4073 -0.7542  0.4092
13404TIP3   OH240168   1.096   2.700   4.410 -0.0677  0.1208  0.2072
13404TIP3    H140169   1.029   2.646   4.452 -0.1585  1.0037  1.2526
13404TIP3    H240170   1.055   2.732   4.330 -1.0209  0.8443  0.9504
13405TIP3   OH240171   0.426   6.177   1.116  0.3897 -0.4990 -0.3939
13405TIP3    H140172   0.399   6.267   1.136 -0.9847 -1.4406  2.4974
13405TIP3    H240173   0.353   6.142   1.064  0.1390 -0.4421 -0.0829
13406TIP3   OH240174   0.504   4.889   0.328  0.0287 -0.5769 -0.0977
13406TIP3    H140175   0.567   4.856   0.264  0.3757  1.2860 -0.7941
13406TIP3    H240176   0.539   4.861   0.412  0.2231 -2.0206 -0.6220
13407TIP3   OH240177   0.724   5.469   5.992  0.5323 -0.6345  0.0251
13407TIP3    H140178   0.762   5.555   6.009 -2.1050  0.4177  1.0294
13407TIP3    H240179   0.718   5.463   5.897  2.9640 -0.8112 -0.1813
13408TIP3   OH240180   1.614   7.267   2.625  0.1933  0.1065 -0.8239
13408TIP3    H140181   1.702   7.300   2.644 -0.1051  0.5541 -0.1830
13408TIP3    H240182   1.629   7.186   2.577  0.9852 -0.4374  0.2910
13409TIP3   OH240183   0.635   1.037   3.004 -0.2868  0.2002 -0.2316
13409TIP3    H140184   0.682   0.958   3.029 -1.3732 -0.1240  0.9004
13409TIP3    H240185   0.560   1.040   3.063 -0.9739  1.3908 -1.1106
13410TIP3   OH240186   6.270   0.140   2.890 -0.1749 -0.5248  0.3670
13410TIP3    H140187   6.362   0.134   2.864 -0.1628 -0.1478  0.3269
13410TIP3    H240188   6.261   0.074   2.959  0.0692 -0.7274  0.2099
13411TIP3   OH240189   0.061   7.726   1.782  0.5829 -0.6121 -0.2185
13411TIP3    H140190   0.092   7.793   1.721 -2.2167  0.2535 -0.8345
13411TIP3    H240191  -0.018   7.763   1.820 -0.6063 -3.2151  0.0768
13412TIP3   OH240192   6.438   6.776   5.165 -0.1358  0.2561 -0.4099
13412TIP3    H140193   6.512   6.819   5.121  0.6419 -0.7790 -0.1640
13412TIP3    H240194   6.386   6.740   5.093 -0.3697  0.9191 -0.5827
13413TIP3   OH240195   0.620   5.969   2.548 -0.5691 -0.6060  0.4262
13413TIP3    H140196   0.707   5.991   2.513 -0.7631  0.4985  0.5825
13413TIP3    H240197   0.591   5.894   2.497 -0.5891  0.5857 -1.4061
13414TIP3   OH240198   0.790   7.453   1.000  0.2989  0.1476 -0.3379
13414TIP3    H140199   0.724   7.408   1.052 -0.9683  0.7075 -1.3939
13414TIP3    H240200   0.779   7.418   0.911  0.1437  1.5651 -0.9119
13415TIP3   OH240201   3.594   2.909   2.298  0.1323  0.3509  0.0265
13415TIP3    H140202   3.671   2.875   2.251  0.0556  0.6374 -0.3060
13415TIP3    H240203   3.537   2.944   2.230  0.7089  2.1786  0.4296
13416TIP3   OH240204   1.618   5.765   0.116 -0.0376 -0.0269 -0.4582
13416TIP3    H140205   1.597   5.859   0.112 -0.1017 -0.0849 -2.3417
13416TIP3    H240206   1.551   5.724   0.062 -0.4583 -1.2776  0.9524
13417TIP3   OH240207   6.810   7.641   6.593  0.3260  0.4622 -0.0955
13417TIP3    H140208   6.819   7.546   6.585 -0.4811  0.3156  0.7182
13417TIP3    H240209   6.827   7.673   6.504  0.1897 -0.4668 -0.4706
13418TIP3   OH240210   5.111   2.053   4.714  0.2096 -0.4450  0.4680
13418TIP3    H140211   5.206   2.060   4.718  0.1193  0.3424  1.4857
13418TIP3    H240212   5.079   2.118   4.777 -1.0123 -0.3541 -0.2112
13419TIP3   OH240213   5.112   0.016   3.007  0.7918  0.4623  0.0153
13419TIP3    H140214   5.099   0.097   3.057  1.1144 -0.2936  1.4044
13419TIP3    H240215   5.122  -0.052   3.075 -0.6760 -0.9505 -1.0871
13420TIP3   OH240216   1.961   0.342   3.805 -0.2124 -0.0135 -0.3730
13420TIP3    H140217   2.041   0.325   3.856  0.2638  0.0652 -1.0785
13420TIP3    H240218   1.923   0.420   3.846 -0.2230 -0.3716  0.3138
13421TIP3   OH240219   3.357   4.219   1.714 -0.1563 -0.2486 -0.1488
13421TIP3    H140220   3.344   4.212   1.809  0.2503 -0.4476 -0.1081
13421TIP3    H240221   3.451   4.211   1.702 -0.0890  0.9055 -0.4752
13422TIP3   OH240222   0.419   4.398   1.198 -0.2787 -0.0470 -0.5277
13422TIP3    H140223   0.463   4.313   1.191 -1.1820 -0.4138 -2.3314
13422TIP3    H240224   0.326   4.377   1.191 -0.5375  1.0619 -0.4629
13423TIP3   OH240225   5.473   3.127   6.069 -0.1112  0.4778 -0.8012
13423TIP3    H140226   5.556   3.144   6.025  0.3799  0.6634  0.1777
13423TIP3    H240227   5.410   3.184   6.024  0.3699  0.6582 -1.2623
13424TIP3   OH240228   2.295   2.123   5.985 -0.6739  0.2511 -0.5059
13424TIP3    H140229   2.351   2.107   6.062 -2.0964  1.0635  0.7473
13424TIP3    H240230   2.352   2.169   5.924  0.5625 -0.6140 -0.0570
13425TIP3   OH240231   1.135   1.055   5.605  0.1317  0.4538  0.1292
13425TIP3    H140232   1.158   1.089   5.691 -0.4552 -0.1768  0.5448
13425TIP3    H240233   1.149   0.960   5.612 -0.3679  0.3429 -0.3194
13426TIP3   OH240234   6.684   1.536   1.251  0.2407  0.0430 -0.6745
13426TIP3    H140235   6.736   1.462   1.219 -0.1238  0.3372 -1.9813
13426TIP3    H240236   6.694   1.603   1.184  0.2360  1.0483  0.3042
13427TIP3   OH240237   8.168   1.210   2.229 -0.2368  0.4049 -0.2634
13427TIP3    H140238   8.240   1.149   2.210 -0.4219  0.0104  0.3001
13427TIP3    H240239   8.115   1.166   2.294  0.9174  2.1164  1.9733
13428TIP3   OH240240   7.298   7.009   4.949 -0.1991  0.6801 -0.3758
13428TIP3    H140241   7.242   6.991   5.025 -0.5208 -1.7646 -1.0931
13428TIP3    H240242   7.236   7.018   4.876  0.2227  0.2213 -0.7967
13429TIP3   OH240243   2.713   6.686   6.183 -0.0052  0.0434  0.1143
13429TIP3    H140244   2.627   6.699   6.222 -0.8817 -0.6857 -1.5031
13429TIP3    H240245   2.744   6.775   6.163 -1.2926  0.2164 -1.1778
13430TIP3   OH240246   2.113   7.166   0.887  0.1197  0.2453  0.4442
13430TIP3    H140247   2.169   7.145   0.962 -1.2162 -1.3688  1.0567
13430TIP3    H240248   2.085   7.256   0.902  0.0445  0.0153  1.7710
13431TIP3   OH240249   2.751   2.401   6.075  0.7462  0.0435 -0.3929
13431TIP3    H140250   2.819   2.387   6.141  2.5946  1.4314 -1.8999
13431TIP3    H240251   2.744   2.318   6.030 -0.0451 -0.7145  1.0523
13432TIP3   OH240252   4.392   3.032   0.319 -0.1087 -0.1281 -0.2796
13432TIP3    H140253   4.298   3.040   0.330 -0.5021  0.2701 -3.2013
13432TIP3    H240254   4.409   3.060   0.229  2.7961 -0.2765  0.1060
13433TIP3   OH240255   1.237   6.304   0.946 -0.7418  0.7104 -0.5665
13433TIP3    H140256   1.210   6.317   0.854 -0.5251 -0.1780 -0.7635
13433TIP3    H240257   1.321   6.348   0.953  0.0254 -0.5911 -1.2452
13434TIP3   OH240258   3.041   2.638   5.777 -0.0437 -0.1592 -0.3710
13434TIP3    H140259   3.050   2.704   5.845 -0.8895  0.1021 -0.5017
13434TIP3    H240260   3.019   2.558   5.824  0.5480 -0.2564 -0.2489
13435TIP3   OH240261   1.195   6.978   2.288  0.3420  0.3441 -0.2423
13435TIP3    H140262   1.164   7.053   2.338 -1.1978 -1.1046  1.1087
13435TIP3    H240263   1.218   7.013   2.202  1.5977  2.6712  0.9547
13436TIP3   OH240264   2.970   6.562   1.945 -0.2725  0.2632 -0.3382
13436TIP3    H140265   2.961   6.611   1.863  0.9611 -1.1839 -1.3884
13436TIP3    H240266   2.897   6.499   1.943 -0.0498  0.0086 -0.4900
13437TIP3   OH240267   6.938   0.012   4.848  0.0013  0.3837  0.1597
13437TIP3    H140268   6.860  -0.039   4.826 -1.1992  2.6853 -1.2841
13437TIP3    H240269   6.905   0.098   4.871  2.1303  1.5176 -0.7476
13438TIP3   OH240270   5.901   3.049   5.027 -0.7947 -0.5293 -0.0184
13438TIP3    H140271   5.952   2.987   4.975 -2.3692 -1.1413 -0.8990
13438TIP3    H240272   5.888   3.124   4.969  1.5536  0.9724  1.2170
13439TIP3   OH240273   7.980   7.007   1.851  0.0888  0.3522 -0.3905
13439TIP3    H140274   8.012   6.984   1.764 -0.9275 -3.2204  0.0154
13439TIP3    H240275   7.906   6.948   1.866 -1.5546  2.7725  1.8402
13440TIP3   OH240276   8.317   0.679   3.364 -0.2632 -0.5213  0.3069
13440TIP3    H140277   8.357   0.604   3.406 -0.6365 -0.0959  1.4787
13440TIP3    H240278   8.223   0.669   3.381 -0.5966 -1.0036 -1.5597
13441TIP3   OH240279   1.628   2.180   3.733 -0.4946  0.1951 -0.5458
13441TIP3    H140280   1.672   2.110   3.781 -0.3378  0.6611 -0.0022
13441TIP3    H240281   1.586   2.233   3.801 -1.3877  0.1047 -1.0129
13442TIP3   OH240282   7.732   1.880   1.734 -0.3935  0.0257 -0.7984
13442TIP3    H140283   7.768   1.913   1.651 -0.7497 -1.0374 -1.3985
13442TIP3    H240284   7.800   1.821   1.767  1.2093  2.8362  1.3626
13443TIP3   OH240285   7.185   3.007   5.365  0.1334 -0.1690  0.0980
13443TIP3    H140286   7.097   2.996   5.401  0.6336 -0.4396  1.2607
13443TIP3    H240287   7.224   3.077   5.417  0.9357 -0.7014  0.2313
13444TIP3   OH240288   5.717   7.696   5.153  0.1427 -0.0425 -0.1389
13444TIP3    H140289   5.750   7.615   5.113  1.1438  0.6953 -0.8376
13444TIP3    H240290   5.661   7.735   5.086 -1.0361 -0.5549  0.5106
13445TIP3   OH240291   1.917   3.461   2.540  0.4398  0.1389 -0.3870
13445TIP3    H140292   1.890   3.533   2.483 -1.3063  0.0404  0.2464
13445TIP3    H240293   2.011   3.473   2.552  0.4914  1.2594 -1.7320
13446TIP3   OH240294   4.475   5.178   6.214  0.1046 -0.3607  0.0597
13446TIP3    H140295   4.502   5.097   6.170  0.3493  0.1731 -0.7994
13446TIP3    H240296   4.519   5.175   6.299  0.9052 -0.6675 -0.3550
13447TIP3   OH240297   0.551   5.650   2.120  0.1089  0.1632 -0.2833
13447TIP3    H140298   0.607   5.722   2.091  0.6323 -0.4006 -0.6765
13447TIP3    H240299   0.506   5.685   2.197  0.5127  0.8392 -0.3448
13448TIP3   OH240300   7.959   6.905   2.932  0.1485 -0.8069  0.2274
13448TIP3    H140301   7.891   6.862   2.983  0.5907 -1.8799 -0.0492
13448TIP3    H240302   8.039   6.857   2.952  0.9102  0.6342  0.7911
13449TIP3   OH240303   1.110   0.364   6.223  0.0771 -0.0131  0.2173
13449TIP3    H140304   1.158   0.328   6.148  0.7453 -1.5891  1.3383
13449TIP3    H240305   1.037   0.304   6.236 -0.2385  0.4489  0.5922
13450TIP3   OH240306   5.754   4.473   0.912 -0.1151 -0.0951 -0.7543
13450TIP3    H140307   5.765   4.532   0.987  0.8050  0.9581 -1.6911
13450TIP3    H240308   5.765   4.385   0.949  1.8902  0.4718  0.0950
13451TIP3   OH240309   8.126   3.681   5.872  0.7364  0.1003 -0.0615
13451TIP3    H140310   8.097   3.599   5.913 -0.3553 -0.2657 -1.4702
13451TIP3    H240311   8.047   3.734   5.867  1.1150  0.6204 -0.5691
13452TIP3   OH240312   3.277   3.859   0.685 -0.2557  0.1166 -0.6611
13452TIP3    H140313   3.278   3.920   0.611 -1.4276 -0.1168 -0.8777
13452TIP3    H240314   3.365   3.822   0.686  1.2325  3.2903  0.7394
13453TIP3   OH240315   5.295   6.622   4.376 -0.0979 -0.5999 -0.1561
13453TIP3    H140316   5.289   6.550   4.439 -0.5188 -0.5057 -0.0862
13453TIP3    H240317   5.350   6.687   4.419 -2.8279  0.8381  1.4879
13454TIP3   OH240318   7.861   6.048   4.507 -0.2227  0.2526 -0.1092
13454TIP3    H140319   7.884   5.956   4.495  1.2412  0.2833  1.7999
13454TIP3    H240320   7.890   6.091   4.427 -2.4399 -1.1075 -1.7660
13455TIP3   OH240321   7.803   5.399   2.729  0.3130 -0.3762 -0.3937
13455TIP3    H140322   7.710   5.413   2.714  0.4400 -0.0192 -0.9244
13455TIP3    H240323   7.818   5.307   2.709  0.3895 -0.0252 -2.2052
13456TIP3   OH240324   1.156   1.725   5.780  0.5271  0.4968  0.1751
13456TIP3    H140325   1.066   1.733   5.749  0.6030 -2.5842 -1.1800
13456TIP3    H240326   1.158   1.773   5.863 -1.8143  2.2376 -0.6990
13457TIP3   OH240327   3.303   5.561   5.801  0.0320  0.0863 -0.2137
13457TIP3    H140328   3.343   5.486   5.846  0.8147  1.9551  2.4723
13457TIP3    H240329   3.376   5.604   5.758  0.0966  0.7777  0.5606
13458TIP3   OH240330   1.981   6.625   1.525 -0.2109  0.2940 -0.6329
13458TIP3    H140331   1.928   6.596   1.600 -0.7015  0.2772 -0.9810
13458TIP3    H240332   1.952   6.715   1.509 -0.0215  0.3378 -0.7343
13459TIP3   OH240333   5.609   3.199   2.793  0.3007 -0.3229 -0.7283
13459TIP3    H140334   5.570   3.229   2.875  0.8512  0.1735 -0.6474
13459TIP3    H240335   5.622   3.278   2.742  0.8963 -0.5238 -0.8936
13460TIP3   OH240336   4.952   0.399   4.642 -0.1960  0.5972 -0.3516
13460TIP3    H140337   4.948   0.333   4.710  0.9289  2.3723  1.5692
13460TIP3    H240338   5.046   0.420   4.634 -0.4025  1.1456 -1.7440
13461TIP3   OH240339   3.055   3.654   5.192  0.3051 -0.4457 -0.5230
13461TIP3    H140340   3.090   3.607   5.116 -1.1524  0.7955 -2.0492
13461TIP3    H240341   3.080   3.745   5.177 -1.1258  0.0241 -0.2326
13462TIP3   OH240342   6.882   5.080   2.456 -0.2417  0.4890 -0.0872
13462TIP3    H140343   6.807   5.034   2.495 -0.0867  1.1457  1.0332
13462TIP3    H240344   6.913   5.021   2.388  0.2138 -1.3138  1.5781
13463TIP3   OH240345   2.481   2.560   3.906  0.0379  0.2498  0.5690
13463TIP3    H140346   2.431   2.631   3.867  0.0838  0.2229  0.4584
13463TIP3    H240347   2.441   2.480   3.872  0.3790  0.2328  0.1910
13464TIP3   OH240348   5.459   4.054   3.542 -0.0390 -0.0240 -0.2869
13464TIP3    H140349   5.487   3.962   3.548 -0.5248 -0.2029 -0.6599
13464TIP3    H240350   5.398   4.055   3.468  0.8344  0.8226 -1.0316
13465TIP3   OH240351   2.681   1.072   2.350  0.4321  0.3381 -0.1012
13465TIP3    H140352   2.647   1.162   2.347  2.1635  1.2198  2.7613
13465TIP3    H240353   2.603   1.017   2.352 -0.6821  1.8195 -0.6972
13466TIP3   OH240354   7.575   3.911   3.445 -0.0154  0.6592  0.2237
13466TIP3    H140355   7.559   3.958   3.527  0.6511  0.0261  0.7298
13466TIP3    H240356   7.496   3.859   3.432  0.3224 -0.0873  1.0647
13467TIP3   OH240357   4.430   6.211   5.041  0.3035 -0.6104  0.8046
13467TIP3    H140358   4.396   6.290   5.082  1.0531 -0.1597  0.5854
13467TIP3    H240359   4.506   6.187   5.094  0.6122 -0.6700  0.3409
13468TIP3   OH240360   2.633   0.688   6.697 -0.2983  0.0302 -0.2798
13468TIP3    H140361   2.693   0.625   6.657 -0.5312  0.2522 -0.9962
13468TIP3    H240362   2.638   0.765   6.639  0.4401  0.9097  0.8894
13469TIP3   OH240363   7.696   0.237   1.894  0.0231  0.4402  0.2020
13469TIP3    H140364   7.623   0.208   1.839  0.8363  0.9146 -1.1836
13469TIP3    H240365   7.667   0.221   1.983 -0.7783 -1.7304 -0.3995
13470TIP3   OH240366   3.655   6.912   1.196 -0.0388  0.0870 -0.5786
13470TIP3    H140367   3.684   6.887   1.283  0.8582  1.8890 -0.3261
13470TIP3    H240368   3.655   6.830   1.146 -0.1824 -0.8974  0.9862
13471TIP3   OH240369   7.947   6.420   6.363  0.0977  0.1648  0.1230
13471TIP3    H140370   7.957   6.428   6.268  0.4417 -0.2822  0.1220
13471TIP3    H240371   8.026   6.462   6.398  0.8305 -1.1878  0.1657
13472TIP3   OH240372   7.491   2.577   2.680  0.1307  0.8524 -0.0178
13472TIP3    H140373   7.570   2.614   2.641 -0.4277  0.8011 -1.2527
13472TIP3    H240374   7.433   2.652   2.691  0.4090  0.9174  1.0488
13473TIP3   OH240375   6.909   5.840   4.483  0.1183 -0.0951  0.8808
13473TIP3    H140376   6.949   5.756   4.505  0.8382 -0.2372 -0.8591
13473TIP3    H240377   6.977   5.905   4.501  0.5312 -0.1649 -0.3490
13474TIP3   OH240378   5.301   3.072   0.705 -0.0712  0.7545  0.0663
13474TIP3    H140379   5.257   3.025   0.776  0.4429 -0.3248 -0.3117
13474TIP3    H240380   5.329   3.154   0.744  1.3757 -0.3652  1.5097
13475TIP3   OH240381   4.729   2.564   6.473  1.0177 -0.2358  0.3082
13475TIP3    H140382   4.745   2.657   6.488  1.4590 -0.4688  1.3389
13475TIP3    H240383   4.734   2.524   6.559  0.3940 -1.1629 -0.0621
13476TIP3   OH240384   5.644   5.384   1.168 -0.5897  0.0139 -0.3135
13476TIP3    H140385   5.672   5.396   1.259 -0.1856 -1.8521 -0.1646
13476TIP3    H240386   5.692   5.452   1.120  0.2058  0.1773  0.6743
13477TIP3   OH240387   7.311   7.281   2.391 -0.0040 -0.3620  0.1844
13477TIP3    H140388   7.264   7.254   2.470  1.4402 -0.8500  0.9121
13477TIP3    H240389   7.329   7.199   2.345 -3.8729  0.0525 -2.5869
13478TIP3   OH240390   6.704   4.834   1.308 -0.5933  0.0724 -1.0484
13478TIP3    H140391   6.795   4.820   1.330 -0.7679  2.4584  1.8550
13478TIP3    H240392   6.671   4.747   1.284  1.3030 -1.8153  2.4621
13479TIP3   OH240393   6.892   2.889   2.562  0.1232 -0.3953  0.0186
13479TIP3    H140394   6.801   2.870   2.582 -0.3671  1.1171 -0.6415
13479TIP3    H240395   6.922   2.813   2.512 -0.8222 -0.8009  0.0457
13480TIP3   OH240396   5.244   2.809   5.266  0.0666  0.4683 -0.4001
13480TIP3    H140397   5.313   2.757   5.307 -1.4770 -1.2750  0.1375
13480TIP3    H240398   5.250   2.895   5.308  2.1715  0.5166 -0.7230
13481TIP3   OH240399   4.785   6.021   3.153  0.3964  0.3633  0.2419
13481TIP3    H140400   4.695   6.053   3.152 -0.8547 -2.7817 -0.6409
13481TIP3    H240401   4.809   6.021   3.245 -0.7981  0.5854  0.5776
13482TIP3   OH240402   1.041   5.069   5.358 -0.5560  0.2211  0.1145
13482TIP3    H140403   0.996   5.045   5.277  0.4374  0.9603 -0.6832
13482TIP3    H240404   1.126   5.026   5.352  0.6351  2.5273 -0.5904
13483TIP3   OH240405   4.332   7.499   1.650  0.1590  0.8116  0.0106
13483TIP3    H140406   4.352   7.451   1.731 -1.0329  2.0075  1.0690
13483TIP3    H240407   4.382   7.453   1.582 -1.5006 -2.4610  0.7729
13484TIP3   OH240408   7.931   2.069   3.566  0.1532 -0.1143  0.1368
13484TIP3    H140409   8.007   2.041   3.516  0.0142 -0.0954 -0.0867
13484TIP3    H240410   7.945   2.034   3.654  0.0065 -0.8549 -0.1285
13485TIP3   OH240411   8.302   3.386   6.199  0.8826 -0.2075  0.2922
13485TIP3    H140412   8.287   3.376   6.105  1.7516  2.2598 -0.1731
13485TIP3    H240413   8.222   3.354   6.240  1.2861 -3.4348 -1.0790
13486TIP3   OH240414   6.391   5.729   6.496 -0.1684 -0.1676  0.1794
13486TIP3    H140415   6.326   5.731   6.425 -0.0222 -1.0502  0.0046
13486TIP3    H240416   6.417   5.637   6.501  0.0827 -0.0500  1.1470
13487TIP3   OH240417   4.852   7.304   1.175  0.6654 -0.0389 -0.3203
13487TIP3    H140418   4.798   7.241   1.128  1.2824 -1.7574  1.1738
13487TIP3    H240419   4.942   7.283   1.150  1.0026 -0.9802  1.5430
13488TIP3   OH240420   1.896   7.548   6.195 -0.2995  0.0770 -0.1418
13488TIP3    H140421   1.860   7.459   6.194 -0.0328 -0.0434  0.5828
13488TIP3    H240422   1.892   7.576   6.104  0.1782 -0.9026 -0.4753
13489TIP3   OH240423   3.620   4.918   1.545 -0.0908  0.1350 -0.4869
13489TIP3    H140424   3.680   4.910   1.619 -1.3802  0.5576  0.6516
13489TIP3    H240425   3.620   4.832   1.504 -0.3574 -0.5154  0.8334
13490TIP3   OH240426   3.224   1.654   3.047  0.2072 -0.1910  0.2148
13490TIP3    H140427   3.241   1.561   3.033 -1.0245 -0.4656  0.4367
13490TIP3    H240428   3.222   1.663   3.143 -2.2477 -0.4744  0.2457
13491TIP3   OH240429   0.836   4.389   2.373 -0.2449 -0.1786  0.3245
13491TIP3    H140430   0.753   4.434   2.358 -0.8768 -1.3056  0.3460
13491TIP3    H240431   0.833   4.364   2.465 -1.2043 -2.7535 -0.3285
13492TIP3   OH240432   4.254   0.258   5.623 -0.4324  0.2200  0.6316
13492TIP3    H140433   4.323   0.274   5.687  0.8392 -0.9751 -0.3719
13492TIP3    H240434   4.248   0.163   5.617  0.3529  0.2447 -1.8487
13493TIP3   OH240435   6.826   7.614   2.258  0.1537 -0.4650 -0.0892
13493TIP3    H140436   6.796   7.549   2.321  0.1418 -0.0920  0.2953
13493TIP3    H240437   6.832   7.695   2.309  0.1422 -0.1613 -0.5696
13494TIP3   OH240438   7.454   7.003   4.350 -0.6458  0.2660 -0.0410
13494TIP3    H140439   7.402   7.013   4.270  0.0209 -1.0867 -0.6841
13494TIP3    H240440   7.515   7.077   4.348  0.4970 -0.6528 -1.7078
13495TIP3   OH240441   3.265   5.505   0.068  0.3325 -0.2947 -0.1617
13495TIP3    H140442   3.291   5.509  -0.024 -0.5825  0.9756 -0.3969
13495TIP3    H240443   3.304   5.424   0.100  1.9330 -0.0110 -1.2577
13496TIP3   OH240444   3.257   2.994   5.556  0.3890  0.1289  0.5243
13496TIP3    H140445   3.245   2.905   5.589 -1.3392  0.2236  0.2269
13496TIP3    H240446   3.302   3.040   5.627 -2.9852  0.2676  2.8067
13497TIP3   OH240447   4.383   7.569   6.681  0.2639  0.3848 -0.1520
13497TIP3    H140448   4.367   7.495   6.622 -2.3612  0.9607 -0.2988
13497TIP3    H240449   4.353   7.645   6.632 -2.9786  0.7797  2.1188
13498TIP3   OH240450   0.044   4.178   5.994  0.3014  0.1297  0.0318
13498TIP3    H140451   0.044   4.272   6.011  1.0300  0.1634 -0.1407
13498TIP3    H240452  -0.038   4.163   5.947 -1.6131  0.0995  3.0883
13499TIP3   OH240453   7.019   6.388   5.550  0.0290  0.3118 -0.6338
13499TIP3    H140454   6.987   6.336   5.625  1.4874  0.3256  0.0387
13499TIP3    H240455   6.941   6.407   5.499 -1.1275  0.9095  1.2715
13500TIP3   OH240456   1.607   1.315   0.703 -0.1107 -0.3935 -0.4312
13500TIP3    H140457   1.699   1.319   0.726 -0.6734 -0.4535  2.0896
13500TIP3    H240458   1.584   1.405   0.678  0.6184 -0.4074 -1.1899
13501TIP3   OH240459   1.818   2.107   4.387 -0.5305  0.2174  0.2160
13501TIP3    H140460   1.739   2.071   4.427 -1.6575  1.0588 -1.1473
13501TIP3    H240461   1.799   2.201   4.378  0.0273  0.1936 -1.4314
13502TIP3   OH240462   1.009   3.086   2.433 -0.0473 -0.0741 -0.0492
13502TIP3    H140463   1.023   3.181   2.430 -0.6005 -0.0186 -1.7716
13502TIP3    H240464   1.097   3.049   2.431  0.1768  0.3749  0.7465
13503TIP3   OH240465   5.313   7.480   5.281  0.0529  0.4925 -0.1089
13503TIP3    H140466   5.241   7.511   5.337 -1.3073  1.4143 -2.2288
13503TIP3    H240467   5.314   7.386   5.294 -0.0820  0.6890  1.5824
13504TIP3   OH240468   6.750   0.529   4.945  0.5102 -0.5888  0.7231
13504TIP3    H140469   6.836   0.522   4.987  1.8546 -1.8427 -1.9435
13504TIP3    H240470   6.747   0.618   4.912  0.6433 -0.4321  1.1320
13505TIP3   OH240471   5.550   4.162   6.630 -0.2868 -0.5528 -0.4386
13505TIP3    H140472   5.610   4.123   6.693  1.6391  1.8395 -0.6456
13505TIP3    H240473   5.491   4.216   6.683 -0.8212 -1.1613 -0.4144
13506TIP3   OH240474   2.505   0.155   4.531 -0.2532 -0.6800  0.0865
13506TIP3    H140475   2.516   0.250   4.536  0.6689 -0.7972  0.3948
13506TIP3    H240476   2.453   0.133   4.609  0.9289 -0.6124  0.9247
13507TIP3   OH240477   3.142   3.908   5.113  0.2088  0.4250 -0.7989
13507TIP3    H140478   3.087   3.944   5.044 -0.0200  0.8319 -0.4139
13507TIP3    H240479   3.228   3.898   5.073 -0.0074  0.3193 -1.2434
13508TIP3   OH240480   2.683   3.974   6.600  0.0453 -0.5415 -0.1866
13508TIP3    H140481   2.724   3.990   6.515 -1.7420 -1.4438 -1.2689
13508TIP3    H240482   2.696   4.056   6.649  1.0261  0.0226 -1.3547
13509TIP3   OH240483   0.608   7.813   2.104  0.3100  0.3763  0.2400
13509TIP3    H140484   0.621   7.903   2.073 -1.8908  0.4748 -0.5982
13509TIP3    H240485   0.671   7.761   2.054  0.6211  1.2664 -0.3214
13510TIP3   OH240486   3.328   2.244   4.658  0.1020 -0.0596  0.5142
13510TIP3    H140487   3.320   2.196   4.740 -0.7802 -0.1524  0.3855
13510TIP3    H240488   3.389   2.193   4.606  1.9855  0.8781  1.7156
13511TIP3   OH240489   4.457   6.634   6.024  0.2350  0.2030 -0.5296
13511TIP3    H140490   4.508   6.560   5.992  0.2814 -0.2662  0.5881
13511TIP3    H240491   4.390   6.648   5.957 -0.8247 -1.9246 -0.0013
13512TIP3   OH240492   5.340   3.362   6.209 -0.0378  0.5761  0.8255
13512TIP3    H140493   5.306   3.449   6.228 -2.0054 -0.2783  1.5906
13512TIP3    H240494   5.334   3.353   6.114 -1.3671  0.7238  0.8772
13513TIP3   OH240495   6.453   4.080   4.536 -0.1965  0.0197  0.7598
13513TIP3    H140496   6.424   4.163   4.574 -1.7194  0.3404 -0.9955
13513TIP3    H240497   6.536   4.101   4.493 -0.8004  0.7658 -0.0654
13514TIP3   OH240498   5.248   5.306   2.594 -0.4733 -0.1115  0.0670
13514TIP3    H140499   5.215   5.229   2.546  1.1835  0.5228 -2.3333
13514TIP3    H240500   5.294   5.269   2.670  0.2760 -1.5593 -1.0261
13515TIP3   OH240501   2.549   7.848   5.816 -0.6144 -0.0798 -0.0369
13515TIP3    H140502   2.529   7.831   5.908  1.0231  0.2635  0.4267
13515TIP3    H240503   2.631   7.802   5.800 -1.0559 -0.4446 -1.4562
13516TIP3   OH240504   5.872   0.281   1.507 -0.0547  0.1396  0.0123
13516TIP3    H140505   5.787   0.324   1.523 -0.1271  0.2872 -0.7245
13516TIP3    H240506   5.869   0.257   1.414  1.7232  2.4608 -0.7403
13517TIP3   OH240507   5.038   1.340   2.448  0.4351  0.5231 -0.3963
13517TIP3    H140508   5.077   1.426   2.463  3.4866 -0.9600  1.2514
13517TIP3    H240509   4.951   1.345   2.486  0.6256  2.7952 -0.1683
13518TIP3   OH240510   2.351   2.516   1.519  0.3366  0.2327  0.2114
13518TIP3    H140511   2.282   2.577   1.494 -0.6248 -0.8533  0.1576
13518TIP3    H240512   2.399   2.500   1.438  0.7994  1.1468  0.2904
13519TIP3   OH240513   5.556   7.147   2.076  0.8255  0.4072  0.4504
13519TIP3    H140514   5.494   7.206   2.032  0.2108 -0.5004  0.0678
13519TIP3    H240515   5.641   7.171   2.039  0.3651 -0.0999 -1.0112
13520TIP3   OH240516   3.527   4.381   0.319  0.1814  0.0303  0.5693
13520TIP3    H140517   3.548   4.426   0.400 -0.5035 -0.2060  0.8891
13520TIP3    H240518   3.553   4.442   0.250  1.1159  0.0788  0.9486
13521TIP3   OH240519   3.626   6.910   0.693  0.2942  0.3354 -0.1856
13521TIP3    H140520   3.620   6.975   0.763  1.6410  2.3668 -1.8290
13521TIP3    H240521   3.564   6.941   0.627 -1.0663 -1.6246  0.1189
13522TIP3   OH240522   7.508   6.317   0.837  0.1255  0.5167 -0.3876
13522TIP3    H140523   7.569   6.372   0.886  1.2836 -0.2864 -0.8981
13522TIP3    H240524   7.443   6.378   0.803  0.1473  1.2801  0.8790
13523TIP3   OH240525   5.516   6.571   6.220 -0.0971  0.3260 -0.2105
13523TIP3    H140526   5.489   6.628   6.148 -1.3876  1.3054  0.9952
13523TIP3    H240527   5.597   6.610   6.253  0.3815 -0.0023 -0.9599
13524TIP3   OH240528   2.944   3.534   6.522 -0.1088  0.4327 -0.0611
13524TIP3    H140529   3.030   3.520   6.562 -0.0060  0.3967 -0.2955
13524TIP3    H240530   2.962   3.548   6.429 -0.6867 -4.7664 -1.2365
13525TIP3   OH240531   8.116   6.884   0.590 -0.3692 -0.1936  0.0556
13525TIP3    H140532   8.053   6.871   0.518 -0.3857  1.8674 -0.3576
13525TIP3    H240533   8.063   6.919   0.662 -0.0331 -0.4637  0.4379
13526TIP3   OH240534   4.496   4.067   5.977 -0.2121  0.3484  0.2377
13526TIP3    H140535   4.518   4.122   6.052 -2.2861  1.0932  0.3641
13526TIP3    H240536   4.420   4.110   5.937 -1.4397 -1.9653 -0.1225
13527TIP3   OH240537   4.805   3.318   3.287 -0.2105  0.2706 -0.1723
13527TIP3    H140538   4.763   3.404   3.281  0.6958  0.9953  2.4817
13527TIP3    H240539   4.774   3.282   3.370  2.2089 -0.3672  0.5222
13528TIP3   OH240540   4.404   3.602   0.364 -0.4356 -0.2202  0.4274
13528TIP3    H140541   4.323   3.625   0.318  0.7901 -1.1208 -2.4339
13528TIP3    H240542   4.396   3.509   0.382 -0.7676  0.0615  1.8641
13529TIP3   OH240543   6.384   2.467   0.292  0.1531  0.1212 -0.5382
13529TIP3    H140544   6.473   2.438   0.314  0.0534 -1.0194 -1.5525
13529TIP3    H240545   6.392   2.562   0.282  1.7307 -0.1538 -2.5732
13530TIP3   OH240546   2.403   3.277   4.256  0.3690  0.1413 -0.2646
13530TIP3    H140547   2.411   3.372   4.266  1.3290 -0.0566  1.3491
13530TIP3    H240548   2.454   3.242   4.329  1.8084 -1.6544 -2.0281
13531TIP3   OH240549   7.754   3.998   4.747  0.0602  0.3787  0.0776
13531TIP3    H140550   7.676   3.979   4.694 -1.3467 -1.5103  2.5769
13531TIP3    H240551   7.783   3.912   4.778  1.2566  1.3231  1.7252
13532TIP3   OH240552   3.828   2.181   0.777 -0.7782 -0.2151 -0.5074
13532TIP3    H140553   3.854   2.089   0.769  1.2399 -0.1758  3.2672
13532TIP3    H240554   3.910   2.229   0.765 -1.0786  0.7616  1.1282
13533TIP3   OH240555   7.779   2.890   1.530  0.8366  0.8777 -0.3988
13533TIP3    H140556   7.822   2.944   1.597  1.6486 -0.2466  0.0283
13533TIP3    H240557   7.845   2.882   1.460  1.6470 -1.3234  0.5022
13534TIP3   OH240558   2.549   5.969   1.979 -0.0862 -0.0842  0.0476
13534TIP3    H140559   2.538   5.874   1.982  0.3491 -0.1189  1.5354
13534TIP3    H240560   2.544   5.991   1.886 -0.1838 -1.5565 -0.3226
13535TIP3   OH240561   3.767   0.754   1.351  0.1228  0.0529 -0.0178
13535TIP3    H140562   3.692   0.744   1.410  0.5781 -1.0684  0.3998
13535TIP3    H240563   3.781   0.849   1.346 -0.4394  0.2103  1.0245
13536TIP3   OH240564   0.888   0.869   1.608 -0.0391 -0.9637 -0.2817
13536TIP3    H140565   0.976   0.833   1.599  0.2062 -0.2667 -0.8064
13536TIP3    H240566   0.875   0.879   1.702  0.9970  0.2110 -0.2358
13537TIP3   OH240567   1.235   4.871   4.926 -0.1703 -0.0384 -0.0663
13537TIP3    H140568   1.321   4.831   4.914 -0.8856 -1.6455 -0.1019
13537TIP3    H240569   1.252   4.965   4.927  1.7606 -0.3557  1.3408
13538TIP3   OH240570   3.207   1.776   3.302  0.0575 -0.6247 -0.0687
13538TIP3    H140571   3.125   1.812   3.267 -0.3781 -0.6962  0.8447
13538TIP3    H240572   3.263   1.853   3.313  0.6441 -0.7272 -1.9953
13539TIP3   OH240573   0.108   4.653   0.705 -0.8060 -0.3853 -0.0095
13539TIP3    H140574   0.152   4.612   0.779 -0.7253  0.9237  0.6944
13539TIP3    H240575   0.021   4.675   0.737 -1.0190 -0.4489 -0.5266
13540TIP3   OH240576   8.224   4.128   1.627 -0.5573 -0.0506 -0.1213
13540TIP3    H140577   8.168   4.062   1.667 -0.5524  0.0346  0.0313
13540TIP3    H240578   8.307   4.083   1.612 -0.2267  0.1801  0.9082
13541TIP3   OH240579   6.114   5.343   3.903  0.2285 -0.1396 -0.0224
13541TIP3    H140580   6.172   5.305   3.969  1.4658  1.9547  0.1808
13541TIP3    H240581   6.084   5.425   3.941 -2.8013 -1.0256 -0.2209
13542TIP3   OH240582   5.425   1.068   5.351  0.3918 -0.1885 -0.1664
13542TIP3    H140583   5.469   1.133   5.405 -0.0215 -0.3956  0.4454
13542TIP3    H240584   5.371   1.018   5.414  2.3818 -2.5904 -0.2055
13543TIP3   OH240585   6.552   1.926   3.729 -0.9750 -0.3899  0.3011
13543TIP3    H140586   6.467   1.930   3.774 -0.1060  2.4557  1.9771
13543TIP3    H240587   6.617   1.930   3.800  0.6371 -2.7717 -0.9131
13544TIP3   OH240588   3.067   4.462   0.626 -0.0038  0.2304  0.4715
13544TIP3    H140589   3.124   4.494   0.696  0.8408 -0.0832 -0.0705
13544TIP3    H240590   3.107   4.494   0.546  0.0993 -1.0498  0.0037
13545TIP3   OH240591   5.243   5.037   6.100 -0.3045  0.2628 -0.3554
13545TIP3    H140592   5.261   5.044   6.194  0.3623  0.2219 -0.4774
13545TIP3    H240593   5.324   5.003   6.062 -0.2624  1.1398 -1.0714
13546TIP3   OH240594   2.618   6.056   6.596 -0.4159 -0.2960  0.2148
13546TIP3    H140595   2.677   6.080   6.524  1.3733 -0.2316  1.6126
13546TIP3    H240596   2.640   6.118   6.666 -2.1084 -0.3541  0.8410
13547TIP3   OH240597   5.941   2.218   0.476 -0.4575 -0.2612 -0.0104
13547TIP3    H140598   6.001   2.179   0.540  0.9011 -0.5220 -1.3700
13547TIP3    H240599   5.999   2.247   0.405 -1.6825  1.9899 -0.1714
13548TIP3   OH240600   8.100   3.749   3.445 -0.1138  0.7168 -0.1760
13548TIP3    H140601   8.094   3.835   3.404 -0.3130  0.5702 -0.4565
13548TIP3    H240602   8.115   3.767   3.537  0.1360  1.0513 -0.2827
13549TIP3   OH240603   6.589   0.946   1.423  0.1003 -0.0851 -0.1279
13549TIP3    H140604   6.595   0.969   1.516  0.5514 -1.3513  0.1859
13549TIP3    H240605   6.655   1.000   1.381  0.4442 -0.0751  0.4111
13550TIP3   OH240606   5.923   7.368   0.948 -0.1325  0.4097  0.0163
13550TIP3    H140607   5.921   7.309   0.873  1.7028  1.0176 -0.5676
13550TIP3    H240608   5.885   7.318   1.020 -1.4056 -0.3824 -1.1585
13551TIP3   OH240609   6.259   2.404   2.318 -0.2080 -0.4439  0.1737
13551TIP3    H140610   6.286   2.312   2.317  1.7958  0.0810  1.3013
13551TIP3    H240611   6.341   2.453   2.307 -1.2788  1.2234 -0.7696
13552TIP3   OH240612   4.472   1.903   6.698  0.0768  0.5782 -0.4739
13552TIP3    H140613   4.556   1.863   6.718 -0.3104 -0.0964 -0.1529
13552TIP3    H240614   4.409   1.831   6.706 -0.7497  1.4201  0.9534
13553TIP3   OH240615   5.250   6.399   3.928  0.1503  0.1622 -0.4842
13553TIP3    H140616   5.282   6.477   3.974 -0.1297  0.5676 -0.9730
13553TIP3    H240617   5.291   6.403   3.842 -0.8726  0.4680 -0.9754
13554TIP3   OH240618   5.272   0.393   6.400  0.2169 -0.5342  0.2894
13554TIP3    H140619   5.318   0.469   6.435  0.1857 -0.0762 -0.6508
13554TIP3    H240620   5.339   0.345   6.352 -0.2224  0.0303 -0.9199
13555TIP3   OH240621   0.401   5.101   5.894  0.8524  0.3154  0.1294
13555TIP3    H140622   0.360   5.180   5.928  0.6531  0.3630 -0.2180
13555TIP3    H240623   0.389   5.035   5.963 -1.2543 -0.1464 -0.6067
13556TIP3   OH240624   0.212   4.952   1.966  0.2280 -0.3023 -0.2998
13556TIP3    H140625   0.142   4.991   1.915  0.5771  1.0500  0.2004
13556TIP3    H240626   0.287   5.011   1.952  0.3469  0.1042  1.6849
13557TIP3   OH240627   4.315   6.188   5.921 -0.4528 -0.2118  0.1134
13557TIP3    H140628   4.356   6.260   5.872 -0.0316 -1.2466 -1.1082
13557TIP3    H240629   4.224   6.187   5.892 -0.3930 -0.3406 -0.0684
13558TIP3   OH240630   5.008   5.805   4.136  0.0517  0.6350  0.3668
13558TIP3    H140631   5.016   5.803   4.231  0.3533  2.5913  0.4235
13558TIP3    H240632   5.095   5.779   4.104  0.5434  1.7767  0.6939
13559TIP3   OH240633   7.824   7.332   0.482 -0.3955 -0.0308  0.4830
13559TIP3    H140634   7.917   7.334   0.460 -0.5590  0.7857 -0.1832
13559TIP3    H240635   7.786   7.272   0.419 -0.6771  1.4274 -0.8010
13560TIP3   OH240636   1.676   0.998   0.436 -0.1705 -0.0029  0.4059
13560TIP3    H140637   1.769   0.982   0.425 -0.2258 -0.7303  0.8638
13560TIP3    H240638   1.671   1.063   0.506  0.0152  0.7500 -0.2721
13561TIP3   OH240639   6.685   5.993   1.447  0.3458  0.4048 -0.1971
13561TIP3    H140640   6.673   5.898   1.441  3.4495 -0.1686  0.8400
13561TIP3    H240641   6.675   6.013   1.540  0.7602  0.9069 -0.2551
13562TIP3   OH240642   1.876   3.361   3.058 -0.8524  0.2614  0.0248
13562TIP3    H140643   1.803   3.388   3.115  0.1099 -0.1551  1.5336
13562TIP3    H240644   1.932   3.309   3.116  1.4525  1.8760 -0.6295
13563TIP3   OH240645   3.909   5.858   4.833  0.0985 -0.1284  0.0849
13563TIP3    H140646   3.949   5.918   4.770 -1.8807  1.0634 -0.0880
13563TIP3    H240647   3.929   5.771   4.798  1.2870  0.4499 -0.7424
13564TIP3   OH240648   1.492   5.155   1.698  0.2680  0.4183  0.5207
13564TIP3    H140649   1.446   5.071   1.700  1.5275 -0.2912  1.8510
13564TIP3    H240650   1.541   5.154   1.616 -0.4105  0.2658  0.1067
13565TIP3   OH240651   5.423   7.719   2.429  0.3023  0.4900  0.3343
13565TIP3    H140652   5.427   7.766   2.512  0.0518 -1.7679  1.7066
13565TIP3    H240653   5.356   7.765   2.378 -0.2675  1.3279  1.7993
13566TIP3   OH240654   3.008   7.467   2.786 -0.8209 -0.0715 -0.6793
13566TIP3    H140655   2.912   7.468   2.778 -0.8695  0.2357 -0.0959
13566TIP3    H240656   3.026   7.399   2.851 -0.7375  0.8421  0.2785
13567TIP3   OH240657   8.008   1.847   6.115 -0.1340 -0.1893  0.5428
13567TIP3    H140658   7.986   1.808   6.031  0.5499 -0.3214  0.4268
13567TIP3    H240659   7.935   1.906   6.133  0.2882  0.7485 -0.7097
13568TIP3   OH240660   4.650   0.824   0.583  0.5895 -0.3461 -0.2145
13568TIP3    H140661   4.562   0.858   0.571  1.0812  0.8696 -0.5335
13568TIP3    H240662   4.696   0.846   0.502  0.7341 -2.5228 -0.7748
13569TIP3   OH240663   0.912   5.403   1.281 -0.2037  0.1888  0.1560
13569TIP3    H140664   0.879   5.368   1.198  0.0012  1.1146 -0.3201
13569TIP3    H240665   1.007   5.405   1.270 -0.2520  1.7748 -0.1951
13570TIP3   OH240666   3.867   4.529   5.187 -0.2386 -0.7215 -0.3382
13570TIP3    H140667   3.806   4.595   5.219 -0.6507 -0.6387 -1.2456
13570TIP3    H240668   3.871   4.464   5.257  0.5070  0.4651  0.7515
13571TIP3   OH240669   1.354   3.781   5.012  0.5369  0.3409 -0.5376
13571TIP3    H140670   1.365   3.876   5.011 -0.6485  0.4954 -0.8489
13571TIP3    H240671   1.263   3.768   5.038  0.5532 -0.6938 -0.9394
13572TIP3   OH240672   7.034   5.314   3.751  0.3472  0.1897  0.0740
13572TIP3    H140673   7.122   5.337   3.781 -0.0768  0.7192  0.9568
13572TIP3    H240674   6.982   5.393   3.766 -1.1006 -1.1653  3.0278
13573TIP3   OH240675   3.976   1.180   5.530  0.1506 -0.1235 -0.0221
13573TIP3    H140676   4.000   1.155   5.619  0.2315  1.2575  0.3670
13573TIP3    H240677   4.027   1.121   5.474  1.0147 -0.2211  0.8411
13574TIP3   OH240678   0.357   7.258   2.979  0.1000 -0.2178 -0.1679
13574TIP3    H140679   0.397   7.265   2.892  1.4613  1.4610  0.5390
13574TIP3    H240680   0.385   7.172   3.011 -0.6207 -0.9666 -1.4344
13575TIP3   OH240681   2.820   0.891   4.025 -0.5851 -0.0845 -0.7585
13575TIP3    H140682   2.809   0.890   4.120  1.3091  0.7106 -0.4749
13575TIP3    H240683   2.758   0.956   3.993  0.1953  1.1776  0.1991
13576TIP3   OH240684   3.040   5.757   0.982  0.4369  0.1613 -0.5654
13576TIP3    H140685   3.016   5.810   0.906 -0.2457  0.7570  0.0558
13576TIP3    H240686   3.081   5.818   1.043 -1.3308  0.2508  0.6078
13577TIP3   OH240687   5.141   0.388   0.479 -0.0753 -0.1893 -0.1587
13577TIP3    H140688   5.181   0.469   0.447  1.0014 -0.0692  1.3892
13577TIP3    H240689   5.058   0.416   0.518  0.9624  0.4697  1.7317
13578TIP3   OH240690   0.698   7.542   3.481  0.2114 -0.9982  0.7037
13578TIP3    H140691   0.719   7.554   3.574 -0.2030  1.6282  0.5237
13578TIP3    H240692   0.718   7.626   3.441 -1.0862 -1.5898 -1.3197
13579TIP3   OH240693   6.085   3.228   5.824  0.1866  0.2714 -0.0473
13579TIP3    H140694   6.167   3.219   5.873 -0.6341  1.9819  1.7872
13579TIP3    H240695   6.075   3.322   5.811 -1.8314  0.1659  0.4237
13580TIP3   OH240696   6.820   2.600   4.310  0.9352 -0.0206  0.3513
13580TIP3    H140697   6.895   2.550   4.278  1.5737  0.3525  1.2338
13580TIP3    H240698   6.784   2.546   4.381  1.5782  0.6928  1.2511
13581TIP3   OH240699   4.048   7.470   3.379 -0.0646 -0.0263  0.0904
13581TIP3    H140700   4.035   7.549   3.431  0.5441  0.2917 -0.2371
13581TIP3    H240701   4.056   7.400   3.443 -0.2567  0.2225  0.3923
13582TIP3   OH240702   8.289   1.581   3.254  0.0165 -0.6799 -0.0377
13582TIP3    H140703   8.257   1.516   3.317  0.2746 -1.5319 -0.7710
13582TIP3    H240704   8.212   1.599   3.199  0.3155 -1.4475 -0.7267
13583TIP3   OH240705   1.472   5.709   4.981 -0.0520  0.1262 -0.0081
13583TIP3    H140706   1.385   5.745   4.971  0.2563  0.5910 -1.1232
13583TIP3    H240707   1.468   5.660   5.063 -2.0699 -1.9043 -1.2002
13584TIP3   OH240708   0.618   0.195   6.453 -0.0047  0.3176  0.2393
13584TIP3    H140709   0.582   0.125   6.398 -1.3318 -0.4488  2.0020
13584TIP3    H240710   0.709   0.168   6.469  0.2089  0.2283 -0.9748
13585TIP3   OH240711   7.470   0.708   6.469  0.0458  0.0226 -0.0370
13585TIP3    H140712   7.420   0.641   6.422 -1.8276 -0.1978  2.0812
13585TIP3    H240713   7.404   0.757   6.518  1.6544  1.6690  0.6064
13586TIP3   OH240714   1.291   6.562   5.135  0.1291  0.2534 -0.5785
13586TIP3    H140715   1.380   6.554   5.169 -0.7206 -2.5559  1.2906
13586TIP3    H240716   1.274   6.480   5.090 -1.3223  0.9932 -1.4643
13587TIP3   OH240717   8.039   2.081   0.634 -0.3599  0.3094 -0.1336
13587TIP3    H140718   8.119   2.134   0.633 -1.6245  2.3513  1.5533
13587TIP3    H240719   8.071   1.992   0.651  1.5331  1.1395  1.0437
13588TIP3   OH240720   3.183   2.739   1.335 -0.2045 -0.4324 -0.5792
13588TIP3    H140721   3.098   2.725   1.377  0.0460 -0.3198 -0.0231
13588TIP3    H240722   3.171   2.818   1.282 -0.6446 -0.8148 -1.0507
13589TIP3   OH240723   4.485   4.805   6.375  0.3365  0.5901  0.5382
13589TIP3    H140724   4.521   4.819   6.287 -1.1279  0.3958 -0.1309
13589TIP3    H240725   4.505   4.713   6.395  1.8570  1.0019  1.0043
13590TIP3   OH240726   8.098   7.304   0.451 -0.1139  0.4305 -0.1395
13590TIP3    H140727   8.122   7.237   0.387 -1.7951 -2.4995  2.0716
13590TIP3    H240728   8.145   7.279   0.531 -0.4250  2.1905  0.6429
13591TIP3   OH240729   1.161   1.709   4.733  0.2759 -0.2212 -0.2873
13591TIP3    H140730   1.118   1.705   4.818 -1.9216  1.7035 -1.2091
13591TIP3    H240731   1.132   1.630   4.687  0.0470 -0.3814  0.1344
13592TIP3   OH240732   5.604   5.790   5.180  0.3095  0.4294  0.2989
13592TIP3    H140733   5.602   5.820   5.270 -0.9477  0.6421  0.2202
13592TIP3    H240734   5.511   5.780   5.156  0.6117  0.8597 -1.1237
13593TIP3   OH240735   1.347   2.586   0.615  0.6201  0.6470 -0.6276
13593TIP3    H140736   1.300   2.583   0.531  0.3167 -0.8489 -0.4264
13593TIP3    H240737   1.303   2.656   0.664 -1.3203 -0.5769 -0.5215
13594TIP3   OH240738   7.554   5.913   0.130 -0.0475 -0.1745 -0.0354
13594TIP3    H140739   7.625   5.849   0.131  0.2592  0.1393 -0.6955
13594TIP3    H240740   7.572   5.967   0.053 -0.9043  0.0257 -0.1064
13595TIP3   OH240741   5.765   1.198   4.262  0.2037 -0.2787  0.3394
13595TIP3    H140742   5.813   1.265   4.311 -1.3561  0.1962  1.2832
13595TIP3    H240743   5.765   1.122   4.321 -0.3851 -0.2027  0.4388
13596TIP3   OH240744   6.995   3.393   6.712  0.1461  0.5590 -0.1605
13596TIP3    H140745   6.984   3.318   6.653  1.8858  0.6526 -0.6458
13596TIP3    H240746   6.932   3.457   6.680  1.0713  0.6250 -1.9983
13597TIP3   OH240747   2.886   7.067   3.668 -0.3187  0.6268  0.2255
13597TIP3    H140748   2.925   7.154   3.672 -1.0620  1.0604 -1.1107
13597TIP3    H240749   2.960   7.007   3.671  0.2936  1.3506 -0.0361
13598TIP3   OH240750   4.761   5.290   6.390  0.6054 -0.0348  0.4726
13598TIP3    H140751   4.830   5.225   6.400  1.7428  1.1119  0.3068
13598TIP3    H240752   4.690   5.259   6.447  1.8888 -0.4040  1.9397
13599TIP3   OH240753   8.244   2.290   4.976  0.1524 -0.0666 -0.5662
13599TIP3    H140754   8.262   2.318   5.066 -0.3661 -0.7403 -0.2436
13599TIP3    H240755   8.157   2.252   4.980 -0.2761  0.7539 -1.5600
13600TIP3   OH240756   7.070   7.768   3.646 -0.1636 -0.3016 -0.2179
13600TIP3    H140757   7.051   7.851   3.690  0.9782  0.2161 -0.6419
13600TIP3    H240758   7.047   7.701   3.710  0.4274  0.3995  0.7709
13601TIP3   OH240759   4.554   2.870   2.067  0.2232  0.2102  0.3604
13601TIP3    H140760   4.621   2.888   2.134 -0.4236  1.4047  0.7259
13601TIP3    H240761   4.599   2.816   2.002  0.7766 -1.3149  1.9287
13602TIP3   OH240762   5.866   7.462   1.773 -0.2235  0.3789 -0.0842
13602TIP3    H140763   5.962   7.467   1.767 -0.1489 -0.8427 -0.1357
13602TIP3    H240764   5.835   7.476   1.684 -0.2076  2.4478  0.1871
13603TIP3   OH240765   3.787   4.613   0.635 -0.1912 -0.2319  0.1478
13603TIP3    H140766   3.710   4.633   0.583  0.0299 -1.9727 -0.9452
13603TIP3    H240767   3.754   4.563   0.709 -0.2917  0.5733  0.6557
13604TIP3   OH240768   1.565   3.054   2.274  0.0024  0.6376 -0.5092
13604TIP3    H140769   1.558   2.974   2.326 -1.9869  0.0365 -1.6079
13604TIP3    H240770   1.653   3.050   2.236 -0.4406 -1.6506 -1.4616
13605TIP3   OH240771   6.196   6.656   5.785 -0.2804  0.1011 -0.4308
13605TIP3    H140772   6.192   6.561   5.776  1.4678  0.1412 -2.1231
13605TIP3    H240773   6.275   6.672   5.836 -0.5761  0.6748 -0.1358
13606TIP3   OH240774   2.489   1.256   0.935 -0.1218 -0.4351 -0.0380
13606TIP3    H140775   2.550   1.325   0.908 -0.9772  0.1986 -0.3861
13606TIP3    H240776   2.545   1.189   0.973  0.7158  0.5016  0.4301
13607TIP3   OH240777   4.708   0.719   5.212  0.5337 -0.0568  0.1948
13607TIP3    H140778   4.748   0.654   5.269  0.6599 -0.6156 -0.5146
13607TIP3    H240779   4.679   0.670   5.135 -1.2915  0.3701  0.5559
13608TIP3   OH240780   3.811   3.042   5.579  0.2104  0.1172  0.1184
13608TIP3    H140781   3.905   3.032   5.592  0.7269  0.3257 -2.6865
13608TIP3    H240782   3.774   2.957   5.600  0.9231  0.2033  1.8134
13609TIP3   OH240783   1.747   3.542   6.212  0.3689 -0.2436  0.0652
13609TIP3    H140784   1.671   3.524   6.156 -0.6046  0.8765  0.9611
13609TIP3    H240785   1.823   3.525   6.156 -0.5631  0.1593 -1.3754
13610TIP3   OH240786   6.359   4.627   5.660 -0.3189 -0.2767 -0.0537
13610TIP3    H140787   6.406   4.572   5.722 -0.0069  0.4329  0.3482
13610TIP3    H240788   6.416   4.703   5.647 -0.5879 -0.2046 -0.8576
13611TIP3   OH240789   8.076   3.627   4.536 -0.3987  0.1256  0.1386
13611TIP3    H140790   8.062   3.718   4.512 -0.7662  0.6286  2.1410
13611TIP3    H240791   8.061   3.579   4.454 -0.1553  1.8293 -0.9610
13612TIP3   OH240792   6.677   0.879   2.232  0.0444 -0.5594  0.4050
13612TIP3    H140793   6.716   0.838   2.309  1.0004  1.5331  1.1275
13612TIP3    H240794   6.606   0.933   2.267  0.2313  0.1059 -0.2039
13613TIP3   OH240795   2.218   2.365   6.247 -0.3349 -0.0982 -0.2176
13613TIP3    H140796   2.198   2.366   6.154  0.0169 -1.2532 -0.3156
13613TIP3    H240797   2.312   2.381   6.252 -0.1652 -1.0493 -0.1352
13614TIP3   OH240798   2.816   3.367   0.106  0.3785 -0.2888 -0.0374
13614TIP3    H140799   2.841   3.370   0.198 -1.5732 -0.1773  0.5241
13614TIP3    H240800   2.747   3.432   0.098  1.2377  0.4713 -1.8490
13615TIP3   OH240801   4.402   4.556   5.915 -0.0732  0.2296  0.4303
13615TIP3    H140802   4.390   4.648   5.936  2.8738  0.6797  0.6654
13615TIP3    H240803   4.364   4.509   5.989 -2.4912  1.1480 -0.1576
13616TIP3   OH240804   2.430   3.096   1.468  0.2408  0.1071 -0.6382
13616TIP3    H140805   2.368   3.124   1.400 -0.4806 -3.0836 -1.4509
13616TIP3    H240806   2.397   3.011   1.497  2.0870  0.1166  1.7755
13617TIP3   OH240807   7.399   7.771   6.498 -0.4009  0.0754 -0.5070
13617TIP3    H140808   7.339   7.831   6.541  1.7452  0.7117  1.8783
13617TIP3    H240809   7.468   7.827   6.462 -0.2562 -0.7482 -1.5877
13618TIP3   OH240810   3.137   5.264   6.747 -0.2914  0.6602  0.3372
13618TIP3    H140811   3.106   5.322   6.679 -0.3540 -0.8875 -1.0265
13618TIP3    H240812   3.202   5.315   6.795 -1.0339  2.1348 -0.1823
13619TIP3   OH240813   0.693   4.750   2.764 -0.0235  0.0891  0.3886
13619TIP3    H140814   0.616   4.717   2.719  0.1864  0.0998  0.0185
13619TIP3    H240815   0.764   4.693   2.735  0.5646  1.5342 -1.1478
13620TIP3   OH240816   4.808   2.239   3.947  0.3814 -0.0559 -0.3023
13620TIP3    H140817   4.860   2.192   3.882  1.6589 -1.1217  1.3947
13620TIP3    H240818   4.830   2.197   4.030 -1.4433  1.0222  0.7957
13621TIP3   OH240819   3.194   7.470   1.484 -0.7857  0.1372  0.0830
13621TIP3    H140820   3.121   7.463   1.546 -0.7355  0.0358  0.1308
13621TIP3    H240821   3.166   7.419   1.408 -1.1051  0.7671 -0.2262
13622TIP3   OH240822   7.647   1.718   4.505  0.1553 -0.4806  0.5430
13622TIP3    H140823   7.647   1.811   4.528 -0.3333 -0.3237 -0.0763
13622TIP3    H240824   7.729   1.705   4.458 -0.8032  0.1640 -1.4011
13623TIP3   OH240825   1.923   6.648   2.472 -0.1236 -0.3007 -0.0939
13623TIP3    H140826   1.933   6.570   2.417 -0.8695 -1.4738  1.3380
13623TIP3    H240827   1.847   6.628   2.528  0.2718  1.0374  0.9859
13624TIP3   OH240828   7.966   7.854   1.210 -0.2545 -0.0050 -0.5049
13624TIP3    H140829   7.995   7.763   1.199  1.2796  0.4488 -0.4619
13624TIP3    H240830   8.022   7.888   1.280 -2.1803  0.4131  0.9181
13625TIP3   OH240831   0.573   4.385   2.037  0.5087 -0.4503  0.0397
13625TIP3    H140832   0.549   4.405   2.128 -1.1193 -1.0718 -0.2118
13625TIP3    H240833   0.669   4.385   2.037  0.5449  0.2392  1.5937
13626TIP3   OH240834   0.060   7.866   0.871  0.1909 -0.4619 -0.0864
13626TIP3    H140835   0.118   7.867   0.947 -2.2929 -0.5621  1.9135
13626TIP3    H240836   0.061   7.775   0.841  1.1223 -0.4331 -0.1612
13627TIP3   OH240837   2.965   3.856   1.982 -0.1216  0.1465  0.2952
13627TIP3    H140838   2.997   3.813   2.061 -0.9951  0.2789  0.7279
13627TIP3    H240839   2.870   3.842   1.983 -0.0562 -0.6019 -1.1920
13628TIP3   OH240840   0.493   3.358   4.177 -0.1153  0.3423 -0.3183
13628TIP3    H140841   0.585   3.367   4.152  0.4097  0.4032  1.5063
13628TIP3    H240842   0.487   3.397   4.264 -1.8689  0.2757 -0.3590
13629TIP3   OH240843   1.277   7.430   4.709 -0.0075  0.0622 -0.2008
13629TIP3    H140844   1.332   7.502   4.680  0.3394  0.0254  0.3351
13629TIP3    H240845   1.237   7.396   4.629 -0.9567  1.4613 -0.3508
13630TIP3   OH240846   6.673   7.259   5.985 -0.0252 -0.0843 -0.7127
13630TIP3    H140847   6.673   7.219   5.898 -1.3954 -2.3534  0.2515
13630TIP3    H240848   6.652   7.351   5.969  0.1116 -0.3635 -2.7858
13631TIP3   OH240849   1.784   1.587   5.382  0.6287 -0.1028 -0.1000
13631TIP3    H140850   1.730   1.656   5.344  1.0407 -0.4432 -1.3787
13631TIP3    H240851   1.736   1.557   5.458  0.5751  1.7801  0.6685
13632TIP3   OH240852   8.039   7.503   4.162 -0.3883 -0.5285  0.4127
13632TIP3    H140853   8.124   7.481   4.199 -1.2566 -0.5309  2.5879
13632TIP3    H240854   8.048   7.593   4.131  0.1403 -0.1413  1.6258
13633TIP3   OH240855   1.934   5.682   0.961 -0.3575  0.0667  0.2404
13633TIP3    H140856   1.917   5.667   1.054  1.2051  0.4535  0.6098
13633TIP3    H240857   2.014   5.633   0.943 -0.5614  0.1166 -0.8744
13634TIP3   OH240858   0.935   3.292   5.523 -0.3149  0.1922 -0.1840
13634TIP3    H140859   1.010   3.351   5.517 -1.1820  1.5357  1.4724
13634TIP3    H240860   0.930   3.251   5.436  1.4393  1.1419 -0.7830
13635TIP3   OH240861   0.679   6.420   4.458 -0.6236  0.0641  0.5845
13635TIP3    H140862   0.688   6.512   4.435  3.0474 -0.5196 -1.0002
13635TIP3    H240863   0.587   6.399   4.440 -1.2755  3.0968 -0.1165
13636TIP3   OH240864   8.265   1.806   4.291  0.2656  0.4032  0.2117
13636TIP3    H140865   8.333   1.813   4.358 -0.2339  0.8820  0.6757
13636TIP3    H240866   8.183   1.813   4.340 -0.1091  0.2427 -0.3924
13637TIP3   OH240867   6.785   5.033   5.129 -0.4893 -0.0226  0.1134
13637TIP3    H140868   6.804   5.126   5.139  0.0066 -0.1043 -0.0287
13637TIP3    H240869   6.825   5.010   5.045 -1.4242 -0.1502 -0.3060
13638TIP3   OH240870   6.462   3.590   4.003 -0.4053 -0.1270  0.6765
13638TIP3    H140871   6.407   3.517   3.975  0.6304 -0.4652 -0.5493
13638TIP3    H240872   6.505   3.621   3.923 -1.3804  2.3372  1.0152
13639TIP3   OH240873   6.358   6.668   1.951  0.7010  0.5687  0.4938
13639TIP3    H140874   6.397   6.600   1.896  0.4779  0.5436  0.3697
13639TIP3    H240875   6.427   6.734   1.958  0.7635  0.5306  0.2600
13640TIP3   OH240876   1.654   2.499   4.832  0.2856  0.2688 -0.1382
13640TIP3    H140877   1.657   2.561   4.905 -0.1652 -0.7341  0.7548
13640TIP3    H240878   1.621   2.550   4.758  0.6636  1.2776  0.3654
13641TIP3   OH240879   3.425   2.611   2.504 -0.0611 -0.4158 -0.2050
13641TIP3    H140880   3.517   2.601   2.478  0.3568  0.2582  0.9434
13641TIP3    H240881   3.425   2.593   2.598 -0.3803  3.2306  0.6539
13642TIP3   OH240882   7.340   4.299   1.238 -0.0631  0.1837  0.1004
13642TIP3    H140883   7.271   4.278   1.302  0.5515  0.7355  0.9667
13642TIP3    H240884   7.365   4.389   1.259 -1.3215  1.1756 -2.2968
13643TIP3   OH240885   6.500   4.955   1.071  0.2389  0.1546  0.0512
13643TIP3    H140886   6.414   4.937   1.109  0.3681  2.9018  1.9511
13643TIP3    H240887   6.562   4.934   1.140  1.0037 -0.3061 -0.7547
13644TIP3   OH240888   3.709   5.627   2.618 -0.2631  0.0002  0.6928
13644TIP3    H140889   3.778   5.561   2.611 -1.1922 -0.9045 -0.0638
13644TIP3    H240890   3.676   5.618   2.707 -0.0889 -0.2554  0.7326
13645TIP3   OH240891   0.322   7.615   5.556  0.3242  0.0301  0.6681
13645TIP3    H140892   0.375   7.543   5.521  0.1674  0.3445 -0.2473
13645TIP3    H240893   0.385   7.683   5.578  0.3314  0.3267 -0.2312
13646TIP3   OH240894   3.044   5.096   5.583 -0.4934  0.8090  0.5127
13646TIP3    H140895   2.986   5.172   5.594 -1.1410  0.3913 -0.0073
13646TIP3    H240896   3.084   5.085   5.669 -2.4344  0.0943  1.3886
13647TIP3   OH240897   4.830   3.719   1.222  0.5380  0.1488  0.5881
13647TIP3    H140898   4.803   3.714   1.314  1.7112 -0.3485  0.9127
13647TIP3    H240899   4.829   3.813   1.203 -0.9258  0.1817  0.7235
13648TIP3   OH240900   1.457   1.922   5.681  0.2613 -0.5585  0.0151
13648TIP3    H140901   1.396   1.989   5.713  0.5734  0.1473 -0.8146
13648TIP3    H240902   1.433   1.843   5.728 -0.2018  0.1076  0.9381
13649TIP3   OH240903   4.205   4.596   3.230 -0.0121  0.2015  0.1314
13649TIP3    H140904   4.143   4.601   3.158  0.3437 -1.2725 -0.3091
13649TIP3    H240905   4.291   4.607   3.190  0.0757  2.3236  0.7503
13650TIP3   OH240906   0.625   2.175   5.181  0.0952  0.2271  0.2743
13650TIP3    H140907   0.651   2.158   5.090  0.5754 -0.2252  0.4892
13650TIP3    H240908   0.675   2.253   5.206  1.7088 -0.9362  0.8515
13651TIP3   OH240909   6.040   5.277   0.172  0.1148  0.0823 -0.1547
13651TIP3    H140910   5.979   5.269   0.245  0.2868  0.6960  0.0656
13651TIP3    H240911   5.986   5.265   0.094 -0.0343 -0.7895  0.0727
13652TIP3   OH240912   0.455   2.833   3.042  0.0774 -0.8926  0.0781
13652TIP3    H140913   0.517   2.770   3.005  3.1012  2.5928 -1.4142
13652TIP3    H240914   0.480   2.839   3.134 -0.5017 -2.0492  0.3349
13653TIP3   OH240915   0.021   2.094   6.745  0.4566  0.3646 -0.1595
13653TIP3    H140916  -0.020   2.086   6.831  2.1944 -0.8023  0.6164
13653TIP3    H240917   0.083   2.166   6.755 -0.1708  1.0060 -0.8120
13654TIP3   OH240918   3.506   4.891   4.431  0.6460 -0.3075  0.2457
13654TIP3    H140919   3.457   4.809   4.431 -0.6332  0.4107  1.2433
13654TIP3    H240920   3.509   4.918   4.523  1.2033  0.6783 -0.0325
13655TIP3   OH240921   0.750   6.828   1.240  0.2399  0.0860 -0.4025
13655TIP3    H140922   0.743   6.733   1.234 -1.0470  0.0854  0.5854
13655TIP3    H240923   0.660   6.859   1.227  0.3203  1.0335  1.1027
13656TIP3   OH240924   4.041   1.534   1.693  0.1274  0.0725 -0.1970
13656TIP3    H140925   4.067   1.496   1.609 -0.0298 -0.7639  0.1231
13656TIP3    H240926   4.119   1.579   1.725  0.3420 -0.0479 -0.5526
13657TIP3   OH240927   1.749   2.690   2.805  0.2980  0.2662 -0.3214
13657TIP3    H140928   1.783   2.747   2.873 -0.1992  1.1416 -0.7933
13657TIP3    H240929   1.764   2.601   2.839  2.5276  0.6039 -0.2864
13658TIP3   OH240930   3.510   3.062   4.461  0.2213 -0.3855  0.2789
13658TIP3    H140931   3.538   3.134   4.517  2.2665 -0.4044 -0.6272
13658TIP3    H240932   3.542   2.983   4.506  0.6908 -0.4871 -0.2102
13659TIP3   OH240933   2.419   1.606   0.633  0.1513  0.5128  0.7048
13659TIP3    H140934   2.341   1.557   0.659 -0.8049  1.5966 -0.0300
13659TIP3    H240935   2.456   1.556   0.561  0.0254  0.1046  0.9221
13660TIP3   OH240936   2.319   3.037   4.393  0.1613  0.4303 -0.6339
13660TIP3    H140937   2.392   3.091   4.424 -0.5358  1.0584 -0.0572
13660TIP3    H240938   2.361   2.970   4.338  1.0727  1.3394 -1.0893
13661TIP3   OH240939   6.797   2.510   6.736 -0.3438  0.4559 -0.2098
13661TIP3    H140940   6.775   2.598   6.703 -2.5713 -0.8299 -2.5124
13661TIP3    H240941   6.866   2.479   6.677 -1.2145 -0.1888 -0.9087
13662TIP3   OH240942   3.736   0.738   5.453  0.4856  0.6021 -0.2038
13662TIP3    H140943   3.655   0.698   5.485 -0.2640  0.7407 -1.8190
13662TIP3    H240944   3.761   0.800   5.522 -0.3220 -0.0331  0.6852
13663TIP3   OH240945   0.768   5.837   0.845  0.7778  0.4212 -0.0417
13663TIP3    H140946   0.801   5.749   0.828 -0.1937 -0.5204  2.3901
13663TIP3    H240947   0.839   5.880   0.893  0.2809 -0.0144  1.1313
13664TIP3   OH240948   4.605   3.369   3.022 -0.1265 -0.2781 -0.1966
13664TIP3    H140949   4.625   3.290   3.072 -1.1040 -0.6325 -0.3397
13664TIP3    H240950   4.509   3.368   3.013  0.0193 -0.1989 -2.0262
13665TIP3   OH240951   3.023   0.242   3.967  0.7014  0.2737 -0.0114
13665TIP3    H140952   2.932   0.241   3.940  0.9368  0.9821 -0.8946
13665TIP3    H240953   3.028   0.179   4.038 -0.6052  0.7036  0.4815
13666TIP3   OH240954   2.050   3.572   3.606  0.5587 -0.1930  0.1419
13666TIP3    H140955   2.110   3.636   3.645  1.8647 -0.6785 -0.9751
13666TIP3    H240956   1.980   3.562   3.670  1.1385  1.1829  1.0283
13667TIP3   OH240957   1.292   4.759   2.521 -0.2739  0.5869 -0.1586
13667TIP3    H140958   1.234   4.802   2.459 -2.2038  0.2290  1.3052
13667TIP3    H240959   1.274   4.802   2.605  0.9906 -0.0890  0.4903
13668TIP3   OH240960   0.853   5.726   5.370 -0.5638 -0.0374 -0.1877
13668TIP3    H140961   0.843   5.818   5.393  0.4665  0.7710 -2.6553
13668TIP3    H240962   0.773   5.685   5.402 -1.2019  1.7594  0.6643
13669TIP3   OH240963   3.391   2.483   2.251 -0.3487  0.3327 -0.1573
13669TIP3    H140964   3.363   2.546   2.318 -1.0445  1.2641 -1.2757
13669TIP3    H240965   3.327   2.492   2.181 -0.2261 -1.3694 -0.5277
13670TIP3   OH240966   4.501   6.992   1.837  0.6880 -0.2736 -0.0590
13670TIP3    H140967   4.407   6.999   1.823  0.4275 -0.4345  1.4231
13670TIP3    H240968   4.540   6.999   1.750 -0.7331 -0.8568 -0.7624
13671TIP3   OH240969   7.654   6.827   4.402 -0.3112 -0.5651 -0.4341
13671TIP3    H140970   7.576   6.850   4.351 -0.5399  0.5217  0.3483
13671TIP3    H240971   7.628   6.845   4.493  1.0994  0.6142 -0.2222
13672TIP3   OH240972   4.368   5.663   6.213  0.3158 -0.2284  0.0128
13672TIP3    H140973   4.419   5.647   6.134 -0.4832 -0.1552 -0.5372
13672TIP3    H240974   4.319   5.581   6.227  0.3698 -0.2025  0.3661
13673TIP3   OH240975   0.763   6.491   3.369  0.2520  0.2492  0.9315
13673TIP3    H140976   0.720   6.467   3.287  0.3658 -0.8741  1.1767
13673TIP3    H240977   0.790   6.582   3.357  1.1999 -0.2033 -0.6912
13674TIP3   OH240978   4.120   0.757   1.189  0.0443 -0.4286  0.7140
13674TIP3    H140979   4.086   0.674   1.155 -0.3558 -0.0851  0.2585
13674TIP3    H240980   4.185   0.785   1.124  1.3613 -1.1652  1.6632
13675TIP3   OH240981   8.179   5.612   4.473 -0.0950  0.0562  0.3627
13675TIP3    H140982   8.218   5.591   4.388 -2.2282  0.6567 -0.8574
13675TIP3    H240983   8.224   5.556   4.535 -0.7377 -2.9646 -1.6818
13676TIP3   OH240984   3.098   5.953   5.743  0.6861  0.1297  0.4761
13676TIP3    H140985   3.171   5.899   5.714 -1.0739 -1.6171 -0.9876
13676TIP3    H240986   3.039   5.892   5.787 -1.1791  0.8692 -0.8476
13677TIP3   OH240987   2.521   4.634   5.407  0.6304  0.0072  0.0935
13677TIP3    H140988   2.498   4.629   5.499 -0.8023  1.8262 -0.1202
13677TIP3    H240989   2.613   4.661   5.407 -0.3021  3.6958  1.0963
13678TIP3   OH240990   3.495   2.954   4.787 -0.4413 -0.1698  1.0674
13678TIP3    H140991   3.458   2.869   4.767 -2.6039  0.7385  0.9146
13678TIP3    H240992   3.492   2.959   4.883  1.2296 -0.8822  1.1776
13679TIP3   OH240993   8.121   3.229   6.344  0.0503  0.3125 -0.1829
13679TIP3    H140994   8.071   3.187   6.274  0.6132  2.4700 -2.0016
13679TIP3    H240995   8.198   3.173   6.356  1.9263  1.6886 -4.0638
13680TIP3   OH240996   0.769   2.497   3.018 -0.2803 -0.3507 -0.3058
13680TIP3    H140997   0.733   2.452   3.094 -0.3959  1.2190  0.6143
13680TIP3    H240998   0.693   2.514   2.962 -0.1669 -1.6808 -0.8950
13681TIP3   OH240999   3.836   0.511   2.364  0.2103 -0.1761 -0.7479
13681TIP3    H141000   3.865   0.488   2.275 -1.2270 -2.0437 -0.7912
13681TIP3    H241001   3.876   0.445   2.420  1.0454  0.9482  0.0489
13682TIP3   OH241002   0.740   6.555   6.705  0.1376  0.2256 -0.7696
13682TIP3    H141003   0.736   6.529   6.613  0.3614  0.3277 -0.8095
13682TIP3    H241004   0.831   6.536   6.731 -0.3153 -1.2921 -0.1358
13683TIP3   OH241005   3.541   0.563   0.430  0.4667  0.3124 -0.2863
13683TIP3    H141006   3.547   0.615   0.350  0.7038  0.1678 -0.3614
13683TIP3    H241007   3.476   0.610   0.483  0.7391  0.7372 -0.3192
13684TIP3   OH241008   0.087   1.864   2.716  0.3333  0.0638  0.2205
13684TIP3    H141009   0.003   1.887   2.675  0.3017 -0.8814 -0.2850
13684TIP3    H241010   0.073   1.778   2.753  1.5941 -0.9789 -1.5300
13685TIP3   OH241011   7.863   6.594   4.729  0.4548 -0.3140 -0.6111
13685TIP3    H141012   7.848   6.686   4.754  2.5836  0.6593 -2.5796
13685TIP3    H241013   7.956   6.590   4.707  0.0391 -2.5103 -2.2620
13686TIP3   OH241014   0.797   1.148   1.779  0.6204 -0.3016  0.3935
13686TIP3    H141015   0.739   1.075   1.799  1.8497 -1.7668 -1.1146
13686TIP3    H241016   0.819   1.187   1.864 -0.9319 -0.9649  1.1288
13687TIP3   OH241017   5.583   4.669   0.149  0.2538  0.3663  0.2239
13687TIP3    H141018   5.627   4.736   0.097  0.8352  0.6633  1.0883
13687TIP3    H241019   5.529   4.621   0.085 -0.6997  2.0691 -0.2909
13688TIP3   OH241020   8.272   1.364   0.792 -0.5408 -0.6660 -0.4949
13688TIP3    H141021   8.276   1.391   0.883 -1.5847  0.5632 -0.7824
13688TIP3    H241022   8.188   1.319   0.783 -0.7042 -0.2835 -0.9576
13689TIP3   OH241023   7.191   0.463   0.335  0.1091  0.1370 -0.9449
13689TIP3    H141024   7.200   0.508   0.419  1.1460  2.2622 -2.0930
13689TIP3    H241025   7.096   0.449   0.325  0.0206 -0.6786  0.7906
13690TIP3   OH241026   7.828   0.728   5.750  0.3362 -0.0838  0.1081
13690TIP3    H141027   7.790   0.650   5.709  2.5162 -1.3335  0.2733
13690TIP3    H241028   7.893   0.759   5.687  0.1365  1.0788  0.4470
13691TIP3   OH241029   3.421   3.283   1.804 -0.7328  0.2805  0.1782
13691TIP3    H141030   3.496   3.267   1.747  1.0899 -0.4252  2.6158
13691TIP3    H241031   3.391   3.195   1.829 -2.1822  0.5598 -0.4622
13692TIP3   OH241032   1.669   3.303   3.875 -0.1032  0.0915  0.1631
13692TIP3    H141033   1.692   3.310   3.782 -0.3481  0.4334  0.1249
13692TIP3    H241034   1.746   3.263   3.916 -0.1358 -0.3964 -0.2435
13693TIP3   OH241035   0.027   1.115   4.303 -0.6481  0.7249  0.5785
13693TIP3    H141036   0.042   1.201   4.262 -0.5496  0.3917 -0.0987
13693TIP3    H241037  -0.046   1.078   4.254  1.2184 -0.8434 -1.2085
13694TIP3   OH241038   2.776   4.555   5.857  0.3542  0.2097  0.3015
13694TIP3    H141039   2.797   4.530   5.767  0.3167 -0.3631  0.4449
13694TIP3    H241040   2.681   4.541   5.865 -0.5942  4.5904 -0.9163
13695TIP3   OH241041   5.781   0.035   2.311 -0.4344 -0.0884 -0.0076
13695TIP3    H141042   5.721   0.095   2.266  0.1311  0.2193 -0.3654
13695TIP3    H241043   5.785   0.068   2.401  1.6160  1.8502 -0.7002
13696TIP3   OH241044   0.173   5.315   3.201 -0.2245 -0.3717 -0.7223
13696TIP3    H141045   0.086   5.303   3.239  0.4313  0.2794  1.1040
13696TIP3    H241046   0.167   5.397   3.151 -0.2516  0.5728  0.7768
13697TIP3   OH241047   4.692   2.560   3.556 -0.2930 -0.4331  0.7936
13697TIP3    H141048   4.670   2.487   3.614 -1.9983 -0.2948  0.3894
13697TIP3    H241049   4.664   2.530   3.470 -0.0238  0.2928  0.4542
13698TIP3   OH241050   6.800   1.976   5.888  0.1728 -0.1971  0.2219
13698TIP3    H141051   6.769   2.067   5.896 -0.7308 -0.3998 -0.8324
13698TIP3    H241052   6.893   1.985   5.866  0.2734  0.4489  0.8373
13699TIP3   OH241053   1.289   3.972   2.693 -0.6496  0.0040  0.2074
13699TIP3    H141054   1.357   3.970   2.761  0.1623 -0.4442 -0.5910
13699TIP3    H241055   1.323   4.032   2.627 -0.5835 -0.9168 -0.6275
13700TIP3   OH241056   5.179   1.309   0.216 -0.0828 -0.2844  0.1879
13700TIP3    H141057   5.262   1.349   0.187 -0.2440  0.2401  0.4365
13700TIP3    H241058   5.185   1.308   0.311 -0.2826 -0.4331  0.1990
13701TIP3   OH241059   7.843   6.951   4.250 -0.3580 -0.3749  0.0534
13701TIP3    H141060   7.774   6.913   4.305 -1.1521  1.6278  0.5129
13701TIP3    H241061   7.873   7.028   4.298 -0.9589  1.3645 -2.1516
13702TIP3   OH241062   1.767   7.428   0.470  0.2538  0.3153 -0.0239
13702TIP3    H141063   1.718   7.442   0.551  0.1153 -0.0983 -0.0376
13702TIP3    H241064   1.724   7.485   0.406 -0.9831 -0.9365 -0.3471
13703TIP3   OH241065   3.146   0.686   5.211  0.4252 -0.4789 -0.0182
13703TIP3    H141066   3.126   0.779   5.201  0.5520 -0.5213 -0.7502
13703TIP3    H241067   3.061   0.642   5.203  0.5743 -0.5494 -1.5985
13704TIP3   OH241068   4.501   0.346   4.877 -0.0809  0.0567 -0.3412
13704TIP3    H141069   4.440   0.377   4.810 -0.6838  0.8534  0.5556
13704TIP3    H241070   4.449   0.343   4.957  0.4767 -1.4262  0.0033
13705TIP3   OH241071   6.440   5.943   3.452 -0.4655 -0.0291 -0.1330
13705TIP3    H141072   6.473   5.922   3.365 -1.5784 -0.5277 -0.4595
13705TIP3    H241073   6.481   5.878   3.509 -0.8113 -0.5966 -0.5160
13706TIP3   OH241074   6.484   2.745   4.844  0.2787  0.2695 -0.1979
13706TIP3    H141075   6.463   2.831   4.880  0.2664 -0.4681  1.6935
13706TIP3    H241076   6.408   2.691   4.864  1.4139 -0.8845  1.2973
13707TIP3   OH241077   8.175   4.162   2.672 -0.6061 -0.8497  0.1804
13707TIP3    H141078   8.268   4.181   2.686 -0.8906  1.1228 -0.2337
13707TIP3    H241079   8.167   4.148   2.577 -1.0803  1.6877 -0.2300
13708TIP3   OH241080   0.798   2.035   5.721  0.2427  0.1818  0.1556
13708TIP3    H141081   0.888   2.061   5.737  1.4630 -1.6676 -2.9486
13708TIP3    H241082   0.799   1.939   5.727 -1.8613  0.1555  1.3179
13709TIP3   OH241083   1.753   3.030   4.574  0.0524 -0.6571  0.6428
13709TIP3    H141084   1.688   3.063   4.512  0.9262 -0.2789 -0.0846
13709TIP3    H241085   1.788   2.951   4.532  0.9429 -0.1712  0.4662
13710TIP3   OH241086   2.640   1.937   2.036  0.5338 -0.5960  0.2139
13710TIP3    H141087   2.592   2.012   2.001 -1.0249 -1.1288  1.1127
13710TIP3    H241088   2.726   1.942   1.994 -0.7657 -0.4512 -2.7074
13711TIP3   OH241089   0.690   0.994   4.919  0.2967 -0.0338  0.1777
13711TIP3    H141090   0.625   0.928   4.894  0.0997  0.4543 -0.6553
13711TIP3    H241091   0.748   1.000   4.843 -0.1207  1.2594 -0.0688
13712TIP3   OH241092   4.683   0.833   3.890  0.1901  0.1713 -0.2247
13712TIP3    H141093   4.728   0.891   3.827  0.5492  0.7657  0.5624
13712TIP3    H241094   4.609   0.885   3.920 -0.1656 -0.2389 -0.3956
13713TIP3   OH241095   5.677   3.895   4.609  0.0473 -0.0000  0.2156
13713TIP3    H141096   5.647   3.961   4.672 -0.7096 -0.6500  0.5607
13713TIP3    H241097   5.623   3.911   4.531 -1.3534 -1.2425  0.8761
13714TIP3   OH241098   0.046   7.546   2.507 -0.2508 -0.6587  0.4996
13714TIP3    H141099   0.077   7.509   2.424 -0.7181  1.8738 -0.9201
13714TIP3    H241100   0.102   7.505   2.574  0.7462 -2.1171 -1.1379
13715TIP3   OH241101   1.383   6.463   5.789 -0.2329  0.1918  0.5974
13715TIP3    H141102   1.336   6.379   5.788 -0.5038  0.3292  1.2787
13715TIP3    H241103   1.412   6.475   5.699 -1.1326 -0.1135  0.2551
13716TIP3   OH241104   4.596   3.171   4.334 -0.0877 -0.1279  0.4371
13716TIP3    H141105   4.639   3.245   4.375  1.7422 -0.0360 -1.4742
13716TIP3    H241106   4.608   3.099   4.396 -0.9372  0.8511  1.8117
13717TIP3   OH241107   3.291   4.961   4.897  0.1180  0.2313 -0.1949
13717TIP3    H141108   3.263   4.963   4.989 -0.5173  2.2072 -0.3952
13717TIP3    H241109   3.317   4.870   4.883 -0.8277 -0.3824  1.6195
13718TIP3   OH241110   1.061   2.163   1.146 -0.3267  0.0110  0.1073
13718TIP3    H141111   1.156   2.176   1.152 -0.1197 -1.1129 -0.4798
13718TIP3    H241112   1.046   2.139   1.055 -1.0820 -0.4902  0.3602
13719TIP3   OH241113   0.619   5.173   1.593 -0.0669 -0.4578  0.0934
13719TIP3    H141114   0.636   5.242   1.658  1.1960 -0.2048 -0.4704
13719TIP3    H241115   0.657   5.207   1.512 -1.5175 -0.8202 -0.7709
13720TIP3   OH241116   5.954   7.769   5.514 -0.0707 -0.0098  0.0614
13720TIP3    H141117   5.875   7.746   5.563  0.0329  0.6321  0.5477
13720TIP3    H241118   5.940   7.860   5.488  1.0319  0.5166  1.2217
13721TIP3   OH241119   7.590   2.924   0.266  0.3388 -0.0084  0.4428
13721TIP3    H141120   7.660   2.859   0.270  0.7606  0.4723  1.0566
13721TIP3    H241121   7.610   2.978   0.190  0.8667  0.3817  0.8534
13722TIP3   OH241122   5.453   0.662   2.282  0.2011 -0.0406  0.2624
13722TIP3    H141123   5.483   0.752   2.282  0.1109 -0.0098 -0.0310
13722TIP3    H241124   5.358   0.668   2.293  0.2918 -0.1383  1.2171
13723TIP3   OH241125   3.432   5.553   3.866 -0.3754 -0.0516 -0.2034
13723TIP3    H141126   3.364   5.489   3.887  0.3611 -0.4784  0.9968
13723TIP3    H241127   3.450   5.540   3.773 -1.0395 -0.8010 -0.2353
13724TIP3   OH241128   3.343   4.771   6.527 -0.1124 -0.1284  0.0481
13724TIP3    H141129   3.329   4.696   6.584 -1.1593  0.0855  0.0986
13724TIP3    H241130   3.408   4.825   6.574 -0.4456 -0.2932  0.7146
13725TIP3   OH241131   7.136   7.725   4.948 -0.1363 -0.3183 -0.2573
13725TIP3    H141132   7.191   7.703   5.022 -1.0153  1.4935  1.0317
13725TIP3    H241133   7.195   7.767   4.885  0.4045 -0.7593 -0.0416
13726TIP3   OH241134   7.595   6.121   6.685  0.6720  0.8156  0.2367
13726TIP3    H141135   7.589   6.057   6.614  1.5864 -0.4702  1.2754
13726TIP3    H241136   7.678   6.166   6.669  0.7878  0.6539  0.3817
13727TIP3   OH241137   3.515   1.459   3.587  0.6428 -0.1000 -0.2732
13727TIP3    H141138   3.436   1.471   3.534 -0.2654 -0.4331  0.9650
13727TIP3    H241139   3.496   1.383   3.642  1.1672  0.7802  1.1897
13728TIP3   OH241140   2.479   2.454   4.775  0.5839 -0.2825  0.3181
13728TIP3    H141141   2.502   2.444   4.683  0.5194  2.0892 -0.0085
13728TIP3    H241142   2.384   2.463   4.776  0.6018 -0.0939  0.5852
13729TIP3   OH241143   3.700   5.248   4.914 -0.3692 -0.0835  0.0551
13729TIP3    H141144   3.719   5.335   4.878 -0.8447  0.4695  1.0834
13729TIP3    H241145   3.610   5.230   4.887 -0.8604  0.5007  1.2461
13730TIP3   OH241146   1.932   2.586   0.153 -0.2283  0.4943 -0.0994
13730TIP3    H141147   1.966   2.546   0.073  0.3815  0.3985  0.2003
13730TIP3    H241148   1.998   2.565   0.220 -1.5296 -0.8795  0.8139
13731TIP3   OH241149   8.194   7.072   6.257  0.6657  0.1514 -0.0710
13731TIP3    H141150   8.204   7.160   6.220  0.6727 -0.1597 -0.8161
13731TIP3    H241151   8.261   7.068   6.326  1.1708  0.4726 -0.5310
13732TIP3   OH241152   2.019   4.011   4.184 -0.4698 -0.2962 -0.1049
13732TIP3    H141153   2.108   4.040   4.168 -0.5123  0.0003  0.1892
13732TIP3    H241154   2.012   3.927   4.138 -1.4419  1.7204 -4.1716
13733TIP3   OH241155   5.953   6.578   3.123  0.1144  0.1779  0.1417
13733TIP3    H141156   5.888   6.600   3.189 -1.0300 -0.2849 -0.8044
13733TIP3    H241157   5.933   6.488   3.098  0.7496  0.2256 -0.5937
13734TIP3   OH241158   4.779   7.564   1.923  0.6007 -0.0889 -0.4260
13734TIP3    H141159   4.867   7.527   1.925  0.8771  0.5402 -0.5566
13734TIP3    H241160   4.781   7.633   1.990 -0.4458 -1.4683  1.0941
13735TIP3   OH241161   7.149   1.964   4.204  0.6039 -0.0276  0.4512
13735TIP3    H141162   7.177   2.054   4.193  1.7985 -0.3850  0.4728
13735TIP3    H241163   7.230   1.914   4.212  0.1128 -1.4744 -2.3197
13736TIP3   OH241164   3.514   7.604   4.869 -0.0268 -0.1704 -0.0752
13736TIP3    H141165   3.485   7.535   4.808 -1.5514  0.2578  0.1277
13736TIP3    H241166   3.565   7.663   4.814  0.4724 -0.9387 -0.4650
13737TIP3   OH241167   7.133   7.022   5.165 -0.5443  0.3445  0.0201
13737TIP3    H141168   7.086   7.105   5.174  1.6956  1.7610 -0.2582
13737TIP3    H241169   7.097   6.966   5.234 -3.3026  0.8879 -0.8568
13738TIP3   OH241170   6.824   0.988   5.841 -0.2934  0.0187  0.2093
13738TIP3    H141171   6.820   1.054   5.910 -0.2959  0.1344  0.0991
13738TIP3    H241172   6.732   0.965   5.824 -0.2417 -1.0757  1.2582
13739TIP3   OH241173   2.382   1.904   5.633 -0.2228  0.3708  0.0364
13739TIP3    H141174   2.326   1.929   5.707  0.2199 -0.8442  0.8245
13739TIP3    H241175   2.396   1.985   5.585 -0.9935  1.0900  0.9693
13740TIP3   OH241176   1.896   5.471   6.089  0.0456 -0.2573  0.4013
13740TIP3    H141177   1.827   5.470   6.023 -0.6453  1.0004  1.0786
13740TIP3    H241178   1.892   5.558   6.127  2.3252  0.0099  0.1578
13741TIP3   OH241179   3.657   3.142   0.217 -0.9810 -0.1258  0.3763
13741TIP3    H141180   3.637   3.195   0.140  0.7929 -2.1439 -1.5901
13741TIP3    H241181   3.734   3.185   0.256 -2.5045  1.5221  1.8005
13742TIP3   OH241182   0.813   1.882   4.294  0.2114 -0.4891  0.0442
13742TIP3    H141183   0.756   1.954   4.266  0.5519 -0.0768  0.3999
13742TIP3    H241184   0.902   1.913   4.277  0.3222 -1.3263 -0.9575
13743TIP3   OH241185   5.198   4.983   2.094  0.1605  0.6618  0.3238
13743TIP3    H141186   5.242   4.934   2.024 -0.2769  1.4164 -0.5118
13743TIP3    H241187   5.121   4.931   2.115 -0.0359  0.7271 -0.2031
13744TIP3   OH241188   2.777   4.193   6.762 -0.0641 -0.4542  0.4167
13744TIP3    H141189   2.756   4.286   6.753 -1.1681 -0.6402  0.8471
13744TIP3    H241190   2.871   4.190   6.777 -0.2811  0.7342  2.2850
13745TIP3   OH241191   6.451   0.213   0.173 -0.9686 -0.3637  0.0489
13745TIP3    H141192   6.369   0.261   0.163 -0.6718  0.0635 -0.3686
13745TIP3    H241193   6.497   0.260   0.243 -0.9602 -0.4295  0.0871
13746TIP3   OH241194   1.044   6.838   2.699 -0.1115  0.2182 -0.0721
13746TIP3    H141195   1.089   6.893   2.763 -1.1724  0.8016  0.1948
13746TIP3    H241196   1.094   6.756   2.698  1.1430  0.9489 -0.0355
13747TIP3   OH241197   3.507   2.314   1.699  1.2919 -0.1080  0.1157
13747TIP3    H141198   3.436   2.271   1.652 -0.3028  0.8962  1.4620
13747TIP3    H241199   3.516   2.263   1.780  4.7232 -2.4772 -1.5041
13748TIP3   OH241200   0.861   1.372   5.150 -1.1285  0.1264 -0.4169
13748TIP3    H141201   0.792   1.377   5.216  0.7163 -1.0552  1.7216
13748TIP3    H241202   0.864   1.279   5.126  1.3742 -0.3957  1.5148
13749TIP3   OH241203   4.493   0.805   6.190 -0.2345  0.0656 -0.9095
13749TIP3    H141204   4.467   0.752   6.265  0.9890  1.3712  0.5097
13749TIP3    H241205   4.451   0.890   6.204  1.7054  1.0214 -0.4962
13750TIP3   OH241206   1.602   1.056   1.517  0.2858 -0.0599 -0.3204
13750TIP3    H141207   1.526   1.000   1.498  1.9914 -2.1098 -1.6063
13750TIP3    H241208   1.591   1.131   1.459  0.3241 -1.4549 -2.2410
13751TIP3   OH241209   3.238   0.249   6.384 -0.1184  0.4813 -0.0928
13751TIP3    H141210   3.229   0.335   6.343  2.6564  1.1098  0.4040
13751TIP3    H241211   3.287   0.197   6.320  0.8058  0.2384  0.7801
13752TIP3   OH241212   7.509   5.040   0.031 -0.2119  0.2791  0.0827
13752TIP3    H141213   7.555   4.956   0.020 -2.2804 -0.9926  0.6645
13752TIP3    H241214   7.562   5.102  -0.019  0.3668 -1.7461 -2.0100
13753TIP3   OH241215   2.707   6.848   6.549 -0.3685 -0.2771 -0.4021
13753TIP3    H141216   2.643   6.887   6.489  1.6292 -0.9584 -3.1896
13753TIP3    H241217   2.751   6.923   6.588 -0.1981  0.2494 -1.5535
13754TIP3   OH241218   3.475   4.090   2.679 -0.0896 -0.1768 -0.1208
13754TIP3    H141219   3.382   4.079   2.700  0.2745 -1.8617  0.7775
13754TIP3    H241220   3.486   4.045   2.595 -0.1223  0.1884 -0.3205
13755TIP3   OH241221   3.647   6.245   4.679  0.2229  0.2676  0.1848
13755TIP3    H141222   3.702   6.229   4.756  2.4964  1.9705 -0.9635
13755TIP3    H241223   3.602   6.327   4.699  0.0004  0.1500  0.1551
13756TIP3   OH241224   0.268   4.765   2.958 -0.1283 -0.2704 -0.4669
13756TIP3    H141225   0.215   4.792   2.882 -1.8250 -1.2389  0.3170
13756TIP3    H241226   0.246   4.829   3.026 -1.8906 -1.7891  0.4751
13757TIP3   OH241227   5.802   3.278   3.881  0.1239  0.0734 -0.6363
13757TIP3    H141228   5.774   3.331   3.955  0.6884  0.7799 -0.9156
13757TIP3    H241229   5.886   3.240   3.908 -0.0936 -0.3737 -0.5830
13758TIP3   OH241230   4.549   5.960   1.970 -0.0085  0.0051 -0.2274
13758TIP3    H141231   4.598   5.888   1.932  1.8445  1.4224 -0.6515
13758TIP3    H241232   4.547   6.027   1.901  2.0939  2.0344  1.5233
13759TIP3   OH241233   2.535   5.048   2.053 -0.1748 -0.0327 -0.6958
13759TIP3    H141234   2.593   5.010   1.988  0.8104 -0.3509  0.3238
13759TIP3    H241235   2.453   5.000   2.043  0.8235 -2.0610  0.1203
13760TIP3   OH241236   4.585   6.295   2.575 -0.2933  0.0286 -0.2181
13760TIP3    H141237   4.642   6.274   2.649  1.0943 -0.3809 -1.3508
13760TIP3    H241238   4.578   6.213   2.527 -0.4296  0.4976 -1.0152
13761TIP3   OH241239   2.089   6.039   4.454 -0.2591  0.2056 -0.6953
13761TIP3    H141240   2.066   6.131   4.437 -0.8478  0.5450  1.6187
13761TIP3    H241241   2.011   5.990   4.427 -0.4311  0.5113 -0.7604
13762TIP3   OH241242   1.370   4.893   1.719 -0.2067 -0.0562 -0.3001
13762TIP3    H141243   1.368   4.906   1.814 -2.0545  0.1037 -0.3390
13762TIP3    H241244   1.292   4.841   1.699 -1.5943  2.4665 -2.0618
13763TIP3   OH241245   3.952   7.464   5.879 -0.4109  1.2881  0.3915
13763TIP3    H141246   3.939   7.389   5.821  4.2478 -0.3782  1.0993
13763TIP3    H241247   3.930   7.431   5.966  1.3737  0.7541  0.6672
13764TIP3   OH241248   7.051   7.684   6.211 -0.7637  0.4950 -0.6300
13764TIP3    H141249   7.033   7.629   6.135 -2.7126  0.4287 -0.1835
13764TIP3    H241250   7.139   7.660   6.238 -1.2334 -1.8211 -0.9443
13765TIP3   OH241251   1.390   5.143   0.614 -0.1232 -0.5238  0.3060
13765TIP3    H141252   1.367   5.224   0.569  1.4790 -0.4631 -0.4979
13765TIP3    H241253   1.308   5.109   0.649 -0.7103  2.0105  1.6375
13766TIP3   OH241254   1.406   3.567   3.774 -0.1617  0.0363  0.3017
13766TIP3    H141255   1.426   3.655   3.740  0.0731 -0.5012 -0.9999
13766TIP3    H241256   1.459   3.560   3.853 -1.2415  1.5797  1.2160
13767TIP3   OH241257   3.264   5.201   5.404  0.8076 -0.0681  0.3475
13767TIP3    H141258   3.270   5.141   5.330 -0.4309  0.5984 -0.3332
13767TIP3    H241259   3.243   5.145   5.479 -1.0095 -0.4457 -0.3983
13768TIP3   OH241260   3.468   2.788   6.130  0.1787  0.0158  0.1953
13768TIP3    H141261   3.488   2.851   6.199  0.6747 -1.3098  1.3097
13768TIP3    H241262   3.398   2.734   6.166 -0.4023  0.0465 -0.8332
13769TIP3   OH241263   1.596   1.599   0.692  0.1252 -0.1297 -0.1965
13769TIP3    H141264   1.674   1.639   0.730  0.2860 -1.1251  0.5387
13769TIP3    H241265   1.593   1.634   0.603  1.8376 -0.6688 -0.5014
13770TIP3   OH241266   5.648   0.528   2.473  0.2757  0.2333  0.2983
13770TIP3    H141267   5.567   0.562   2.435  0.9754 -0.1655 -1.6687
13770TIP3    H241268   5.630   0.435   2.488  1.0683 -0.4991 -2.5478
13771TIP3   OH241269   1.903   2.582   4.091  0.1338 -0.1756 -0.7448
13771TIP3    H141270   1.880   2.644   4.159 -0.7957 -0.0014 -1.1973
13771TIP3    H241271   1.827   2.581   4.033 -0.4762 -2.7214 -0.0353
13772TIP3   OH241272   0.797   2.085   4.984  0.5988  0.3780  0.2699
13772TIP3    H141273   0.819   2.050   4.897  0.3720 -1.3816  0.8777
13772TIP3    H241274   0.823   2.016   5.045 -0.9715  0.7885  1.4709
13773TIP3   OH241275   6.602   3.105   6.470 -0.2910  0.6254 -0.3814
13773TIP3    H141276   6.547   3.162   6.416 -1.3969 -0.3283 -0.3011
13773TIP3    H241277   6.542   3.036   6.500  0.7480  0.0801  0.4836
13774TIP3   OH241278   4.890   7.179   5.035  0.5729 -0.1701  0.2170
13774TIP3    H141279   4.946   7.244   4.992 -0.0205  0.2490  0.0645
13774TIP3    H241280   4.835   7.230   5.095 -0.6198 -0.3818 -0.6511
13775TIP3   OH241281   4.522   6.849   6.606 -0.1881  0.9957  0.3286
13775TIP3    H141282   4.536   6.765   6.561 -0.5849  0.9015  0.3784
13775TIP3    H241283   4.580   6.844   6.682 -0.0377  0.8612  0.2074
13776TIP3   OH241284   3.407   6.492   3.382 -0.0421 -0.6029 -0.3862
13776TIP3    H141285   3.502   6.482   3.379  0.0742 -0.3831  1.3786
13776TIP3    H241286   3.375   6.405   3.409 -0.2478 -0.4042  0.0218
13777TIP3   OH241287   0.877   7.482   6.146  0.2940 -0.0697  0.1999
13777TIP3    H141288   0.895   7.534   6.224  0.7197 -0.1267  0.1374
13777TIP3    H241289   0.829   7.406   6.179  0.6949 -0.2196  0.4353
13778TIP3   OH241290   3.808   0.920   5.650  0.0500 -0.1962  0.2573
13778TIP3    H141291   3.847   0.839   5.683  0.9195 -0.6225 -1.7091
13778TIP3    H241292   3.874   0.987   5.665 -0.8343  0.2931  2.2746
13779TIP3   OH241293   0.916   3.244   6.602  0.2437 -0.3744  0.1613
13779TIP3    H141294   0.952   3.177   6.660 -2.5753 -0.5676  1.8595
13779TIP3    H241295   0.919   3.324   6.653 -0.8579 -0.2296  0.0233
13780TIP3   OH241296   4.473   1.062   2.944 -0.2515 -0.4662 -0.0104
13780TIP3    H141297   4.553   1.041   2.991  0.4268 -0.5431 -1.1707
13780TIP3    H241298   4.449   1.149   2.976 -0.2663 -0.8529  1.0676
13781TIP3   OH241299   1.843   4.303   1.663  0.0718 -0.1371  0.9735
13781TIP3    H141300   1.774   4.237   1.673  1.2285 -1.7130 -0.9280
13781TIP3    H241301   1.918   4.265   1.708  0.4116  0.4337  0.8875
13782TIP3   OH241302   3.081   6.738   0.704  0.5062 -0.0201  0.0242
13782TIP3    H141303   2.990   6.728   0.732  0.0323  1.6721 -0.7955
13782TIP3    H241304   3.092   6.672   0.636 -0.0617 -0.3225  0.2151
13783TIP3   OH241305   7.172   7.324   0.930  0.2346  0.6831  0.6091
13783TIP3    H141306   7.201   7.405   0.888  1.4944 -0.9933 -2.0714
13783TIP3    H241307   7.234   7.311   1.002  1.9231  0.6712 -0.7739
13784TIP3   OH241308   3.904   7.052   3.654 -0.3367 -0.3824 -0.2508
13784TIP3    H141309   3.981   7.000   3.678  0.0643  0.1313 -0.4132
13784TIP3    H241310   3.934   7.142   3.655 -1.0659 -0.1337  0.1447
13785TIP3   OH241311   1.540   3.709   1.639 -0.0982 -0.4959 -0.4269
13785TIP3    H141312   1.625   3.678   1.670 -1.2024 -2.2222  1.0519
13785TIP3    H241313   1.480   3.693   1.712 -1.6110  1.2459 -1.1954
13786TIP3   OH241314   3.988   7.480   1.974  0.9434  0.4696 -0.1879
13786TIP3    H141315   3.933   7.509   1.900  2.3567  1.4958 -0.8695
13786TIP3    H241316   3.990   7.384   1.965  1.7671  0.6007 -2.0310
13787TIP3   OH241317   4.779   5.769   5.209  0.1613  0.5024  0.7317
13787TIP3    H141318   4.739   5.754   5.123  1.3040 -0.8689  0.4093
13787TIP3    H241319   4.709   5.747   5.271 -0.5218  1.0216  0.1680
13788TIP3   OH241320   1.998   7.054   3.289  0.4961 -0.2706 -0.0080
13788TIP3    H141321   1.910   7.053   3.252 -0.1132  0.2687  1.3788
13788TIP3    H241322   1.989   7.102   3.371  2.3543  1.0705 -0.5219
13789TIP3   OH241323   1.617   0.142   0.375  0.5006 -0.2898  0.0860
13789TIP3    H141324   1.691   0.081   0.379  2.0876  1.5282 -0.3486
13789TIP3    H241325   1.656   0.228   0.387 -1.4322  0.8272 -1.1626
13790TIP3   OH241326   8.127   6.553   0.196  0.1418 -0.4216  0.2434
13790TIP3    H141327   8.203   6.592   0.152  0.7209  0.2678  1.7686
13790TIP3    H241328   8.149   6.558   0.289 -1.3307 -1.1981  0.6557
13791TIP3   OH241329   4.906   2.204   5.895  0.1004  0.2040 -0.2950
13791TIP3    H141330   4.856   2.269   5.846  0.0538  0.4258  0.0437
13791TIP3    H241331   4.992   2.204   5.854 -0.1797 -0.2027 -0.8997
13792TIP3   OH241332   2.627   2.254   0.439 -0.5116 -0.0829 -0.3780
13792TIP3    H141333   2.591   2.202   0.366  0.9084 -2.1716  0.3419
13792TIP3    H241334   2.580   2.223   0.516  1.4543 -1.5315  0.2985
13793TIP3   OH241335   4.672   1.946   3.925 -0.2257  0.3156  0.1359
13793TIP3    H141336   4.599   1.921   3.981  0.5456  1.8151  1.9049
13793TIP3    H241337   4.746   1.895   3.959 -0.1479 -0.2596 -0.8450
13794TIP3   OH241338   0.075   1.565   4.291  0.1789 -0.3277  0.3572
13794TIP3    H141339   0.122   1.601   4.366 -0.9529 -0.1008  0.9741
13794TIP3    H241340   0.007   1.629   4.272 -1.3490 -1.7204  0.9481
13795TIP3   OH241341   1.808   2.734   6.060  0.5773 -0.6941  0.0805
13795TIP3    H141342   1.848   2.742   5.973  1.0027 -0.5125  0.2918
13795TIP3    H241343   1.801   2.824   6.091 -3.6022 -0.2339 -1.5283
13796TIP3   OH241344   8.331   7.138   3.805 -0.5941 -0.3298 -0.1319
13796TIP3    H141345   8.331   7.136   3.900  1.3980  0.8819 -0.0517
13796TIP3    H241346   8.272   7.210   3.782 -1.1850 -0.7141  0.1636
13797TIP3   OH241347   5.150   6.400   0.966 -0.1772 -0.4185 -0.3256
13797TIP3    H141348   5.185   6.312   0.983  0.6293  0.1774  1.2066
13797TIP3    H241349   5.141   6.440   1.052  2.1621  2.0530 -1.1005
13798TIP3   OH241350   0.030   0.563   2.411  0.0897  0.1559  0.2014
13798TIP3    H141351   0.037   0.482   2.462 -0.8613 -0.3424 -0.4337
13798TIP3    H241352   0.105   0.562   2.353  0.1244 -0.2296  0.2520
13799TIP3   OH241353   2.333   6.276   3.704 -0.3585 -0.0317  0.4509
13799TIP3    H141354   2.294   6.338   3.643  1.8233  0.2893 -0.7167
13799TIP3    H241355   2.259   6.244   3.756 -1.7496  2.5366  0.2356
13800TIP3   OH241356   0.571   4.703   1.550  0.0246 -0.5385 -0.3084
13800TIP3    H141357   0.481   4.733   1.564  0.4607  0.1478  1.2437
13800TIP3    H241358   0.568   4.657   1.466 -1.6493 -0.0552 -0.5533
13801TIP3   OH241359   7.312   4.601   0.765 -0.1489  0.6955 -0.4106
13801TIP3    H141360   7.319   4.695   0.779  0.5144  0.9167 -1.9900
13801TIP3    H241361   7.234   4.592   0.710 -0.5738  0.2530  0.2579
13802TIP3   OH241362   5.275   4.840   4.776  0.2963 -0.1023 -0.0315
13802TIP3    H141363   5.216   4.833   4.851  0.6767 -0.8050  0.2083
13802TIP3    H241364   5.311   4.929   4.783 -0.1715  0.0718  0.2326
13803TIP3   OH241365   4.385   2.238   3.995 -0.3567 -0.4921 -0.2360
13803TIP3    H141366   4.436   2.314   3.967 -0.1264 -0.5904 -0.0839
13803TIP3    H241367   4.304   2.244   3.944  0.2669 -0.9573 -1.2976
13804TIP3   OH241368   6.760   2.122   0.984 -0.0417  0.2432  0.9526
13804TIP3    H141369   6.813   2.112   1.063 -0.4712  0.7849  1.3191
13804TIP3    H241370   6.787   2.206   0.948  0.2729 -0.0785  0.4221
13805TIP3   OH241371   1.057   1.288   0.989  1.0026  0.1547  0.1463
13805TIP3    H141372   1.123   1.344   0.948  1.6766 -1.4375 -1.0100
13805TIP3    H241373   0.977   1.342   0.989  1.5176  0.9742 -1.3074
13806TIP3   OH241374   4.608   3.798   0.264  0.4443 -0.0107  0.2897
13806TIP3    H141375   4.687   3.812   0.212 -0.4671  0.2759 -1.0859
13806TIP3    H241376   4.545   3.860   0.227 -0.1411  0.4592  2.0143
13807TIP3   OH241377   7.203   5.930   6.533  0.6087  0.1063  0.5225
13807TIP3    H141378   7.194   5.839   6.505 -1.0500  0.0222  1.2268
13807TIP3    H241379   7.283   5.960   6.490 -0.6173 -0.6401 -2.5577
13808TIP3   OH241380   6.239   3.163   6.709 -0.1882  0.0819 -0.0756
13808TIP3    H141381   6.176   3.215   6.660  0.8915  0.2301 -1.3648
13808TIP3    H241382   6.223   3.186   6.801 -2.4262 -0.4065 -0.2976
13809TIP3   OH241383   8.170   7.590   2.965 -0.1470 -0.2867 -0.1551
13809TIP3    H141384   8.093   7.609   3.019  0.7133 -0.7635  1.2906
13809TIP3    H241385   8.145   7.514   2.914 -0.7556 -0.2200  0.0331
13810TIP3   OH241386   1.834   7.522   5.646 -0.1887  0.0943  0.3314
13810TIP3    H141387   1.787   7.442   5.667  0.1967  0.6760  4.2044
13810TIP3    H241388   1.921   7.493   5.620  0.5827 -0.8570  3.5551
13811TIP3   OH241389   7.225   2.454   5.879 -0.2516 -1.0832  0.3491
13811TIP3    H141390   7.151   2.417   5.832 -0.3294 -0.9484  0.3643
13811TIP3    H241391   7.192   2.535   5.916  0.5002  0.1557 -1.5294
13812TIP3   OH241392   8.018   3.875   6.107  0.8924  0.3832 -0.2094
13812TIP3    H141393   7.958   3.949   6.102  1.3085  0.7812  0.4455
13812TIP3    H241394   8.062   3.874   6.022  0.5820  0.6234 -0.3758
13813TIP3   OH241395   7.498   4.163   6.091  0.3762  0.2062  0.0188
13813TIP3    H141396   7.435   4.162   6.019  1.2958  0.8790 -0.8211
13813TIP3    H241397   7.518   4.071   6.107 -0.2916  0.0247 -0.1748
13814TIP3   OH241398   3.276   7.488   4.735  0.5547 -0.4560  0.1793
13814TIP3    H141399   3.301   7.562   4.679 -1.8282 -0.3579 -0.8731
13814TIP3    H241400   3.264   7.527   4.821  1.1054  0.0183  0.0482
13815TIP3   OH241401   3.262   2.969   6.355  0.8714 -0.2742 -0.6642
13815TIP3    H141402   3.192   2.909   6.329 -0.9510  1.7468 -0.7121
13815TIP3    H241403   3.274   2.952   6.449 -0.3616 -0.0469 -0.4459
13816TIP3   OH241404   1.684   2.799   2.094 -0.0005 -0.2472 -0.0439
13816TIP3    H141405   1.769   2.795   2.050 -0.0347 -0.9610 -0.0540
13816TIP3    H241406   1.640   2.875   2.054 -0.4494 -1.4615 -2.0221
13817TIP3   OH241407   4.644   5.248   6.789  0.1683 -0.4837  0.2475
13817TIP3    H141408   4.582   5.180   6.814  0.1625 -0.2507  0.8917
13817TIP3    H241409   4.621   5.269   6.699  0.0912 -1.2449  0.0816
13818TIP3   OH241410   3.668   6.843   1.492  0.0628  0.8744  0.9519
13818TIP3    H141411   3.575   6.865   1.500 -0.2727 -0.2411  0.3925
13818TIP3    H241412   3.680   6.768   1.550 -0.3079 -1.4181 -1.7123
13819TIP3   OH241413   7.008   0.322   3.491  0.1568  0.4882  0.1417
13819TIP3    H141414   7.037   0.259   3.426 -0.0242  0.7838 -0.2299
13819TIP3    H241415   7.044   0.406   3.462 -0.4545  0.7303  0.0730
13820TIP3   OH241416   6.203   5.010   5.549 -0.1635  0.2518  0.1225
13820TIP3    H141417   6.225   4.993   5.458 -0.0342 -0.8477  0.3436
13820TIP3    H241418   6.108   5.021   5.550 -0.1862  0.0710 -0.1126
13821TIP3   OH241419   4.242   2.631   4.992 -0.1600  0.3465 -0.2294
13821TIP3    H141420   4.170   2.653   4.933  0.5427 -3.6702 -3.0526
13821TIP3    H241421   4.203   2.571   5.055  0.2480 -0.0112 -0.3159
13822TIP3   OH241422   7.691   5.517   5.816 -0.4774  0.6462  0.1888
13822TIP3    H141423   7.666   5.563   5.896  0.1136  0.6722  0.3585
13822TIP3    H241424   7.770   5.469   5.839 -0.4526  0.4449 -0.3050
13823TIP3   OH241425   5.799   4.201   5.593 -0.5681  0.3417 -0.2340
13823TIP3    H141426   5.744   4.271   5.629 -0.2725  0.0493  0.8400
13823TIP3    H241427   5.806   4.221   5.500 -0.7721  1.5563 -0.0086
13824TIP3   OH241428   2.768   2.497   2.309  0.0012 -0.2323 -0.1078
13824TIP3    H141429   2.810   2.436   2.369 -0.7465 -1.1544 -0.5015
13824TIP3    H241430   2.757   2.577   2.360  0.0024 -0.7709  0.7573
13825TIP3   OH241431   4.705   0.798   2.856  0.7717 -0.3429  0.1904
13825TIP3    H141432   4.760   0.720   2.865  0.1723 -0.7832  0.1447
13825TIP3    H241433   4.645   0.777   2.784  0.4404  0.0574  0.3440
13826TIP3   OH241434   7.456   7.206   0.476  0.0401  0.0180 -0.6496
13826TIP3    H141435   7.438   7.186   0.568  0.2961  0.9269 -0.3883
13826TIP3    H241436   7.463   7.121   0.434 -0.2528 -0.4093  0.1406
13827TIP3   OH241437   2.804   7.055   2.714  0.2480  0.1148 -0.1949
13827TIP3    H141438   2.872   7.119   2.691 -0.0526  0.4888 -0.0661
13827TIP3    H241439   2.798   6.998   2.638  2.3956 -1.4303  0.7137
13828TIP3   OH241440   7.386   2.407   6.548 -0.6832  0.0975  0.2165
13828TIP3    H141441   7.389   2.425   6.454 -0.6987 -2.5555 -0.3713
13828TIP3    H241442   7.467   2.446   6.582 -0.3617  0.5532 -1.0009
13829TIP3   OH241443   0.816   0.121   3.150  0.2270 -0.1986 -0.5134
13829TIP3    H141444   0.799   0.178   3.226 -1.0844  0.7097 -1.4346
13829TIP3    H241445   0.762   0.044   3.166  2.4807 -1.5624  1.0436
13830TIP3   OH241446   6.683   5.849   6.199  0.1004  0.4777 -0.1360
13830TIP3    H141447   6.613   5.790   6.171  0.9045  0.0375 -1.3290
13830TIP3    H241448   6.741   5.793   6.252 -0.4442  0.8512  0.8857
13831TIP3   OH241449   5.335   4.158   4.112  0.1882 -0.2827 -0.1652
13831TIP3    H141450   5.372   4.235   4.154 -0.4384  0.6606 -1.2620
13831TIP3    H241451   5.265   4.193   4.056 -0.2240 -1.6647 -0.5544
13832TIP3   OH241452   2.118   1.116   5.795  0.0828  0.6158  0.2541
13832TIP3    H141453   2.104   1.036   5.746  0.5196  0.4619  0.3771
13832TIP3    H241454   2.162   1.175   5.733  2.2128 -0.1689  0.9411
13833TIP3   OH241455   4.920   3.215   1.165  0.1474 -0.1988 -0.4138
13833TIP3    H141456   4.931   3.204   1.260 -1.1287  1.0289 -0.0990
13833TIP3    H241457   4.863   3.142   1.140  0.4294 -0.4878 -0.2265
13834TIP3   OH241458   6.906   2.169   5.235  0.0384  0.0972  0.0623
13834TIP3    H141459   6.992   2.176   5.275 -1.0506  1.3632  2.3465
13834TIP3    H241460   6.863   2.098   5.283 -0.9307  0.9513  0.5009
13835TIP3   OH241461   7.368   4.319   0.855  0.0225 -0.7377  0.1713
13835TIP3    H141462   7.323   4.399   0.825 -1.6379 -0.2997  3.3557
13835TIP3    H241463   7.456   4.348   0.879  1.1086 -0.9423 -3.0641
13836TIP3   OH241464   0.440   3.585   2.840  0.7012 -0.0737 -0.2963
13836TIP3    H141465   0.527   3.617   2.820  2.1360 -4.4793 -2.4085
13836TIP3    H241466   0.447   3.551   2.930  0.8649  0.2996 -0.1657
13837TIP3   OH241467   7.374   4.948   6.012 -0.5150 -0.0017  0.1721
13837TIP3    H141468   7.446   4.995   5.970 -0.3926 -1.0342 -0.8116
13837TIP3    H241469   7.400   4.856   6.009 -0.2096 -0.1190  3.1047
13838TIP3   OH241470   8.048   7.518   6.277  0.1489 -0.3599 -0.2257
13838TIP3    H141471   7.968   7.526   6.225  0.0657 -0.2793 -0.0860
13838TIP3    H241472   8.097   7.449   6.234  1.3499  1.5222 -2.0554
13839TIP3   OH241473   5.800   0.371   3.979  0.0928  0.1213 -0.8655
13839TIP3    H141474   5.880   0.392   3.931  0.6968  0.1527  0.1174
13839TIP3    H241475   5.763   0.456   4.002 -0.4487  0.1117 -1.6525
13840TIP3   OH241476   6.047   7.523   2.064  0.2897  0.1995  0.0656
13840TIP3    H141477   6.126   7.511   2.010  0.1542 -2.0875  0.2907
13840TIP3    H241478   6.058   7.462   2.136  0.0431  2.5634  2.2435
13841TIP3   OH241479   6.770   5.467   0.280 -0.2599 -0.4969  0.5427
13841TIP3    H141480   6.799   5.381   0.311 -0.9141 -1.0490 -0.3388
13841TIP3    H241481   6.851   5.519   0.276  0.6094 -1.8395 -1.3414
13842TIP3   OH241482   5.831   3.929   2.423 -0.0799 -0.0637 -0.0607
13842TIP3    H141483   5.854   3.883   2.503 -0.7553  0.4561  0.4437
13842TIP3    H241484   5.735   3.926   2.420 -0.0496 -0.5680 -1.1414
13843TIP3   OH241485   4.710   7.382   3.043  0.0235  0.0121 -0.9316
13843TIP3    H141486   4.676   7.366   3.131 -0.3204  2.7988 -0.4804
13843TIP3    H241487   4.689   7.302   2.995 -1.6025 -0.7939  0.9684
13844TIP3   OH241488   0.137   5.085   4.521 -0.3327  0.0224  0.1083
13844TIP3    H141489   0.210   5.138   4.491  1.1400 -0.4161  2.6180
13844TIP3    H241490   0.151   5.000   4.482 -0.7856  0.5317 -1.2016
13845TIP3   OH241491   7.477   6.185   4.274  0.7451  0.1946  0.0727
13845TIP3    H141492   7.475   6.094   4.304 -0.4419  0.9278  2.4481
13845TIP3    H241493   7.553   6.223   4.317  1.4379  0.2947 -1.1859
13846TIP3   OH241494   4.549   6.626   5.682 -0.0893 -0.0455 -0.0419
13846TIP3    H141495   4.576   6.706   5.727  0.0545 -0.3938  0.5001
13846TIP3    H241496   4.623   6.603   5.625  0.4852 -0.6016  0.9052
13847TIP3   OH241497   6.602   7.518   1.805 -0.1895 -0.7000 -0.3355
13847TIP3    H141498   6.516   7.498   1.767  0.0597  0.5693 -1.6457
13847TIP3    H241499   6.663   7.514   1.732  0.5408  0.4098  0.1758
13848TIP3   OH241500   5.589   1.745   2.083  0.0055 -0.4404 -0.2722
13848TIP3    H141501   5.675   1.707   2.065  0.2502  0.5594 -1.3719
13848TIP3    H241502   5.572   1.724   2.174  1.2594 -0.9748 -0.1411
13849TIP3   OH241503   1.836   5.941   1.667 -0.3684 -0.0050 -0.5877
13849TIP3    H141504   1.772   5.964   1.599  0.4094  1.1421 -0.9775
13849TIP3    H241505   1.887   5.870   1.628 -2.9434 -2.7513  0.7131
13850TIP3   OH241506   5.453   0.423   0.019 -0.2157  0.0946  0.4735
13850TIP3    H141507   5.510   0.499   0.010 -0.4507  0.5151  2.1804
13850TIP3    H241508   5.366   0.459   0.033 -0.4696 -0.4997  0.4417
13851TIP3   OH241509   3.924   4.128   3.862 -0.9859  0.3713 -0.3776
13851TIP3    H141510   3.878   4.060   3.814  1.0859 -1.4289  0.0443
13851TIP3    H241511   3.941   4.196   3.797 -0.4795 -0.8770 -1.6035
13852TIP3   OH241512   5.449   1.471   0.317  0.2283 -0.0691 -0.6359
13852TIP3    H141513   5.499   1.432   0.389  1.0913  0.5625 -0.8752
13852TIP3    H241514   5.468   1.416   0.242  0.4092  0.0601 -0.6843
13853TIP3   OH241515   6.769   1.194   2.034  0.1581  0.6819 -0.0887
13853TIP3    H141516   6.817   1.246   1.968 -1.1044  0.7187 -1.0053
13853TIP3    H241517   6.788   1.103   2.010 -0.0536  0.6979 -0.3221
13854TIP3   OH241518   5.569   1.354   1.512 -0.4693  0.3064 -0.0192
13854TIP3    H141519   5.659   1.358   1.543 -0.8634  2.0688  1.0360
13854TIP3    H241520   5.561   1.429   1.453 -1.1420 -0.1032 -0.4714
13855TIP3   OH241521   0.018   3.007   3.801 -0.2137 -0.2018  0.4552
13855TIP3    H141522   0.073   2.945   3.752 -0.0536 -0.5440  1.0599
13855TIP3    H241523  -0.016   3.066   3.734 -0.3497 -0.9260 -0.1365
13856TIP3   OH241524   7.359   3.250   4.097  0.1938  0.7117  0.0068
13856TIP3    H141525   7.418   3.180   4.127  0.3858  1.0552  0.4461
13856TIP3    H241526   7.280   3.239   4.150  0.5567  1.3576  0.7090
13857TIP3   OH241527   1.597   0.549   0.691  0.2368  0.1890 -0.4178
13857TIP3    H141528   1.606   0.592   0.606  3.5467 -0.2377 -0.4390
13857TIP3    H241529   1.580   0.620   0.752  0.8942  0.9288 -1.0686
13858TIP3   OH241530   3.400   1.176   3.473 -0.0783  0.5171  0.3695
13858TIP3    H141531   3.490   1.194   3.497  0.1167  2.2281 -1.3746
13858TIP3    H241532   3.351   1.181   3.555  1.4102 -0.8272  1.3966
13859TIP3   OH241533   7.706   2.429   0.471 -0.2689 -0.2838  0.3458
13859TIP3    H141534   7.638   2.491   0.498 -0.0555 -0.0033  0.2438
13859TIP3    H241535   7.671   2.344   0.496 -0.6607 -0.1443  0.2947
13860TIP3   OH241536   6.843   6.671   0.107  0.0003  0.0975  0.3538
13860TIP3    H141537   6.885   6.587   0.128  1.0815  0.1911 -1.2399
13860TIP3    H241538   6.759   6.647   0.069  0.0854 -0.2608  0.3847
13861TIP3   OH241539   4.453   5.560   1.179  0.6122 -0.1076 -0.3923
13861TIP3    H141540   4.493   5.477   1.152  1.3458  0.2072 -0.2906
13861TIP3    H241541   4.424   5.544   1.269 -0.6202 -0.7283 -0.8802
13862TIP3   OH241542   1.094   6.748   4.381  0.3155 -0.2292 -0.2205
13862TIP3    H141543   1.047   6.714   4.304  0.3406 -0.5546 -0.0948
13862TIP3    H241544   1.059   6.697   4.454  0.9985 -0.6075 -0.1482
13863TIP3   OH241545   2.518   7.140   0.354 -0.0580 -0.0384 -0.0191
13863TIP3    H141546   2.476   7.225   0.342  1.8001  0.7713 -1.1554
13863TIP3    H241547   2.462   7.079   0.305 -0.7341  0.7233 -0.2268
13864TIP3   OH241548   4.254   0.289   4.401  0.5780  0.3731 -0.3422
13864TIP3    H141549   4.320   0.352   4.373  1.2088  0.8610  2.0481
13864TIP3    H241550   4.174   0.317   4.357  1.1388  2.0689 -0.3491
13865TIP3   OH241551   5.136   4.944   4.340 -0.2317 -0.0425  0.5916
13865TIP3    H141552   5.113   4.861   4.297  0.5702  0.4264 -0.8118
13865TIP3    H241553   5.053   4.990   4.348 -0.8088 -1.2372  2.0358
13866TIP3   OH241554   5.830   2.882   6.412  0.0866 -0.1671  0.1842
13866TIP3    H141555   5.752   2.828   6.426  0.1953 -0.1594  0.8543
13866TIP3    H241556   5.813   2.962   6.462 -0.0474  0.4028 -0.7543
13867TIP3   OH241557   4.908   4.498   6.533 -0.2769 -0.3087 -0.0252
13867TIP3    H141558   4.831   4.496   6.589 -0.1379 -1.2350  0.1387
13867TIP3    H241559   4.972   4.549   6.583 -0.4366 -0.4062  0.2806
13868TIP3   OH241560   1.426   2.373   5.443  0.2260 -0.2516  0.3214
13868TIP3    H141561   1.342   2.418   5.444  0.9331  1.2190 -1.3350
13868TIP3    H241562   1.405   2.283   5.419 -0.7268  0.6466 -2.6134
13869TIP3   OH241563   0.386   6.598   6.343 -0.1732 -0.2498 -0.1289
13869TIP3    H141564   0.427   6.557   6.266  0.4913  2.1457 -1.1321
13869TIP3    H241565   0.293   6.576   6.336  0.0466 -0.9530 -1.0200
13870TIP3   OH241566   7.713   3.440   4.388 -0.0515 -0.1458  0.0889
13870TIP3    H141567   7.628   3.397   4.397  0.4813 -1.2791 -0.0794
13870TIP3    H241568   7.716   3.469   4.297 -1.4073  2.5113  0.7818
13871TIP3   OH241569   1.871   5.202   6.165 -0.3083 -0.4156  0.2792
13871TIP3    H141570   1.925   5.148   6.107 -1.3562 -0.7569 -0.4144
13871TIP3    H241571   1.897   5.292   6.144 -1.6347 -0.4479 -1.7899
13872TIP3   OH241572   5.817   5.884   3.372  0.3941 -0.6325 -0.1689
13872TIP3    H141573   5.910   5.904   3.363  0.9246 -2.0860  1.5125
13872TIP3    H241574   5.801   5.816   3.307  0.4053 -0.1489 -0.6866
13873TIP3   OH241575   3.305   1.593   3.479  0.0008  0.5307 -0.3783
13873TIP3    H141576   3.281   1.640   3.400 -1.3145  0.9710  0.2617
13873TIP3    H241577   3.269   1.645   3.550 -0.0129 -0.5546  0.4428
13874TIP3   OH241578   2.597   2.432   2.105  0.0374 -0.3859 -0.0504
13874TIP3    H141579   2.672   2.453   2.160  0.3561  1.1158 -0.9874
13874TIP3    H241580   2.530   2.495   2.131 -0.2728 -0.5368 -0.4738
13875TIP3   OH241581   6.505   2.701   3.773 -0.1504 -0.2252 -0.1334
13875TIP3    H141582   6.424   2.650   3.777 -1.0950  1.2979  1.7162
13875TIP3    H241583   6.553   2.676   3.853  0.5444 -0.0311 -0.4776
13876TIP3   OH241584   6.823   0.656   2.134  0.2439  0.5320  0.1819
13876TIP3    H141585   6.769   0.735   2.121 -2.4481 -1.1392  0.3850
13876TIP3    H241586   6.839   0.623   2.046  3.4585  2.4810 -0.0880
13877TIP3   OH241587   1.449   7.575   4.292 -0.6539 -0.8510  0.2348
13877TIP3    H141588   1.443   7.487   4.257  0.2871 -0.6266 -0.5513
13877TIP3    H241589   1.542   7.596   4.288 -1.0580  1.0284 -1.8573
13878TIP3   OH241590   3.284   7.326   2.562 -0.1245 -0.3868 -0.2064
13878TIP3    H141591   3.345   7.255   2.583  0.8059  0.7577  1.2297
13878TIP3    H241592   3.340   7.398   2.533 -0.5515  1.1601  2.4559
13879TIP3   OH241593   6.884   5.446   1.419  0.0131 -0.4486 -0.1477
13879TIP3    H141594   6.864   5.388   1.346  1.3236 -0.9688 -0.1300
13879TIP3    H241595   6.844   5.405   1.495  1.0918 -1.4666 -0.1046
13880TIP3   OH241596   2.801   6.637   5.504 -0.0383 -0.0569  0.3994
13880TIP3    H141597   2.785   6.542   5.502  0.0718 -0.0788  0.5580
13880TIP3    H241598   2.895   6.646   5.490 -0.1477  0.0615 -0.2653
13881TIP3   OH241599   7.607   2.225   6.426  0.3532 -0.2878  0.2495
13881TIP3    H141600   7.523   2.180   6.414 -1.2708  2.0853  1.7372
13881TIP3    H241601   7.604   2.258   6.516  2.3058  1.0209 -0.1024
13882TIP3   OH241602   0.831   5.122   3.088  0.3912 -0.0100 -0.3333
13882TIP3    H141603   0.757   5.112   3.149  1.0582 -0.4732  0.4183
13882TIP3    H241604   0.851   5.033   3.060  0.9074  0.0787 -0.2494
13883TIP3   OH241605   7.547   3.107   4.512 -0.1120  0.5350 -0.4646
13883TIP3    H141606   7.482   3.045   4.545 -0.4051 -0.0597 -2.0216
13883TIP3    H241607   7.629   3.056   4.510 -0.1466  0.4848 -0.8202
13884TIP3   OH241608   3.632   4.224   1.653  0.0455 -0.3000 -0.1179
13884TIP3    H141609   3.666   4.136   1.639  3.4531  0.7882  0.4660
13884TIP3    H241610   3.662   4.249   1.740 -2.5044  0.7958  0.5292
13885TIP3   OH241611   3.573   6.920   4.531  0.0705  0.1421 -0.2499
13885TIP3    H141612   3.545   7.011   4.542 -1.4449 -0.3713  0.4183
13885TIP3    H241613   3.659   6.916   4.573 -0.3166  1.0332  0.6680
13886TIP3   OH241614   1.357   0.176   5.493 -0.2664 -0.7720  0.1124
13886TIP3    H141615   1.392   0.150   5.577  0.1529 -1.1708 -0.1832
13886TIP3    H241616   1.434   0.189   5.437 -0.5662 -1.3335 -0.4469
13887TIP3   OH241617   4.653   7.698   2.688  0.0850  0.5945  0.1089
13887TIP3    H141618   4.658   7.655   2.773 -0.7312  0.9681  0.3592
13887TIP3    H241619   4.573   7.664   2.648  1.8674 -1.8074 -1.7921
13888TIP3   OH241620   6.703   6.801   0.877 -0.0812  0.2101  0.5231
13888TIP3    H141621   6.663   6.723   0.916  0.4584 -0.1982  0.2685
13888TIP3    H241622   6.780   6.768   0.830  1.1071  1.0871  1.7707
13889TIP3   OH241623   5.661   6.500   3.145  0.3425 -0.1575  0.4390
13889TIP3    H141624   5.686   6.411   3.171  3.0455  0.1019 -0.8479
13889TIP3    H241625   5.673   6.552   3.225  0.2957 -0.6960  0.8035
13890TIP3   OH241626   2.765   0.326   5.414  0.0997  0.0812  0.2285
13890TIP3    H141627   2.725   0.368   5.338 -0.4571  0.0631  0.5065
13890TIP3    H241628   2.753   0.232   5.399 -0.2462  0.0865  0.4634
13891TIP3   OH241629   8.031   0.808   0.927 -0.3720 -0.4162  0.6146
13891TIP3    H141630   8.125   0.820   0.942  0.1020 -0.4586 -1.8701
13891TIP3    H241631   8.018   0.713   0.933 -0.4306 -0.3516  1.6996
13892TIP3   OH241632   6.096   6.849   4.826  0.1405 -0.5315  0.1864
13892TIP3    H141633   6.077   6.924   4.770 -0.0735 -0.8589 -0.1906
13892TIP3    H241634   6.119   6.886   4.911 -2.0552 -0.1136  0.6411
13893TIP3   OH241635   4.413   7.520   2.131  0.3847 -0.5005 -0.5841
13893TIP3    H141636   4.333   7.518   2.184 -0.0608 -3.3456 -1.1818
13893TIP3    H241637   4.421   7.610   2.102 -2.1523  0.0432  0.1641
13894TIP3   OH241638   1.454   1.796   2.652  0.1968 -0.5107 -0.4700
13894TIP3    H141639   1.492   1.736   2.589  0.3148 -0.0319 -0.8587
13894TIP3    H241640   1.369   1.758   2.673  0.1954 -0.7194 -0.8469
13895TIP3   OH241641   8.006   0.790   3.179 -0.1900  0.1809  0.1826
13895TIP3    H141642   8.018   0.698   3.201  0.1552  0.0308 -0.6205
13895TIP3    H241643   8.058   0.803   3.100 -0.1434  1.0928  0.3494
13896TIP3   OH241644   1.181   1.571   6.077 -0.1467 -0.2429 -0.1023
13896TIP3    H141645   1.182   1.662   6.047 -0.4799 -0.4629 -0.8039
13896TIP3    H241646   1.168   1.577   6.172 -2.6263  0.4032 -0.4117
13897TIP3   OH241647   1.398   2.498   2.784  0.0957 -0.0157 -0.2450
13897TIP3    H141648   1.405   2.465   2.873 -0.9900  0.8377  0.1843
13897TIP3    H241649   1.473   2.461   2.738  0.0511 -1.3852  0.7300
13898TIP3   OH241650   5.287   7.050   0.487  0.2501  0.1005 -0.0656
13898TIP3    H141651   5.277   7.140   0.456 -0.3023  0.1286  0.1989
13898TIP3    H241652   5.203   7.028   0.526  0.4063 -0.5101 -0.0664
13899TIP3   OH241653   7.431   5.658   4.088  0.1740  0.7410  0.2234
13899TIP3    H141654   7.463   5.568   4.084  1.1790  1.1457 -1.2144
13899TIP3    H241655   7.335   5.648   4.094  0.2647 -0.4034  0.0456
13900TIP3   OH241656   5.436   1.853   6.045 -0.5514 -0.2704  0.1869
13900TIP3    H141657   5.499   1.834   5.975 -0.1803 -0.3017  0.5296
13900TIP3    H241658   5.388   1.930   6.013  0.1502  0.1960  0.2415
13901TIP3   OH241659   0.040   7.503   1.940  0.0190 -0.2987  0.2421
13901TIP3    H141660   0.017   7.565   1.870  0.8346  0.7651  0.8784
13901TIP3    H241661   0.061   7.422   1.894  1.8420  0.7491 -0.9148
13902TIP3   OH241662   4.603   3.849   3.938 -0.1109 -1.9957  0.1141
13902TIP3    H141663   4.623   3.874   4.028 -0.8916  1.8686 -0.6305
13902TIP3    H241664   4.507   3.848   3.934 -0.0838 -1.8563 -0.7490
13903TIP3   OH241665   4.378   3.334   0.410  0.2955  0.3094  0.0464
13903TIP3    H141666   4.323   3.321   0.487 -0.7005  1.4344 -0.4426
13903TIP3    H241667   4.381   3.248   0.368 -2.9388  0.6040 -1.0813
13904TIP3   OH241668   3.208   0.629   0.825 -0.6029  0.0917  0.8792
13904TIP3    H141669   3.201   0.697   0.893  1.6525  0.2357  1.0402
13904TIP3    H241670   3.250   0.556   0.869 -1.1310 -0.6477  0.1713
13905TIP3   OH241671   6.578   4.999   3.968  0.1002 -0.0641  0.2606
13905TIP3    H141672   6.641   4.949   3.916 -0.4576 -1.6057  0.9942
13905TIP3    H241673   6.615   5.087   3.973  3.2494 -1.2969  2.2653
13906TIP3   OH241674   0.696   1.220   6.718  0.0716  0.3351 -0.4867
13906TIP3    H141675   0.755   1.145   6.706  0.2951  0.4808 -0.2869
13906TIP3    H241676   0.742   1.277   6.779 -0.5194  0.1937  0.0944
13907TIP3   OH241677   5.045   0.305   4.893  0.1353  0.4242  0.3492
13907TIP3    H141678   5.078   0.373   4.951  1.3119 -0.8406  1.2489
13907TIP3    H241679   4.958   0.283   4.927 -0.4839  1.8075 -0.2781
13908TIP3   OH241680   5.500   2.718   3.210 -0.3818  0.1057 -0.5509
13908TIP3    H141681   5.501   2.801   3.257  1.1152  0.0529 -0.4547
13908TIP3    H241682   5.485   2.652   3.278 -0.4054  0.2008 -0.4641
13909TIP3   OH241683   1.457   3.170   2.529 -0.5413 -0.4943  0.4096
13909TIP3    H141684   1.462   3.264   2.543 -1.5032 -0.1403 -1.3816
13909TIP3    H241685   1.495   3.157   2.442 -0.4910 -1.7621  0.6029
13910TIP3   OH241686   8.010   2.028   6.716  0.4826  0.2152 -0.1295
13910TIP3    H141687   8.021   1.988   6.802 -0.4303 -0.1609 -0.1837
13910TIP3    H241688   7.985   2.119   6.735 -0.6106 -0.1112  0.0070
13911TIP3   OH241689   2.397   6.234   1.530  0.0173  0.1637 -0.3878
13911TIP3    H141690   2.407   6.212   1.437 -2.0168  0.1369 -0.6435
13911TIP3    H241691   2.335   6.307   1.531  0.5316  0.6241  0.9363
13912TIP3   OH241692   5.966   0.502   4.874  0.3858  0.0555 -0.1647
13912TIP3    H141693   5.978   0.462   4.960 -2.3200 -0.6918 -0.0620
13912TIP3    H241694   5.916   0.582   4.890  0.9377  0.5919 -0.9625
13913TIP3   OH241695   4.230   4.562   2.372  0.4267 -0.4060 -0.1469
13913TIP3    H141696   4.267   4.548   2.459  1.5839  0.8444 -0.4060
13913TIP3    H241697   4.202   4.653   2.372 -1.7659 -1.0207 -0.3344
13914TIP3   OH241698   6.378   7.187   1.741 -0.0691 -0.2306  0.1193
13914TIP3    H141699   6.422   7.199   1.657 -0.0117 -1.0613  0.0157
13914TIP3    H241700   6.347   7.096   1.738  0.0321 -0.3006  1.0381
13915TIP3   OH241701   5.800   2.039   2.254  0.2800 -0.3827  0.0128
13915TIP3    H141702   5.746   2.088   2.192  1.4014 -0.6036 -1.1995
13915TIP3    H241703   5.873   2.099   2.273 -0.5332  0.0639  1.9148
13916TIP3   OH241704   4.463   6.439   4.177 -0.1125 -0.4899 -0.4354
13916TIP3    H141705   4.417   6.443   4.261  0.5502  0.1180 -0.0935
13916TIP3    H241706   4.487   6.347   4.167  2.1566 -0.1773  1.3541
13917TIP3   OH241707   6.838   4.460   5.708  0.0743 -0.0447  0.0316
13917TIP3    H141708   6.820   4.375   5.668 -1.4456  0.8157 -1.2301
13917TIP3    H241709   6.801   4.453   5.796 -0.0821 -0.6548 -0.0761
13918TIP3   OH241710   7.967   4.792   4.467 -0.0264  0.1586 -0.3519
13918TIP3    H141711   8.056   4.770   4.495  0.7369  2.6924 -0.5861
13918TIP3    H241712   7.950   4.879   4.503 -3.4840 -1.2227  1.9455
13919TIP3   OH241713   6.108   2.319   0.284  0.1764 -0.4461 -0.4198
13919TIP3    H141714   6.190   2.368   0.293 -1.0006  1.8004 -1.2520
13919TIP3    H241715   6.114   2.277   0.198  1.1687 -1.8031  0.2758
13920TIP3   OH241716   1.572   2.870   3.523 -0.0689  0.1779 -0.9862
13920TIP3    H141717   1.656   2.892   3.565  0.2096  0.5128 -1.7034
13920TIP3    H241718   1.595   2.807   3.455 -0.5040 -0.2713 -0.7232
13921TIP3   OH241719   7.985   6.430   3.652 -0.0010  0.4033  0.2222
13921TIP3    H141720   8.040   6.445   3.729  1.8057  0.4341 -1.0232
13921TIP3    H241721   7.949   6.516   3.631  0.4087  0.6111  0.3650
13922TIP3   OH241722   6.654   1.491   1.836  0.0250 -0.0108  0.2823
13922TIP3    H141723   6.678   1.511   1.927 -1.4190 -1.4336  1.0236
13922TIP3    H241724   6.575   1.437   1.844  0.7004 -1.3911 -1.7727
13923TIP3   OH241725   0.194   3.561   1.542 -0.5953 -0.0496  0.2868
13923TIP3    H141726   0.154   3.566   1.456  0.2785  0.0028 -0.1303
13923TIP3    H241727   0.130   3.516   1.596 -0.8398 -0.7683 -0.5859
13924TIP3   OH241728   1.779   7.002   5.770  0.1649  0.7126 -0.3544
13924TIP3    H141729   1.814   6.982   5.683 -0.6997  1.3802 -0.8681
13924TIP3    H241730   1.684   7.008   5.757  0.0411  1.0054  0.5992
13925TIP3   OH241731   7.796   2.592   2.306  0.3002  0.5448  0.8989
13925TIP3    H141732   7.767   2.594   2.397 -1.0114 -0.2443  0.5198
13925TIP3    H241733   7.783   2.501   2.278 -0.7335  1.0864 -0.5100
13926TIP3   OH241734   0.412   2.867   5.672 -0.4370 -0.1948  0.0805
13926TIP3    H141735   0.506   2.872   5.654 -0.8404  2.3157 -1.8458
13926TIP3    H241736   0.385   2.958   5.687 -2.9865 -0.4310 -2.1912
13927TIP3   OH241737   3.359   1.156   1.537 -0.3034  0.1937 -0.2877
13927TIP3    H141738   3.441   1.202   1.521 -0.6941  0.5950 -1.1849
13927TIP3    H241739   3.308   1.216   1.591 -0.2057  0.1528 -0.1485
13928TIP3   OH241740   8.004   5.470   5.275 -0.2524  0.0630  0.0728
13928TIP3    H141741   7.935   5.413   5.307  0.8988 -1.4092  0.0547
13928TIP3    H241742   7.996   5.466   5.179 -0.3527  0.1831  0.0752
13929TIP3   OH241743   6.804   3.954   2.518 -0.5857  0.2573 -0.4315
13929TIP3    H141744   6.846   3.995   2.442  0.1768  2.0111  0.8567
13929TIP3    H241745   6.745   3.889   2.481  0.5113  0.3356 -2.4742
13930TIP3   OH241746   7.283   4.173   2.958 -0.0080  0.2167  0.9235
13930TIP3    H141747   7.328   4.098   2.997  0.0643 -1.5697 -2.2132
13930TIP3    H241748   7.203   4.182   3.010  0.1821 -1.7808  1.6866
13931TIP3   OH241749   5.545   3.658   1.023  0.1893 -0.2985  0.2779
13931TIP3    H141750   5.508   3.662   0.935  1.5401 -0.8831 -0.3546
13931TIP3    H241751   5.504   3.730   1.070 -1.8976 -1.0530 -0.2776
13932TIP3   OH241752   7.564   1.730   2.954 -0.7301  0.0444  0.2434
13932TIP3    H141753   7.515   1.663   2.905  1.3960 -0.2316 -1.6538
13932TIP3    H241754   7.634   1.757   2.895  0.0443  2.0963  1.9669
13933TIP3   OH241755   3.521   7.148   1.291 -0.2314  0.1308  0.1322
13933TIP3    H141756   3.543   7.069   1.242 -1.4814  0.5831 -1.2792
13933TIP3    H241757   3.430   7.167   1.265  0.2871  2.4722 -0.2601
13934TIP3   OH241758   8.188   2.222   3.089  0.2494  0.2592  0.3129
13934TIP3    H141759   8.218   2.288   3.152 -0.4522 -0.9085  1.9329
13934TIP3    H241760   8.242   2.145   3.108  0.9290  0.2677 -1.4212
13935TIP3   OH241761   5.475   1.173   1.909 -0.1435 -0.4090  0.2335
13935TIP3    H141762   5.412   1.110   1.875 -1.9096 -0.0854  2.6925
13935TIP3    H241763   5.556   1.153   1.861 -1.6346 -1.8903 -1.8769
13936TIP3   OH241764   3.694   0.358   3.265 -0.3431 -0.6371  0.0499
13936TIP3    H141765   3.751   0.368   3.189  0.9388 -1.2275  0.9043
13936TIP3    H241766   3.615   0.318   3.229 -0.4682  0.6545 -1.2389
13937TIP3   OH241767   4.031   2.697   0.773 -0.1430 -0.4662  0.3304
13937TIP3    H141768   3.984   2.634   0.827  0.4903  0.3222  1.8881
13937TIP3    H241769   4.094   2.738   0.833  1.7859 -0.7036 -1.3911
13938TIP3   OH241770   4.522   3.124   0.809 -0.3620 -0.1019  0.4486
13938TIP3    H141771   4.455   3.091   0.870  0.5406 -1.4059  0.7756
13938TIP3    H241772   4.473   3.181   0.749 -2.0192 -1.8452  0.0046
13939TIP3   OH241773   3.450   7.114   2.615  0.0808  0.5642  0.7666
13939TIP3    H141774   3.526   7.169   2.629  0.7369  0.5563 -2.1282
13939TIP3    H241775   3.483   7.039   2.565 -1.7094  0.3863 -0.2754
13940TIP3   OH241776   4.240   0.452   5.983 -0.3355 -0.0489  0.1499
13940TIP3    H141777   4.187   0.392   6.035  0.0930 -1.2950 -0.8142
13940TIP3    H241778   4.318   0.402   5.959 -1.3529 -0.2433 -3.3294
13941TIP3   OH241779   1.769   2.982   3.730  0.2300 -0.6087  0.2697
13941TIP3    H141780   1.753   2.987   3.824  0.9095  1.1382  0.3278
13941TIP3    H241781   1.856   3.021   3.718 -0.0716 -0.3072 -1.1377
13942TIP3   OH241782   6.158   1.920   3.451  0.3274 -0.0209 -0.1053
13942TIP3    H141783   6.154   2.015   3.460  0.7341  0.0180 -0.3109
13942TIP3    H241784   6.243   1.903   3.410 -0.5618 -0.3158 -1.9270
13943TIP3   OH241785   6.977   4.240   6.710  0.3368  0.1994 -0.1425
13943TIP3    H141786   6.915   4.190   6.762 -1.1436  0.7379 -1.2756
13943TIP3    H241787   6.938   4.328   6.705  0.7252  0.3160 -1.6163
13944TIP3   OH241788   7.297   7.727   0.223 -0.2546 -0.1642  0.3623
13944TIP3    H141789   7.329   7.753   0.137 -2.2636  2.2788  0.2179
13944TIP3    H241790   7.342   7.785   0.284  0.9814 -1.7232  0.9966
13945TIP3   OH241791   5.845   2.683   3.329 -0.3726  0.3163 -0.3941
13945TIP3    H141792   5.918   2.711   3.385  1.8195 -1.2016 -2.2638
13945TIP3    H241793   5.802   2.613   3.379 -1.1800  1.8187  1.1062
13946TIP3   OH241794   2.906   2.393   6.328  0.2060  0.1190  0.2172
13946TIP3    H141795   2.891   2.346   6.410  3.2598 -0.3682  0.6171
13946TIP3    H241796   2.995   2.370   6.303 -0.3434  0.8876 -2.8750
13947TIP3   OH241797   2.488   2.157   4.388  0.2940  0.0582  0.2135
13947TIP3    H141798   2.509   2.135   4.479  0.6656 -1.8065 -0.2651
13947TIP3    H241799   2.392   2.162   4.386  0.2687 -0.1783  0.6586
13948TIP3   OH241800   7.329   2.679   4.369  0.3511  0.3428 -0.1100
13948TIP3    H141801   7.410   2.685   4.420 -0.0075 -0.6253  0.6131
13948TIP3    H241802   7.298   2.590   4.384 -0.7050  0.6075 -0.5979
13949TIP3   OH241803   7.509   4.335   5.105  0.2609 -0.1246  0.5854
13949TIP3    H141804   7.569   4.264   5.126  2.7333  0.7748 -2.6498
13949TIP3    H241805   7.443   4.295   5.048  0.8936 -0.1396 -0.1559
13950TIP3   OH241806   6.627   0.298   1.886  0.2028  0.5711  0.2759
13950TIP3    H141807   6.642   0.288   1.980  1.4449 -0.4288  0.0029
13950TIP3    H241808   6.714   0.286   1.847 -0.7034 -1.7360 -1.1961
13951TIP3   OH241809   2.941   1.593   2.949  0.1940 -0.4042 -0.7625
13951TIP3    H141810   3.017   1.652   2.946 -0.2952  0.2752 -0.2048
13951TIP3    H241811   2.979   1.506   2.958  0.9282  0.1456  2.8186
13952TIP3   OH241812   5.899   0.971   3.352 -0.0458  0.0017 -0.4023
13952TIP3    H141813   5.961   1.023   3.403  0.1329 -0.5556 -0.0356
13952TIP3    H241814   5.829   0.950   3.413 -0.4964  0.4436 -0.7566
13953TIP3   OH241815   0.741   0.068   3.819  0.1256  0.5861 -0.0469
13953TIP3    H141816   0.791   0.123   3.879 -1.6341  0.1901  1.9040
13953TIP3    H241817   0.653   0.107   3.819 -0.5407 -0.8564 -0.4202
13954TIP3   OH241818   0.753   0.914   5.373  0.0502  0.4405  0.1796
13954TIP3    H141819   0.738   0.969   5.295 -0.6777 -1.2441 -0.9259
13954TIP3    H241820   0.848   0.919   5.387  0.1542  1.0117 -0.6378
13955TIP3   OH241821   0.430   2.887   1.771 -0.0070  0.7943  0.4788
13955TIP3    H141822   0.368   2.959   1.783 -1.3862 -0.0836 -1.0139
13955TIP3    H241823   0.375   2.811   1.750  1.5008 -0.3281  0.4305
13956TIP3   OH241824   3.169   4.880   3.062  0.0285  0.2380 -0.2232
13956TIP3    H141825   3.160   4.798   3.013  0.1021  0.3387 -0.4074
13956TIP3    H241826   3.258   4.876   3.098  0.1399  0.3712 -0.4811
13957TIP3   OH241827   1.862   4.831   2.364 -0.5761  0.0882 -0.2195
13957TIP3    H141828   1.873   4.761   2.299  0.1184  0.1499 -0.1786
13957TIP3    H241829   1.769   4.854   2.359 -1.1986 -1.9935  0.9821
13958TIP3   OH241830   2.975   3.658   4.849  0.4374  0.2378  0.0450
13958TIP3    H141831   2.880   3.656   4.849  0.4193  0.9065  0.2749
13958TIP3    H241832   3.001   3.595   4.917  0.1259  1.0151  0.9087
13959TIP3   OH241833   5.077   1.283   2.091  0.6838  0.4905 -0.5301
13959TIP3    H141834   5.070   1.188   2.078  1.8516  0.3192  0.0079
13959TIP3    H241835   5.154   1.294   2.147  0.3566  1.7394 -0.3015
13960TIP3   OH241836   0.548   6.956   1.958 -0.0258  0.0538 -0.3176
13960TIP3    H141837   0.626   6.973   2.010  0.0920 -0.1108 -0.4431
13960TIP3    H241838   0.496   7.036   1.966  0.2285  0.2236 -0.3639
13961TIP3   OH241839   4.023   6.852   3.343  0.1679 -0.0603  0.0127
13961TIP3    H141840   4.030   6.782   3.408  1.9210 -1.0503 -1.1638
13961TIP3    H241841   4.064   6.928   3.384 -0.0576 -0.2519  0.5979
13962TIP3   OH241842   1.415   7.696   6.530  0.4445 -0.0998 -0.5027
13962TIP3    H141843   1.442   7.788   6.536  0.3300 -0.1660  2.1561
13962TIP3    H241844   1.497   7.647   6.528  0.6177 -0.0678  2.3857
13963TIP3   OH241845   2.927   6.998   2.110 -0.3883 -0.6461  0.1825
13963TIP3    H141846   2.912   6.904   2.108  1.0578 -0.8995 -0.7398
13963TIP3    H241847   2.851   7.036   2.065 -0.0834 -1.5347 -1.1303
13964TIP3   OH241848   3.651   5.259   2.811  0.1947  0.6828  0.1122
13964TIP3    H141849   3.732   5.292   2.848 -0.7204  1.9494  1.0635
13964TIP3    H241850   3.676   5.225   2.725  1.7000  1.1569  0.3361
13965TIP3   OH241851   0.423   0.827   4.839  0.1161 -0.4223  0.3246
13965TIP3    H141852   0.392   0.886   4.771 -0.7325 -1.0795  0.1220
13965TIP3    H241853   0.502   0.787   4.802 -0.1415 -0.5088 -0.1426
13966TIP3   OH241854   3.026   3.352   3.146  0.4112  0.6853  0.4780
13966TIP3    H141855   2.953   3.410   3.167 -1.3606 -0.9374 -0.8027
13966TIP3    H241856   3.036   3.360   3.051  0.1105 -1.0630  0.2688
13967TIP3   OH241857   4.206   3.395   4.121  0.6446 -0.3857 -0.8651
13967TIP3    H141858   4.173   3.365   4.037 -0.3237 -2.1025  0.0596
13967TIP3    H241859   4.208   3.490   4.115 -2.9752 -0.2458 -1.5613
13968TIP3   OH241860   6.212   0.389   4.803  0.3471 -0.7038 -0.1012
13968TIP3    H141861   6.240   0.447   4.733 -0.3829  0.6861  0.7156
13968TIP3    H241862   6.117   0.402   4.809  0.4632 -0.3782  1.4871
13969TIP3   OH241863   1.733   3.896   3.010 -0.3256 -0.2263 -0.1813
13969TIP3    H141864   1.707   3.836   3.080 -0.2805  0.8955  0.8468
13969TIP3    H241865   1.826   3.878   2.996  0.2848  1.0568  1.7150
13970TIP3   OH241866   7.845   1.200   6.098  0.4320  1.0913 -0.3209
13970TIP3    H141867   7.852   1.206   6.193  2.0907 -1.1738 -0.1971
13970TIP3    H241868   7.915   1.257   6.065  1.4488  0.0673 -0.0313
13971TIP3   OH241869   1.154   4.591   4.318 -0.0981 -0.6419 -0.1718
13971TIP3    H141870   1.118   4.632   4.240  1.2929  1.5920  0.2849
13971TIP3    H241871   1.078   4.578   4.375 -0.6426  1.3369 -0.3655
13972TIP3   OH241872   5.592   6.649   0.463  0.3300  0.1059  0.2549
13972TIP3    H141873   5.572   6.707   0.390  0.6794  0.0324  0.0982
13972TIP3    H241874   5.579   6.561   0.427  1.1716  0.0448  0.0678
13973TIP3   OH241875   1.634   3.748   3.230  0.4246 -0.3467  0.0591
13973TIP3    H141876   1.660   3.688   3.301 -0.2755 -1.9194 -0.9707
13973TIP3    H241877   1.541   3.764   3.245  0.7273  0.9987  0.6584
13974TIP3   OH241878   3.560   3.556   4.843  0.0739 -0.0116  0.5688
13974TIP3    H141879   3.632   3.592   4.895  1.1032 -1.5172  0.2612
13974TIP3    H241880   3.507   3.507   4.905  0.5485 -0.6965  0.4428
13975TIP3   OH241881   0.851   7.540   6.639 -0.4507  0.2428 -0.2525
13975TIP3    H141882   0.858   7.633   6.664  0.4975 -0.2192  1.4180
13975TIP3    H241883   0.942   7.510   6.637 -0.8106 -0.9944  0.7415
13976TIP3   OH241884   5.809   5.062   4.308 -0.0154 -0.4007  0.3809
13976TIP3    H141885   5.871   5.117   4.355 -1.1148 -0.1914  1.6311
13976TIP3    H241886   5.805   4.981   4.358  1.1281 -1.4506 -1.1108
13977TIP3   OH241887   4.659   0.032   2.953  0.1558 -0.0494 -0.7417
13977TIP3    H141888   4.726   0.095   2.978  1.2404 -0.7949 -1.6909
13977TIP3    H241889   4.677  -0.046   3.004 -0.2974 -0.0899 -0.6350
13978TIP3   OH241890   2.175   3.541   2.605  0.2742 -0.0537 -0.1282
13978TIP3    H141891   2.124   3.578   2.677  1.7836 -0.3318  1.1420
13978TIP3    H241892   2.259   3.518   2.645  0.7284 -1.3349 -1.7305
13979TIP3   OH241893   1.072   7.350   1.158  0.0565 -0.9595  0.1745
13979TIP3    H141894   1.032   7.436   1.173 -0.2841 -0.9110 -0.9255
13979TIP3    H241895   1.053   7.331   1.066  0.2088 -2.1775  0.3878
13980TIP3   OH241896   4.039   5.580   4.863  0.0260 -0.3806  0.2439
13980TIP3    H141897   3.956   5.572   4.817  1.0920  1.5246 -2.2065
13980TIP3    H241898   4.086   5.499   4.842  0.9354  0.8868 -3.1955
13981TIP3   OH241899   0.410   6.480   1.420  0.0503  0.3613 -0.3739
13981TIP3    H141900   0.345   6.460   1.354  2.1960 -1.2079 -2.1763
13981TIP3    H241901   0.485   6.424   1.399  0.6599 -0.7674  3.8328
13982TIP3   OH241902   7.482   0.683   0.755 -0.3833 -0.2327  0.0833
13982TIP3    H141903   7.403   0.736   0.750  0.1815  1.1157  3.2638
13982TIP3    H241904   7.552   0.740   0.721  0.0242  0.7181  2.3638
13983TIP3   OH241905   2.754   6.270   6.187  0.4250 -0.3615 -0.2661
13983TIP3    H141906   2.737   6.349   6.136 -0.4827 -0.8068 -0.6791
13983TIP3    H241907   2.730   6.198   6.128 -1.1244 -0.8780  0.9190
13984TIP3   OH241908   4.344   0.871   4.196 -0.2305 -0.0210  0.0194
13984TIP3    H141909   4.297   0.796   4.159  1.4069 -0.7198 -0.7274
13984TIP3    H241910   4.301   0.947   4.156 -2.2271 -0.4840  1.1465
13985TIP3   OH241911   5.915   5.004   4.594 -0.0887 -0.0733 -0.2688
13985TIP3    H141912   6.006   4.974   4.601 -0.3654 -1.0082 -0.5195
13985TIP3    H241913   5.863   4.925   4.610 -0.8677  0.5802  0.4750
13986TIP3   OH241914   6.884   2.150   2.585 -0.0861 -0.0397  0.1129
13986TIP3    H141915   6.905   2.197   2.666 -0.1797 -1.0128  0.7216
13986TIP3    H241916   6.795   2.178   2.564 -0.0483  0.2496  0.3227
13987TIP3   OH241917   5.631   5.116   1.921  0.2872  0.1374 -0.3931
13987TIP3    H141918   5.689   5.053   1.879  0.3828 -0.1077  0.1059
13987TIP3    H241919   5.690   5.176   1.966  0.1500 -0.9708  1.3645
13988TIP3   OH241920   4.991   3.091   6.267  0.2196  0.1724  0.7396
13988TIP3    H141921   4.929   3.164   6.266 -2.3889 -1.8659 -0.6226
13988TIP3    H241922   5.058   3.117   6.330 -2.0761  2.5289  2.4522
13989TIP3   OH241923   0.135   2.345   3.277  0.1881 -0.4216 -0.2158
13989TIP3    H141924   0.139   2.428   3.230 -0.4769  0.1043  0.6238
13989TIP3    H241925   0.148   2.369   3.369 -0.7348 -1.1456  0.1170
13990TIP3   OH241926   8.036   2.573   2.054 -0.7017  0.2599  0.1490
13990TIP3    H141927   8.022   2.660   2.092 -0.6961 -0.2488  1.3886
13990TIP3    H241928   8.076   2.523   2.126  1.2906 -0.1858 -1.1863
13991TIP3   OH241929   5.994   7.179   1.457  0.1334 -0.1169 -0.1673
13991TIP3    H141930   6.015   7.143   1.543  1.1164  0.5745 -0.0970
13991TIP3    H241931   6.077   7.179   1.409 -0.0936  0.8488 -0.5977
13992TIP3   OH241932   2.376   3.924   2.539  0.6933  0.2155  0.2188
13992TIP3    H141933   2.318   3.983   2.588  0.7123  0.6686 -0.2957
13992TIP3    H241934   2.459   3.928   2.586 -0.8874 -4.4956  4.2846
13993TIP3   OH241935   5.290   2.211   0.324 -0.2131 -0.4360  0.0152
13993TIP3    H141936   5.274   2.132   0.377  1.5423 -0.6755  0.2522
13993TIP3    H241937   5.203   2.244   0.304 -0.9711 -1.7271  0.9896
13994TIP3   OH241938   5.261   4.663   4.293  0.1745 -0.4335 -0.5638
13994TIP3    H141939   5.325   4.697   4.356 -0.5027  0.3137 -0.2549
13994TIP3    H241940   5.224   4.586   4.336 -0.5500  0.2803  0.1461
13995TIP3   OH241941   5.053   3.902   2.314  0.0473  0.3767 -0.3299
13995TIP3    H141942   5.071   3.936   2.402  1.0701 -1.1336  0.0935
13995TIP3    H241943   5.033   3.810   2.328 -3.0885  0.7864 -1.3826
13996TIP3   OH241944   6.718   4.750   0.610 -0.6080  0.2455  0.2364
13996TIP3    H141945   6.631   4.789   0.596  0.4258  2.9277  0.6171
13996TIP3    H241946   6.727   4.745   0.705  0.3225  1.7903  0.2640
13997TIP3   OH241947   6.604   3.045   3.139 -0.2101  0.2913 -0.3119
13997TIP3    H141948   6.695   3.032   3.165  0.3224 -2.1036 -2.8617
13997TIP3    H241949   6.594   3.140   3.133  1.2578  0.7282  2.5303
13998TIP3   OH241950   6.207   5.790   6.685  0.7211  0.0243  0.2722
13998TIP3    H141951   6.198   5.695   6.678 -0.2856  0.1682 -0.7081
13998TIP3    H241952   6.274   5.813   6.621  1.4965 -0.0759  1.0195
13999TIP3   OH241953   2.350   2.053   1.762  0.1802 -0.2524 -0.7061
13999TIP3    H141954   2.400   1.972   1.752 -0.5398 -0.8377  0.2622
13999TIP3    H241955   2.414   2.119   1.788  0.9578 -0.2369 -2.5126
14000TIP3   OH241956   0.331   4.813   1.613 -0.5665 -0.0604 -0.0010
14000TIP3    H141957   0.327   4.887   1.674 -0.7129 -0.8757  1.0056
14000TIP3    H241958   0.240   4.795   1.591 -0.5280  0.0802 -0.2850
14001TIP3   OH241959   1.649   2.536   2.048 -0.4827  0.5294 -0.0642
14001TIP3    H141960   1.719   2.495   2.099  0.4487  0.9807 -0.9305
14001TIP3    H241961   1.670   2.630   2.049 -1.2119  0.6954 -0.1311
14002TIP3   OH241962   4.967   2.956   6.020 -0.3128  0.4215 -0.1623
14002TIP3    H141963   4.928   2.873   6.050  1.0667  0.5413  2.1422
14002TIP3    H241964   5.006   2.994   6.098  0.2525  2.6355 -1.4479
14003TIP3   OH241965   2.590   7.373   6.682 -0.8754 -0.4863  0.2212
14003TIP3    H141966   2.628   7.359   6.596 -0.4753  1.2329  0.0785
14003TIP3    H241967   2.534   7.450   6.672 -1.5165 -0.7790  1.2955
14004TIP3   OH241968   8.280   1.635   1.373 -0.0368 -0.0387  0.1633
14004TIP3    H141969   8.218   1.706   1.358 -0.5608 -0.2268  1.3304
14004TIP3    H241970   8.330   1.664   1.450  0.0390 -0.7297  0.3790
14005TIP3   OH241971   0.390   3.494   2.328 -0.1271  0.7399  0.1618
14005TIP3    H141972   0.345   3.524   2.249  0.1550  0.5085 -0.0925
14005TIP3    H241973   0.481   3.483   2.301 -0.2139 -0.3115  0.2384
14006TIP3   OH241974   6.881   5.279   5.612  0.3292 -0.3108  0.1844
14006TIP3    H141975   6.787   5.267   5.625  0.7305 -2.3628  1.6110
14006TIP3    H241976   6.911   5.195   5.577  1.5963  0.4529 -0.6268
14007TIP3   OH241977   0.867   4.514   3.333  0.3436 -0.1626  0.1944
14007TIP3    H141978   0.957   4.531   3.361  0.2786  0.0507  0.2770
14007TIP3    H241979   0.814   4.572   3.387  0.1592 -0.2653  0.1229
14008TIP3   OH241980   0.400   1.749   3.477 -0.1974 -0.2663  0.0803
14008TIP3    H141981   0.407   1.654   3.482 -0.3943 -0.3598 -1.2484
14008TIP3    H241982   0.490   1.780   3.475 -0.1338 -0.4113  0.4809
14009TIP3   OH241983   1.237   0.887   1.004  0.0140  0.4575 -0.1606
14009TIP3    H141984   1.331   0.896   0.987  0.0162  1.2194  0.2244
14009TIP3    H241985   1.232   0.837   1.085  0.0900  0.4602 -0.1543
14010TIP3   OH241986   1.416   2.445   0.259  0.1951 -0.1023  0.1579
14010TIP3    H141987   1.401   2.499   0.182 -0.0501 -0.5242 -0.0931
14010TIP3    H241988   1.511   2.437   0.265  0.2625  0.8738  0.5614
14011TIP3   OH241989   7.992   2.183   4.976  0.0478 -0.8833  0.5612
14011TIP3    H141990   7.970   2.264   5.024  0.7537 -1.1382  1.3441
14011TIP3    H241991   7.966   2.201   4.886  1.6656  0.8573  0.3691
14012TIP3   OH241992   5.066   0.235   1.494  0.0409  0.2525  0.2141
14012TIP3    H141993   5.111   0.276   1.420  1.4104 -0.5402  0.5543
14012TIP3    H241994   5.100   0.282   1.571  0.3073 -0.3587  0.4772
14013TIP3   OH241995   7.136   5.200   4.725 -0.1355  0.2294  0.0883
14013TIP3    H141996   7.134   5.143   4.803 -1.2412  0.3301  0.1528
14013TIP3    H241997   7.221   5.183   4.686 -0.4622 -1.5995  0.0382
14014TIP3   OH241998   2.016   1.083   4.945 -0.5914  0.0161 -0.1855
14014TIP3    H141999   1.925   1.106   4.965 -0.7955  1.1307 -2.0478
14014TIP3    H242000   2.068   1.139   5.003 -1.1370  2.9713 -2.2816
14015TIP3   OH242001   5.877   4.632   0.049  0.8097  0.0392 -0.1597
14015TIP3    H142002   5.849   4.723   0.033 -2.1833 -0.9287 -1.1105
14015TIP3    H242003   5.865   4.619   0.143 -1.0631  0.0209 -0.3575
14016TIP3   OH242004   8.228   4.688   4.486 -0.1191  0.4512  0.0201
14016TIP3    H142005   8.233   4.629   4.411 -0.9824  0.3273  0.0530
14016TIP3    H242006   8.249   4.774   4.450  2.1032  0.0385  0.1417
14017TIP3   OH242007   2.650   5.557   2.189 -0.5077 -0.5138  0.3832
14017TIP3    H142008   2.651   5.490   2.258 -0.1468 -1.6746 -0.7047
14017TIP3    H242009   2.658   5.507   2.108 -1.0798  0.8132 -0.5182
14018TIP3   OH242010   2.977   7.381   3.583  0.6503  0.3094 -0.4969
14018TIP3    H142011   2.982   7.367   3.489  3.3107  0.4241 -0.4471
14018TIP3    H242012   2.979   7.476   3.593  1.0638  0.2821 -0.3117
14019TIP3   OH242013   1.817   3.315   5.707  0.3833 -0.2844  0.6719
14019TIP3    H142014   1.870   3.243   5.742  0.4927 -0.8902 -0.7101
14019TIP3    H242015   1.750   3.329   5.775 -0.1260 -2.2200  0.6390
14020TIP3   OH242016   2.705   0.355   5.692  0.5459  0.4444  0.0464
14020TIP3    H142017   2.613   0.328   5.705  0.4223  0.8396 -0.0006
14020TIP3    H242018   2.716   0.356   5.597  1.1058 -1.2860  0.0628
14021TIP3   OH242019   7.243   1.861   0.790 -0.1781  0.4313  0.4482
14021TIP3    H142020   7.167   1.879   0.735  0.5570  1.8145 -0.1584
14021TIP3    H242021   7.310   1.832   0.728  0.4156  1.2472  0.6938
14022TIP3   OH242022   0.621   0.043   2.379  0.9228  0.3256  0.2584
14022TIP3    H142023   0.643  -0.020   2.448 -0.1592 -1.0022 -0.5490
14022TIP3    H242024   0.637  -0.004   2.298 -1.2154  0.5515 -0.3625
14023TIP3   OH242025   7.952   3.324   5.183 -0.1539  0.0755  0.4669
14023TIP3    H142026   8.030   3.379   5.183 -0.9575  1.2832 -0.6078
14023TIP3    H242027   7.882   3.382   5.153 -1.1995 -1.3359  0.0684
14024TIP3   OH242028   0.739   0.203   5.962 -0.0272  0.0134 -0.0542
14024TIP3    H142029   0.793   0.280   5.943  2.0230 -1.2304  0.3863
14024TIP3    H242030   0.662   0.214   5.907  1.2750  1.2551 -1.7675
14025TIP3   OH242031   3.021   4.605   6.007  0.2300 -0.0400  0.6528
14025TIP3    H142032   3.071   4.669   5.956 -2.8364  2.8839  0.9944
14025TIP3    H242033   2.962   4.565   5.944  0.5197 -0.8416  0.8804
14026TIP3   OH242034   6.039   6.417   6.275  0.0757 -0.4844 -0.0085
14026TIP3    H142035   5.974   6.448   6.212  1.3988  0.7115 -0.8463
14026TIP3    H242036   5.990   6.405   6.356 -1.0240  1.2937 -0.3681
14027TIP3   OH242037   7.186   3.586   3.553  0.0630  0.1798  0.5653
14027TIP3    H142038   7.112   3.531   3.579  1.1565 -0.4959  2.5383
14027TIP3    H242039   7.254   3.523   3.527  0.0127  0.7845 -1.1042
14028TIP3   OH242040   5.821   4.611   1.135  0.4884  0.4437 -0.0133
14028TIP3    H142041   5.758   4.678   1.163 -1.4425 -1.2217 -0.1935
14028TIP3    H242042   5.897   4.624   1.192 -1.2122  0.5782  2.3358
14029TIP3   OH242043   7.819   5.797   1.008  0.0616 -0.5146 -0.0100
14029TIP3    H142044   7.788   5.724   1.061  0.7327 -0.5969  0.2747
14029TIP3    H242045   7.740   5.831   0.965 -0.6435  0.1784  1.7755
14030TIP3   OH242046   3.768   7.312   3.440  0.2925  0.2907 -0.4016
14030TIP3    H142047   3.862   7.308   3.460  0.2562  0.2408 -0.2410
14030TIP3    H242048   3.751   7.405   3.426 -0.1955  0.6998  2.3434
14031TIP3   OH242049   5.085   3.717   4.159  0.1726 -0.5642  0.5354
14031TIP3    H142050   5.136   3.637   4.172 -0.4981 -1.1666 -0.3885
14031TIP3    H242051   5.018   3.692   4.096  0.6144  1.0152 -0.6169
14032TIP3   OH242052   3.458   5.592   2.481  0.0468  0.2497 -0.2791
14032TIP3    H142053   3.547   5.588   2.518 -0.6587  1.8938  1.7907
14032TIP3    H242054   3.400   5.577   2.555 -1.4365  2.0510 -0.9895
14033TIP3   OH242055   3.805   3.739   3.398  0.4937  0.0318  0.1075
14033TIP3    H142056   3.837   3.823   3.366  0.2613  0.0488 -0.0863
14033TIP3    H242057   3.710   3.743   3.383  0.4009 -0.0100  0.6872
14034TIP3   OH242058   5.429   3.501   3.579  0.3203  0.3856  0.0697
14034TIP3    H142059   5.513   3.480   3.620  0.1856 -2.2928 -0.8519
14034TIP3    H242060   5.399   3.579   3.626  3.3681  1.5497  0.3002
14035TIP3   OH242061   3.959   0.747   4.256  0.0218  0.0561  0.1086
14035TIP3    H142062   3.894   0.677   4.258 -0.7181  0.6796 -1.3858
14035TIP3    H242063   3.909   0.827   4.240  1.0948  0.6302 -0.4840
14036TIP3   OH242064   4.370   7.687   2.947  0.4485 -0.3175  0.4795
14036TIP3    H142065   4.344   7.596   2.932 -2.3610  0.0371  2.4661
14036TIP3    H242066   4.325   7.737   2.879  2.0215 -0.3252 -0.6363
14037TIP3   OH242067   3.580   1.608   0.071 -0.3066  0.0241  0.3768
14037TIP3    H142068   3.590   1.614  -0.024 -0.2194 -1.6746  0.2513
14037TIP3    H242069   3.493   1.571   0.085  0.5880 -2.0331  0.8365
14038TIP3   OH242070   2.431   4.804   6.027  0.1699 -0.6350 -0.2106
14038TIP3    H142071   2.444   4.886   5.979 -1.4980  0.1542  0.5690
14038TIP3    H242072   2.429   4.832   6.119  1.3512 -1.8350  0.2105
14039TIP3   OH242073   7.001   2.729   4.632 -0.4117  0.2025 -0.2893
14039TIP3    H142074   7.068   2.781   4.587 -1.0381 -0.8806 -2.6282
14039TIP3    H242075   6.926   2.787   4.639 -0.5620  0.1719 -1.4099
14040TIP3   OH242076   6.079   0.964   6.522 -0.0484  0.3241  0.5433
14040TIP3    H142077   6.066   0.922   6.437  0.8436 -1.2957  1.1600
14040TIP3    H242078   6.173   0.955   6.539 -0.6440 -2.6080  3.2133
14041TIP3   OH242079   3.836   3.349   1.852 -0.2126  0.1992 -0.3842
14041TIP3    H142080   3.796   3.393   1.927 -0.2742 -0.5888  0.0549
14041TIP3    H242081   3.928   3.373   1.856 -0.7425  3.1806 -2.1905
14042TIP3   OH242082   3.162   3.301   1.723 -0.5367 -0.0504 -0.3265
14042TIP3    H142083   3.126   3.295   1.812 -2.2993  1.5314 -0.8560
14042TIP3    H242084   3.250   3.338   1.735 -1.3389  1.6581  0.7076
14043TIP3   OH242085   2.369   7.545   3.105  0.3852  0.6938  0.3158
14043TIP3    H142086   2.341   7.460   3.139 -1.4321  1.2449  0.3258
14043TIP3    H242087   2.416   7.524   3.024 -0.6912 -0.2952 -0.0826
14044TIP3   OH242088   2.686   6.197   4.537  0.2496 -0.8541 -0.4218
14044TIP3    H142089   2.637   6.216   4.617  1.2257  3.4207 -0.6255
14044TIP3    H242090   2.629   6.226   4.466  1.4758  0.4546 -0.8983
14045TIP3   OH242091   3.650   4.585   0.859  0.3056 -0.2165  0.7429
14045TIP3    H142092   3.604   4.644   0.919 -1.3480  2.3780 -2.6926
14045TIP3    H242093   3.580   4.539   0.813  1.3920 -0.6527 -0.5252
14046TIP3   OH242094   7.871   7.417   5.841 -0.0632  0.0741  0.1993
14046TIP3    H142095   7.896   7.465   5.920  0.6043 -0.4193  0.2985
14046TIP3    H242096   7.830   7.483   5.785  0.2116  0.6093  0.6156
14047TIP3   OH242097   0.725   0.905   0.334 -0.1541 -0.0266  0.6364
14047TIP3    H142098   0.758   0.849   0.263  0.7830  0.1115  0.9570
14047TIP3    H242099   0.767   0.871   0.413 -1.6452 -0.5521  1.2287
14048TIP3   OH242100   3.266   4.875   3.763  0.1760  0.0261 -0.4205
14048TIP3    H142101   3.175   4.850   3.746  0.3531 -0.1457 -1.1138
14048TIP3    H242102   3.313   4.792   3.771  0.6379  0.1108 -2.0433
14049TIP3   OH242103   0.407   3.941   3.249 -0.1340 -0.0192  0.1250
14049TIP3    H142104   0.369   4.007   3.192 -0.6892 -0.6282 -0.2164
14049TIP3    H242105   0.450   3.991   3.319 -0.7716  0.6897  0.0121
14050TIP3   OH242106   4.849   4.186   6.194  0.0515  0.4790  0.8592
14050TIP3    H142107   4.757   4.208   6.205  0.2750  1.3696  1.0224
14050TIP3    H242108   4.896   4.265   6.221  0.8254  0.4186 -0.2625
14051TIP3   OH242109   4.541   3.202   1.112 -0.2508  0.3121 -0.2217
14051TIP3    H142110   4.547   3.260   1.188  0.9679  0.0373 -0.0863
14051TIP3    H242111   4.623   3.217   1.064 -0.6127 -0.1648 -1.0162
14052TIP3   OH242112   6.496   2.682   5.737 -0.3090  0.2979  0.6199
14052TIP3    H142113   6.517   2.593   5.709  1.4429  0.6514  0.6861
14052TIP3    H242114   6.417   2.704   5.689 -0.9668 -1.3937  0.8447
14053TIP3   OH242115   6.978   7.341   3.988 -0.2683 -0.1032  0.4888
14053TIP3    H142116   7.003   7.317   3.899  0.1030 -0.1450  0.6012
14053TIP3    H242117   7.057   7.381   4.025  0.2072 -1.8485  1.4503
14054TIP3   OH242118   8.195   1.304   6.479 -0.0576 -0.1772 -0.4256
14054TIP3    H142119   8.275   1.280   6.526 -1.4929 -0.6747  1.8980
14054TIP3    H242120   8.169   1.387   6.518 -0.7091 -0.0448 -1.1258
14055TIP3   OH242121   1.991   6.582   4.487 -0.3874 -0.0566 -0.3627
14055TIP3    H142122   1.992   6.668   4.530 -1.1252 -0.0178 -0.4083
14055TIP3    H242123   2.062   6.587   4.423  0.0453  0.2571  0.1266
14056TIP3   OH242124   7.942   7.119   3.938  0.7401 -0.4014 -0.0933
14056TIP3    H142125   8.003   7.057   3.897  0.0329 -0.8264 -0.5285
14056TIP3    H242126   7.862   7.068   3.951  0.0577  0.4917 -0.6877
14057TIP3   OH242127   0.983   6.963   0.538 -0.3792  0.2690  0.2486
14057TIP3    H142128   0.990   7.014   0.618 -1.2967  0.5924  0.1330
14057TIP3    H242129   0.921   7.011   0.483 -0.8056 -0.6489 -0.1111
14058TIP3   OH242130   0.464   7.303   4.551  0.1899 -0.1861  0.1359
14058TIP3    H142131   0.410   7.353   4.612 -1.1157 -0.7952 -0.4767
14058TIP3    H242132   0.479   7.219   4.595  1.0459  0.1515  0.5006
14059TIP3   OH242133   4.574   6.668   0.567 -0.3943  0.4569  0.1412
14059TIP3    H142134   4.548   6.741   0.512 -1.4534  0.1478  0.2083
14059TIP3    H242135   4.494   6.644   0.615 -0.5474 -1.7573 -1.0501
14060TIP3   OH242136   1.999   0.421   3.186  0.1938  0.7187 -0.4852
14060TIP3    H142137   1.968   0.436   3.097 -3.3143  4.1393  0.9998
14060TIP3    H242138   1.936   0.360   3.224 -0.6536  2.1904  0.5933
14061TIP3   OH242139   0.803   5.980   0.198 -0.1809  0.0388 -0.0491
14061TIP3    H142140   0.774   5.936   0.118  0.3318 -0.7357  0.1772
14061TIP3    H242141   0.798   5.913   0.266  0.8166  0.2587  0.2603
14062TIP3   OH242142   2.394   1.107   1.230  0.1025 -1.0780  0.1111
14062TIP3    H142143   2.378   1.046   1.303 -0.3519 -2.1586 -0.8696
14062TIP3    H242144   2.366   1.192   1.264 -0.5740 -1.6496  1.0398
14063TIP3   OH242145   0.417   6.762   1.827 -0.1100 -0.2045  0.8280
14063TIP3    H142146   0.475   6.712   1.770 -1.0720 -0.5291  0.1149
14063TIP3    H242147   0.472   6.832   1.861  1.4892 -2.1347  2.4608
14064TIP3   OH242148   1.847   6.600   5.751 -0.1610  0.5117  0.2478
14064TIP3    H142149   1.799   6.556   5.821  0.1408 -0.2236  0.0012
14064TIP3    H242150   1.782   6.657   5.710 -1.0595 -1.0025 -0.5584
14065TIP3   OH242151   7.443   1.146   5.702  0.1253  0.0436  0.0238
14065TIP3    H142152   7.389   1.190   5.636 -1.2131 -1.0218  0.3600
14065TIP3    H242153   7.509   1.099   5.651  0.2488  0.6949 -0.4432
14066TIP3   OH242154   2.683   3.127   3.861  0.1409 -0.3206  0.0417
14066TIP3    H142155   2.715   3.207   3.902 -1.0177  0.0123  0.3352
14066TIP3    H242156   2.591   3.146   3.841 -0.2402 -1.6804  0.4165
14067TIP3   OH242157   1.636   2.558   0.636 -0.1136 -0.6373 -0.4207
14067TIP3    H142158   1.648   2.468   0.607 -0.4191  0.3048 -3.9975
14067TIP3    H242159   1.542   2.573   0.632  0.0517  0.2667 -1.5437
14068TIP3   OH242160   2.033   6.180   0.733  0.4730  0.0199 -0.2245
14068TIP3    H142161   1.990   6.189   0.818 -2.7318  0.4681 -1.7328
14068TIP3    H242162   2.068   6.267   0.714  0.6119  0.0850  0.3173
14069TIP3   OH242163   1.608   1.651   2.473 -0.7885 -0.0132 -0.0753
14069TIP3    H142164   1.687   1.677   2.520 -0.6867 -0.9257  0.2886
14069TIP3    H242165   1.609   1.702   2.392 -0.5930  1.0574  0.5833
14070TIP3   OH242166   4.664   4.609   0.595 -0.2132 -0.3757 -0.1214
14070TIP3    H142167   4.598   4.679   0.595  0.8219  0.8469  3.4033
14070TIP3    H242168   4.631   4.546   0.659  1.9660  0.3817  1.9020
14071TIP3   OH242169   0.873   2.792   0.400 -0.0640 -0.2136  0.2196
14071TIP3    H142170   0.936   2.770   0.469  0.9481  0.6151 -0.4065
14071TIP3    H242171   0.791   2.808   0.447  0.4792 -0.1518  1.1855
14072TIP3   OH242172   7.982   0.992   0.158 -0.4765 -0.2648  0.8580
14072TIP3    H142173   7.987   1.074   0.206  0.0565  1.0565 -1.3482
14072TIP3    H242174   7.894   0.992   0.120 -0.3882 -0.5959  0.6514
14073TIP3   OH242175   6.749   7.777   5.324 -0.2822 -0.0973 -0.1646
14073TIP3    H142176   6.688   7.849   5.306  1.3943  1.4052 -0.0758
14073TIP3    H242177   6.832   7.806   5.288  0.6575 -1.6453  0.6341
14074TIP3   OH242178   7.785   4.854   5.012  0.4314 -0.2400 -0.3136
14074TIP3    H142179   7.847   4.796   4.967  0.3342 -0.4723 -0.1519
14074TIP3    H242180   7.738   4.897   4.941 -2.6006 -3.5900 -0.6264
14075TIP3   OH242181   1.763   0.325   0.072 -0.3912  0.0141 -0.0699
14075TIP3    H142182   1.802   0.412   0.065  0.1993 -0.2008  0.4066
14075TIP3    H242183   1.673   0.342   0.099 -0.1374  0.4689  0.5308
14076TIP3   OH242184   8.070   6.292   5.721 -0.1086 -0.2033  0.1916
14076TIP3    H142185   8.012   6.249   5.659 -1.1430  0.3597  0.7415
14076TIP3    H242186   8.124   6.221   5.757 -1.5083 -0.9993  0.8019
14077TIP3   OH242187   3.124   6.736   2.816 -0.3347  0.4397  0.8959
14077TIP3    H142188   3.160   6.777   2.737 -0.9960  0.1460  0.4309
14077TIP3    H242189   3.194   6.744   2.881 -0.1206  1.4917  0.5524
14078TIP3   OH242190   5.529   6.111   0.581 -0.1908  0.2521 -0.0380
14078TIP3    H142191   5.580   6.156   0.648  0.4544 -0.4025 -0.0727
14078TIP3    H242192   5.438   6.118   0.610 -0.0621  1.2076  0.1646
14079TIP3   OH242193   3.998   6.800   6.154  0.0508 -0.1550 -0.3945
14079TIP3    H142194   3.933   6.864   6.180 -0.8145 -0.9519 -0.5388
14079TIP3    H242195   4.082   6.843   6.169 -0.4295  0.0202  2.1278
14080TIP3   OH242196   4.123   1.825   6.423 -0.1110 -0.5865 -0.0153
14080TIP3    H142197   4.068   1.774   6.482 -0.7428 -1.0016 -0.9506
14080TIP3    H242198   4.071   1.836   6.344  1.0110 -0.7026 -0.7973
14081TIP3   OH242199   2.880   6.789   2.949  0.8365  0.0263  0.0095
14081TIP3    H142200   2.967   6.800   2.911  1.1550 -0.4067  0.5940
14081TIP3    H242201   2.895   6.783   3.043  0.3070 -1.2532  0.0474
14082TIP3   OH242202   6.572   1.844   5.972  0.4339 -0.2759 -0.1038
14082TIP3    H142203   6.542   1.847   5.881 -0.7781  0.4005  0.2928
14082TIP3    H242204   6.651   1.898   5.973  0.5207 -0.3865 -0.7836
14083TIP3   OH242205   8.051   3.317   3.877  0.0477 -0.3950  0.4281
14083TIP3    H142206   8.093   3.242   3.920  1.0617 -0.8593 -1.2543
14083TIP3    H242207   8.124   3.374   3.853 -0.3426 -0.6149 -1.4453
14084TIP3   OH242208   5.089   5.534   0.189 -0.5112 -0.3901  0.1454
14084TIP3    H142209   5.063   5.560   0.278 -1.3654 -0.4691 -0.0692
14084TIP3    H242210   5.092   5.615   0.140 -0.8823 -0.4317  0.0466
14085TIP3   OH242211   8.264   4.148   5.026  0.2933  0.0428  0.0765
14085TIP3    H142212   8.306   4.104   5.101 -0.1810 -0.5650 -0.0092
14085TIP3    H242213   8.174   4.163   5.055 -0.6282 -2.3931 -1.2121
14086TIP3   OH242214   0.936   5.261   0.826 -0.2607 -0.3403 -0.8170
14086TIP3    H142215   0.909   5.305   0.906 -0.2669 -1.2101 -0.3273
14086TIP3    H242216   0.893   5.309   0.755 -0.5276  0.2238 -0.2732
14087TIP3   OH242217   6.896   1.992   4.918  0.3981  0.1468 -0.3901
14087TIP3    H142218   6.913   1.958   5.006 -1.2161  0.4715  0.0792
14087TIP3    H242219   6.868   2.082   4.932  2.3747  0.9743 -1.4477
14088TIP3   OH242220   0.842   6.305   2.392 -0.2359  0.1181 -0.1793
14088TIP3    H142221   0.873   6.221   2.359  0.3177  0.0652  0.4799
14088TIP3    H242222   0.786   6.338   2.321 -2.5069 -1.9150  0.5221
14089TIP3   OH242223   6.195   3.257   2.118  0.0459  0.0173 -0.5590
14089TIP3    H142224   6.162   3.184   2.066  0.3600 -0.2327 -0.4102
14089TIP3    H242225   6.132   3.265   2.190 -0.0826  0.0045 -0.6694
14090TIP3   OH242226   7.484   1.708   5.229  0.1146 -0.3352  0.0339
14090TIP3    H142227   7.408   1.688   5.175 -0.4902 -0.4285  0.8891
14090TIP3    H242228   7.468   1.797   5.261  0.7814 -0.0359 -0.4534
14091TIP3   OH242229   1.653   4.037   3.387  0.1046 -0.6369 -0.4398
14091TIP3    H142230   1.626   3.962   3.334 -1.7683  0.2393 -0.8098
14091TIP3    H242231   1.694   4.097   3.325  0.1590 -0.6714 -0.4373
14092TIP3   OH242232   6.570   0.485   5.306  0.1446  0.4874  0.2917
14092TIP3    H142233   6.665   0.491   5.313  0.1163 -0.2281  1.6237
14092TIP3    H242234   6.554   0.459   5.215  1.2913 -0.4365  0.3295
14093TIP3   OH242235   4.411   3.929   6.690  0.0483  0.4619 -0.2200
14093TIP3    H142236   4.328   3.945   6.736 -0.1311  0.2116 -0.4522
14093TIP3    H242237   4.424   4.008   6.637 -0.1678  0.4006 -0.3685
14094TIP3   OH242238   2.510   3.719   3.653 -0.8317 -0.3981 -0.3665
14094TIP3    H142239   2.501   3.677   3.567 -2.6731 -1.0337  0.1037
14094TIP3    H242240   2.557   3.655   3.706  0.0795 -0.1092 -0.7930
14095TIP3   OH242241   4.770   2.969   1.098  0.1278 -0.0893  0.0889
14095TIP3    H142242   4.684   2.929   1.106 -0.6499  1.4789 -0.0678
14095TIP3    H242243   4.830   2.906   1.138 -1.3032 -0.4320  1.8001
14096TIP3   OH242244   0.964   6.821   2.231 -0.0628  0.1351 -0.0399
14096TIP3    H142245   1.043   6.873   2.247  0.6272 -1.2606  1.3201
14096TIP3    H242246   0.918   6.821   2.315 -0.4494 -0.7732 -0.2435
14097TIP3   OH242247   2.968   1.560   4.210  0.1788 -0.0193  0.5286
14097TIP3    H142248   2.885   1.535   4.249  0.3372 -0.1771  0.7724
14097TIP3    H242249   2.955   1.650   4.179  0.3350  0.4712  1.8085
14098TIP3   OH242250   3.668   3.147   2.080  0.1010  0.0624  0.3928
14098TIP3    H142251   3.732   3.094   2.031  0.2662 -0.4281  1.1221
14098TIP3    H242252   3.717   3.181   2.155  0.0216  1.3650 -0.1295
14099TIP3   OH242253   1.967   6.154   5.027  0.1962  0.4231 -0.0946
14099TIP3    H142254   2.042   6.109   4.988  2.3141  1.9244  1.9561
14099TIP3    H242255   1.940   6.218   4.962  0.1033 -0.7067 -1.2000
14100TIP3   OH242256   0.659   7.449   4.419  0.0359 -0.8102 -0.0414
14100TIP3    H142257   0.617   7.383   4.474 -2.3437 -1.1389 -2.0619
14100TIP3    H242258   0.675   7.405   4.336 -1.1979  0.9358 -1.2841
14101TIP3   OH242259   7.657   4.561   1.795 -0.8990 -0.0572 -0.1152
14101TIP3    H142260   7.651   4.616   1.873 -0.7660  1.4609 -1.1269
14101TIP3    H242261   7.606   4.483   1.817 -0.3855  0.0578  1.6838
14102TIP3   OH242262   7.217   6.883   0.947  0.0876  0.5430 -0.3924
14102TIP3    H142263   7.136   6.933   0.958  0.0372  0.1801  1.0338
14102TIP3    H242264   7.280   6.925   1.005  1.1933  1.3233 -2.0862
14103TIP3   OH242265   7.480   2.380   5.195 -1.0321  0.2452  0.6112
14103TIP3    H142266   7.542   2.429   5.249  0.6672 -2.7523  1.6248
14103TIP3    H242267   7.409   2.357   5.255 -2.1333  1.8059 -0.0116
14104TIP3   OH242268   6.338   4.384   5.182  0.7478  0.1012 -0.0224
14104TIP3    H142269   6.394   4.426   5.248 -0.7440  1.6739  0.3264
14104TIP3    H242270   6.339   4.445   5.107 -0.1342 -0.0332 -0.1614
14105TIP3   OH242271   6.999   2.910   2.854 -0.5556 -0.4279 -0.1543
14105TIP3    H142272   6.951   2.990   2.877  1.0135  0.0913  1.4962
14105TIP3    H242273   6.988   2.903   2.759  1.1228  3.0604 -0.7780
14106TIP3   OH242274   1.440   0.134   6.102 -0.5116 -0.7141 -0.3539
14106TIP3    H142275   1.430   0.043   6.075  0.0735 -0.2894 -2.1424
14106TIP3    H242276   1.377   0.182   6.048  0.3162  0.1286 -0.5870
14107TIP3   OH242277   6.776   4.759   6.174 -0.2933 -0.0495  0.1432
14107TIP3    H142278   6.681   4.756   6.163 -0.7195 -0.3532  3.0218
14107TIP3    H242279   6.807   4.675   6.141 -1.4264 -1.1205  1.6344
14108TIP3   OH242280   6.444   6.166   3.075 -0.4186 -0.0277 -0.2438
14108TIP3    H142281   6.527   6.209   3.053  0.2335 -0.0106  2.0082
14108TIP3    H242282   6.384   6.194   3.006  1.2212  0.5868 -1.5109
14109TIP3   OH242283   6.569   7.159   1.533 -0.4069  0.3853  0.1677
14109TIP3    H142284   6.552   7.238   1.482  0.5041  1.9668  2.1382
14109TIP3    H242285   6.641   7.116   1.488 -1.3218  0.3230 -1.2770
14110TIP3   OH242286   1.533   0.354   4.341 -0.3415  0.1986  0.1963
14110TIP3    H142287   1.543   0.366   4.247  0.5202  0.0284  0.2605
14110TIP3    H242288   1.438   0.350   4.355 -0.4608 -0.3024 -0.7277
14111TIP3   OH242289   6.446  -0.009   1.814 -0.1680 -0.1252  0.1092
14111TIP3    H142290   6.450   0.066   1.754  1.0837  0.8077  1.3116
14111TIP3    H242291   6.490   0.021   1.893 -0.3283 -1.8894  0.9086
14112TIP3   OH242292   1.770   3.047   2.806 -0.4669  0.1130  0.0842
14112TIP3    H142293   1.718   2.972   2.775 -1.0385  0.8105 -0.6879
14112TIP3    H242294   1.751   3.117   2.743 -0.2077  1.0215  0.9979
14113TIP3   OH242295   3.156   6.115   0.031  0.3922  0.0094  0.0428
14113TIP3    H142296   3.231   6.165  -0.003  0.0535  1.3722  1.1576
14113TIP3    H242297   3.082   6.145  -0.020  0.3649 -0.1941 -0.0363
14114TIP3   OH242298   3.475   0.563   3.824  0.0123  0.1754  0.3001
14114TIP3    H142299   3.563   0.545   3.858  0.2824  0.9143 -0.0057
14114TIP3    H242300   3.457   0.652   3.852 -1.1667 -0.3893  1.4624
14115TIP3   OH242301   7.517   4.911   0.299  0.3732  0.7296  0.4967
14115TIP3    H142302   7.473   4.966   0.234 -0.0913  0.3235  0.4626
14115TIP3    H242303   7.590   4.872   0.251 -1.2706 -1.3505 -0.4450
14116TIP3   OH242304   8.205   6.123   3.329  0.3042  0.2882  0.1322
14116TIP3    H142305   8.201   6.218   3.327  0.9566  0.2961 -1.1313
14116TIP3    H242306   8.209   6.101   3.423  1.0483  1.5251  0.3985
14117TIP3   OH242307   6.335   3.457   6.165 -0.4479 -0.0302 -0.3655
14117TIP3    H142308   6.396   3.525   6.137 -0.5820  0.4453  0.4545
14117TIP3    H242309   6.384   3.404   6.228  0.0501 -1.4656 -1.8904
14118TIP3   OH242310   4.529   6.758   2.023 -0.6270  0.4307  0.3750
14118TIP3    H142311   4.507   6.811   2.100 -2.0064 -0.1042  0.3750
14118TIP3    H242312   4.511   6.816   1.949  0.2206  0.7722  0.4176
14119TIP3   OH242313   2.419   7.434   3.829 -0.2586  0.0873 -0.4217
14119TIP3    H142314   2.465   7.351   3.844  0.1105  0.4995  0.8335
14119TIP3    H242315   2.406   7.471   3.916 -0.9967  1.0534 -0.9170
14120TIP3   OH242316   4.931   5.133   1.512  0.0325  0.3222 -0.4119
14120TIP3    H142317   4.922   5.086   1.429 -1.6045  0.5100 -0.3652
14120TIP3    H242318   4.904   5.069   1.579 -0.6602  0.8068 -0.2151
14121TIP3   OH242319   3.678   7.650   5.493  0.0686 -0.1494 -0.0869
14121TIP3    H142320   3.756   7.704   5.484  1.2634 -2.0153 -1.9233
14121TIP3    H242321   3.702   7.566   5.455 -2.8923 -0.7695 -0.9144
14122TIP3   OH242322   5.565   5.357   3.019  0.6819 -0.3112 -0.0085
14122TIP3    H142323   5.655   5.371   3.049  0.7378 -1.4433  0.4019
14122TIP3    H242324   5.568   5.377   2.926  1.2408  0.1828  0.1103
14123TIP3   OH242325   1.230   6.833   5.040  0.2093  0.2805  0.0048
14123TIP3    H142326   1.234   6.738   5.053  1.6075  0.2910 -0.1723
14123TIP3    H242327   1.311   6.855   4.994  0.4482  1.7025  1.0146
14124TIP3   OH242328   6.190   4.581   5.409  0.4887 -0.1788  0.6241
14124TIP3    H142329   6.108   4.612   5.447  0.0941  0.6015 -0.7630
14124TIP3    H242330   6.255   4.591   5.479  0.3447  3.6677  0.4326
14125TIP3   OH242331   2.982   7.478   6.661  0.5968 -0.1198  0.7434
14125TIP3    H142332   2.941   7.531   6.729  0.7405  0.9634  0.0190
14125TIP3    H242333   2.908   7.448   6.607  0.6409  1.0359 -0.0040
14126TIP3   OH242334   0.069   6.727   6.466 -0.1108 -0.6846  0.4937
14126TIP3    H142335  -0.003   6.691   6.415 -0.9066 -0.1713  1.2309
14126TIP3    H242336   0.079   6.666   6.540 -0.8090  0.0405  1.2093
14127TIP3   OH242337   2.831   1.273   4.919  0.1597 -0.4124 -0.2545
14127TIP3    H142338   2.771   1.217   4.967  0.1104  1.1125  1.6122
14127TIP3    H242339   2.829   1.357   4.967  2.7167  0.1327 -0.9164
14128TIP3   OH242340   0.826   4.237   3.421 -0.3430  0.4539  0.5945
14128TIP3    H142341   0.816   4.258   3.514 -0.0267  1.5801  0.3859
14128TIP3    H242342   0.839   4.321   3.378 -0.4825 -0.0512 -0.4810
14129TIP3   OH242343   3.412   4.615   3.724 -0.5842  0.2223  0.0555
14129TIP3    H142344   3.425   4.593   3.816 -0.5275 -1.5534 -0.3345
14129TIP3    H242345   3.500   4.639   3.692 -0.0199 -1.8531 -0.1434
14130TIP3   OH242346   3.993   5.588   5.170  0.1369 -0.0749 -0.1210
14130TIP3    H142347   4.000   5.516   5.232  0.6756 -0.3735 -0.5191
14130TIP3    H242348   4.073   5.583   5.118  2.3092  3.3391  2.4890
14131TIP3   OH242349   3.246   2.991   4.309 -0.5491 -0.4389  0.2782
14131TIP3    H142350   3.339   3.011   4.308 -0.6095 -0.1171  0.9767
14131TIP3    H242351   3.208   3.050   4.244 -0.0828 -1.5777 -1.0893
14132TIP3   OH242352   4.783   2.051   2.911 -0.4669 -0.3994  0.7327
14132TIP3    H142353   4.806   2.011   2.827 -2.6516 -0.2221 -0.0235
14132TIP3    H242354   4.761   1.977   2.967  0.2991 -0.4828  0.9299
14133TIP3   OH242355   4.596   6.579   6.585  0.0106  0.2405 -0.2061
14133TIP3    H142356   4.596   6.487   6.609 -1.7117  0.3550  0.4311
14133TIP3    H242357   4.580   6.580   6.490  0.4569 -0.1138 -0.2858
14134TIP3   OH242358   5.153   7.763   0.565  0.0002  0.1794  0.2641
14134TIP3    H142359   5.191   7.828   0.505 -0.1992 -1.5836 -1.9133
14134TIP3    H242360   5.063   7.794   0.580  0.2941  1.0488  0.2655
14135TIP3   OH242361   7.245   0.986   1.109 -0.5285 -0.1942  0.1639
14135TIP3    H142362   7.256   0.982   1.204  0.5191  0.3596  0.0805
14135TIP3    H242363   7.283   0.905   1.077  0.3208  0.2128  0.1263
14136TIP3   OH242364   7.848   1.526   1.620 -0.1389 -0.1560  0.4610
14136TIP3    H142365   7.900   1.585   1.565 -0.4286  0.0389  0.3929
14136TIP3    H242366   7.858   1.561   1.708 -0.4855  0.1307  0.3919
14137TIP3   OH242367   7.884   2.782   0.360  0.2207  0.1603  0.3189
14137TIP3    H142368   7.923   2.817   0.440  0.8270  1.4829 -0.5159
14137TIP3    H242369   7.958   2.746   0.311 -0.1000 -0.3785  0.2301
14138TIP3   OH242370   2.095   2.107   1.874  0.6573  0.2045 -0.2572
14138TIP3    H142371   2.045   2.172   1.824  1.4598  0.6337 -0.5213
14138TIP3    H242372   2.177   2.097   1.825 -0.1720 -2.4271 -1.2893
14139TIP3   OH242373   1.499   0.126   0.832  0.3364  0.3362  0.3437
14139TIP3    H142374   1.573   0.066   0.818  0.1774  0.6062 -2.0207
14139TIP3    H242375   1.502   0.185   0.757 -2.5355  0.1103 -0.0521
14140TIP3   OH242376   5.892   1.870   4.055  0.3346 -0.0855  0.0717
14140TIP3    H142377   5.821   1.925   4.088  0.8356 -0.1210  1.2393
14140TIP3    H242378   5.905   1.900   3.965 -1.2303 -0.1588 -0.2078
14141TIP3   OH242379   4.160   0.421   2.741  0.0569 -0.4240  0.4217
14141TIP3    H142380   4.213   0.410   2.820  0.6839 -2.4874 -0.2354
14141TIP3    H242381   4.222   0.414   2.669 -0.2705  2.7933 -0.3545
14142TIP3   OH242382   1.247   6.703   2.936 -0.3386  0.3083 -0.2874
14142TIP3    H142383   1.259   6.664   2.849 -1.1465 -0.3020 -0.1307
14142TIP3    H242384   1.169   6.661   2.971 -0.6218  1.3201  0.3197
14143TIP3   OH242385   0.993   1.303   2.228  0.5730  0.6070 -0.0996
14143TIP3    H142386   0.986   1.357   2.306  0.2185  0.1760  0.1675
14143TIP3    H242387   0.905   1.268   2.214  0.5955  0.7930 -0.7759
14144TIP3   OH242388   7.595   1.688   4.900 -0.0222  0.1661 -0.8265
14144TIP3    H142389   7.603   1.783   4.890  0.3549 -0.0286 -2.5297
14144TIP3    H242390   7.554   1.658   4.819 -1.8525 -0.9451  0.4321
14145TIP3   OH242391   4.714   0.154   6.120 -0.0436  0.0221 -0.1596
14145TIP3    H142392   4.725   0.088   6.051  1.2589 -1.0449  1.0060
14145TIP3    H242393   4.690   0.104   6.198 -1.6615  1.2251  0.1777
14146TIP3   OH242394   2.395   7.161   4.002  0.2210  0.5331 -0.2363
14146TIP3    H142395   2.449   7.082   3.998 -1.6977 -1.0387  1.9260
14146TIP3    H242396   2.339   7.157   3.924 -0.6447 -0.9288  0.4188
14147TIP3   OH242397   2.006   6.826   4.612 -0.3926 -0.1874  0.2466
14147TIP3    H142398   1.996   6.864   4.699  1.0481  1.2843 -0.1800
14147TIP3    H242399   2.026   6.901   4.555  1.9653 -1.4606 -0.7421
14148TIP3   OH242400   7.425   3.687   0.036 -0.2684  0.8132 -0.5586
14148TIP3    H142401   7.447   3.758   0.095  0.1275  0.1781  0.0694
14148TIP3    H242402   7.330   3.694   0.025 -0.1892  1.6420 -0.7863
14149TIP3   OH242403   8.282   7.396   6.430  0.3472 -0.2540 -0.7323
14149TIP3    H142404   8.336   7.343   6.489 -0.8604  0.0482  0.7098
14149TIP3    H242405   8.312   7.372   6.343  1.2723 -1.7404 -0.0543
14150TIP3   OH242406   0.309   3.513   4.758  0.3400 -0.5116 -0.3587
14150TIP3    H142407   0.332   3.511   4.666 -0.9006 -0.9981 -0.6812
14150TIP3    H242408   0.390   3.490   4.804  0.9946 -0.1516 -1.3067
14151TIP3   OH242409   4.367   1.843   6.258  0.0366  0.2460 -0.1307
14151TIP3    H142410   4.433   1.908   6.235  1.3053 -1.0644 -0.3435
14151TIP3    H242411   4.313   1.885   6.325 -0.3840  2.1861 -1.6269
14152TIP3   OH242412   7.755   1.965   6.141  0.1115 -0.0506 -0.3861
14152TIP3    H142413   7.683   1.902   6.135 -0.6754  0.5302  1.6697
14152TIP3    H242414   7.711   2.050   6.136  0.7287  0.3091  0.1958
14153TIP3   OH242415   6.582   3.486   2.034  0.1432  0.0446  0.5083
14153TIP3    H142416   6.493   3.455   2.022 -0.0514  0.0088  1.9443
14153TIP3    H242417   6.637   3.408   2.021 -0.2660 -0.7100  2.8452
14154TIP3   OH242418   0.181   3.556   0.860 -0.0543 -0.0759  0.0620
14154TIP3    H142419   0.213   3.483   0.913 -2.0631 -0.1411  1.2467
14154TIP3    H242420   0.252   3.621   0.864  0.7370 -0.9671  1.0035
14155TIP3   OH242421   6.369   7.012   5.884  0.6901 -0.1766  0.1300
14155TIP3    H142422   6.439   7.037   5.944  0.2371  1.3475  0.0561
14155TIP3    H242423   6.415   6.970   5.811  1.5469  0.9435  0.0051
14156TIP3   OH242424   1.278   1.451   5.179  0.5908  0.2821 -0.2725
14156TIP3    H142425   1.337   1.526   5.175  0.5050  0.3150 -1.3259
14156TIP3    H242426   1.235   1.458   5.264  1.1696  0.9712 -0.0310
14157TIP3   OH242427   5.941   2.648   4.202  0.0979 -0.1458 -0.4948
14157TIP3    H142428   5.989   2.729   4.185 -0.8062  0.1485 -1.8409
14157TIP3    H242429   6.009   2.583   4.219  0.8792  0.6773 -0.4095
14158TIP3   OH242430   1.632   2.709   5.010  0.1063 -0.2184  0.0450
14158TIP3    H142431   1.634   2.744   5.099  1.6194 -2.4271  0.9517
14158TIP3    H242432   1.718   2.731   4.974  0.4285 -1.4705  0.0280
14159TIP3   OH242433   4.444   4.994   3.757  0.2778  0.2426  0.5722
14159TIP3    H142434   4.396   5.041   3.689 -1.1605 -1.9633 -0.0545
14159TIP3    H242435   4.396   5.012   3.838  0.5900  0.9577  0.6074
14160TIP3   OH242436   3.563   4.954   4.707 -0.9866  0.3112 -0.5316
14160TIP3    H142437   3.495   5.021   4.698 -1.0879  0.2972  0.0892
14160TIP3    H242438   3.624   4.991   4.771 -0.2246  0.4679 -1.3276
14161TIP3   OH242439   8.211   4.799   0.810  0.7222 -0.0456 -0.4543
14161TIP3    H142440   8.137   4.860   0.818  0.0794 -0.9760  1.0825
14161TIP3    H242441   8.261   4.810   0.891  0.2309 -1.9909  0.1688
14162TIP3   OH242442   5.208   0.636   3.373 -0.2592  0.4971  0.0615
14162TIP3    H142443   5.121   0.637   3.412 -0.2605  2.7015  0.1134
14162TIP3    H242444   5.266   0.667   3.442  0.2563  1.0551 -0.6145
14163TIP3   OH242445   0.951   2.407   4.947  0.9911  0.1019  0.1997
14163TIP3    H142446   0.932   2.386   5.038  0.8847  0.2599  0.2130
14163TIP3    H242447   1.001   2.331   4.915 -0.5248 -0.7964 -0.1221
14164TIP3   OH242448   0.677   5.082   5.607  0.2235  0.4174 -0.6759
14164TIP3    H142449   0.716   5.007   5.563 -0.9016  0.5110 -1.8937
14164TIP3    H242450   0.679   5.060   5.700  1.1938 -0.4866 -0.8998
14165TIP3   OH242451   5.107   5.230   5.227 -0.6202 -0.3792  0.6370
14165TIP3    H142452   5.100   5.139   5.196 -0.2494 -0.5775  1.1151
14165TIP3    H242453   5.158   5.275   5.160 -1.2441 -0.3919  0.1383
14166TIP3   OH242454   4.409   4.249   1.918 -0.3255 -0.3544 -0.2201
14166TIP3    H142455   4.370   4.252   2.005  0.2159 -0.5637  0.0276
14166TIP3    H242456   4.346   4.200   1.865 -1.8789  1.8522 -0.5780
14167TIP3   OH242457   4.036   3.830   1.683 -0.2610  0.0114 -0.1509
14167TIP3    H142458   4.042   3.735   1.675 -1.6839 -0.4091  2.5865
14167TIP3    H242459   3.996   3.845   1.769 -0.2623  3.0969 -0.5590
14168TIP3   OH242460   7.018   7.288   6.377  0.3493  0.2243 -0.1052
14168TIP3    H142461   7.022   7.383   6.380  1.9044  0.2554 -1.5072
14168TIP3    H242462   7.091   7.259   6.433  0.7575 -0.0975 -0.7954
14169TIP3   OH242463   2.182   7.148   0.540 -0.2295 -0.2910 -0.6102
14169TIP3    H142464   2.168   7.243   0.536 -3.4902 -0.5460  1.0584
14169TIP3    H242465   2.111   7.111   0.488  0.3779 -1.8401 -0.3855
14170TIP3   OH242466   3.807   1.781   0.875 -0.5437  0.1850 -0.3175
14170TIP3    H142467   3.828   1.690   0.855  0.5883  0.3662 -0.0360
14170TIP3    H242468   3.859   1.801   0.953 -2.6860  0.3478  1.1604
14171TIP3   OH242469   4.152   7.184   5.396  0.0435  0.2381 -0.0779
14171TIP3    H142470   4.121   7.255   5.453 -1.0969 -2.9083  3.6716
14171TIP3    H242471   4.246   7.196   5.391  0.1998  0.7169  2.6171
14172TIP3   OH242472   3.655   3.246   1.669  0.1930 -0.5790 -0.1021
14172TIP3    H142473   3.699   3.247   1.584  0.5077  0.5656  0.0580
14172TIP3    H242474   3.720   3.282   1.730 -1.3296  2.4617 -0.0901
14173TIP3   OH242475   1.458   1.992   3.174 -0.7411 -0.2168 -0.0878
14173TIP3    H142476   1.495   1.934   3.241  0.4202 -1.4670 -1.7146
14173TIP3    H242477   1.434   1.933   3.103  0.6324  1.2798 -1.8905
14174TIP3   OH242478   2.019   0.221   3.566  0.3107  0.2481  0.0125
14174TIP3    H142479   2.054   0.141   3.604  1.1697  0.0093 -1.2162
14174TIP3    H242480   1.995   0.275   3.641  1.2818 -0.4826  0.8766
14175TIP3   OH242481   2.714   4.888   1.229 -0.3904 -0.7554  0.9585
14175TIP3    H142482   2.667   4.857   1.307 -0.7248  0.4888  1.2802
14175TIP3    H242483   2.682   4.978   1.216  2.0148  0.2347  1.2970
14176TIP3   OH242484   1.752   7.731   0.975  0.3155 -0.0293  0.6597
14176TIP3    H142485   1.666   7.748   1.015  0.5308  1.7623  0.4488
14176TIP3    H242486   1.815   7.764   1.039  0.8445 -0.8799  0.5933
14177TIP3   OH242487   1.238   3.363   4.724 -0.0778  0.3631  0.0101
14177TIP3    H142488   1.269   3.420   4.795  1.5887 -0.8752  0.3475
14177TIP3    H242489   1.259   3.275   4.755 -0.8567 -0.2982 -1.3161
14178TIP3   OH242490   7.407   1.906   6.769  0.8300  0.5016  0.5575
14178TIP3    H142491   7.313   1.896   6.754  1.0748  0.0032 -0.7726
14178TIP3    H242492   7.440   1.816   6.777  1.7244  0.3907 -2.7973
14179TIP3   OH242493   1.752   6.310   3.497 -0.4853  0.0348 -0.6429
14179TIP3    H142494   1.798   6.347   3.422 -1.4698 -0.4121 -1.4820
14179TIP3    H242495   1.701   6.237   3.462  0.0698 -1.0309  0.6928
14180TIP3   OH242496   1.272   0.582   3.951 -0.6981  0.6239 -0.1362
14180TIP3    H142497   1.275   0.648   4.021  0.2952  0.2945  0.1495
14180TIP3    H242498   1.241   0.503   3.994 -2.0841  0.9347 -0.5219
14181TIP3   OH242499   7.733   1.514   5.040 -0.2693  0.4568 -0.1022
14181TIP3    H142500   7.785   1.474   4.970  1.1962 -0.6031  1.5275
14181TIP3    H242501   7.682   1.581   4.995  0.9776  0.1590 -2.1185
14182TIP3   OH242502   7.055   0.590   3.458 -0.3295  0.1341 -0.0226
14182TIP3    H142503   7.104   0.639   3.523  2.3780 -2.9509  0.5074
14182TIP3    H242504   7.080   0.629   3.374  1.4811  0.0028  0.4105
14183TIP3   OH242505   5.142   5.787   0.071  0.1878 -0.4162  0.5401
14183TIP3    H142506   5.069   5.818   0.017  0.6849  0.0903  0.1614
14183TIP3    H242507   5.160   5.859   0.131 -0.1344 -0.8457  1.1714
14184TIP3   OH242508   2.592   2.915   0.526  0.0137 -0.2556 -0.2860
14184TIP3    H142509   2.523   2.937   0.463 -1.1681  0.4606  1.1843
14184TIP3    H242510   2.584   2.982   0.594 -0.0357 -2.0978  1.5982
14185TIP3   OH242511   1.646   6.390   2.034 -0.6816 -0.4627  0.2336
14185TIP3    H142512   1.709   6.461   2.044  0.3462 -1.2793 -0.2984
14185TIP3    H242513   1.566   6.433   2.005  0.2853  0.3603 -1.3497
14186TIP3   OH242514   1.327   4.474   5.183 -0.4420 -0.2144 -0.5969
14186TIP3    H142515   1.359   4.433   5.264  1.0755  0.6353 -0.7402
14186TIP3    H242516   1.396   4.459   5.119  0.1289  2.3556 -0.6998
14187TIP3   OH242517   7.675   6.975   1.290 -0.0678 -0.0581  0.0569
14187TIP3    H142518   7.630   6.986   1.374  1.8099  0.2954  1.0614
14187TIP3    H242519   7.646   7.049   1.237 -2.1668 -0.8997 -0.0891
14188TIP3   OH242520   2.154   6.775   2.411 -0.4161  0.4148  0.2420
14188TIP3    H142521   2.072   6.732   2.432 -0.1975  0.1234  0.5240
14188TIP3    H242522   2.209   6.760   2.488 -1.0990  3.1919  1.3846
14189TIP3   OH242523   3.632   5.440   6.640 -0.0810  0.1663 -0.2891
14189TIP3    H142524   3.701   5.412   6.580  0.3987  0.7882 -0.0447
14189TIP3    H242525   3.593   5.517   6.597 -1.5732 -0.9964 -1.0972
14190TIP3   OH242526   0.492   5.543   1.239 -0.0442 -0.4041  0.2237
14190TIP3    H142527   0.482   5.498   1.155 -0.7586  0.5378 -0.2169
14190TIP3    H242528   0.526   5.630   1.216 -0.4610 -0.0614  0.8822
14191TIP3   OH242529   8.281   2.594   3.078  0.3356  0.1466 -0.2267
14191TIP3    H142530   8.194   2.561   3.098  0.2238  0.1036 -0.7758
14191TIP3    H242531   8.305   2.647   3.155  0.6400 -1.4132  0.8068
14192TIP3   OH242532   4.563   4.914   4.157  0.2207 -0.5538  0.2813
14192TIP3    H142533   4.484   4.920   4.210 -0.0040 -0.5985 -0.0478
14192TIP3    H242534   4.552   4.835   4.105  0.1366 -0.1504 -0.3173
14193TIP3   OH242535   6.933   0.442   0.559 -0.5560 -0.4147 -0.0735
14193TIP3    H142536   6.934   0.529   0.518  1.2576 -0.0431  0.6522
14193TIP3    H242537   6.869   0.450   0.629  0.0692  0.5881  0.4153
14194TIP3   OH242538   7.901   7.701   4.727 -0.7575 -0.4667 -0.0444
14194TIP3    H142539   7.909   7.683   4.633 -0.3729 -0.3082 -0.0453
14194TIP3    H242540   7.895   7.615   4.768 -1.2089 -0.5306 -0.2359
14195TIP3   OH242541   2.963   5.210   3.781  0.0558  0.3245  0.2416
14195TIP3    H142542   3.045   5.183   3.741  0.4224  0.9637  0.5363
14195TIP3    H242543   2.900   5.211   3.708  0.7542  1.6619 -0.4035
14196TIP3   OH242544   1.109   1.597   6.749 -0.6129 -0.2680 -0.6039
14196TIP3    H142545   1.181   1.648   6.785 -0.7242 -0.7359  0.3359
14196TIP3    H242546   1.047   1.661   6.715 -0.6465  0.2189  0.3518
14197TIP3   OH242547   0.573   0.356   0.103  0.0882  0.1536  0.5392
14197TIP3    H142548   0.652   0.367   0.050  0.8010  0.5181  1.6285
14197TIP3    H242549   0.565   0.261   0.115 -0.2248  0.0562 -0.4137
14198TIP3   OH242550   0.660   1.665   0.610  0.0122  0.6548 -0.1621
14198TIP3    H142551   0.700   1.634   0.529 -0.4294  0.7688 -0.4308
14198TIP3    H242552   0.568   1.641   0.602 -0.2067  1.4294 -0.0758
14199TIP3   OH242553   3.304   3.116   1.523  0.4775 -0.0326 -0.1053
14199TIP3    H142554   3.243   3.184   1.552  0.3297  0.7384 -2.0537
14199TIP3    H242555   3.333   3.073   1.604  0.8817  2.5831  1.2354
14200TIP3   OH242556   4.049   0.258   1.021 -0.4290  0.2134  0.5022
14200TIP3    H142557   4.095   0.258   0.937  0.6299 -0.7069  1.0455
14200TIP3    H242558   4.053   0.166   1.050 -1.8220  0.2871  1.0107
14201TIP3   OH242559   0.883   6.086   4.837 -0.6258  0.0950 -0.0181
14201TIP3    H142560   0.846   5.998   4.829 -0.2447  0.0789 -2.0438
14201TIP3    H242561   0.855   6.131   4.757 -0.1756  1.5837  0.6283
14202TIP3   OH242562   5.732   1.271   1.803  0.0603 -0.0717  0.6433
14202TIP3    H142563   5.729   1.193   1.747  0.2797  0.4728 -0.1354
14202TIP3    H242564   5.772   1.339   1.748 -0.3686  0.6639  1.2234
14203TIP3   OH242565   7.754   4.781   1.343 -0.4276 -0.3151 -0.1956
14203TIP3    H142566   7.793   4.761   1.257 -0.0295 -1.4165  0.2189
14203TIP3    H242567   7.790   4.713   1.401 -0.5209  0.5491  0.8902
14204TIP3   OH242568   2.570   1.985   2.297  0.1904  0.2310 -0.5362
14204TIP3    H142569   2.587   1.964   2.205 -0.6103  0.2122 -0.6824
14204TIP3    H242570   2.615   2.068   2.312  1.3664 -0.3773 -0.6014
14205TIP3   OH242571   6.347   1.526   5.983  0.5816 -0.4285  0.0305
14205TIP3    H142572   6.408   1.469   5.936  0.7473 -1.7459  1.7197
14205TIP3    H242573   6.289   1.561   5.916  0.0066 -3.2161 -1.0483
14206TIP3   OH242574   0.565   1.571   3.817 -0.5436 -0.2067 -0.0698
14206TIP3    H142575   0.469   1.572   3.818 -0.5579 -0.7756  0.8062
14206TIP3    H242576   0.588   1.577   3.724 -1.3717  1.8039 -0.1874
14207TIP3   OH242577   4.244   4.805   6.518  0.3269 -0.2545  0.0091
14207TIP3    H142578   4.242   4.840   6.607 -0.2501 -0.4805  0.0881
14207TIP3    H242579   4.324   4.841   6.479  0.1559  0.4988  0.3518
14208TIP3   OH242580   5.215   3.191   6.388 -0.3009 -0.1605 -0.3542
14208TIP3    H142581   5.195   3.250   6.460 -0.5762  0.8634 -1.2438
14208TIP3    H242582   5.260   3.246   6.324  1.2807 -1.3811 -0.3480
14209TIP3   OH242583   5.480   3.871   1.975  0.0403 -0.6872  0.1306
14209TIP3    H142584   5.400   3.859   2.025  0.9481 -2.2552  1.3240
14209TIP3    H242585   5.498   3.965   1.980 -1.3377 -0.4159  0.4088
14210TIP3   OH242586   1.667   6.463   4.050 -0.7644 -0.3910 -0.3804
14210TIP3    H142587   1.649   6.511   4.131  0.0638 -0.7320  0.0216
14210TIP3    H242588   1.709   6.527   3.993 -0.5305 -0.3845 -0.2023
14211TIP3   OH242589   2.476   4.897   4.930  0.2087 -0.2577 -0.1641
14211TIP3    H142590   2.569   4.903   4.909  0.7055 -0.7975  1.6727
14211TIP3    H242591   2.474   4.877   5.024 -1.7264 -1.5683 -0.4228
14212TIP3   OH242592   0.203   4.495   3.021  0.0697  0.9318 -0.0641
14212TIP3    H142593   0.267   4.475   3.090  1.3346 -1.2149 -1.7006
14212TIP3    H242594   0.246   4.562   2.968  0.0821  0.9828  0.0107
14213TIP3   OH242595   5.583   7.067   0.082 -0.0850 -0.1521  0.1944
14213TIP3    H142596   5.665   7.017   0.083 -0.3967 -0.6636  0.4757
14213TIP3    H242597   5.589   7.121   0.003  0.1262 -0.8643 -0.2881
14214TIP3   OH242598   1.544   2.867   2.762 -0.3520 -0.1680  0.5399
14214TIP3    H142599   1.596   2.787   2.770 -2.2646 -1.4190  1.1353
14214TIP3    H242600   1.509   2.863   2.673 -1.2719 -0.5562  0.9054
14215TIP3   OH242601   7.981   1.023   3.881  0.0515 -0.0156 -0.1639
14215TIP3    H142602   7.902   1.002   3.832  1.1080  0.9813 -2.4713
14215TIP3    H242603   8.041   0.950   3.863  0.6863  0.6805 -0.9983
14216TIP3   OH242604   0.860   3.522   2.084 -0.1422 -0.1821  0.0482
14216TIP3    H142605   0.834   3.548   1.996 -0.5250  0.7267  0.4182
14216TIP3    H242606   0.912   3.442   2.071  0.0214  0.0809 -1.0157
14217TIP3   OH242607   4.285   6.807   4.684 -0.5712  0.0892  0.2715
14217TIP3    H142608   4.242   6.806   4.769  0.9646  1.1592  1.1196
14217TIP3    H242609   4.378   6.803   4.704 -0.0724  2.3570 -1.2180
14218TIP3   OH242610   2.838   1.996   6.158 -0.0789  0.3477  0.5525
14218TIP3    H142611   2.919   1.997   6.209  0.7780 -0.8745 -0.7184
14218TIP3    H242612   2.824   1.904   6.136  0.7271  0.9378 -3.0737
14219TIP3   OH242613   4.796   4.944   0.535 -0.4999 -0.4942  0.4841
14219TIP3    H142614   4.841   4.923   0.453  0.2540 -1.7007  1.1693
14219TIP3    H242615   4.703   4.949   0.511 -0.1159  1.5377 -0.8651
14220TIP3   OH242616   3.116   3.948   5.416  0.2380 -0.4564  0.3381
14220TIP3    H142617   3.128   3.939   5.321 -1.9296  0.8194 -0.1313
14220TIP3    H242618   3.044   3.888   5.436 -1.1525  1.2454  0.6443
14221TIP3   OH242619   6.584   7.567   5.238 -0.4121 -0.1642  0.0627
14221TIP3    H142620   6.561   7.545   5.329  0.2913 -0.6469  0.1264
14221TIP3    H242621   6.656   7.630   5.247 -1.1122  0.6900 -0.1510
14222TIP3   OH242622   3.677   7.045   5.433 -0.5070 -0.4621 -0.6374
14222TIP3    H142623   3.745   6.981   5.456 -0.3372 -1.1396 -2.8243
14222TIP3    H242624   3.650   7.021   5.344 -2.2608  0.9771 -0.5495
14223TIP3   OH242625   2.174   1.315   5.056 -0.1927 -0.1945 -0.0433
14223TIP3    H142626   2.234   1.354   4.992  0.5837 -1.1440  0.0732
14223TIP3    H242627   2.109   1.383   5.073  1.6306  1.4097  0.8643
14224TIP3   OH242628   1.503   4.662   1.592 -0.6977  0.7378 -0.2495
14224TIP3    H142629   1.579   4.643   1.646  0.3905  0.2106 -1.9059
14224TIP3    H242630   1.472   4.747   1.623 -0.8175 -0.0465  1.9378
14225TIP3   OH242631   4.042   0.730   5.107 -0.2551 -0.8221 -0.3618
14225TIP3    H142632   3.951   0.734   5.135 -0.2263  0.3524 -0.3629
14225TIP3    H242633   4.091   0.704   5.185 -0.5211 -0.8176 -0.1943
14226TIP3   OH242634   2.541   2.148   0.732  0.2213 -0.5668 -0.4526
14226TIP3    H142635   2.604   2.077   0.746 -0.1808 -0.7959  0.2204
14226TIP3    H242636   2.501   2.161   0.818 -1.0311 -0.7810 -0.9961
14227TIP3   OH242637   0.907   1.490   4.250  1.0438  0.1741  0.1722
14227TIP3    H142638   0.948   1.542   4.319  2.1099 -2.5506  1.7376
14227TIP3    H242639   0.940   1.528   4.168  4.2633  0.0736  1.2812
14228TIP3   OH242640   6.110   4.258   2.976  0.3778 -0.0897 -0.4144
14228TIP3    H142641   6.044   4.278   2.910 -0.3410 -0.0440  0.3176
14228TIP3    H242642   6.149   4.343   2.998 -1.0933  0.2584  1.0132
14229TIP3   OH242643   7.623   1.078   6.703  0.3812 -0.1317 -0.4490
14229TIP3    H142644   7.581   1.157   6.736 -0.8506 -0.5877 -0.8415
14229TIP3    H242645   7.600   1.010   6.767 -0.9073 -0.7361 -1.5171
14230TIP3   OH242646   6.831   2.754   3.013 -0.3893 -0.5876  0.1039
14230TIP3    H142647   6.822   2.817   3.085 -1.6180 -0.9162  0.2700
14230TIP3    H242648   6.876   2.802   2.944  0.0680 -0.0093  0.7870
14231TIP3   OH242649   1.944   6.510   1.271 -0.9385 -0.0331 -0.4910
14231TIP3    H142650   1.926   6.541   1.360 -2.3004 -1.3954 -0.2483
14231TIP3    H242651   1.993   6.429   1.284 -2.0583 -0.8110 -0.8953
14232TIP3   OH242652   4.861   3.247   1.960 -0.6734 -0.0479  0.2417
14232TIP3    H142653   4.845   3.322   1.903 -2.7148  0.0670  0.8812
14232TIP3    H242654   4.801   3.180   1.929 -0.1712 -0.7888  0.8226
14233TIP3   OH242655   2.193   0.049   5.330 -0.1188 -0.3326  0.2903
14233TIP3    H142656   2.222   0.037   5.421 -1.0313 -1.9192  0.4111
14233TIP3    H242657   2.146  -0.032   5.309 -3.0979  1.4257 -0.3806
14234TIP3   OH242658   5.500   2.040   6.500  0.0706 -0.3206  0.9391
14234TIP3    H142659   5.529   2.011   6.586  2.8474 -1.4822 -0.2783
14234TIP3    H242660   5.472   1.961   6.455  0.6451 -0.0624  0.0911
14235TIP3   OH242661   6.411   3.134   2.589  0.5826 -0.8693  0.4111
14235TIP3    H142662   6.445   3.152   2.501  2.6167  0.2749  1.3495
14235TIP3    H242663   6.321   3.105   2.575  0.0928  1.4203 -1.9109
14236TIP3   OH242664   7.978   6.930   3.431 -0.5711 -0.4570  0.2416
14236TIP3    H142665   7.964   6.886   3.346 -0.4006  1.0992 -0.6190
14236TIP3    H242666   8.070   6.915   3.450 -0.8602 -1.7651  0.7333
14237TIP3   OH242667   4.320   3.625   5.527 -0.1069 -0.2106 -0.1191
14237TIP3    H142668   4.364   3.546   5.495  0.3304 -0.1320  0.2745
14237TIP3    H242669   4.306   3.678   5.448  0.5356 -0.2243 -0.2487
14238TIP3   OH242670   5.176   4.066   5.357  0.1687 -0.1266 -0.2380
14238TIP3    H142671   5.113   4.115   5.305 -0.8901 -0.7798  0.3877
14238TIP3    H242672   5.159   3.974   5.335 -1.5871 -0.6053  2.5088
14239TIP3   OH242673   6.081   6.739   1.837 -0.1200 -0.0144  0.0552
14239TIP3    H142674   6.150   6.805   1.837 -1.8318  1.8840  1.1998
14239TIP3    H242675   6.109   6.675   1.771  3.8180 -0.6121  1.9825
14240TIP3   OH242676   3.819   7.132   0.358 -0.0077 -0.2085 -0.1562
14240TIP3    H142677   3.821   7.036   0.362 -0.4781 -0.1901  0.6504
14240TIP3    H242678   3.874   7.161   0.431  1.6731  0.1553 -1.5051
14241TIP3   OH242679   6.567   4.013   2.128 -0.3189  0.1580 -0.1068
14241TIP3    H142680   6.622   4.076   2.082 -0.1310  0.5323  0.6153
14241TIP3    H242681   6.597   3.928   2.096 -0.4418  0.4193 -0.9391
14242TIP3   OH242682   1.242   0.180   0.902 -0.2743 -0.0870 -0.1872
14242TIP3    H142683   1.332   0.189   0.873 -0.4314  1.7415 -0.2280
14242TIP3    H242684   1.202   0.120   0.839  0.7392 -0.4117 -0.5353
14243TIP3   OH242685   2.615   5.765   3.184  0.3348 -0.0625 -0.1515
14243TIP3    H142686   2.697   5.737   3.225  0.1324 -1.9569 -0.9294
14243TIP3    H242687   2.624   5.860   3.176  2.1233 -0.1277  0.4706
14244TIP3   OH242688   1.503   1.736   3.566 -0.3958 -0.2237 -0.8116
14244TIP3    H142689   1.479   1.824   3.598  2.7774  0.6285 -0.4141
14244TIP3    H242690   1.547   1.752   3.483 -0.0336 -1.4859 -0.8820
14245TIP3   OH242691   4.707   3.175   6.097 -0.6951  0.1587 -0.6959
14245TIP3    H142692   4.670   3.090   6.121 -0.5201  0.1269 -0.5334
14245TIP3    H242693   4.797   3.156   6.073 -0.1520  0.5170  0.9272
14246TIP3   OH242694   0.711   3.207   1.754 -0.2498 -0.6523 -0.2739
14246TIP3    H142695   0.794   3.195   1.801  0.2517 -0.7752 -1.1458
14246TIP3    H242696   0.652   3.245   1.818  1.4919  2.8462 -0.4877
14247TIP3   OH242697   0.363   3.378   5.222 -0.0169 -0.2303 -0.4829
14247TIP3    H142698   0.393   3.455   5.270  0.9245 -0.2996 -0.9409
14247TIP3    H242699   0.273   3.399   5.197 -0.8441 -0.5047  1.9451
14248TIP3   OH242700   4.384   5.466   1.438 -0.0671 -0.7910  0.0731
14248TIP3    H142701   4.369   5.373   1.452  0.0990 -0.9261 -0.5798
14248TIP3    H242702   4.302   5.508   1.465 -0.2142 -1.1443  0.1846
14249TIP3   OH242703   1.901   1.970   6.129 -0.9274 -0.3574 -0.2266
14249TIP3    H142704   1.882   1.898   6.069 -1.4547 -0.2146 -0.2404
14249TIP3    H242705   1.949   1.930   6.201 -0.0263 -0.4815 -0.8864
14250TIP3   OH242706   6.104   2.147   3.658 -0.1536  0.5417 -0.1460
14250TIP3    H142707   6.033   2.169   3.598 -1.5323  0.8266  1.5070
14250TIP3    H242708   6.169   2.216   3.646 -0.4197  0.6178 -1.2442
14251TIP3   OH242709   1.464   5.634   1.341 -0.0881 -0.6795  0.1769
14251TIP3    H142710   1.558   5.619   1.331  0.3415  0.8038  1.6404
14251TIP3    H242711   1.450   5.722   1.305 -0.7877 -0.5992  0.6338
14252TIP3   OH242712   5.502   4.362   5.336  0.6835 -0.0521 -0.0763
14252TIP3    H142713   5.420   4.387   5.379  0.9025 -0.7119  0.7614
14252TIP3    H242714   5.513   4.269   5.357  1.0333 -0.2791 -1.2117
14253TIP3   OH242715   2.703   1.092   0.238 -0.1792  0.5120  0.7186
14253TIP3    H142716   2.645   1.020   0.265 -0.2945 -0.0326 -0.8276
14253TIP3    H242717   2.760   1.053   0.172 -1.3411  2.1705 -1.4227
14254TIP3   OH242718   4.920   0.513   6.680 -0.0776 -0.2127  0.0302
14254TIP3    H142719   4.924   0.525   6.775  0.8147  1.0747 -0.1527
14254TIP3    H242720   4.828   0.493   6.663 -0.5873  1.1838  0.9855
14255TIP3   OH242721   2.899   0.368   4.829  0.0738  0.1197 -0.3634
14255TIP3    H142722   2.986   0.391   4.860  0.5020 -0.4077 -1.1146
14255TIP3    H242723   2.838   0.411   4.890  0.8507  0.8119 -0.0675
14256TIP3   OH242724   5.858   4.308   3.191 -0.3092 -0.5430 -0.3801
14256TIP3    H142725   5.813   4.266   3.118 -0.9824  0.6911 -0.7065
14256TIP3    H242726   5.790   4.361   3.233  0.2835 -0.5459  0.6123
14257TIP3   OH242727   1.755   7.293   6.184 -0.1083 -0.3061 -0.2344
14257TIP3    H142728   1.694   7.267   6.115 -2.2105 -0.2141  1.4813
14257TIP3    H242729   1.805   7.214   6.204 -1.3972 -1.0859 -0.0114
14258TIP3   OH242730   1.301   4.181   1.464 -0.0860  0.0887 -0.3251
14258TIP3    H142731   1.354   4.212   1.389 -1.3509  0.6582 -1.0169
14258TIP3    H242732   1.212   4.176   1.429 -0.5867 -0.2747  0.9803
14259TIP3   OH242733   8.110   1.377   1.183 -0.4652 -0.3125 -0.4118
14259TIP3    H142734   8.108   1.371   1.278 -1.4946  0.3988 -0.3732
14259TIP3    H242735   8.097   1.470   1.164  1.3679 -0.1739 -1.2317
14260TIP3   OH242736   2.643   1.552   5.776  0.1237 -0.4198  0.0113
14260TIP3    H142737   2.662   1.505   5.695 -0.5976 -0.1079 -0.3462
14260TIP3    H242738   2.647   1.644   5.752  1.1173 -0.2845  0.6156
14261TIP3   OH242739   5.867   1.226   3.622 -0.0611 -0.2060 -0.0297
14261TIP3    H142740   5.945   1.192   3.578 -0.4539 -0.5766 -0.4500
14261TIP3    H242741   5.899   1.255   3.707  0.6867  0.3822 -0.4847
14262TIP3   OH242742   5.957   5.057   0.522 -0.1440  0.3669 -0.3556
14262TIP3    H142743   6.029   5.016   0.569  0.5394  0.3269 -1.4026
14262TIP3    H242744   5.901   5.093   0.590 -0.0782 -1.1593  0.5458
14263TIP3   OH242745   6.910   2.286   4.649  0.6158 -0.3067  0.3158
14263TIP3    H142746   7.002   2.261   4.657  1.0641  1.8539  3.5824
14263TIP3    H242747   6.877   2.283   4.739 -2.4034 -0.4534 -0.7068
14264TIP3   OH242748   3.919   3.257   4.206  0.6838  0.4254  0.4835
14264TIP3    H142749   4.012   3.245   4.225  0.7095 -0.2010 -0.0049
14264TIP3    H242750   3.891   3.326   4.266  1.3453  0.2562  0.9986
14265TIP3   OH242751   3.360   6.806   4.667 -0.7287  0.6975  0.2273
14265TIP3    H142752   3.446   6.824   4.630 -0.2295  0.6601  1.3257
14265TIP3    H242753   3.302   6.872   4.628 -0.0059  1.3207  0.2040
14266TIP3   OH242754   5.855   3.778   5.001 -0.0577  0.6751 -0.0229
14266TIP3    H142755   5.906   3.745   4.927 -0.7789 -0.6296  0.0374
14266TIP3    H242756   5.878   3.721   5.074 -0.8705  0.6547  0.2350
14267TIP3   OH242757   8.091   3.571   2.762 -0.1435 -0.1308 -0.6291
14267TIP3    H142758   8.097   3.601   2.671 -1.1988  2.0238 -0.0490
14267TIP3    H242759   8.144   3.491   2.764 -0.5193 -0.5362 -3.2417
14268TIP3   OH242760   5.857   6.334   4.169 -0.2508 -0.0599 -0.4407
14268TIP3    H142761   5.944   6.339   4.209  1.0895  0.3468 -3.1127
14268TIP3    H242762   5.843   6.240   4.154 -0.7124 -0.2024  0.8021
14269TIP3   OH242763   3.402   6.229   2.684 -0.2075 -0.0246  0.1260
14269TIP3    H142764   3.344   6.305   2.689 -2.0116 -1.3963  1.5350
14269TIP3    H242765   3.444   6.225   2.771 -0.7497 -1.0591  0.3605
14270TIP3   OH242766   7.934   1.063   3.018  0.3547 -0.1891 -0.0458
14270TIP3    H142767   7.973   1.106   2.942  1.1488  0.4481  0.7056
14270TIP3    H242768   8.006   1.054   3.080 -0.1135 -1.3577  0.3669
14271TIP3   OH242769   0.237   7.015   4.711 -0.3739 -0.2813  0.1553
14271TIP3    H142770   0.270   7.099   4.742 -0.1696  0.5005 -2.0064
14271TIP3    H242771   0.142   7.023   4.714 -0.3588  0.3225 -0.7208
14272TIP3   OH242772   2.180   1.371   3.114  0.3461 -0.7125 -0.9006
14272TIP3    H142773   2.154   1.303   3.051  0.0563 -0.5954 -0.9107
14272TIP3    H242774   2.229   1.324   3.181 -0.0299 -0.9660 -0.8008
14273TIP3   OH242775   1.559   6.867   0.892  0.1015 -0.8297  0.1909
14273TIP3    H142776   1.488   6.852   0.955 -0.3998  0.4044 -0.0526
14273TIP3    H242777   1.630   6.904   0.945 -0.3911  0.3982  0.0417
14274TIP3   OH242778   6.791   6.561   6.104  0.2538 -0.0078 -0.2761
14274TIP3    H142779   6.738   6.547   6.026  0.0606  1.5630 -0.4700
14274TIP3    H242780   6.812   6.655   6.102  2.4369 -0.4183  0.1703
14275TIP3   OH242781   3.901   2.472   0.108 -0.4706  0.2032 -0.3720
14275TIP3    H142782   3.906   2.491   0.014 -0.4447  0.1642 -0.3787
14275TIP3    H242783   3.859   2.386   0.113  0.3544 -0.2118 -0.3937
14276TIP3   OH242784   8.070   7.014   0.274 -0.0858 -0.1242 -0.7813
14276TIP3    H142785   7.997   6.981   0.326 -1.1348  3.5179  0.3399
14276TIP3    H242786   8.029   7.058   0.200  1.0292  0.9569 -0.7815
14277TIP3   OH242787   6.776   1.409   5.363 -0.2417  0.2903  0.0799
14277TIP3    H142788   6.684   1.387   5.371  0.1796 -1.3462  0.6901
14277TIP3    H242789   6.800   1.382   5.274 -0.0833 -0.3943  0.3231
14278TIP3   OH242790   7.604   4.152   1.260 -0.1879  0.4961  0.0943
14278TIP3    H142791   7.661   4.176   1.187 -0.3553  0.4499 -0.0504
14278TIP3    H242792   7.528   4.208   1.251 -1.2345 -1.0274 -1.0657
14279TIP3   OH242793   1.197   4.007   5.188 -0.3188 -0.1753 -0.2957
14279TIP3    H142794   1.129   4.062   5.226 -0.7897 -0.7508 -0.2807
14279TIP3    H242795   1.180   3.920   5.225 -0.0722 -0.4931 -0.9130
14280TIP3   OH242796   5.446   7.643   5.462 -0.1311 -0.2934 -0.4605
14280TIP3    H142797   5.383   7.657   5.533  0.3909 -0.8435  0.1239
14280TIP3    H242798   5.401   7.585   5.401 -0.0996 -0.9113  0.0927
14281TIP3   OH242799   6.306   1.610   4.305 -0.2326 -0.4235  0.0241
14281TIP3    H142800   6.251   1.688   4.303  1.0279  0.5153 -1.3441
14281TIP3    H242801   6.251   1.540   4.270 -0.1478  0.8643 -3.0168
14282TIP3   OH242802   4.089   6.153   0.845  0.0876  0.2055  0.6406
14282TIP3    H142803   4.154   6.223   0.840 -0.3139  0.8046  2.8017
14282TIP3    H242804   4.139   6.076   0.874  0.2400  0.0223 -0.0967
14283TIP3   OH242805   5.768   2.379   5.164 -0.0097 -0.4428 -0.2816
14283TIP3    H142806   5.773   2.329   5.245 -0.3955  0.9861  0.6740
14283TIP3    H242807   5.727   2.462   5.190 -0.7746 -0.2092 -2.0669
14284TIP3   OH242808   1.645   1.964   2.353  0.7750 -0.2299  0.4863
14284TIP3    H142809   1.562   1.966   2.306  1.5795  0.3923 -0.9843
14284TIP3    H242810   1.702   1.908   2.300  1.8874  0.9550  0.3751
14285TIP3   OH242811   4.751   5.756   4.006 -0.1055 -1.1934 -0.0263
14285TIP3    H142812   4.792   5.719   3.928  0.2307 -0.6514 -0.1099
14285TIP3    H242813   4.822   5.764   4.069  0.2842  1.1828 -0.6804
14286TIP3   OH242814   6.997   2.039   3.190 -0.4929 -0.0998 -0.1806
14286TIP3    H142815   7.092   2.033   3.191 -0.2408  2.6465 -0.6521
14286TIP3    H242816   6.972   2.042   3.283 -0.2416 -1.7688 -0.0394
14287TIP3   OH242817   0.449   4.502   5.203  0.1758 -0.0481 -0.6083
14287TIP3    H142818   0.407   4.563   5.142 -0.0533  0.4371  0.0257
14287TIP3    H242819   0.390   4.427   5.207 -0.7359  0.7028  0.4093
14288TIP3   OH242820   7.433   3.925   3.049  0.2444  0.0891 -0.1306
14288TIP3    H142821   7.409   3.845   3.094 -3.3553 -0.2662 -2.2926
14288TIP3    H242822   7.489   3.897   2.977 -1.3999 -0.6526 -1.1722
14289TIP3   OH242823   2.736   6.663   4.573 -0.4180 -0.5662  0.1413
14289TIP3    H142824   2.793   6.586   4.565 -0.1055 -0.2685 -0.5146
14289TIP3    H242825   2.796   6.735   4.594 -0.5111 -0.2050 -0.7844
14290TIP3   OH242826   2.951   5.881   4.888 -0.2887  0.9787  0.2221
14290TIP3    H142827   2.902   5.849   4.812 -1.4891 -0.7471  1.6292
14290TIP3    H242828   2.950   5.976   4.880 -1.1113  0.8586 -1.4557
14291TIP3   OH242829   2.928   3.820   5.785 -0.0668  0.2099 -0.4804
14291TIP3    H142830   2.972   3.764   5.849  0.2973  0.0972 -0.8185
14291TIP3    H242831   2.855   3.859   5.833 -0.9546 -1.3332 -0.4892
14292TIP3   OH242832   5.852   7.716   0.673  0.4041 -0.0251 -0.2790
14292TIP3    H142833   5.782   7.778   0.653  0.6723  0.4675  0.2612
14292TIP3    H242834   5.866   7.725   0.768  1.4808  0.2062 -0.4385
14293TIP3   OH242835   0.505   5.011   2.409 -0.2536  0.1924  0.1543
14293TIP3    H142836   0.509   5.040   2.500  0.3511  0.0854  0.1648
14293TIP3    H242837   0.464   4.925   2.413 -1.2857  0.6750  0.2069
14294TIP3   OH242838   1.293   5.806   3.724 -0.3400 -0.2915  1.0072
14294TIP3    H142839   1.323   5.723   3.763  0.8801 -0.1902  0.3318
14294TIP3    H242840   1.351   5.872   3.761  1.0626 -0.2395 -1.1802
14295TIP3   OH242841   5.879   4.318   6.448  0.2273  0.4923 -0.2028
14295TIP3    H142842   5.936   4.259   6.495  1.6322  0.6640 -1.6062
14295TIP3    H242843   5.798   4.320   6.499  0.7258 -1.3615  0.7195
14296TIP3   OH242844   4.892   6.507   2.790 -0.0083 -0.4354  0.3705
14296TIP3    H142845   4.894   6.493   2.885  1.5565 -0.5039  0.3621
14296TIP3    H242846   4.824   6.573   2.777 -1.4763 -1.7220  1.3331
14297TIP3   OH242847   7.696   6.514   5.355 -0.3458 -0.3240 -0.0761
14297TIP3    H142848   7.653   6.574   5.295 -0.9060 -0.7224 -0.0822
14297TIP3    H242849   7.758   6.465   5.301 -1.4208 -1.2430 -0.4920
14298TIP3   OH242850   2.893   4.430   5.570 -0.2190  0.2190  0.6938
14298TIP3    H142851   2.986   4.432   5.593 -0.0009  2.2001 -0.1926
14298TIP3    H242852   2.873   4.337   5.559  2.2099 -0.1558 -1.2124
14299TIP3   OH242853   7.978   6.166   0.430  0.6692 -0.0031  0.1056
14299TIP3    H142854   7.995   6.074   0.446  0.6748 -0.2496 -1.2588
14299TIP3    H242855   7.902   6.186   0.486  0.8059 -0.7599  0.5765
14300TIP3   OH242856   7.513   3.057   1.171 -0.1850  0.5230 -0.0935
14300TIP3    H142857   7.523   2.972   1.128 -2.4894  0.7179 -1.2279
14300TIP3    H242858   7.536   3.120   1.103 -0.2633  0.8028  0.1400
14301TIP3   OH242859   0.963   4.037   3.054  0.4167 -0.1808  0.0219
14301TIP3    H142860   0.945   4.024   3.147  1.2054 -0.2856  0.1654
14301TIP3    H242861   0.975   3.948   3.019  0.8503 -0.1026 -0.0281
14302TIP3   OH242862   6.123   1.258   3.992  0.5284 -0.3831 -0.1965
14302TIP3    H142863   6.116   1.325   3.924 -0.8710 -0.8385 -0.5358
14302TIP3    H242864   6.203   1.210   3.971  1.3200  0.8978 -0.1956
14303TIP3   OH242865   5.441   1.091   3.504 -0.2578  0.2083 -0.7060
14303TIP3    H142866   5.504   1.140   3.558 -1.6953  1.5144 -0.1442
14303TIP3    H242867   5.492   1.019   3.468  1.2896  0.5629  0.6392
14304TIP3   OH242868   5.856   1.847   5.900 -0.3777  0.4719  0.2877
14304TIP3    H142869   5.894   1.917   5.953 -0.1673  0.1529  0.5564
14304TIP3    H242870   5.892   1.860   5.812  1.6604 -0.7905  0.8741
14305TIP3   OH242871   2.248   3.964   3.031 -0.1970 -0.4731  0.4927
14305TIP3    H142872   2.323   3.947   3.088  0.7366 -0.8138 -0.7931
14305TIP3    H242873   2.283   4.021   2.962 -1.3679  0.1605  0.3950
14306TIP3   OH242874   6.792   0.141   2.631  0.6363 -0.4835 -0.1231
14306TIP3    H142875   6.800   0.154   2.725 -1.0956  0.2034 -0.0429
14306TIP3    H242876   6.855   0.202   2.593 -0.8163  1.5180  0.5272
14307TIP3   OH242877   7.030   3.526   3.977  0.3188 -0.1296  0.1723
14307TIP3    H142878   7.029   3.443   4.024 -1.7587  0.0089  0.4408
14307TIP3    H242879   7.024   3.502   3.885 -0.1407 -0.2941  0.2425
14308TIP3   OH242880   7.632   3.603   1.842  0.7353  0.0581  0.9899
14308TIP3    H142881   7.564   3.605   1.774  2.4699  0.8012 -0.8625
14308TIP3    H242882   7.592   3.645   1.918 -1.4465 -1.2294  0.6258
14309TIP3   OH242883   5.684   5.767   2.109  0.2042  0.1864 -0.4534
14309TIP3    H142884   5.639   5.685   2.086  0.3892  0.0936 -0.4919
14309TIP3    H242885   5.707   5.755   2.201  1.8515 -0.5850 -0.9295
14310TIP3   OH242886   0.407   5.816   6.020  0.3530 -0.9260 -0.4762
14310TIP3    H142887   0.379   5.894   5.971  1.5193 -0.1199  0.0974
14310TIP3    H242888   0.465   5.770   5.960 -0.3368 -1.3651 -0.8158
14311TIP3   OH242889   3.328   1.505   0.157  0.5986  0.6808  0.2477
14311TIP3    H142890   3.296   1.429   0.108  0.2211  0.5707  0.6594
14311TIP3    H242891   3.278   1.504   0.238 -2.0248  3.4082 -1.1319
14312TIP3   OH242892   7.029   3.959   0.998  0.1947  0.4218  0.5655
14312TIP3    H142893   7.084   4.036   0.980  0.9093 -0.3918 -0.9130
14312TIP3    H242894   6.989   3.938   0.914  1.8826 -2.2307  0.3139
14313TIP3   OH242895   8.143   4.710   0.086  0.7056 -0.6593 -0.2045
14313TIP3    H142896   8.154   4.668   0.171 -0.2777 -1.8494 -0.6484
14313TIP3    H242897   8.233   4.726   0.056  1.0862  0.9276  1.5727
14314TIP3   OH242898   0.741   5.308   2.091  0.0320  0.8243  0.9635
14314TIP3    H142899   0.750   5.385   2.147 -0.6061  0.5329  1.4727
14314TIP3    H242900   0.744   5.234   2.152  3.4729  0.2217  0.2827
14315TIP3   OH242901   3.162   5.999   5.071 -0.2291 -0.5138  0.4992
14315TIP3    H142902   3.230   5.932   5.072 -1.2669 -1.7455 -2.3599
14315TIP3    H242903   3.082   5.952   5.047 -1.4920  1.3809  0.7335
14316TIP3   OH242904   7.650   4.181   0.954 -0.6084 -0.0014  0.1465
14316TIP3    H142905   7.586   4.141   0.895 -0.9082  0.5157  0.1163
14316TIP3    H242906   7.732   4.136   0.934 -0.7384  0.0644 -0.5659
14317TIP3   OH242907   1.913   7.134   6.518  0.4106 -0.4117  0.3215
14317TIP3    H142908   1.938   7.222   6.546 -0.4817  0.5135 -1.5876
14317TIP3    H242909   1.986   7.103   6.464  0.8056 -0.9470  1.1411
14318TIP3   OH242910   3.659   5.824   1.560  0.1828 -0.0198  0.1079
14318TIP3    H142911   3.649   5.916   1.534  2.5114  0.4163  0.5183
14318TIP3    H242912   3.633   5.823   1.652 -1.1740 -0.0896 -0.2554
14319TIP3   OH242913   0.847   4.926   3.727  0.2554  0.5520  0.8224
14319TIP3    H142914   0.779   4.866   3.758  0.8475 -0.5011  0.1352
14319TIP3    H242915   0.929   4.879   3.741  0.7487  1.3093  0.5060
14320TIP3   OH242916   6.958   4.038   1.235 -0.0874 -0.3435 -0.5296
14320TIP3    H142917   6.898   4.102   1.197 -0.1810 -0.3746 -0.4353
14320TIP3    H242918   6.982   3.981   1.161  0.2676  0.0096 -0.6856
14321TIP3   OH242919   5.448   5.355   4.833  0.0580  0.3745 -0.5028
14321TIP3    H142920   5.381   5.385   4.894 -0.8089  0.6824 -1.5952
14321TIP3    H242921   5.522   5.415   4.848  0.6249 -0.7185  1.5836
14322TIP3   OH242922   7.648   6.581   0.470 -0.0952  0.0331 -0.2138
14322TIP3    H142923   7.733   6.550   0.440 -0.7804 -1.0517 -1.1611
14322TIP3    H242924   7.626   6.525   0.545  0.4573  0.9842  0.6690
14323TIP3   OH242925   3.148   4.367   6.097  0.0817  0.0897  0.4767
14323TIP3    H142926   3.102   4.450   6.088 -2.0663 -1.1939 -1.1899
14323TIP3    H242927   3.102   4.321   6.167  1.2144  0.2000  1.3404
14324TIP3   OH242928   1.029   6.062   5.097 -0.2964 -0.6243 -0.1653
14324TIP3    H142929   1.013   5.967   5.102  0.7188 -0.8527 -1.1036
14324TIP3    H242930   1.010   6.085   5.006 -0.5454  0.0822  0.0610
14325TIP3   OH242931   2.063   2.001   4.472 -0.0761 -0.3260 -0.1120
14325TIP3    H142932   2.099   2.062   4.536 -1.7821 -0.6400  1.2209
14325TIP3    H242933   1.981   2.041   4.443 -0.2932 -1.1055 -0.6252
14326TIP3   OH242934   7.613   5.083   1.437  0.3559 -0.2627 -0.2341
14326TIP3    H142935   7.538   5.102   1.381  0.2460  0.6586  0.2238
14326TIP3    H242936   7.686   5.129   1.396  0.2629  0.4688  0.3984
14327TIP3   OH242937   6.219   4.792   2.370 -0.3143 -0.4040 -0.1167
14327TIP3    H142938   6.231   4.827   2.458 -0.0061 -0.5078 -0.1175
14327TIP3    H242939   6.248   4.701   2.376  0.5545 -0.1626 -0.5405
14328TIP3   OH242940   5.786   7.817   3.847 -0.1923  0.4675 -0.1465
14328TIP3    H142941   5.828   7.794   3.765  1.0439  0.5464  0.4495
14328TIP3    H242942   5.838   7.773   3.915 -1.8971 -0.6025  0.5357
14329TIP3   OH242943   4.080   4.211   4.913  0.3966  0.4545 -0.1942
14329TIP3    H142944   4.054   4.193   4.823  0.8862 -0.7256 -0.1195
14329TIP3    H242945   4.061   4.304   4.925 -1.9417  0.0989 -0.7317
14330TIP3   OH242946   8.129   3.746   5.428 -0.4088  0.2308 -0.4393
14330TIP3    H142947   8.084   3.821   5.466  0.8857  0.6411  0.3532
14330TIP3    H242948   8.180   3.709   5.500  0.1224 -0.5146 -1.1657
14331TIP3   OH242949   1.645   3.850   4.493 -0.2755 -0.2065  0.2507
14331TIP3    H142950   1.605   3.879   4.575 -0.4768 -0.7579  0.3476
14331TIP3    H242951   1.739   3.850   4.512 -0.0902  2.2421 -0.3398
14332TIP3   OH242952   0.311   2.946   0.500 -0.5661 -0.0657 -0.5550
14332TIP3    H142953   0.378   2.991   0.448 -1.7376  1.0034 -1.2125
14332TIP3    H242954   0.278   2.878   0.442 -0.6783  0.0146 -0.5876
14333TIP3   OH242955   4.084   2.559   0.493  0.1369  0.2990 -0.4944
14333TIP3    H142956   4.050   2.626   0.552  0.6151 -0.8638  1.1715
14333TIP3    H242957   4.177   2.580   0.484  0.3780 -0.3829  0.3790
14334TIP3   OH242958   7.854   2.467   1.908 -0.3116  0.4008 -0.3638
14334TIP3    H142959   7.914   2.481   1.982 -0.3235 -1.5885  0.0729
14334TIP3    H242960   7.799   2.545   1.908 -0.1686  0.5668  1.6032
14335TIP3   OH242961   0.095   0.150   4.710  0.3332 -0.0282 -0.5485
14335TIP3    H142962   0.069   0.242   4.715 -0.4051 -0.2903  1.4836
14335TIP3    H242963   0.185   0.149   4.741  0.1719 -0.0319 -0.0662
14336TIP3   OH242964   6.754   7.811   1.480  0.4573  0.7231 -0.6099
14336TIP3    H142965   6.683   7.749   1.464 -0.3270  1.9781 -2.1890
14336TIP3    H242966   6.715   7.897   1.468  1.8308  1.5193  0.2872
14337TIP3   OH242967   5.821   1.179   5.490  0.1702  0.2709 -0.3371
14337TIP3    H142968   5.886   1.202   5.423  1.2550 -0.7938  0.3032
14337TIP3    H242969   5.772   1.260   5.505  2.6561  1.7152  0.5576
14338TIP3   OH242970   0.812   7.229   6.053  0.1862  0.2133 -0.6848
14338TIP3    H142971   0.835   7.259   5.966  1.9373 -0.1992 -0.4026
14338TIP3    H242972   0.896   7.222   6.099 -0.7152  0.9060  1.1971
14339TIP3   OH242973   5.811   4.172   2.059  0.0514  0.4909  0.2549
14339TIP3    H142974   5.889   4.129   2.025  0.2490  0.9896  0.0721
14339TIP3    H242975   5.837   4.207   2.144 -0.2621 -0.2011  0.6502
14340TIP3   OH242976   1.794   0.396   0.820 -0.2858 -0.1658  0.0366
14340TIP3    H142977   1.745   0.455   0.763 -1.2789  0.3288  1.3526
14340TIP3    H242978   1.763   0.416   0.909  0.6672 -1.4177  0.6947
14341TIP3   OH242979   1.205   7.077   2.795  0.5356  0.4499 -0.4758
14341TIP3    H142980   1.217   7.152   2.853  0.1408  1.5694 -1.7868
14341TIP3    H242981   1.263   7.094   2.721 -0.5031  0.1227 -1.3955
14342TIP3   OH242982   4.326   2.012   4.561 -0.0307 -0.6613 -0.6664
14342TIP3    H142983   4.408   2.042   4.601 -1.3790  0.4723  1.4878
14342TIP3    H242984   4.339   1.918   4.546  2.0025 -0.3052 -1.3458
14343TIP3   OH242985   5.835   5.557   0.837  0.4268 -0.7864 -0.5172
14343TIP3    H142986   5.892   5.485   0.863  0.6125 -0.9084 -1.2371
14343TIP3    H242987   5.843   5.561   0.742  0.4705  0.2254 -0.4867
14344TIP3   OH242988   1.026   1.098   3.869  0.5413 -0.4580 -0.1062
14344TIP3    H142989   0.968   1.109   3.945  1.2998  0.7145  0.3364
14344TIP3    H242990   0.993   1.020   3.825  0.5678 -1.6520  1.8670
14345TIP3   OH242991   4.973   1.396   5.529  0.1872  0.2639  0.4526
14345TIP3    H142992   4.920   1.318   5.508 -0.8779  1.1687 -0.3488
14345TIP3    H242993   4.908   1.465   5.545  1.1135  1.4076 -0.5293
14346TIP3   OH242994   2.575   4.545   4.077 -0.3703 -0.2414  0.1157
14346TIP3    H142995   2.582   4.480   4.146  0.9644  1.0236  1.2476
14346TIP3    H242996   2.656   4.535   4.026 -0.3912  0.1836 -0.0109
14347TIP3   OH242997   7.457   6.314   2.581  0.2905 -0.2043  0.7058
14347TIP3    H142998   7.505   6.388   2.543 -1.4963  0.3564 -0.5761
14347TIP3    H242999   7.387   6.354   2.631 -2.2248 -0.8884 -1.9793
14348TIP3   OH243000   8.301   6.760   4.956 -0.3022 -0.0684 -0.8224
14348TIP3    H143001   8.387   6.730   4.986 -0.4602  1.4917  1.3850
14348TIP3    H243002   8.242   6.739   5.028 -1.2724  1.2390 -1.2057
14349TIP3   OH243003   4.779   6.132   6.798  0.4184  0.0370 -0.2961
14349TIP3    H143004   4.748   6.056   6.747 -1.3361 -0.1651  0.9652
14349TIP3    H243005   4.771   6.206   6.738  0.4552 -0.5060 -0.9875
14350TIP3   OH243006   1.400   3.285   3.881 -0.6208  0.5492  0.3110
14350TIP3    H143007   1.373   3.199   3.851  0.4063  0.6361 -0.9919
14350TIP3    H243008   1.495   3.287   3.865 -0.0170  0.7821  3.2618
14351TIP3   OH243009   5.114   3.367   3.901  0.2260 -0.1504  0.4592
14351TIP3    H143010   5.107   3.359   3.996  0.6387  1.0722  0.6079
14351TIP3    H243011   5.130   3.277   3.871 -0.9110 -0.7229  1.4364
14352TIP3   OH243012   1.335   5.157   4.971  0.1566 -0.0104 -0.7009
14352TIP3    H143013   1.262   5.191   5.022  0.1561  0.3398 -0.9307
14352TIP3    H243014   1.357   5.228   4.911  2.8558  1.2678  1.5551
14353TIP3   OH243015   6.345   6.363   1.062 -0.4415 -0.0933 -0.2513
14353TIP3    H143016   6.284   6.340   0.991 -1.7902  0.2727  0.7339
14353TIP3    H243017   6.288   6.385   1.136  0.8735  1.7101  0.2924
14354TIP3   OH243018   3.362   7.727   4.612 -0.7133 -0.4954 -0.2470
14354TIP3    H143019   3.451   7.717   4.645 -0.5050  0.7551 -0.3630
14354TIP3    H243020   3.356   7.819   4.586 -1.5666 -0.9173 -1.6631
14355TIP3   OH243021   4.552   4.844   5.468  0.0187  0.5130  0.3297
14355TIP3    H143022   4.621   4.822   5.406  0.8507 -0.1657  1.4512
14355TIP3    H243023   4.570   4.789   5.544 -2.1079 -0.1106  0.4488
14356TIP3   OH243024   5.698   1.903   4.452  0.3410 -0.0223 -0.5993
14356TIP3    H143025   5.693   1.843   4.527 -0.7792  0.7377 -0.0459
14356TIP3    H243026   5.666   1.851   4.378 -0.7795 -0.0870 -0.0896
14357TIP3   OH243027   6.032   2.944   6.235  0.5367  0.1076 -0.4489
14357TIP3    H143028   6.016   3.034   6.205 -1.2431 -0.2855 -0.7959
14357TIP3    H243029   5.974   2.932   6.310  0.1177 -0.9940 -0.9151
14358TIP3   OH243030   8.140   3.413   2.045 -0.3302  0.0487  0.3315
14358TIP3    H143031   8.049   3.422   2.071 -0.2731 -0.2868  0.6625
14358TIP3    H243032   8.152   3.478   1.976 -0.2785  1.5484  1.6897
14359TIP3   OH243033   6.200   1.738   4.885  0.7557  0.7426  0.6358
14359TIP3    H143034   6.157   1.730   4.969 -1.2733  1.3857 -0.2844
14359TIP3    H243035   6.287   1.773   4.905  1.1442 -1.1926  2.6047
14360TIP3   OH243036   7.219   0.217   1.612 -0.4541 -0.0216  0.3387
14360TIP3    H143037   7.231   0.174   1.697  2.4969 -0.2702 -0.0831
14360TIP3    H243038   7.178   0.301   1.633  1.7300  0.6669  2.2878
14361TIP3   OH243039   1.955   3.746   6.445  0.5533  0.3047  0.8116
14361TIP3    H143040   1.962   3.798   6.525 -1.0723 -0.2430  1.3516
14361TIP3    H243041   1.899   3.798   6.388 -0.4662 -0.4709  1.0714
14362TIP3   OH243042   5.905   0.783   4.641  0.2850  0.0073 -0.8371
14362TIP3    H143043   5.831   0.755   4.694  1.1732  1.9350  1.6116
14362TIP3    H243044   5.981   0.739   4.680  0.9507  1.3913 -0.5200
14363TIP3   OH243045   6.849   6.986   3.417 -0.1419 -0.0440 -0.3229
14363TIP3    H143046   6.938   6.952   3.421 -0.2793 -0.2905  2.5647
14363TIP3    H243047   6.794   6.912   3.442 -1.0221  0.5252 -0.5236
14364TIP3   OH243048   5.753   3.396   4.145 -0.3263 -0.1605  0.0510
14364TIP3    H143049   5.660   3.391   4.169 -0.4264 -2.8538 -0.5226
14364TIP3    H243050   5.799   3.355   4.218 -0.0148 -2.2906 -1.2490
14365TIP3   OH243051   4.136   2.137   0.205 -0.0763 -0.0121 -0.3832
14365TIP3    H143052   4.080   2.089   0.266  1.6214 -1.7555 -0.1047
14365TIP3    H243053   4.141   2.225   0.242 -0.2841 -0.6213  1.1900
14366TIP3   OH243054   1.383   4.287   4.633 -0.1739 -0.0412  0.0749
14366TIP3    H143055   1.431   4.368   4.650  0.7084 -0.8364  1.6142
14366TIP3    H243056   1.321   4.310   4.564  0.2117  1.8726  0.3022
14367TIP3   OH243057   5.134   2.246   3.458 -0.0599 -0.0879 -0.5646
14367TIP3    H143058   5.159   2.320   3.513  0.0668  0.1132 -0.8907
14367TIP3    H243059   5.189   2.255   3.380  1.0517 -1.3656  0.0207
14368TIP3   OH243060   3.337   5.913   2.654  0.0469  0.3720  0.6598
14368TIP3    H143061   3.348   5.889   2.562  1.4202  0.6442  0.7195
14368TIP3    H243062   3.355   6.007   2.656 -1.1275  0.6046  1.0484
14369TIP3   OH243063   4.641   5.822   2.236  0.5163  0.3101 -0.1812
14369TIP3    H143064   4.696   5.876   2.292 -1.2111  0.4128  1.5067
14369TIP3    H243065   4.579   5.884   2.198  0.3388 -0.0796 -0.5302
14370TIP3   OH243066   1.095   4.459   5.035 -0.1743 -0.1647  0.1497
14370TIP3    H143067   1.171   4.452   5.092 -0.6729 -0.4957  0.7845
14370TIP3    H243068   1.081   4.553   5.025 -1.2249 -0.0479  2.1623
14371TIP3   OH243069   7.292   6.368   3.470 -0.0439  1.0758 -0.5023
14371TIP3    H143070   7.269   6.367   3.377 -1.2159 -0.0240 -0.2373
14371TIP3    H243071   7.226   6.424   3.510  0.2296  1.2430 -0.2884
14372TIP3   OH243072   7.223   5.401   6.693 -0.2609  0.0207 -0.3158
14372TIP3    H143073   7.197   5.317   6.654  0.0962 -0.1565 -0.1750
14372TIP3    H243074   7.313   5.387   6.722 -0.0336  0.6179 -0.7379
14373TIP3   OH243075   5.159   1.939   1.534 -0.3318 -0.2111 -0.1573
14373TIP3    H143076   5.073   1.936   1.575 -0.7060 -0.8514 -0.9647
14373TIP3    H243077   5.217   1.974   1.602 -1.3100  0.7000  0.2311
14374TIP3   OH243078   6.907   0.644   6.241  0.3335  1.1218  0.8284
14374TIP3    H143079   6.899   0.610   6.152  2.0229 -1.3811  1.5128
14374TIP3    H243080   6.817   0.659   6.270 -0.3426  0.0998 -0.6508
14375TIP3   OH243081   6.607   6.583   1.379  0.2128 -0.3990  0.3207
14375TIP3    H143082   6.569   6.589   1.466 -2.0456  1.4009 -0.6931
14375TIP3    H243083   6.662   6.661   1.371 -0.1052 -0.2133 -0.0855
14376TIP3   OH243084   0.257   4.232   2.023 -0.2450  0.0027  0.1228
14376TIP3    H143085   0.299   4.307   2.066 -1.3037  0.5541  0.2354
14376TIP3    H243086   0.177   4.269   1.984 -0.8576 -1.0930  0.3028
14377TIP3   OH243087   7.684   6.927   6.582  0.6866  0.4066  0.2512
14377TIP3    H143088   7.680   6.833   6.600  0.5765  0.5368  0.9477
14377TIP3    H243089   7.767   6.939   6.536  0.5634 -0.0682 -0.1051
14378TIP3   OH243090   4.957   1.254   6.426  0.0308 -0.0431 -0.9323
14378TIP3    H143091   4.886   1.306   6.389  0.4956 -0.1726 -2.0304
14378TIP3    H243092   4.972   1.184   6.363  0.9598 -0.1736 -0.5881
14379TIP3   OH243093   7.518   7.823   1.734  0.3575 -0.1322 -0.2362
14379TIP3    H143094   7.561   7.896   1.778 -0.4408 -0.8005  1.7691
14379TIP3    H243095   7.520   7.752   1.798 -2.6708 -0.5449 -0.4298
14380TIP3   OH243096   4.446   1.476   1.626  0.3792 -0.1603  0.4297
14380TIP3    H143097   4.439   1.478   1.530  1.5683  1.8601  0.3359
14380TIP3    H243098   4.453   1.382   1.647  1.1357 -0.6013 -1.5588
14381TIP3   OH243099   0.036   5.062   2.998  0.0679 -1.0283  0.5838
14381TIP3    H143100  -0.007   5.121   3.060  2.2562  0.9147  0.4002
14381TIP3    H243101  -0.006   5.080   2.914  0.2982 -0.1765  0.6483
14382TIP3   OH243102   4.539   5.630   0.103 -0.6580  0.3288  0.6610
14382TIP3    H143103   4.494   5.567   0.047 -2.0417  2.5053 -0.8292
14382TIP3    H243104   4.478   5.704   0.110  1.6663  2.3741  0.6822
14383TIP3   OH243105   8.246   3.357   5.909  0.1488  0.3529 -0.3117
14383TIP3    H143106   8.265   3.322   5.823 -2.0387  1.2477 -1.2371
14383TIP3    H243107   8.151   3.350   5.917  0.2935  0.2562  2.0615
14384TIP3   OH243108   7.723   5.209   4.827  0.9665 -0.3088 -0.2431
14384TIP3    H143109   7.695   5.179   4.914  1.0320 -1.2586 -0.5428
14384TIP3    H243110   7.780   5.284   4.845 -0.5041  0.7065  0.4450
14385TIP3   OH243111   2.963   5.513   1.155 -0.2944 -0.0397 -0.2220
14385TIP3    H143112   2.976   5.592   1.208 -0.3644 -0.6311  0.6871
14385TIP3    H243113   2.975   5.543   1.065 -1.9320  1.3599 -0.0306
14386TIP3   OH243114   0.265   4.226   6.721 -0.0806  0.0563 -0.0677
14386TIP3    H143115   0.278   4.272   6.638  0.7369 -0.9477 -0.5123
14386TIP3    H243116   0.170   4.221   6.731 -0.2029  1.7699 -0.0292
14387TIP3   OH243117   5.284   2.162   2.999 -0.4724  0.2234 -0.0062
14387TIP3    H143118   5.236   2.139   2.920  0.6432 -0.6002 -0.4748
14387TIP3    H243119   5.370   2.191   2.967 -1.0601  3.1060  0.6843
14388TIP3   OH243120   2.180   2.625   2.551  0.1695 -0.7248  0.5041
14388TIP3    H143121   2.155   2.644   2.641  1.6845  0.8280  0.6476
14388TIP3    H243122   2.220   2.538   2.554 -0.0856 -0.8189  1.2484
14389TIP3   OH243123   3.857   1.535   3.206 -0.2212  0.1639  0.0027
14389TIP3    H143124   3.827   1.512   3.293 -0.3985  1.5703  0.3267
14389TIP3    H243125   3.886   1.451   3.168 -2.3049 -0.8623  0.5277
14390TIP3   OH243126   3.114   6.142   3.277 -0.1974  0.1402 -0.1963
14390TIP3    H143127   3.024   6.135   3.245  0.0331  0.3569 -0.8973
14390TIP3    H243128   3.123   6.235   3.301 -0.9624 -0.3637  2.3068
14391TIP3   OH243129   2.627   7.370   1.504 -0.1151  0.0864 -0.0870
14391TIP3    H143130   2.583   7.453   1.520 -0.2295  0.2444 -1.1522
14391TIP3    H243131   2.644   7.369   1.409 -0.1674 -1.1226 -0.1030
14392TIP3   OH243132   4.769   6.631   2.438  0.0577  0.9660 -0.5785
14392TIP3    H143133   4.840   6.667   2.492 -0.0362 -0.5097  0.5938
14392TIP3    H243134   4.806   6.625   2.350  1.7863 -0.7372  0.2023
14393TIP3   OH243135   1.649   7.564   6.522 -0.0316 -0.2213 -0.2896
14393TIP3    H143136   1.687   7.535   6.605 -0.2471  1.4399  0.4347
14393TIP3    H243137   1.647   7.485   6.468  1.4047 -1.0545  0.7842
14394TIP3   OH243138   8.078   0.111   2.006 -0.3889 -0.3182  0.6477
14394TIP3    H143139   8.142   0.039   2.011  0.2835  0.0706 -1.5271
14394TIP3    H243140   7.994   0.067   1.991 -0.1091 -0.7052  0.1836
14395TIP3   OH243141   7.139   7.342   3.136  0.1980 -0.0954  0.3915
14395TIP3    H143142   7.087   7.414   3.170 -0.1634 -1.3505  2.6415
14395TIP3    H243143   7.133   7.352   3.041  0.7843  3.2324  0.5849
14396TIP3   OH243144   2.564   1.844   3.023 -0.3852  0.2852 -0.1875
14396TIP3    H143145   2.508   1.900   2.970  0.9679  1.0738 -0.8470
14396TIP3    H243146   2.651   1.884   3.016 -0.1542  0.5947  2.8129
14397TIP3   OH243147   1.042   3.923   4.248 -0.5083 -1.1950 -0.1864
14397TIP3    H143148   1.018   3.853   4.308  1.2609  0.5935  2.8416
14397TIP3    H243149   1.093   3.879   4.180  0.2540 -2.9312  1.4162
14398TIP3   OH243150   3.926   0.536   1.790 -0.4045 -0.5591 -0.1437
14398TIP3    H143151   3.946   0.629   1.793 -2.1798  0.2453 -4.7630
14398TIP3    H243152   3.845   0.527   1.840 -0.3041  0.4069  0.1996
14399TIP3   OH243153   3.409   3.949   3.178 -0.0234 -0.7935 -0.4419
14399TIP3    H143154   3.332   4.005   3.193  0.2393 -0.5240 -0.0874
14399TIP3    H243155   3.372   3.865   3.151 -0.5195 -1.1185  1.1007
14400TIP3   OH243156   5.827   3.331   0.440 -0.2184 -0.0870 -0.0588
14400TIP3    H143157   5.753   3.275   0.462 -1.6452  1.7938  0.2515
14400TIP3    H243158   5.897   3.303   0.499 -1.5366 -0.2101  1.5229
14401TIP3   OH243159   8.235   2.315   5.767 -0.1222  0.8893  0.6320
14401TIP3    H143160   8.263   2.244   5.709 -1.3918  0.5386  0.4145
14401TIP3    H243161   8.254   2.283   5.855 -1.2063  0.0053  0.5691
14402TIP3   OH243162   7.177   3.044   2.628 -0.1180  0.1257 -0.4746
14402TIP3    H143163   7.222   3.080   2.552  0.0364 -1.4135 -1.1341
14402TIP3    H243164   7.137   3.121   2.670 -0.7792  0.9200 -2.4667
14403TIP3   OH243165   1.742   6.560   3.288 -0.0805  0.5353 -0.2527
14403TIP3    H143166   1.776   6.628   3.230  1.0088 -1.0145 -1.5146
14403TIP3    H243167   1.782   6.479   3.257 -2.3183 -0.9163  0.3681
14404TIP3   OH243168   3.663   5.937   2.111 -0.4807 -0.0876 -0.0454
14404TIP3    H143169   3.699   6.024   2.128 -2.7473  0.6252  1.5399
14404TIP3    H243170   3.705   5.880   2.176  1.2621 -0.3162 -1.3055
14405TIP3   OH243171   4.428   0.595   5.679 -0.2912 -0.5954 -0.3120
14405TIP3    H143172   4.444   0.504   5.702 -0.2421 -0.5726 -0.2574
14405TIP3    H243173   4.472   0.646   5.746  1.9368 -0.4860 -1.7524
14406TIP3   OH243174   5.969   6.053   0.577  0.4186  0.2969  0.3787
14406TIP3    H143175   6.012   6.134   0.546 -0.5594  0.7087  0.0678
14406TIP3    H243176   5.909   6.083   0.646 -0.6076 -0.0336 -0.3551
14407TIP3   OH243177   3.997   2.088   4.973  0.5537 -0.1273 -0.7670
14407TIP3    H143178   3.931   2.121   4.912  0.3218  2.2668  0.6465
14407TIP3    H243179   4.068   2.153   4.970 -1.2754  2.7078  4.4700
14408TIP3   OH243180   0.598   1.342   0.764  1.0311 -0.0377  0.1603
14408TIP3    H143181   0.580   1.339   0.858  0.2313  1.5248  0.0946
14408TIP3    H243182   0.684   1.385   0.758  0.9341  0.1600  0.1719
14409TIP3   OH243183   0.226   4.960   0.876  0.0643  0.0613 -0.1375
14409TIP3    H143184   0.237   5.052   0.853 -0.4604 -0.2050 -1.5803
14409TIP3    H243185   0.261   4.912   0.802  0.7530 -0.9318  0.7959
14410TIP3   OH243186   4.650   6.102   1.753 -0.1396  0.0123  0.0284
14410TIP3    H143187   4.744   6.102   1.735  0.5311 -1.2659  2.9392
14410TIP3    H243188   4.628   6.194   1.768  0.6788  0.2844 -0.3728
14411TIP3   OH243189   6.149   7.607   5.149  0.2826 -0.0004 -0.1351
14411TIP3    H143190   6.104   7.531   5.114 -0.3181 -0.3598  1.3388
14411TIP3    H243191   6.136   7.676   5.084  0.2955 -0.9680 -1.1861
14412TIP3   OH243192   1.243   6.817   6.666 -0.5455 -0.5066  0.1256
14412TIP3    H143193   1.227   6.782   6.753  1.2612  0.3103  0.8418
14412TIP3    H243194   1.287   6.746   6.619 -1.1698 -0.8138  0.0034
14413TIP3   OH243195   6.678   7.740   0.437 -0.2190  0.9132 -0.3327
14413TIP3    H143196   6.703   7.832   0.427 -0.8779  1.0344 -0.8698
14413TIP3    H243197   6.586   7.742   0.463 -0.1940  0.4023 -0.1890
14414TIP3   OH243198   4.798   1.616   5.581 -0.6199 -0.0598 -0.0145
14414TIP3    H143199   4.792   1.706   5.550  1.5970  0.2275  0.2560
14414TIP3    H243200   4.854   1.620   5.658  0.6048 -1.8179 -0.7356
14415TIP3   OH243201   2.870   4.216   5.261 -0.4476 -0.0935  0.6087
14415TIP3    H143202   2.867   4.155   5.187 -0.3973 -1.1992  1.4911
14415TIP3    H243203   2.950   4.267   5.246 -0.2251 -0.5759  0.1085
14416TIP3   OH243204   1.378   6.821   2.580 -0.5788  0.0352  0.2204
14416TIP3    H143205   1.457   6.807   2.632 -0.8841  0.5268  0.8356
14416TIP3    H243206   1.313   6.762   2.619 -0.6115 -0.1246 -0.0713
14417TIP3   OH243207   0.289   6.469   0.103  0.5664  0.4886  0.4873
14417TIP3    H143208   0.347   6.457   0.027  0.5360 -0.2901  0.5713
14417TIP3    H243209   0.322   6.406   0.168 -0.8395 -0.5446  0.2480
14418TIP3   OH243210   2.032   3.473   6.319  0.0245  0.3952 -0.5052
14418TIP3    H143211   1.937   3.462   6.317  0.2236 -1.9393  0.0517
14418TIP3    H243212   2.045   3.568   6.317 -2.2227  0.7950 -3.3056
14419TIP3   OH243213   4.334   1.653   3.809  0.3795  0.1478  0.6891
14419TIP3    H143214   4.253   1.700   3.830  0.5232  0.3039  0.9000
14419TIP3    H243215   4.389   1.666   3.886  0.6796  0.2097  0.4635
14420TIP3   OH243216   8.047   1.034   2.408 -0.1146  0.0795 -0.0024
14420TIP3    H143217   8.118   0.981   2.445 -1.2793 -1.0672  0.6709
14420TIP3    H243218   8.025   0.991   2.326  0.1075  0.5712 -0.3239
14421TIP3   OH243219   5.645   4.105   4.798 -0.0143  0.4647 -0.5657
14421TIP3    H143220   5.717   4.068   4.849 -1.5746 -2.0252  0.0441
14421TIP3    H243221   5.614   4.179   4.851  0.7891  0.2614  0.2177
14422TIP3   OH243222   6.583   7.377   6.280  0.5615  0.0086  0.0833
14422TIP3    H143223   6.647   7.306   6.272 -0.0597 -0.6909  1.0945
14422TIP3    H243224   6.569   7.407   6.190  1.9770 -0.1082 -0.1900
14423TIP3   OH243225   7.259   0.709   5.427  0.2497 -0.0592 -0.1480
14423TIP3    H143226   7.178   0.749   5.459  0.9074  1.2071 -0.0145
14423TIP3    H243227   7.244   0.697   5.333 -0.2229 -0.1333 -0.0631
14424TIP3   OH243228   3.192   5.746   2.276 -0.0383  0.5622 -0.0727
14424TIP3    H143229   3.181   5.727   2.183  0.3585 -0.3129  0.0526
14424TIP3    H243230   3.246   5.825   2.278  0.1772  0.4297 -0.5787
14425TIP3   OH243231   5.029   5.481   6.106  0.0668  0.5694 -0.9951
14425TIP3    H143232   5.096   5.487   6.174 -0.5317  1.5683 -0.4798
14425TIP3    H243233   5.063   5.535   6.035  0.8366 -0.7157 -1.6543
14426TIP3   OH243234   0.098   2.465   2.475 -0.2245 -0.3762  0.7095
14426TIP3    H143235   0.003   2.462   2.465 -0.3895  2.2981  0.6880
14426TIP3    H243236   0.111   2.504   2.562  0.8204  0.0266  0.3869
14427TIP3   OH243237   6.550   1.148   5.545 -0.1185 -0.2350  0.2835
14427TIP3    H143238   6.625   1.200   5.573  1.1502 -1.8380  0.0120
14427TIP3    H243239   6.476   1.183   5.595  0.6909  1.7065  0.1935
14428TIP3   OH243240   3.896   1.895   2.182  0.0848  0.1988 -0.5996
14428TIP3    H143241   3.987   1.876   2.205  0.5244  1.6571 -0.9896
14428TIP3    H243242   3.896   1.989   2.160 -1.6538  0.4112  0.1023
14429TIP3   OH243243   7.362   7.726   3.217  0.4193 -0.0467 -0.7367
14429TIP3    H143244   7.284   7.681   3.251 -0.5522  0.9117 -1.6134
14429TIP3    H243245   7.328   7.783   3.148  1.1529  3.8181  1.7714
14430TIP3   OH243246   1.291   3.611   2.948  0.2301  0.2793 -0.3299
14430TIP3    H143247   1.291   3.575   2.860  2.3658 -0.8281  0.0511
14430TIP3    H243248   1.384   3.618   2.971 -0.1856 -1.8026  2.6891
14431TIP3   OH243249   1.563   6.985   0.267  0.1540  0.2243  0.5925
14431TIP3    H143250   1.631   7.042   0.304 -0.4483  0.7598  0.8975
14431TIP3    H243251   1.611   6.909   0.234  0.7894  0.0556  1.8473
14432TIP3   OH243252   1.662   2.949   5.746 -0.0103 -0.2370 -0.5895
14432TIP3    H143253   1.750   2.983   5.761 -0.9927  1.6617  1.6279
14432TIP3    H243254   1.657   2.871   5.802  0.4871 -0.8518 -1.3766
14433TIP3   OH243255   0.044   7.013   6.447  0.0539  0.0375 -0.2761
14433TIP3    H143256   0.133   7.017   6.482  1.2226 -1.5054 -2.7939
14433TIP3    H243257   0.017   6.922   6.463 -0.4143  0.0463 -1.0041
14434TIP3   OH243258   5.087   1.713   5.549  0.0300 -0.0110  0.3204
14434TIP3    H143259   5.055   1.690   5.462  1.5568 -0.2942 -0.1857
14434TIP3    H243260   5.057   1.642   5.606 -4.4011  1.9994  0.9348
14435TIP3   OH243261   8.013   6.683   4.015 -0.4165  0.1522 -0.0752
14435TIP3    H143262   8.023   6.753   4.079 -0.0905  1.1526 -1.1687
14435TIP3    H243263   7.942   6.629   4.049 -0.4124  0.7858  0.9956
14436TIP3   OH243264   7.622   3.829   3.838  0.0863 -0.1726 -0.2040
14436TIP3    H143265   7.597   3.912   3.796 -0.2031 -0.4267 -0.5374
14436TIP3    H243266   7.698   3.800   3.788 -0.3171 -0.5239 -0.6220
14437TIP3   OH243267   6.193   1.290   2.819  0.3647 -0.6193  0.2051
14437TIP3    H143268   6.171   1.198   2.835  0.5532 -0.6812  0.1125
14437TIP3    H243269   6.121   1.339   2.858 -0.4575 -0.8379 -1.0015
14438TIP3   OH243270   3.020   7.019   3.365 -0.1747  0.4113 -0.8533
14438TIP3    H143271   2.924   7.022   3.371 -0.0885  2.1538  0.6728
14438TIP3    H243272   3.049   6.996   3.453  0.8207  0.6499 -1.1037
14439TIP3   OH243273   3.168   2.632   1.874 -0.5904 -0.8735 -0.4285
14439TIP3    H143274   3.222   2.698   1.916  1.1773 -0.6799 -2.8305
14439TIP3    H243275   3.121   2.679   1.805 -2.0592 -1.5123  0.0806
14440TIP3   OH243276   4.338   0.054   5.986  0.3036  0.2745 -0.0989
14440TIP3    H143277   4.324   0.114   6.060 -0.1377  0.7657 -0.5661
14440TIP3    H243278   4.397   0.101   5.928 -1.2773  0.9730 -1.2303
14441TIP3   OH243279   3.146   2.959   1.177  0.1055  0.2868  0.3812
14441TIP3    H143280   3.218   3.020   1.194 -1.1015  2.1012 -0.6605
14441TIP3    H243281   3.067   3.008   1.199 -1.0305 -0.1920 -2.2251
14442TIP3   OH243282   6.175   7.058   6.280  0.1290 -0.1782  0.2473
14442TIP3    H143283   6.239   6.988   6.267 -0.2589 -0.2256 -1.7493
14442TIP3    H243284   6.225   7.139   6.270 -0.0968 -0.2149 -1.5282
14443TIP3   OH243285   6.209   4.042   0.651  0.1310  0.4553 -0.1448
14443TIP3    H143286   6.139   3.979   0.637  0.3315  0.3216 -0.5902
14443TIP3    H243287   6.230   4.074   0.563  0.5748  0.5507 -0.0096
14444TIP3   OH243288   2.142   0.122   0.448  0.2055 -0.2675  0.6250
14444TIP3    H143289   2.174   0.199   0.402  0.4111 -0.5148  0.3475
14444TIP3    H243290   2.126   0.151   0.537  0.0307  0.1614  0.4549
14445TIP3   OH243291   3.735   1.783   5.766  0.2994  0.0635 -0.1313
14445TIP3    H143292   3.828   1.769   5.752  0.4096 -0.6055  1.0753
14445TIP3    H243293   3.725   1.878   5.773  0.9604  0.1160  0.1317
14446TIP3   OH243294   7.720   1.147   2.210  0.2125 -0.0711  0.0051
14446TIP3    H143295   7.672   1.167   2.130  0.2115  0.5607  0.1521
14446TIP3    H243296   7.662   1.177   2.280 -0.3306 -1.7511  0.3100
14447TIP3   OH243297   1.084   7.060   5.328 -0.1502 -0.0805  0.2493
14447TIP3    H143298   1.081   7.140   5.275  1.1163  0.1491  0.4974
14447TIP3    H243299   1.042   6.994   5.273 -0.8658  0.6623 -0.1174
14448TIP3   OH243300   8.255   3.109   4.898 -0.9639  0.7781  0.0126
14448TIP3    H143301   8.318   3.166   4.855  1.0492  0.7205  2.6643
14448TIP3    H243302   8.173   3.158   4.896 -0.3377  1.8544 -1.4928
14449TIP3   OH243303   8.075   7.688   5.964 -0.3020  0.3457  0.5177
14449TIP3    H143304   8.076   7.724   6.053  0.7425 -1.1527  1.1602
14449TIP3    H243305   7.984   7.663   5.950 -0.3349 -0.1457  1.4966
14450TIP3   OH243306   5.156   3.832   1.834  0.3402 -0.2830  0.6306
14450TIP3    H143307   5.127   3.757   1.885  0.8300 -0.2096  1.0288
14450TIP3    H243308   5.178   3.899   1.900  0.4737 -0.0014  0.3035
14451TIP3   OH243309   2.496   1.419   4.331 -0.1949  0.2141  0.2669
14451TIP3    H143310   2.536   1.341   4.371  0.2827  0.8778  1.1013
14451TIP3    H243311   2.408   1.391   4.307  0.4696 -1.0405 -0.8498
14452TIP3   OH243312   7.724   7.563   4.922  0.1002  0.0155 -0.2311
14452TIP3    H143313   7.810   7.530   4.948  0.3498  0.1617 -0.8693
14452TIP3    H243314   7.663   7.516   4.979  0.5219 -0.8492 -0.4692
14453TIP3   OH243315   0.686   0.902   1.424  0.2471  0.1063 -0.2227
14453TIP3    H143316   0.756   0.903   1.490 -1.6264 -2.5536  2.0623
14453TIP3    H243317   0.690   0.813   1.388 -0.9724  0.4193 -1.1597
14454TIP3   OH243318   0.828   6.446   0.072  0.1201 -0.6412  0.1692
14454TIP3    H143319   0.793   6.509   0.136  0.0860 -1.2677  0.7698
14454TIP3    H243320   0.764   6.448   0.000  1.2682  1.7288 -0.9394
14455TIP3   OH243321   7.352   5.097   6.784 -0.5270  0.5022  0.4350
14455TIP3    H143322   7.345   5.046   6.704  1.0111  0.2027  0.4618
14455TIP3    H243323   7.401   5.175   6.759 -2.0849  1.5740  0.5912
14456TIP3   OH243324   6.038   6.273   3.316 -0.0167 -0.4422  0.1891
14456TIP3    H143325   6.096   6.203   3.285  1.1720  0.1915  0.8942
14456TIP3    H243326   6.064   6.350   3.266 -1.9910 -0.6582 -1.3073
14457TIP3   OH243327   0.868   1.204   2.506 -0.1330 -0.4481  0.0657
14457TIP3    H143328   0.908   1.291   2.508  0.4585 -0.6517 -1.2752
14457TIP3    H243329   0.927   1.150   2.557  0.2786 -0.3399 -0.2833
14458TIP3   OH243330   0.828   6.652   5.118 -0.6209 -0.0193 -0.1973
14458TIP3    H143331   0.794   6.570   5.082 -1.9144  0.5346 -0.2770
14458TIP3    H243332   0.806   6.718   5.052  1.0913  0.3065 -0.5057
14459TIP3   OH243333   5.513   2.096   0.210 -0.1929  0.1581 -0.4794
14459TIP3    H143334   5.440   2.143   0.250  0.3583  0.9019 -0.3171
14459TIP3    H243335   5.549   2.158   0.146  0.8427  0.1536  0.0720
14460TIP3   OH243336   6.350   2.964   0.202 -0.5758  0.9082  0.1209
14460TIP3    H143337   6.328   2.877   0.169  0.6050  0.1104  1.3258
14460TIP3    H243338   6.275   3.018   0.179 -2.2067 -0.8502  1.0086
14461TIP3   OH243339   3.975   4.001   2.200  0.5887 -0.4070  0.1348
14461TIP3    H143340   3.912   4.067   2.230  0.6123 -0.0077 -0.6611
14461TIP3    H243341   4.060   4.039   2.219  0.6529  0.6116 -1.8772
14462TIP3   OH243342   3.171   4.133   4.309  0.3321 -0.0842 -0.4352
14462TIP3    H143343   3.148   4.191   4.381 -0.8310  1.1088 -1.7107
14462TIP3    H243344   3.165   4.045   4.346 -2.4477  0.3715  0.3763
14463TIP3   OH243345   3.266   2.745   5.672 -0.1319  0.2586  0.6529
14463TIP3    H143346   3.320   2.781   5.743  0.8357 -0.5737  0.3592
14463TIP3    H243347   3.215   2.676   5.713  0.9505 -0.7089  0.4273
14464TIP3   OH243348   5.379   5.503   0.155 -0.1577 -0.3940 -0.3060
14464TIP3    H143349   5.400   5.535   0.243 -0.5440 -2.9050  0.8063
14464TIP3    H243350   5.362   5.581   0.104  1.0843  1.2094  1.5888
14465TIP3   OH243351   0.125   2.996   4.341  0.5203  0.4232  0.4429
14465TIP3    H143352   0.188   3.036   4.401  0.5986  0.7133  0.1724
14465TIP3    H243353   0.142   3.038   4.257  0.8245 -0.4266  0.0727
14466TIP3   OH243354   2.061   7.081   2.947 -0.2471  0.5977  0.2456
14466TIP3    H143355   2.121   7.050   3.015 -1.8779  0.1418  1.5341
14466TIP3    H243356   2.069   7.017   2.877  0.6743  0.4935  0.4312
14467TIP3   OH243357   0.254   2.506   0.519 -0.2697 -0.1029 -0.1470
14467TIP3    H143358   0.306   2.455   0.581  1.3756 -0.5595 -1.7895
14467TIP3    H243359   0.230   2.443   0.451 -0.4607  0.7418 -0.8851
14468TIP3   OH243360   2.172   0.328   1.619 -0.5906 -0.2032  0.2264
14468TIP3    H143361   2.264   0.305   1.629 -0.6329  0.1217  1.6484
14468TIP3    H243362   2.130   0.297   1.700 -1.8273 -0.7610 -0.5903
14469TIP3   OH243363   3.646   6.371   5.104 -0.2426  0.0773  0.6706
14469TIP3    H143364   3.617   6.318   5.178  0.6862  0.7042  1.5139
14469TIP3    H243365   3.615   6.460   5.124  1.5589  0.6387  1.2834
14470TIP3   OH243366   4.255   6.418   4.784  0.0410 -0.0655 -0.2213
14470TIP3    H143367   4.221   6.475   4.853 -2.4539 -1.3370 -0.2834
14470TIP3    H243368   4.188   6.351   4.773  2.2826 -2.3635 -0.9889
14471TIP3   OH243369   1.988   7.335   2.930  0.0358 -0.3576  0.0187
14471TIP3    H143370   1.920   7.371   2.987  0.4877  1.3061 -0.4449
14471TIP3    H243371   2.005   7.248   2.966 -0.9742 -0.0619  1.2983
14472TIP3   OH243372   5.146   6.692   0.611 -0.6228  0.0455 -0.2059
14472TIP3    H143373   5.222   6.742   0.582 -0.7651  0.3396 -0.0847
14472TIP3    H243374   5.130   6.722   0.701  0.0007 -1.0779  0.3023
14473TIP3   OH243375   6.718   0.862   0.022  0.0359  0.0003 -0.1583
14473TIP3    H143376   6.751   0.800   0.087 -1.6947  0.3700  1.1379
14473TIP3    H243377   6.633   0.826  -0.004  0.1396  0.5322 -1.2979
14474TIP3   OH243378   1.337   5.831   2.428  0.7552 -0.0963 -0.0291
14474TIP3    H143379   1.418   5.805   2.383  1.3843 -0.4420  1.2744
14474TIP3    H243380   1.340   5.927   2.428  0.8202 -0.0944 -0.5899
14475TIP3   OH243381   5.748   2.723   4.836 -0.1794  0.0813 -0.5895
14475TIP3    H143382   5.722   2.766   4.918 -1.6057 -2.1738  0.2016
14475TIP3    H243383   5.728   2.788   4.768 -3.4516  0.2916  0.4291
14476TIP3   OH243384   0.059   0.107   2.278 -0.3772  0.1517 -0.1581
14476TIP3    H143385   0.043   0.030   2.224  0.0618  0.0904 -0.1968
14476TIP3    H243386   0.092   0.072   2.361 -0.8669  0.2557  0.0858
14477TIP3   OH243387   4.683   2.370   1.805  0.4758  0.0536  0.0435
14477TIP3    H143388   4.749   2.304   1.783 -1.9299 -2.4959 -0.0820
14477TIP3    H243389   4.636   2.333   1.880 -1.4810  1.2286 -0.5289
14478TIP3   OH243390   3.440   2.392   3.913  0.2273 -0.1524 -0.2858
14478TIP3    H143391   3.398   2.470   3.875  1.0243  0.2859 -0.2841
14478TIP3    H243392   3.390   2.319   3.877  0.1336  0.3120 -1.1341
14479TIP3   OH243393   4.407   0.769   1.192  0.1488  0.2798  0.5048
14479TIP3    H143394   4.467   0.702   1.157  0.7126  1.0374 -0.0167
14479TIP3    H243395   4.445   0.793   1.277  0.4516  0.5713  0.2916
14480TIP3   OH243396   7.182   5.252   2.457 -0.0615 -0.1503 -0.1682
14480TIP3    H143397   7.122   5.299   2.515 -0.2589 -0.9436  0.2891
14480TIP3    H243398   7.154   5.161   2.463  1.1892 -0.5424  0.0527
14481TIP3   OH243399   7.941   2.800   2.186 -0.0246  0.8414 -0.1910
14481TIP3    H143400   7.867   2.757   2.228  0.8611 -0.5186  0.0399
14481TIP3    H243401   7.902   2.874   2.139 -1.4834  0.3310  0.1553
14482TIP3   OH243402   6.263   2.268   5.551  0.2044  0.8455  0.6831
14482TIP3    H143403   6.258   2.362   5.536  1.0518  0.8109  0.0905
14482TIP3    H243404   6.318   2.235   5.480  1.6613  0.1903  2.0318
14483TIP3   OH243405   0.997   3.944   0.237 -0.3568  0.4768 -0.0047
14483TIP3    H143406   0.934   4.013   0.260 -0.6588  0.1302  0.2201
14483TIP3    H243407   1.059   3.943   0.310 -1.4938 -0.8363  0.9879
14484TIP3   OH243408   7.833   4.557   1.555 -0.4082  0.0530 -0.1820
14484TIP3    H143409   7.870   4.473   1.526  1.7947  0.1808  1.9424
14484TIP3    H243410   7.759   4.533   1.610 -0.5664 -0.4309 -0.5984
14485TIP3   OH243411   1.131   7.699   1.392  0.1336  0.6897  0.3297
14485TIP3    H143412   1.218   7.716   1.356  0.9161 -0.9399  1.3659
14485TIP3    H243413   1.092   7.786   1.403  1.5297  1.4265 -0.3551
14486TIP3   OH243414   1.246   3.423   3.622  0.1631  0.4904  0.6992
14486TIP3    H143415   1.323   3.391   3.575 -0.1865  0.2483  0.2914
14486TIP3    H243416   1.281   3.486   3.684  0.5489  1.3570 -0.3754
14487TIP3   OH243417   5.666   0.313   5.173  0.0294  0.2844  0.2769
14487TIP3    H143418   5.610   0.285   5.101  0.7062  0.1122 -0.1951
14487TIP3    H243419   5.622   0.390   5.209 -0.7050 -0.0750  0.1695
14488TIP3   OH243420   3.778   3.883   4.811 -0.7439  0.0662 -0.1449
14488TIP3    H143421   3.748   3.809   4.864  0.4036  0.2798  0.8223
14488TIP3    H243422   3.854   3.849   4.764 -0.5758  0.4639 -0.1613
14489TIP3   OH243423   0.909   1.921   0.763  0.0588  0.0596  0.4089
14489TIP3    H143424   0.973   1.922   0.692 -0.1697 -0.4119  0.1936
14489TIP3    H243425   0.951   1.869   0.832  0.0729  0.0896  0.4230
14490TIP3   OH243426   2.232   2.352   2.519  0.0187 -0.3179  0.0366
14490TIP3    H143427   2.183   2.378   2.441 -1.5568 -1.5842  0.5631
14490TIP3    H243428   2.310   2.309   2.485  0.2173  0.6855 -0.8197
14491TIP3   OH243429   0.292   7.798   4.886 -0.3155 -0.1556  0.3071
14491TIP3    H143430   0.303   7.843   4.803  0.0963  0.0350  0.4649
14491TIP3    H243431   0.200   7.769   4.886 -0.0824 -0.9254 -0.5972
14492TIP3   OH243432   6.032   6.769   6.737 -0.4304 -0.2760 -0.0899
14492TIP3    H143433   6.091   6.843   6.754 -1.8006  0.9674 -0.5920
14492TIP3    H243434   5.944   6.805   6.748 -1.1651 -1.5165 -1.5926
14493TIP3   OH243435   4.828   3.334   0.046  0.1059 -0.3845  0.1448
14493TIP3    H143436   4.848   3.276  -0.028  0.0152 -1.6434  1.0859
14493TIP3    H243437   4.891   3.406   0.037  0.8390 -1.0848 -0.5178
14494TIP3   OH243438   1.456   5.354   5.858  0.5418  0.0622 -0.1141
14494TIP3    H143439   1.449   5.391   5.946  1.3411 -0.5056  0.1940
14494TIP3    H243440   1.372   5.375   5.817  0.3057  0.6634  0.6499
14495TIP3   OH243441   4.607   7.314   5.963 -0.0099  0.1764 -0.2128
14495TIP3    H143442   4.544   7.281   6.028 -0.8572  0.5427 -0.8223
14495TIP3    H243443   4.635   7.399   5.999  1.1239 -0.5499  0.6812
14496TIP3   OH243444   2.693   0.302   5.970  0.6517  0.3528  0.1484
14496TIP3    H143445   2.783   0.283   5.997  0.5735 -2.6478 -1.3170
14496TIP3    H243446   2.702   0.334   5.881  0.2382 -2.8381 -1.1696
14497TIP3   OH243447   7.228   5.675   6.639  0.4302  0.4460  0.4049
14497TIP3    H143448   7.278   5.645   6.562 -0.1670  0.1151  0.1331
14497TIP3    H243449   7.221   5.597   6.694  0.0259  0.4319  0.3357
14498TIP3   OH243450   5.763   6.744   2.941  0.2709  0.6009 -0.5806
14498TIP3    H143451   5.759   6.835   2.972 -0.9199  0.1999  0.4998
14498TIP3    H243452   5.813   6.698   3.008 -0.4849  0.1509 -0.3142
14499TIP3   OH243453   7.424   6.716   1.859  0.1471 -0.4710 -0.0721
14499TIP3    H143454   7.441   6.808   1.878  0.2335 -0.2217 -1.2513
14499TIP3    H243455   7.455   6.704   1.769 -1.1613 -1.2962 -0.4428
14500TIP3   OH243456   2.949   2.317   3.584 -0.5533 -0.2233  0.2182
14500TIP3    H143457   2.963   2.313   3.679 -0.4030  0.4391  0.2285
14500TIP3    H243458   3.028   2.359   3.550 -0.7189 -0.2203 -0.1717
14501TIP3   OH243459   6.396   4.234   3.974 -0.4380 -0.2271 -0.4889
14501TIP3    H143460   6.342   4.305   3.939  0.6519  1.0506  0.3188
14501TIP3    H243461   6.354   4.212   4.058 -0.6243 -0.3385 -0.6122
14502TIP3   OH243462   0.306   2.478   0.163  0.1052  0.1265  0.0853
14502TIP3    H143463   0.389   2.441   0.190  0.6939  1.5805  0.3728
14502TIP3    H243464   0.260   2.406   0.119  1.6442 -0.5984 -0.3856
14503TIP3   OH243465   6.542   5.274   6.613 -0.2340 -0.6184  0.2546
14503TIP3    H143466   6.541   5.226   6.696  0.1276 -0.2292  0.4853
14503TIP3    H243467   6.634   5.295   6.598 -0.5665  1.9056  1.2609
14504TIP3   OH243468   6.655   5.497   0.035 -0.5170  0.0701 -0.2696
14504TIP3    H143469   6.710   5.475   0.110  0.9755 -0.6679 -1.5391
14504TIP3    H243470   6.681   5.586   0.011 -0.6542  0.1240 -0.2223
14505TIP3   OH243471   5.684   1.232   3.433  0.4443 -0.2404  0.1706
14505TIP3    H143472   5.753   1.240   3.499 -0.6001 -0.1100  1.2747
14505TIP3    H243473   5.624   1.304   3.452  1.0388  0.9654 -2.0795
14506TIP3   OH243474   4.068   4.234   3.524  0.4642  0.1059  0.1765
14506TIP3    H143475   4.132   4.248   3.454  0.1680  0.8042  0.0416
14506TIP3    H243476   4.004   4.175   3.485 -1.1070  2.4809 -1.0796
14507TIP3   OH243477   2.571   2.040   4.675  0.0482 -0.2895  0.0491
14507TIP3    H143478   2.491   1.987   4.662 -0.6680  0.4638  1.1762
14507TIP3    H243479   2.557   2.082   4.760  0.5745  1.7464 -0.8238
14508TIP3   OH243480   1.427   1.224   5.962 -0.2109 -0.1194  0.3681
14508TIP3    H143481   1.372   1.196   5.888  0.8039 -0.6734 -0.2034
14508TIP3    H243482   1.365   1.261   6.025 -1.1751 -0.2050 -0.4897
14509TIP3   OH243483   0.110   7.408   4.123  0.0980 -0.0060 -0.1081
14509TIP3    H143484   0.080   7.455   4.201 -0.2513 -0.8437  0.2738
14509TIP3    H243485   0.203   7.390   4.140  0.3593  0.9721 -0.4750
14510TIP3   OH243486   4.962   1.758   1.885  0.0628  0.6239 -0.1501
14510TIP3    H143487   4.876   1.769   1.924  1.0778  2.9022  1.6843
14510TIP3    H243488   5.009   1.700   1.946  0.1974  0.3619 -0.5004
14511TIP3   OH243489   0.780   2.602   0.223 -0.0759  0.3718  0.4762
14511TIP3    H143490   0.821   2.683   0.253 -2.0732  1.7412 -0.3067
14511TIP3    H243491   0.757   2.556   0.304  1.1103  0.5328  0.9312
14512TIP3   OH243492   4.230   7.543   2.358 -0.0753  0.0406 -0.2008
14512TIP3    H143493   4.207   7.616   2.415  1.5295 -0.3247  1.0133
14512TIP3    H243494   4.183   7.468   2.395  0.5756 -0.0941  0.3945
14513TIP3   OH243495   0.188   2.269   6.639  0.2869 -0.7961  0.3034
14513TIP3    H143496   0.162   2.309   6.556  0.2077 -3.1865 -0.9131
14513TIP3    H243497   0.180   2.339   6.704  5.1013  2.7567 -2.3488
14514TIP3   OH243498   3.311   6.412   1.242  0.2380 -0.0230 -0.4180
14514TIP3    H143499   3.259   6.336   1.265  0.0654  0.6147  1.4591
14514TIP3    H243500   3.372   6.423   1.315  0.5156  1.4068 -0.8300
14515TIP3   OH243501   0.286   3.813   4.903  0.3565  0.2615 -0.3351
14515TIP3    H143502   0.330   3.737   4.866  1.6204  0.1962  1.2299
14515TIP3    H243503   0.193   3.798   4.884  0.2905 -2.7428  1.7367
14516TIP3   OH243504   5.612   6.386   6.659 -0.4442  0.5180  0.3430
14516TIP3    H143505   5.621   6.481   6.665  0.9607  0.4862 -0.7152
14516TIP3    H243506   5.665   6.352   6.731 -0.3801  0.5285  0.3010
14517TIP3   OH243507   1.013   3.034   4.775 -0.1382 -0.1844  0.0903
14517TIP3    H143508   0.931   2.989   4.756  1.3003 -3.9235  1.7338
14517TIP3    H243509   1.070   3.014   4.700  0.3843 -0.8308  0.6416
14518TIP3   OH243510   7.058   2.023   5.783 -0.4714  0.0516 -0.2324
14518TIP3    H143511   7.105   2.028   5.700 -0.3859 -2.5951 -0.4272
14518TIP3    H243512   7.125   1.997   5.846 -0.5156  2.1264  0.7672
14519TIP3   OH243513   3.601   4.135   6.428  0.1785  0.7508  0.0869
14519TIP3    H143514   3.666   4.104   6.365 -1.2236 -0.9779 -0.5946
14519TIP3    H243515   3.520   4.144   6.377 -0.3125  2.1264  1.0564
14520TIP3   OH243516   0.791   7.381   5.281  0.5921  0.3267 -0.6860
14520TIP3    H143517   0.701   7.353   5.301  0.0732  3.0669  1.2205
14520TIP3    H243518   0.786   7.411   5.190 -0.0380 -0.9101 -1.0807
14521TIP3   OH243519   3.832   0.347   1.599  0.5837  0.2505  0.1337
14521TIP3    H143520   3.879   0.419   1.641  0.2281  0.8229 -0.4216
14521TIP3    H243521   3.840   0.273   1.659  1.4682  0.5871  0.4305
14522TIP3   OH243522   2.781   2.876   5.114  0.0503 -0.2406  0.4963
14522TIP3    H143523   2.731   2.880   5.033 -1.5787  1.3230  1.5077
14522TIP3    H243524   2.863   2.922   5.094 -1.0948  1.7936  0.1836
14523TIP3   OH243525   0.191   6.992   6.036 -0.3555 -0.1982  0.6166
14523TIP3    H143526   0.166   6.918   5.981 -1.2447  0.7408 -0.2897
14523TIP3    H243527   0.228   6.952   6.115 -1.1123 -1.6074  0.2932
14524TIP3   OH243528   6.024   5.037   5.985  0.0441  0.7493 -0.4806
14524TIP3    H143529   6.096   5.092   6.015 -0.1702  0.2286  1.1063
14524TIP3    H243530   6.052   4.948   6.007 -0.7889  0.4819 -0.4810
14525TIP3   OH243531   2.487   1.763   4.416  0.1962 -0.5501 -0.4023
14525TIP3    H143532   2.482   1.687   4.473 -0.3014 -0.3898 -0.2250
14525TIP3    H243533   2.445   1.833   4.466  0.6562 -0.1594 -0.5594
14526TIP3   OH243534   1.888   7.788   5.325  0.1103  0.0269 -0.6975
14526TIP3    H143535   1.952   7.722   5.300  0.3330 -0.8137  1.8280
14526TIP3    H243536   1.815   7.739   5.362 -0.7476  1.1006 -0.9019
14527TIP3   OH243537   5.422   4.324   2.788  0.3840 -0.7621  0.2326
14527TIP3    H143538   5.474   4.323   2.708  0.3260 -0.2875  0.1848
14527TIP3    H243539   5.427   4.415   2.818 -0.3620 -0.7259  0.2580
14528TIP3   OH243540   2.496   7.299   5.411 -0.1386 -0.3781 -0.1133
14528TIP3    H143541   2.527   7.324   5.498  0.4383 -0.1202 -0.3876
14528TIP3    H243542   2.432   7.367   5.388  0.6934  0.3161 -0.4405
14529TIP3   OH243543   3.026   3.081   5.449 -0.1821  0.0405  0.1425
14529TIP3    H143544   3.102   3.037   5.485 -1.0109 -1.9598 -0.4373
14529TIP3    H243545   3.008   3.035   5.367  0.3398  3.0185 -1.8411
14530TIP3   OH243546   5.492   1.896   3.375 -0.2142  0.3172  0.4897
14530TIP3    H143547   5.413   1.916   3.325 -0.2338 -0.1136  0.3393
14530TIP3    H243548   5.549   1.971   3.360 -0.3383  0.3315  0.0599
14531TIP3   OH243549   4.743   7.864   0.220 -0.2480  0.2686  0.0553
14531TIP3    H143550   4.670   7.815   0.180 -0.5928 -0.1352  1.1418
14531TIP3    H243551   4.794   7.797   0.266 -0.4583  0.8605  1.1704
14532TIP3   OH243552   6.712   6.856   6.261 -0.1188 -0.6887 -0.0580
14532TIP3    H143553   6.803   6.827   6.268 -0.6710 -2.5358 -0.2170
14532TIP3    H243554   6.689   6.841   6.169 -1.0636 -1.7904  0.3354
14533TIP3   OH243555   7.612   2.604   6.180 -0.0417  0.1816  0.0613
14533TIP3    H143556   7.569   2.520   6.197  2.5926 -0.9471  1.8438
14533TIP3    H243557   7.595   2.622   6.087 -2.0847 -1.4176  0.0574
14534TIP3   OH243558   3.032   2.369   5.874  0.4464 -0.6744  0.4290
14534TIP3    H143559   2.995   2.374   5.786 -1.1349  2.2232  1.1170
14534TIP3    H243560   2.966   2.322   5.925  0.5236 -0.7920  0.4197
14535TIP3   OH243561   1.668   0.987   3.652 -0.0651 -0.2957 -0.0334
14535TIP3    H143562   1.582   1.019   3.625  1.3870  2.8898 -1.4702
14535TIP3    H243563   1.678   1.018   3.742 -0.3298 -0.4929  0.0649
14536TIP3   OH243564   5.570   6.662   4.089 -0.7014  0.7140  0.1465
14536TIP3    H143565   5.476   6.669   4.073 -0.5662  0.2184 -1.0294
14536TIP3    H243566   5.580   6.586   4.146 -0.8592 -0.9806 -1.9521
14537TIP3   OH243567   1.157   7.586   6.617 -0.9333 -0.3008  0.1252
14537TIP3    H143568   1.130   7.663   6.667 -1.1425  0.4333 -1.0779
14537TIP3    H243569   1.246   7.606   6.588 -1.4833  0.1278 -1.3560
14538TIP3   OH243570   5.748   4.950   3.632  0.1645  0.2163  0.1522
14538TIP3    H143571   5.802   4.913   3.563  0.4905  2.2143 -0.7469
14538TIP3    H243572   5.807   5.007   3.681 -0.3906 -0.0971  1.2193
14539TIP3   OH243573   7.932   7.758   3.630  0.2497 -0.3124 -0.0188
14539TIP3    H143574   7.990   7.783   3.559  0.6352 -0.9491  0.0638
14539TIP3    H243575   7.920   7.664   3.619  1.4703 -0.6876  1.6035
14540TIP3   OH243576   6.393   7.542   4.409 -0.1231 -0.5433 -0.1503
14540TIP3    H143577   6.330   7.591   4.357  1.7938 -0.7627 -2.8696
14540TIP3    H243578   6.425   7.474   4.350  1.4146 -1.5228  1.6970
14541TIP3   OH243579   2.995   2.645   6.121  0.2466 -0.4844 -0.5972
14541TIP3    H143580   2.944   2.606   6.049  1.1195 -1.3210 -0.7849
14541TIP3    H243581   2.944   2.626   6.199  0.5479 -1.8668 -0.7088
14542TIP3   OH243582   7.522   4.566   2.932  0.0881  0.0876 -0.2866
14542TIP3    H143583   7.472   4.637   2.891 -0.2377  2.0238  3.0564
14542TIP3    H243584   7.614   4.591   2.919  0.1813 -1.1165 -2.5406
14543TIP3   OH243585   4.139   2.426   5.167  0.1194  0.3225  0.1805
14543TIP3    H143586   4.196   2.363   5.212 -0.6618 -0.7196 -0.2323
14543TIP3    H243587   4.116   2.382   5.084 -0.9259  0.8949  0.1486
14544TIP3   OH243588   1.384   3.312   3.044 -0.4188 -0.6917 -0.5322
14544TIP3    H143589   1.448   3.383   3.041 -0.0058 -1.0108  0.5283
14544TIP3    H243590   1.395   3.266   2.961 -0.4825  0.2798 -1.1079
14545TIP3   OH243591   5.569   7.193   1.006 -0.0770  0.9840 -0.0819
14545TIP3    H143592   5.524   7.277   1.005 -1.2160  0.4777  2.2110
14545TIP3    H243593   5.641   7.205   1.069  0.5283  0.6008 -0.6859
14546TIP3   OH243594   1.338   4.415   4.238  0.2959 -0.5251  0.4858
14546TIP3    H143595   1.361   4.361   4.313 -2.9011 -1.2874  1.0410
14546TIP3    H243596   1.286   4.487   4.274  0.2054  0.1056 -0.8149
14547TIP3   OH243597   8.285   0.380   0.436  0.4482  0.3449  0.0168
14547TIP3    H143598   8.248   0.455   0.389 -0.3229 -0.0593 -0.0421
14547TIP3    H243599   8.212   0.320   0.445  0.6573  0.2892  1.4903
14548TIP3   OH243600   3.352   5.437   4.846  0.6295  0.0789  0.3056
14548TIP3    H143601   3.309   5.465   4.927  0.5369 -0.2794  0.3796
14548TIP3    H243602   3.329   5.505   4.782 -1.5682 -1.0229 -0.1647
14549TIP3   OH243603   6.322   1.332   4.488  0.1025  0.3001 -0.0184
14549TIP3    H143604   6.234   1.347   4.455 -0.2703 -1.5097  0.0288
14549TIP3    H243605   6.357   1.419   4.506 -1.9135  1.0201  0.6284
14550TIP3   OH243606   6.111   3.281   1.466  0.3469  0.1001 -0.0675
14550TIP3    H143607   6.102   3.204   1.410  0.3778  0.1216 -0.1023
14550TIP3    H243608   6.070   3.256   1.549  0.4706  0.0015 -0.0350
14551TIP3   OH243609   4.533   4.943   6.625  0.1365  0.0081 -0.0171
14551TIP3    H143610   4.545   4.918   6.533 -0.2821 -0.0144 -0.0667
14551TIP3    H243611   4.477   4.875   6.661 -0.3380  0.4321  0.0552
14552TIP3   OH243612   1.346   3.353   4.454 -0.4392  0.4401 -0.0833
14552TIP3    H143613   1.427   3.303   4.465  0.6090  1.9556 -0.5923
14552TIP3    H243614   1.311   3.362   4.543 -0.6005 -1.0777  0.0299
14553TIP3   OH243615   0.846   0.445   0.259 -0.2536  0.0041 -0.2868
14553TIP3    H143616   0.897   0.394   0.196 -0.7902 -0.6270 -0.2221
14553TIP3    H243617   0.893   0.436   0.341 -1.8089 -2.7944  0.4135
14554TIP3   OH243618   4.783   4.495   1.251  0.2535  0.1458 -0.1463
14554TIP3    H143619   4.819   4.560   1.191 -1.2433  0.8907 -0.3070
14554TIP3    H243620   4.732   4.546   1.314  0.0042 -0.7893  0.4378
14555TIP3   OH243621   2.200   3.035   3.900  0.5699  0.0612 -0.0389
14555TIP3    H143622   2.144   2.960   3.922  1.3548 -0.7371 -0.6662
14555TIP3    H243623   2.154   3.111   3.934 -0.6582 -0.6278 -0.1176
14556TIP3   OH243624   1.592   0.631   2.404 -0.2300 -0.4926  0.3596
14556TIP3    H143625   1.591   0.611   2.497  0.9054 -0.5428  0.3695
14556TIP3    H243626   1.501   0.623   2.377 -0.5671 -0.5083  1.4544
14557TIP3   OH243627   7.663   5.196   1.813  0.9485  0.1709  0.0969
14557TIP3    H143628   7.657   5.254   1.736  0.2411 -0.2634 -0.1850
14557TIP3    H243629   7.581   5.148   1.812  1.2468 -0.3497  0.7268
14558TIP3   OH243630   4.706   1.110   2.635 -0.3033  0.0673 -0.2209
14558TIP3    H143631   4.770   1.059   2.685  0.2780  1.0587  0.0854
14558TIP3    H243632   4.627   1.056   2.636 -0.7589  0.5944  2.9521
14559TIP3   OH243633   3.625   7.470   2.981  0.6606  0.1773 -0.1878
14559TIP3    H143634   3.532   7.477   2.958  0.6839  0.1306 -0.2920
14559TIP3    H243635   3.658   7.399   2.926  0.8802  0.5430 -0.5234
14560TIP3   OH243636   6.378   0.958   0.163  1.0278 -0.2753 -1.0009
14560TIP3    H143637   6.429   0.999   0.094  0.2578 -0.0133 -1.4357
14560TIP3    H243638   6.317   0.900   0.118 -0.3818  0.8799 -0.6887
14561TIP3   OH243639   0.154   0.722   6.580 -0.0381  0.0703 -0.1379
14561TIP3    H143640   0.234   0.673   6.598 -0.5354 -0.5064  0.5620
14561TIP3    H243641   0.141   0.712   6.485  0.0374 -0.9097 -0.0550
14562TIP3   OH243642   0.274   2.151   1.512 -0.0162  0.8764 -0.2699
14562TIP3    H143643   0.279   2.114   1.424  0.5753 -1.4289  0.6357
14562TIP3    H243644   0.348   2.111   1.558 -2.0231 -0.4353  2.0852
14563TIP3   OH243645   2.408   0.413   5.421  0.1195 -0.0308 -0.6150
14563TIP3    H143646   2.313   0.405   5.418 -0.0045  0.5066  0.8962
14563TIP3    H243647   2.424   0.507   5.432  0.7965 -0.1738 -0.3034
14564TIP3   OH243648   2.548   0.548   0.652  0.3973  0.2908 -0.2058
14564TIP3    H143649   2.490   0.482   0.613  0.2669  0.6099 -0.5612
14564TIP3    H243650   2.519   0.631   0.613  1.1437  0.4465 -0.4506
14565TIP3   OH243651   6.290   5.557   3.716  0.0678 -0.3169 -0.7193
14565TIP3    H143652   6.292   5.581   3.809 -0.3600  0.0807 -0.8109
14565TIP3    H243653   6.362   5.495   3.706 -1.1770 -2.0087  0.3182
14566TIP3   OH243654   3.373   7.031   1.078  0.0543 -0.1525 -0.1769
14566TIP3    H143655   3.280   7.050   1.069  0.1457  0.7011  0.5687
14566TIP3    H243656   3.403   7.014   0.989 -1.0553 -1.6463 -0.2940
14567TIP3   OH243657   7.797   1.334   1.410  0.2354 -0.1715  0.2983
14567TIP3    H143658   7.812   1.265   1.475 -0.1981 -0.1128  0.4649
14567TIP3    H243659   7.811   1.416   1.458  1.6490 -0.1436 -0.1238
14568TIP3   OH243660   4.752   0.781   1.634  0.5425 -0.0291 -0.0799
14568TIP3    H143661   4.683   0.797   1.570 -1.0242 -1.9164  1.0001
14568TIP3    H243662   4.758   0.862   1.684 -1.1828  0.1048 -0.0042
14569TIP3   OH243663   5.093   7.734   2.199 -1.1462 -0.2103  0.0325
14569TIP3    H143664   5.113   7.787   2.277 -1.3435 -0.5626  0.3298
14569TIP3    H243665   4.997   7.734   2.195 -1.3480 -2.8914  1.7418
14570TIP3   OH243666   0.158   1.428   1.929  0.4961 -0.5249  0.4645
14570TIP3    H143667   0.179   1.349   1.879  1.0087  1.3407 -2.4318
14570TIP3    H243668   0.230   1.488   1.912 -0.6519  1.1723  1.3118
14571TIP3   OH243669   6.049   0.015   0.131  0.0145 -0.2536  0.4681
14571TIP3    H143670   6.087   0.067   0.060  1.1021  0.6240  1.6488
14571TIP3    H243671   5.991  -0.047   0.086  0.0017  0.8305 -1.1140
14572TIP3   OH243672   4.085   0.300   5.394  0.4204 -0.1076  0.2247
14572TIP3    H143673   4.153   0.322   5.457 -0.3292 -1.7424  1.7063
14572TIP3    H243674   4.080   0.204   5.396 -1.3482 -0.0864 -0.4491
14573TIP3   OH243675   4.552   3.437   5.496  0.3889  0.2702 -0.1718
14573TIP3    H143676   4.568   3.505   5.431  0.6792 -0.2815 -0.6909
14573TIP3    H243677   4.513   3.365   5.446 -1.2523  0.5828  0.6130
14574TIP3   OH243678   2.240   1.286   0.269  0.1384  0.2446  0.5607
14574TIP3    H143679   2.203   1.264   0.184  0.2347 -1.2330  0.8667
14574TIP3    H243680   2.203   1.221   0.329 -0.0078  1.3147  1.6795
14575TIP3   OH243681   2.221   3.233   0.038  0.1635 -0.2974 -0.5395
14575TIP3    H143682   2.268   3.222   0.120 -0.2137  0.7306 -0.1750
14575TIP3    H243683   2.130   3.245   0.063  0.1367  0.6701 -1.0606
14576TIP3   OH243684   7.995   4.396   1.953  0.0168 -1.0056  0.2018
14576TIP3    H143685   7.929   4.344   1.907  1.0075 -0.7437 -1.5718
14576TIP3    H243686   8.049   4.434   1.884  0.1629  1.3103  1.4793
14577TIP3   OH243687   6.338   0.286   5.634  0.1042 -0.6461  0.4085
14577TIP3    H143688   6.255   0.326   5.607  0.3777 -0.9807 -0.9871
14577TIP3    H243689   6.313   0.200   5.669  0.0122 -1.8494 -2.3537
14578TIP3   OH243690   1.743   4.839   1.094 -0.1898 -0.3997 -0.0007
14578TIP3    H143691   1.672   4.878   1.042  0.0589  0.0837  0.0188
14578TIP3    H243692   1.720   4.859   1.185  1.1482  1.8524 -0.0755
14579TIP3   OH243693   3.071   7.706   1.745  0.0204  0.3087  0.5125
14579TIP3    H143694   3.161   7.737   1.736  0.7702 -1.0556  2.6336
14579TIP3    H243695   3.035   7.759   1.817 -0.6915  0.4605  0.0527
14580TIP3   OH243696   5.782   2.736   1.266 -0.4314 -0.1892  0.1332
14580TIP3    H143697   5.786   2.797   1.192 -0.4262 -0.3444  0.0044
14580TIP3    H243698   5.704   2.762   1.314  0.5937  1.1470  1.1603
14581TIP3   OH243699   6.160   0.664   5.716 -0.2951  0.2385  0.2841
14581TIP3    H143700   6.239   0.668   5.663 -1.0495  1.4102 -0.8215
14581TIP3    H243701   6.106   0.737   5.684 -1.6670 -0.3042  1.2486
14582TIP3   OH243702   7.565   6.952   0.936  0.3257  0.1838 -0.6981
14582TIP3    H143703   7.519   6.990   1.011  0.3762 -0.6933 -0.2123
14582TIP3    H243704   7.572   7.024   0.874  0.2601  0.9252  0.1284
14583TIP3   OH243705   6.055   0.382   3.880  0.2124  0.0134  0.3207
14583TIP3    H143706   6.080   0.414   3.967  0.1960  1.4597 -0.1767
14583TIP3    H243707   6.105   0.436   3.819 -2.0065  1.1463 -0.6265
14584TIP3   OH243708   4.907   4.624   2.578  0.6317 -0.3041 -0.7351
14584TIP3    H143709   4.961   4.599   2.653 -2.0389  0.1894  1.5064
14584TIP3    H243710   4.965   4.677   2.523  2.6463 -0.5383  1.0444
14585TIP3   OH243711   7.809   5.866   4.809 -0.1374 -0.1530  0.0212
14585TIP3    H143712   7.851   5.869   4.723 -0.5753  2.3123 -0.1559
14585TIP3    H243713   7.718   5.841   4.790 -0.8372  2.5598 -0.5645
14586TIP3   OH243714   6.786   6.475   5.367  0.2645  0.3254  0.3395
14586TIP3    H143715   6.776   6.568   5.346 -0.8151  0.1578  0.0672
14586TIP3    H243716   6.788   6.432   5.281  0.7403  0.0886  0.4655
14587TIP3   OH243717   1.496   2.221   2.804  0.0053 -0.0831  0.6434
14587TIP3    H143718   1.410   2.186   2.783 -0.0469  0.8510 -0.8341
14587TIP3    H243719   1.557   2.167   2.753 -0.0857  1.9089 -1.7789
14588TIP3   OH243720   2.120   0.073   5.631  0.2989 -0.4413 -0.5193
14588TIP3    H143721   2.065   0.146   5.603  1.1128  0.2725 -0.3312
14588TIP3    H243722   2.193   0.115   5.678 -0.2609 -1.4837  1.4061
14589TIP3   OH243723   6.558   5.065   4.985 -0.5489 -0.0676 -0.0790
14589TIP3    H143724   6.481   5.011   4.968 -0.8041  0.4130 -0.4675
14589TIP3    H243725   6.550   5.091   5.077  0.1921 -1.6528  0.4672
14590TIP3   OH243726   8.028   1.324   0.903 -0.2746  0.3258  0.6315
14590TIP3    H143727   8.040   1.370   0.986 -0.7309  2.3692 -0.3685
14590TIP3    H243728   7.934   1.310   0.896 -0.0645 -1.8838  1.4345
14591TIP3   OH243729   2.516   1.830   0.520 -0.4093 -0.1003  0.4613
14591TIP3    H143730   2.474   1.745   0.527 -0.0940 -0.2941  0.0066
14591TIP3    H243731   2.461   1.880   0.460  1.5950 -1.3830 -2.7263
14592TIP3   OH243732   5.178   3.359   4.645 -0.0087  0.2910  0.0238
14592TIP3    H143733   5.104   3.333   4.701 -0.2659  0.1880 -0.3543
14592TIP3    H243734   5.211   3.276   4.610 -0.0927  0.3801 -0.2710
14593TIP3   OH243735   0.442   0.523   6.790 -0.5326  0.3337 -0.4596
14593TIP3    H143736   0.456   0.551   6.699  2.1488  3.6210  0.7765
14593TIP3    H243737   0.514   0.462   6.808 -0.1900  0.8322 -0.1303
14594TIP3   OH243738   7.369   6.108   3.546 -0.4746 -0.4105  0.1120
14594TIP3    H143739   7.345   6.199   3.527  2.9002  1.0518  2.0059
14594TIP3    H243740   7.397   6.109   3.637 -0.8472 -3.5396  0.3750
14595TIP3   OH243741   6.298   1.026   6.215  0.5330  0.0227 -0.4261
14595TIP3    H143742   6.262   1.114   6.216 -2.5540 -1.0943 -0.9124
14595TIP3    H243743   6.311   1.006   6.122 -2.1804 -1.1540 -0.6514
14596TIP3   OH243744   5.790   5.770   2.383  0.1573 -0.5590 -0.5334
14596TIP3    H143745   5.699   5.745   2.398 -1.2474  3.4191 -1.2130
14596TIP3    H243746   5.828   5.777   2.471 -0.0953 -2.2518 -0.2443
14597TIP3   OH243747   6.767   1.267   5.134 -0.1902 -0.4364  0.2332
14597TIP3    H143748   6.709   1.315   5.075  1.3510  0.6756 -0.4424
14597TIP3    H243749   6.746   1.175   5.118 -0.1015 -0.1606 -1.8113
14598TIP3   OH243750   3.063   7.094   2.382 -0.0059  0.4456 -0.3288
14598TIP3    H143751   3.083   7.098   2.288  3.3718  1.2299  0.2937
14598TIP3    H243752   3.036   7.183   2.405  0.2623  0.5421 -0.3778
14599TIP3   OH243753   0.862   3.336   5.839  0.1268  0.3694 -0.0877
14599TIP3    H143754   0.863   3.353   5.745 -0.0734 -1.5263 -0.4856
14599TIP3    H243755   0.951   3.307   5.859 -0.4774 -1.7879 -0.2770
14600TIP3   OH243756   2.792   6.073   3.637  0.0880  0.4780  0.7113
14600TIP3    H143757   2.754   6.128   3.705 -0.5476 -0.0613  0.8042
14600TIP3    H243758   2.720   6.057   3.576  0.7550  1.2751 -0.2979
14601TIP3   OH243759   5.630   7.724   6.252 -0.5623  0.0990 -0.6137
14601TIP3    H143760   5.581   7.702   6.332 -2.5150  1.5354 -1.3330
14601TIP3    H243761   5.582   7.680   6.182 -0.4486  0.9993 -1.2706
14602TIP3   OH243762   2.863   2.533   4.504 -0.5827  0.0468  0.2683
14602TIP3    H143763   2.870   2.468   4.434 -1.7124 -0.7217  0.8339
14602TIP3    H243764   2.804   2.600   4.469  1.1105  1.1667 -0.5731
14603TIP3   OH243765   6.363   0.466   0.661 -0.4241 -0.1423  0.0699
14603TIP3    H143766   6.344   0.477   0.754  2.0223  0.3976  0.5892
14603TIP3    H243767   6.383   0.373   0.651  1.2050  0.1217  0.5490
14604TIP3   OH243768   1.756   4.287   0.262 -0.1776 -0.1188  0.0857
14604TIP3    H143769   1.708   4.368   0.242  0.2899  0.0853 -0.2175
14604TIP3    H243770   1.725   4.263   0.349  0.1253  0.7242  0.4391
14605TIP3   OH243771   1.761   3.017   1.324  0.4986  0.7884 -0.4535
14605TIP3    H143772   1.692   3.081   1.342 -0.3513 -0.1366 -0.3226
14605TIP3    H243773   1.777   3.024   1.230 -1.2457 -0.3908 -0.8827
14606TIP3   OH243774   6.223   5.845   3.609 -0.2538  0.3266  0.1150
14606TIP3    H143775   6.261   5.769   3.653 -0.2318 -0.8298 -1.7980
14606TIP3    H243776   6.298   5.890   3.571 -0.3681  0.7725  0.4028
14607TIP3   OH243777   2.438   4.576   4.616 -0.0191 -0.0577  0.4055
14607TIP3    H143778   2.369   4.629   4.576 -0.1647  0.5528  1.4323
14607TIP3    H243779   2.426   4.489   4.578  1.2677  0.9539 -2.6256
14608TIP3   OH243780   2.194   4.901   3.481  0.4907 -0.3578  0.1930
14608TIP3    H143781   2.162   4.928   3.395 -0.9628  0.9223  1.0892
14608TIP3    H243782   2.179   4.806   3.483 -0.1750 -0.2861 -0.6902
14609TIP3   OH243783   2.754   2.905   2.690  0.4230  0.0307  0.1238
14609TIP3    H143784   2.785   2.995   2.680 -1.6344  0.7687 -0.1111
14609TIP3    H243785   2.759   2.888   2.784  1.3768  0.1449  0.1095
14610TIP3   OH243786   4.703   0.299   6.475  0.1436  0.3589  0.6680
14610TIP3    H143787   4.695   0.209   6.505 -1.0875  0.3343  0.3207
14610TIP3    H243788   4.650   0.350   6.536 -1.0315  0.5230 -0.4341
14611TIP3   OH243789   1.115   2.768   2.257  0.3105 -0.1487 -0.0079
14611TIP3    H143790   1.106   2.796   2.348  1.4523  1.9731 -0.4744
14611TIP3    H243791   1.043   2.707   2.243 -1.4406  1.4162  1.6177
14612TIP3   OH243792   4.426   1.778   1.105 -0.0927  0.2027  0.3259
14612TIP3    H143793   4.376   1.858   1.125  0.7001  1.0549 -0.9861
14612TIP3    H243794   4.500   1.781   1.165  0.9540  1.4762 -0.9584
14613TIP3   OH243795   6.998   4.593   4.324 -0.4256  0.3989 -0.4001
14613TIP3    H143796   6.951   4.592   4.240 -2.1246  2.2625  0.4282
14613TIP3    H243797   7.071   4.654   4.309 -1.3230  1.5318 -0.2677
14614TIP3   OH243798   5.212   1.335   5.426 -0.3041 -0.3373  0.1190
14614TIP3    H143799   5.149   1.376   5.484  0.2346 -0.9301  1.1538
14614TIP3    H243800   5.160   1.276   5.372 -0.6789 -0.6387  0.7935
14615TIP3   OH243801   4.884   0.348   0.598 -0.3420  0.1173 -0.0469
14615TIP3    H143802   4.901   0.255   0.579 -0.9044  0.0316 -0.1474
14615TIP3    H243803   4.801   0.347   0.646 -0.3208  0.5676 -0.0030
14616TIP3   OH243804   4.290   1.104   4.693  0.0383  0.0286  0.5695
14616TIP3    H143805   4.295   1.105   4.597  1.3875  0.3302  0.6218
14616TIP3    H243806   4.282   1.196   4.717 -1.1603 -0.1000  0.7376
14617TIP3   OH243807   5.968   5.071   1.159  0.1511 -0.4255  0.1532
14617TIP3    H143808   6.028   5.137   1.192  1.9591 -1.3712 -1.0721
14617TIP3    H243809   5.961   5.007   1.230  1.7462 -1.0012 -0.1538
14618TIP3   OH243810   4.831   4.237   2.066  0.3323 -0.4336 -0.1929
14618TIP3    H143811   4.757   4.259   2.122  0.6595 -0.6178  0.3235
14618TIP3    H243812   4.806   4.268   1.979 -0.3080 -0.4116 -0.0041
14619TIP3   OH243813   6.716   6.328   6.591  0.4259  0.2620  0.1208
14619TIP3    H143814   6.649   6.301   6.529 -0.3755  1.3452  0.4896
14619TIP3    H243815   6.732   6.250   6.645  1.2655 -0.7511 -1.5213
14620TIP3   OH243816   6.745   3.445   4.275  0.5143 -0.6710 -0.1536
14620TIP3    H143817   6.817   3.480   4.223 -1.2514 -0.9038 -2.9389
14620TIP3    H243818   6.743   3.352   4.253  0.3603 -1.0232  1.2314
14621TIP3   OH243819   2.850   5.119   5.102  0.2214 -0.2252  0.1014
14621TIP3    H143820   2.814   5.188   5.157 -1.5964  0.2818 -1.5738
14621TIP3    H243821   2.811   5.038   5.136  0.0415 -0.0628  0.2825
14622TIP3   OH243822   2.581   6.919   0.829  0.3913 -0.3395 -0.2304
14622TIP3    H143823   2.557   6.955   0.743 -1.6942 -1.4079 -0.1625
14622TIP3    H243824   2.499   6.885   0.864  1.5075 -1.3780  1.5062
14623TIP3   OH243825   2.094   6.384   2.583  0.2852 -0.5162 -0.0367
14623TIP3    H143826   2.144   6.308   2.614  1.7834  0.9945  1.4847
14623TIP3    H243827   2.003   6.362   2.603  0.7434 -1.6338  1.0219
14624TIP3   OH243828   3.803   6.551   4.295 -0.1688  0.2330  0.4148
14624TIP3    H143829   3.730   6.596   4.336 -1.6089 -0.8008 -0.8973
14624TIP3    H243830   3.827   6.606   4.220 -0.0813  0.2160  0.4303
14625TIP3   OH243831   3.689   5.845   2.988 -0.3766 -0.1174 -0.1559
14625TIP3    H143832   3.644   5.764   3.012  0.1394 -0.4124 -0.1584
14625TIP3    H243833   3.678   5.903   3.063 -1.4111  0.0985 -0.4591
14626TIP3   OH243834   8.194   5.894   0.129  1.3579  0.2568  0.3943
14626TIP3    H143835   8.277   5.934   0.154  2.9047 -2.6125  0.3089
14626TIP3    H243836   8.195   5.808   0.172 -0.9866 -0.3843 -0.6719
14627TIP3   OH243837   5.370   6.940   6.500 -0.0147  0.4318 -0.0511
14627TIP3    H143838   5.369   6.863   6.443  3.3652  0.2708 -0.0968
14627TIP3    H243839   5.388   6.906   6.587 -0.5721  1.0250  0.3018
14628TIP3   OH243840   2.998   5.713   1.336 -0.4883  0.0981  1.0022
14628TIP3    H143841   3.081   5.750   1.366  0.5972  0.1604 -1.7342
14628TIP3    H243842   2.951   5.788   1.300 -0.2002 -0.3985 -0.5196
14629TIP3   OH243843   5.013   5.655   5.205  0.0858 -0.4713  0.5931
14629TIP3    H143844   5.042   5.618   5.121 -1.4668 -0.0683 -0.1544
14629TIP3    H243845   4.931   5.699   5.185 -0.7234 -1.0198  2.4977
14630TIP3   OH243846   3.641   2.337   6.582  0.2226  0.4506  0.5387
14630TIP3    H143847   3.581   2.296   6.521 -0.6495  1.2302  0.8509
14630TIP3    H243848   3.728   2.319   6.546 -0.2676  1.0273 -1.0238
14631TIP3   OH243849   0.181   4.101   2.391  0.5721 -0.0300 -0.0924
14631TIP3    H143850   0.151   4.024   2.438  1.7201 -0.1035  0.5368
14631TIP3    H243851   0.268   4.078   2.358  0.8420  0.9165 -0.0799
14632TIP3   OH243852   5.410   2.883   4.638 -0.2717 -0.7326 -0.4664
14632TIP3    H143853   5.365   2.837   4.709 -1.0749 -0.6773 -0.9263
14632TIP3    H243854   5.455   2.956   4.680 -1.0459 -0.4851 -0.0658
14633TIP3   OH243855   1.200   7.359   6.379  0.1472 -0.3477  0.5058
14633TIP3    H143856   1.233   7.421   6.314  0.9436  0.1645  1.3731
14633TIP3    H243857   1.260   7.285   6.374  0.3462 -0.2089  0.8071
14634TIP3   OH243858   5.115   1.517   4.020  0.1737 -0.1542 -0.0517
14634TIP3    H143859   5.185   1.575   4.050 -1.1001  1.0437  0.7352
14634TIP3    H243860   5.143   1.429   4.045  0.7721  0.4496  1.5012
14635TIP3   OH243861   1.057   6.368   1.803 -0.5493 -0.9383 -0.6126
14635TIP3    H143862   1.068   6.354   1.898 -0.0146  0.8386 -0.3701
14635TIP3    H243863   1.016   6.288   1.772  0.5959 -2.1722  0.8800
14636TIP3   OH243864   7.641   2.253   3.638  0.2193 -0.1218 -0.2585
14636TIP3    H143865   7.697   2.176   3.627  0.9981  0.2229  1.0865
14636TIP3    H243866   7.695   2.327   3.609 -0.1360  0.0367 -0.5253
14637TIP3   OH243867   4.606   3.404   0.597  0.4046 -0.4275 -0.4119
14637TIP3    H143868   4.513   3.398   0.617  0.3888  0.9045  0.0025
14637TIP3    H243869   4.640   3.315   0.613 -0.2539 -0.2998  2.2334
14638TIP3   OH243870   2.952   6.460   1.380 -0.3306 -0.0833 -0.4018
14638TIP3    H143871   2.998   6.533   1.421  0.6676 -0.2152 -1.2648
14638TIP3    H243872   2.890   6.501   1.319 -0.7081  0.0691  0.0806
14639TIP3   OH243873   0.659   3.512   2.267 -0.5135  0.4706 -0.1694
14639TIP3    H143874   0.686   3.565   2.342 -1.8300 -0.6339  1.1521
14639TIP3    H243875   0.718   3.538   2.196 -0.2009  2.6406  0.8134
14640TIP3   OH243876   0.225   7.102   2.609  0.2163  0.2397  0.2717
14640TIP3    H143877   0.148   7.159   2.608  1.1534  1.5540 -1.2501
14640TIP3    H243878   0.206   7.038   2.678 -3.3952 -1.0942 -1.6637
14641TIP3   OH243879   0.919   1.116   3.567 -0.3102 -0.3681  0.1584
14641TIP3    H143880   0.930   1.200   3.612 -1.4956 -0.2995  0.3574
14641TIP3    H243881   0.961   1.128   3.482  0.0391  0.2292  0.4129
14642TIP3   OH243882   4.980   7.724   6.554 -0.2975  0.4354  0.0093
14642TIP3    H143883   4.905   7.780   6.573 -2.5899 -2.4208  0.0864
14642TIP3    H243884   4.992   7.672   6.634  0.0316 -0.9675 -0.9148
14643TIP3   OH243885   7.032   4.786   4.100 -0.0344  0.8318  0.1663
14643TIP3    H143886   7.097   4.787   4.170 -0.8680  2.3307  0.9595
14643TIP3    H243887   6.983   4.867   4.111 -1.0195  0.4909 -1.3858
14644TIP3   OH243888   0.223   6.935   3.846 -0.2600  0.1155  0.8260
14644TIP3    H143889   0.257   6.976   3.926  0.9506 -0.2954  0.5519
14644TIP3    H243890   0.203   7.009   3.789 -1.5155  0.4279  1.6411
14645TIP3   OH243891   6.638   6.520   3.750  0.5051 -0.7886 -0.5398
14645TIP3    H143892   6.655   6.503   3.843  0.0483 -0.0975 -0.3180
14645TIP3    H243893   6.554   6.477   3.733 -0.9596  1.5319  0.1751
14646TIP3   OH243894   1.419   2.075   5.437 -0.2883 -0.4031  0.2484
14646TIP3    H143895   1.480   2.036   5.500  0.3203 -0.0348 -0.0959
14646TIP3    H243896   1.333   2.042   5.462 -0.0154 -0.4977  1.0872
14647TIP3   OH243897   5.320   6.151   5.463 -0.2093 -0.6295  0.2518
14647TIP3    H143898   5.389   6.113   5.408 -0.0322  0.4589 -0.3070
14647TIP3    H243899   5.367   6.210   5.523 -0.5249 -0.9269  0.8065
14648TIP3   OH243900   3.894   3.844   0.499  0.3525 -0.1298 -0.1911
14648TIP3    H143901   3.823   3.908   0.494 -0.8565 -1.3222  0.8493
14648TIP3    H243902   3.948   3.861   0.422 -0.2355  1.7600 -0.2312
14649TIP3   OH243903   7.540   5.414   2.596 -0.2053  0.2764  0.1610
14649TIP3    H143904   7.496   5.385   2.516 -1.2558 -0.7043  1.0683
14649TIP3    H243905   7.469   5.439   2.655  0.5866  1.9781  0.4442
14650TIP3   OH243906   6.834   4.198   4.600 -0.0753  0.1216  0.0918
14650TIP3    H143907   6.801   4.190   4.511 -0.0282  1.0824 -0.0252
14650TIP3    H243908   6.757   4.219   4.653 -0.5262 -2.6684  0.6966
14651TIP3   OH243909   5.869   1.408   2.894 -0.5990 -0.1517  0.1529
14651TIP3    H143910   5.828   1.410   2.980 -0.4268 -1.8203  0.2884
14651TIP3    H243911   5.797   1.389   2.834 -0.4492 -0.5616  0.1038
14652TIP3   OH243912   7.813   1.129   1.203  0.1184 -0.2328 -0.0127
14652TIP3    H143913   7.727   1.088   1.217  0.0141 -0.0273 -0.0566
14652TIP3    H243914   7.802   1.218   1.235  0.0899  0.0284 -0.7255
14653TIP3   OH243915   7.944   7.684   2.703 -0.2765 -0.3932 -0.4449
14653TIP3    H143916   8.035   7.701   2.677  0.9540 -1.0905  2.9435
14653TIP3    H243917   7.936   7.723   2.790 -2.3514 -2.7282  0.5367
14654TIP3   OH243918   4.056   2.450   4.798 -0.1794  0.2589  0.5928
14654TIP3    H143919   4.081   2.373   4.747 -2.7353 -0.7399  0.7397
14654TIP3    H243920   4.071   2.524   4.739  1.1320 -0.4230  0.0216
14655TIP3   OH243921   6.752   1.914   2.885 -0.7897  0.4083  0.3635
14655TIP3    H143922   6.823   1.978   2.880  1.0965 -1.5033  1.1696
14655TIP3    H243923   6.761   1.862   2.805 -0.8344 -0.2597  0.7839
14656TIP3   OH243924   4.031   1.417   1.264  0.5119 -0.4772 -0.2214
14656TIP3    H143925   4.090   1.350   1.299  2.3683  0.9584 -0.4337
14656TIP3    H243926   4.088   1.493   1.248 -1.5733  1.3781  0.5869
14657TIP3   OH243927   5.578   1.184   3.038 -0.0572 -0.0092  0.0963
14657TIP3    H143928   5.664   1.180   3.080 -0.0817 -0.8611  0.0711
14657TIP3    H243929   5.517   1.201   3.110 -0.3542 -3.4989  0.8060
14658TIP3   OH243930   1.285   0.351   2.868 -0.7257 -0.0924 -0.2276
14658TIP3    H143931   1.294   0.442   2.896 -0.3042 -0.6785  1.6672
14658TIP3    H243932   1.207   0.351   2.813  0.9373  1.9322 -2.8114
14659TIP3   OH243933   6.456   0.060   5.961  0.7760  0.0770  0.0394
14659TIP3    H143934   6.548   0.080   5.947  0.6154  1.7380  1.0825
14659TIP3    H243935   6.427   0.122   6.028 -0.8237 -1.1563  0.5816
14660TIP3   OH243936   0.588   3.956   0.813  0.2717 -0.3069  0.1582
14660TIP3    H143937   0.680   3.931   0.811  0.5155  0.5203  0.4381
14660TIP3    H243938   0.574   4.002   0.730  0.8444  1.9327  1.2164
14661TIP3   OH243939   6.230   2.895   5.149  0.2210  0.4096  0.5877
14661TIP3    H143940   6.183   2.966   5.192 -0.6746 -0.2798  0.7853
14661TIP3    H243941   6.192   2.889   5.062 -2.6364 -2.3859  1.8381
14662TIP3   OH243942   1.233   5.997   4.434  0.0407  0.1343 -0.0142
14662TIP3    H143943   1.271   6.075   4.392  0.8881 -0.7792 -0.9947
14662TIP3    H243944   1.209   6.027   4.522 -0.1402  1.6339 -0.5439
14663TIP3   OH243945   4.594   0.531   2.187 -0.0107 -0.1628  0.8780
14663TIP3    H143946   4.516   0.485   2.155 -0.1116 -0.3228  1.3561
14663TIP3    H243947   4.646   0.548   2.107  0.3326 -1.6656  0.7561
14664TIP3   OH243948   3.999   0.049   0.744  0.0865 -0.4524  0.4268
14664TIP3    H143949   4.036  -0.038   0.723 -2.6355 -1.2167 -1.8541
14664TIP3    H243950   4.070   0.110   0.723  1.6315 -2.0291  0.7736
14665TIP3   OH243951   3.450   1.283   3.827  0.5540 -0.1196 -0.3105
14665TIP3    H143952   3.509   1.344   3.872 -1.0581 -0.3156  2.3045
14665TIP3    H243953   3.459   1.201   3.875 -0.2540 -0.7593 -1.2149
14666TIP3   OH243954   0.437   2.531   5.231  0.2135  0.1476 -0.8132
14666TIP3    H143955   0.483   2.613   5.216  0.6615 -0.0988 -0.7927
14666TIP3    H243956   0.348   2.558   5.253 -0.5814  0.5560 -4.0136
14667TIP3   OH243957   6.371   6.131   2.009  0.0769  0.0465 -0.6244
14667TIP3    H143958   6.377   6.096   2.098  2.1409  1.7041 -0.0337
14667TIP3    H243959   6.398   6.058   1.952  1.4698 -0.2243  0.3439
14668TIP3   OH243960   5.696   5.947   6.052  0.0324  0.2969 -0.7970
14668TIP3    H143961   5.695   5.862   6.095  2.0937  0.4771 -0.2786
14668TIP3    H243962   5.762   5.939   5.984 -1.1528  0.9128 -2.0757
14669TIP3   OH243963   7.114   2.353   1.110  0.0659  0.7137  0.6059
14669TIP3    H143964   7.029   2.353   1.154 -1.4112 -1.0085 -1.9567
14669TIP3    H243965   7.132   2.446   1.092 -1.2106  1.1189  1.3188
14670TIP3   OH243966   2.991   3.746   2.834  0.1140  0.5384 -0.3083
14670TIP3    H143967   2.931   3.765   2.906 -0.5659 -0.4898 -0.5776
14670TIP3    H243968   2.949   3.786   2.758 -0.0527  0.1345 -0.4316
14671TIP3   OH243969   3.665   6.450   3.782 -0.2197 -0.1578  0.3645
14671TIP3    H143970   3.693   6.400   3.705 -0.1656  0.9743 -0.3793
14671TIP3    H243971   3.570   6.460   3.770 -0.1243  0.5250  0.1188
14672TIP3   OH243972   5.472   1.466   6.368 -0.1285  0.4564  0.5367
14672TIP3    H143973   5.466   1.515   6.287 -0.2462  1.0553  0.9042
14672TIP3    H243974   5.386   1.425   6.378 -0.1710  0.5259  0.4485
14673TIP3   OH243975   0.616   3.103   1.126  0.2631  0.4301  0.5721
14673TIP3    H143976   0.619   3.134   1.217 -2.9310  1.7558  0.3563
14673TIP3    H243977   0.538   3.047   1.122  0.5785  0.0529 -1.2740
14674TIP3   OH243978   6.605   5.385   5.782 -0.2591  0.1695 -0.0459
14674TIP3    H143979   6.600   5.356   5.691  0.7292 -0.7681  0.1757
14674TIP3    H243980   6.613   5.480   5.776  1.0654  0.0297 -1.0104
14675TIP3   OH243981   4.720   5.950   2.656  0.5708  0.0303  0.3660
14675TIP3    H143982   4.649   5.943   2.592  0.7542  4.0356 -0.5024
14675TIP3    H243983   4.676   5.960   2.740  0.2817 -1.4097  0.4240
14676TIP3   OH243984   6.098   1.077   4.434 -1.0504  0.0484 -0.3786
14676TIP3    H143985   6.083   1.171   4.435 -0.4915  0.1501 -0.8625
14676TIP3    H243986   6.018   1.040   4.398 -1.6120  0.2625  0.6218
14677TIP3   OH243987   3.658   2.621   5.066  0.1474  0.5684  0.0964
14677TIP3    H143988   3.593   2.561   5.101 -1.4412  1.5114 -1.1065
14677TIP3    H243989   3.738   2.601   5.114 -0.5978 -1.7576  0.4544
14678TIP3   OH243990   0.347   7.140   4.007  0.7504 -0.1007 -0.5481
14678TIP3    H143991   0.441   7.127   3.990  0.9060 -0.4318  0.4829
14678TIP3    H243992   0.330   7.229   3.978  0.7772 -0.8915 -3.1921
14679TIP3   OH243993   0.296   0.683   0.377  0.3848  0.6964 -0.0792
14679TIP3    H143994   0.360   0.654   0.313  0.1542  2.4114 -1.1486
14679TIP3    H243995   0.266   0.603   0.419  0.9905 -0.4258 -1.6926
14680TIP3   OH243996   0.115   6.245   6.214  0.1557 -0.0034  0.0358
14680TIP3    H143997   0.071   6.251   6.130 -0.7713 -0.1486  0.4943
14680TIP3    H243998   0.168   6.166   6.208  0.6049  0.3367 -0.6310
14681TIP3   OH243999   2.291   1.946   4.105  0.1892 -0.2085  0.1685
14681TIP3    H144000   2.245   1.887   4.165  0.3254  0.6138  1.0992
14681TIP3    H244001   2.223   2.004   4.072 -0.3500 -2.0959 -2.3398
14682TIP3   OH244002   7.720   3.267   0.662  0.5570 -0.2849  0.5863
14682TIP3    H144003   7.799   3.220   0.634  0.2779 -0.6622  0.4113
14682TIP3    H244004   7.676   3.290   0.580  0.7911  0.4595  0.6694
14683TIP3   OH244005   0.869   3.969   5.323 -0.6797  0.6847  0.4370
14683TIP3    H144006   0.830   4.041   5.272 -0.5551  0.5627  0.1659
14683TIP3    H244007   0.836   3.890   5.280  0.3089  0.5763 -0.1505
14684TIP3   OH244008   1.785   2.274   3.336 -0.3663 -0.3975  0.1361
14684TIP3    H144009   1.880   2.275   3.325 -0.3204 -1.2343  0.3622
14684TIP3    H244010   1.752   2.221   3.263 -0.7102  0.3124 -0.2354
14685TIP3   OH244011   0.185   6.571   2.524  0.1212  0.0843 -0.4075
14685TIP3    H144012   0.124   6.637   2.491 -1.2606  0.3525  2.3743
14685TIP3    H244013   0.205   6.599   2.613  0.9375 -2.2965  0.2356
14686TIP3   OH244014   0.633   1.993   5.378  0.5301  0.2269 -0.6150
14686TIP3    H144015   0.645   2.047   5.300  1.9787  1.7417  0.5941
14686TIP3    H244016   0.633   2.055   5.450  0.4875 -1.2625  0.7120
14687TIP3   OH244017   6.564   2.193   2.941  0.1086  0.4744  0.0896
14687TIP3    H144018   6.473   2.193   2.970 -0.1228 -0.0666 -0.5953
14687TIP3    H244019   6.568   2.124   2.875  1.1172  0.2059  0.4146
14688TIP3   OH244020   3.587   5.173   0.480 -0.1607 -0.0351 -0.1660
14688TIP3    H144021   3.554   5.085   0.497  1.6414 -0.1650  3.6734
14688TIP3    H244022   3.541   5.229   0.543  1.2168  1.1209 -0.1388
14689TIP3   OH244023   6.678   3.544   1.383  0.4604  0.3999 -0.4215
14689TIP3    H144024   6.736   3.614   1.412  0.9283  0.2250 -0.9107
14689TIP3    H244025   6.722   3.464   1.412  0.2933  0.2830 -0.4938
14690TIP3   OH244026   6.172   4.808   6.047  0.1497 -0.1621 -0.1522
14690TIP3    H144027   6.242   4.773   6.102  0.3285 -0.2395 -0.4255
14690TIP3    H244028   6.108   4.737   6.041  0.4223 -0.3775 -0.5513
14691TIP3   OH244029   7.830   2.040   1.531  0.0855  0.1400 -0.0364
14691TIP3    H144030   7.869   2.109   1.584 -0.4841  1.4747 -1.2800
14691TIP3    H244031   7.848   2.065   1.440 -2.3544  0.0861 -0.6279
14692TIP3   OH244032   7.825   6.721   0.736 -0.0040 -0.0382 -0.1986
14692TIP3    H144033   7.856   6.660   0.803  1.1183  2.0594  1.3172
14692TIP3    H244034   7.730   6.711   0.736  0.0728 -0.9590  0.8228
14693TIP3   OH244035   2.707   4.830   0.946 -0.4234 -0.7152  0.0039
14693TIP3    H144036   2.717   4.848   1.039  0.6748 -2.6835  0.3253
14693TIP3    H244037   2.652   4.752   0.942  0.1027 -1.0603 -0.9424
14694TIP3   OH244038   0.530   0.064   4.576 -0.1910  0.6167 -0.0297
14694TIP3    H144039   0.605   0.005   4.576 -0.3259  0.4437 -0.0617
14694TIP3    H244040   0.548   0.125   4.505 -0.6919 -0.2131 -0.8892
14695TIP3   OH244041   1.667   3.066   6.489 -0.4249  0.7417 -0.3232
14695TIP3    H144042   1.574   3.057   6.511 -0.4292  1.7969  0.1615
14695TIP3    H244043   1.671   3.146   6.436  0.2583  0.9516  0.0391
14696TIP3   OH244044   5.683   7.673   5.638  0.4830 -0.1625  0.2448
14696TIP3    H144045   5.604   7.722   5.618  0.8741  0.2767 -0.2622
14696TIP3    H244046   5.667   7.585   5.605 -0.6469 -0.7213  2.1065
14697TIP3   OH244047   0.141   6.234   4.872  0.1794  0.3403  0.1243
14697TIP3    H144048   0.179   6.253   4.787 -3.0797 -0.5532 -1.7190
14697TIP3    H244049   0.139   6.139   4.877 -1.9501  0.3224 -0.0543
14698TIP3   OH244050   5.419   2.708   5.057 -0.3351 -0.0115  0.0041
14698TIP3    H144051   5.354   2.754   5.110 -1.3880  0.5056 -1.6653
14698TIP3    H244052   5.502   2.753   5.075 -1.0579  1.5318 -0.3865
14699TIP3   OH244053   5.138   3.372   1.160 -0.2558  0.0480  0.4853
14699TIP3    H144054   5.164   3.388   1.251 -0.2850 -0.2344  0.5448
14699TIP3    H244055   5.079   3.296   1.165 -0.0252 -0.1545  0.2000
14700TIP3   OH244056   8.164   0.534   1.208 -0.0787  0.0638 -0.0234
14700TIP3    H144057   8.112   0.603   1.250  0.8519 -0.0614  1.3636
14700TIP3    H244058   8.100   0.466   1.187 -0.4200 -0.4219  2.3525
14701TIP3   OH244059   5.573   3.368   0.735  0.1199  0.1729  0.4445
14701TIP3    H144060   5.562   3.315   0.656 -0.1269 -0.4896  0.9121
14701TIP3    H244061   5.667   3.366   0.753  0.2581  0.8121 -0.1502
14702TIP3   OH244062   4.326   6.841   4.098  0.1296  0.2030  0.4375
14702TIP3    H144063   4.346   6.811   4.186 -0.0474 -1.4112 -0.0458
14702TIP3    H244064   4.388   6.913   4.083  2.3762 -1.5600  0.7168
14703TIP3   OH244065   8.124   5.411   6.339 -0.3642 -0.0920 -0.4024
14703TIP3    H144066   8.057   5.479   6.341 -0.8086 -0.4868 -1.4472
14703TIP3    H244067   8.173   5.427   6.259 -1.1045 -1.5782 -1.1926
14704TIP3   OH244068   4.372   6.280   2.896  0.0402 -0.0087  0.0567
14704TIP3    H144069   4.307   6.340   2.931  1.2092  1.5508 -0.3053
14704TIP3    H244070   4.349   6.270   2.803 -0.5856 -0.7426  0.2814
14705TIP3   OH244071   0.145   0.136   4.250  0.2382 -0.5478 -0.6029
14705TIP3    H144072   0.090   0.177   4.317  1.2910  0.1244 -0.1234
14705TIP3    H244073   0.208   0.204   4.226  2.2480 -1.9462  0.4686
14706TIP3   OH244074   6.265   6.340   0.758  0.2618  0.2462  0.5316
14706TIP3    H144075   6.195   6.338   0.823 -0.0436 -1.1492  0.1930
14706TIP3    H244076   6.218   6.352   0.675  0.2983 -1.6214  0.1986
14707TIP3   OH244077   6.898   1.241   6.685 -0.4337  0.0918 -0.4630
14707TIP3    H144078   6.877   1.278   6.599  0.7090 -0.6635 -1.1078
14707TIP3    H244079   6.842   1.287   6.746 -1.1391  0.7868 -1.6006
14708TIP3   OH244080   5.662   0.697   0.653 -0.5160  0.7119  0.1140
14708TIP3    H144081   5.689   0.750   0.578 -0.4964 -0.7604 -0.9620
14708TIP3    H244082   5.577   0.661   0.627  0.1683 -1.0006  0.1442
14709TIP3   OH244083   1.319   0.995   0.504  0.0764 -0.5254 -0.2817
14709TIP3    H144084   1.252   0.956   0.560  0.1886  2.0072  1.8247
14709TIP3    H244085   1.394   1.009   0.562  0.8403  0.6529 -1.4908
14710TIP3   OH244086   6.452   4.454   1.313  0.1488 -0.6091 -0.9907
14710TIP3    H144087   6.437   4.515   1.386  0.1434 -1.4571 -0.2641
14710TIP3    H244088   6.382   4.473   1.251 -0.0910 -0.1458 -0.5849
14711TIP3   OH244089   4.355   7.698   3.240 -0.2753  0.2883 -0.3252
14711TIP3    H144090   4.436   7.680   3.287 -0.9854  0.2748  0.9325
14711TIP3    H244091   4.383   7.709   3.149  1.0604 -0.2393 -0.0122
14712TIP3   OH244092   1.457   4.156   6.139 -0.3807  0.1816  0.2452
14712TIP3    H144093   1.461   4.157   6.234 -1.5449 -0.4433  0.3243
14712TIP3    H244094   1.513   4.083   6.113  1.3258  1.4041  0.3232
14713TIP3   OH244095   2.518   5.149   2.602  0.4922 -0.7360 -0.4363
14713TIP3    H144096   2.462   5.188   2.535  1.6135 -1.1377 -1.6430
14713TIP3    H244097   2.469   5.160   2.684 -0.0562  1.4860 -1.0028
14714TIP3   OH244098   5.038   0.716   1.654  0.3676  0.2345  0.3753
14714TIP3    H144099   5.067   0.663   1.580  0.8272  0.4199  0.4187
14714TIP3    H244100   4.945   0.695   1.664  0.3094  0.1817 -0.2318
14715TIP3   OH244101   5.897   7.098   6.303  0.6696  0.4679 -0.2842
14715TIP3    H144102   5.987   7.065   6.314  0.4100  0.0212  0.6643
14715TIP3    H244103   5.859   7.092   6.391 -0.9173 -1.2098 -1.0161
14716TIP3   OH244104   5.172   1.785   1.139  0.0761 -0.4687 -0.6699
14716TIP3    H144105   5.171   1.690   1.152 -1.7751 -0.5886 -1.4333
14716TIP3    H244106   5.254   1.802   1.093  0.4678 -1.6827 -0.4476
14717TIP3   OH244107   2.833   5.607   3.310 -0.4538  0.3269 -0.8396
14717TIP3    H144108   2.814   5.635   3.400 -0.3323 -0.5213 -0.5479
14717TIP3    H244109   2.900   5.668   3.280 -1.6305  1.6392 -0.9304
14718TIP3   OH244110   8.276   2.756   2.799  0.1895  0.2417 -0.0298
14718TIP3    H144111   8.205   2.806   2.759 -1.2830 -1.6465  0.0820
14718TIP3    H244112   8.236   2.716   2.876  1.8286  0.3704  0.9296
14719TIP3   OH244113   3.431   3.326   3.218  0.2191  0.2804 -0.6235
14719TIP3    H144114   3.365   3.334   3.287  1.5881 -0.1155  0.7964
14719TIP3    H244115   3.455   3.416   3.196  1.5742  0.4467  1.2795
14720TIP3   OH244116   5.343   0.635   2.712  0.2099 -0.4844  0.1543
14720TIP3    H144117   5.389   0.555   2.737  0.1974 -1.2349 -1.9895
14720TIP3    H244118   5.251   0.609   2.705 -0.0191  0.0950  0.7795
14721TIP3   OH244119   7.862   5.518   6.147 -0.4941  0.2359 -0.3350
14721TIP3    H144120   7.895   5.548   6.232 -0.2071  1.2612 -0.7953
14721TIP3    H244121   7.771   5.492   6.164  0.3896 -2.3780  0.8959
14722TIP3   OH244122   3.463   5.128   6.574  0.7797 -0.9282  0.0568
14722TIP3    H144123   3.368   5.121   6.565  0.3345  1.7587  1.7216
14722TIP3    H244124   3.483   5.089   6.659  0.7047  1.2026  1.0914
14723TIP3   OH244125   2.845   4.017   1.187  0.4886  0.5831 -0.5761
14723TIP3    H144126   2.920   4.040   1.132  1.7514 -0.7198  0.5316
14723TIP3    H244127   2.882   4.006   1.275 -0.7990 -1.1529 -0.2007
14724TIP3   OH244128   5.820   6.456   1.104 -0.1897 -0.4099  0.6453
14724TIP3    H144129   5.729   6.483   1.098  0.5406  2.2676  0.0660
14724TIP3    H244130   5.866   6.534   1.137  2.4308 -0.2049 -2.8750
14725TIP3   OH244131   1.412   3.512   2.231  0.1263 -0.1308  0.0266
14725TIP3    H144132   1.507   3.514   2.221 -0.0094 -0.3849 -1.6323
14725TIP3    H244133   1.388   3.420   2.216 -0.5352  0.2762 -1.6507
14726TIP3   OH244134   6.273   3.967   5.739  0.1279 -0.2518  0.0176
14726TIP3    H144135   6.257   4.040   5.798  0.5682 -0.3927  0.3196
14726TIP3    H244136   6.367   3.971   5.720  0.2102 -0.8930  0.2535
14727TIP3   OH244137   2.059   4.601   1.592  0.6295  0.6097 -0.2575
14727TIP3    H144138   2.083   4.509   1.592  1.2847  0.7610 -1.2758
14727TIP3    H244139   2.139   4.647   1.566  0.3644  1.4867  0.4060
14728TIP3   OH244140   6.183   5.234   4.476 -0.9265  0.0028  0.3800
14728TIP3    H144141   6.221   5.153   4.440 -2.3863 -1.0254  1.0883
14728TIP3    H244142   6.100   5.243   4.430  0.5802  2.9738 -2.1543
14729TIP3   OH244143   4.985   4.634   3.352 -1.0611  0.3099  0.0800
14729TIP3    H144144   5.021   4.696   3.290 -0.1756  0.3434  0.6100
14729TIP3    H244145   4.987   4.550   3.306 -0.5941  0.3682 -0.0167
14730TIP3   OH244146   1.634   5.161   5.760 -0.2211  0.1162  0.3265
14730TIP3    H144147   1.610   5.249   5.789  2.2976  0.9438  0.0953
14730TIP3    H244148   1.608   5.104   5.832 -2.7037  0.8733  0.1177
14731TIP3   OH244149   0.887   0.610   4.734 -0.0235  0.8720  0.4574
14731TIP3    H144150   0.865   0.575   4.820 -0.6018  2.3819  0.9583
14731TIP3    H244151   0.967   0.661   4.748  1.2564 -0.7901 -0.4138
14732TIP3   OH244152   2.680   4.389   0.085 -0.1838  0.7527 -0.3883
14732TIP3    H144153   2.614   4.419   0.023  0.1757  0.0614 -1.1224
14732TIP3    H244154   2.740   4.336   0.032  0.3644  0.4960  0.4730
14733TIP3   OH244155   4.216   0.237   4.998 -0.2907 -0.0573 -0.5016
14733TIP3    H144156   4.183   0.147   5.001 -3.6431  1.0099 -1.0244
14733TIP3    H244157   4.189   0.269   4.912 -1.0624  2.0479  0.4668
14734TIP3   OH244158   2.668   3.313   1.904 -0.3311  0.0021 -0.3218
14734TIP3    H144159   2.734   3.297   1.837  1.0302  1.6681  0.5368
14734TIP3    H244160   2.666   3.232   1.955  2.9650  0.6800  1.1483
14735TIP3   OH244161   6.609   0.406   6.652 -0.6082 -0.2843 -0.1351
14735TIP3    H144162   6.673   0.466   6.613 -0.8564  0.9207  1.2372
14735TIP3    H244163   6.645   0.385   6.738 -2.3173  0.9379  0.9421
14736TIP3   OH244164   1.278   0.874   0.045 -0.3080  0.3364 -0.2689
14736TIP3    H144165   1.350   0.882   0.108  0.5002  0.5430 -1.1916
14736TIP3    H244166   1.282   0.783   0.016 -0.6424  0.2576 -0.0794
14737TIP3   OH244167   1.104   6.998   6.531 -0.1418 -0.1220 -0.1598
14737TIP3    H144168   1.132   6.941   6.603 -1.0254  0.6333  0.8213
14737TIP3    H244169   1.082   6.938   6.460 -2.3523 -1.1829  1.2945
14738TIP3   OH244170   3.477   3.137   3.828  0.1275 -0.5612 -0.2704
14738TIP3    H144171   3.497   3.163   3.738  0.2972  1.1417  0.2258
14738TIP3    H244172   3.561   3.136   3.873 -0.1664  0.6554  0.3511
14739TIP3   OH244173   2.897   5.012   1.867  0.3269  0.5696  0.6841
14739TIP3    H144174   2.888   4.974   1.779  0.2151 -0.4380  1.1173
14739TIP3    H244175   2.983   4.984   1.897  0.3555  0.8929  0.9030
14740TIP3   OH244176   8.172   0.230   0.790 -0.3115 -0.6068 -0.3459
14740TIP3    H144177   8.216   0.149   0.764  0.6363  0.3968 -2.0315
14740TIP3    H244178   8.243   0.293   0.802 -1.1265  0.3708 -0.5097
14741TIP3   OH244179   1.120   5.001   5.681  0.7473 -0.1262  0.3642
14741TIP3    H144180   1.140   5.094   5.689 -0.4976  0.0990  1.2009
14741TIP3    H244181   1.091   4.990   5.591  0.7224  0.3267  0.3150
14742TIP3   OH244182   4.537   5.190   6.502  0.6487 -0.1235  0.2602
14742TIP3    H144183   4.448   5.220   6.524  1.3329  1.9479  0.4341
14742TIP3    H244184   4.548   5.110   6.552 -0.4757  0.5753  1.7106
14743TIP3   OH244185   2.139   3.612   6.674 -0.0270  0.3678 -0.1812
14743TIP3    H144186   2.151   3.540   6.736 -2.9831 -1.1447 -1.1971
14743TIP3    H244187   2.054   3.650   6.697  1.1390  3.1794 -0.1261
14744TIP3   OH244188   6.670   7.203   3.827  0.0593  0.3330  0.1038
14744TIP3    H144189   6.748   7.225   3.777  0.7873  1.2235  1.5590
14744TIP3    H244190   6.608   7.273   3.806 -0.1717 -0.0882 -0.6472
14745TIP3   OH244191   4.245   3.880   4.747  0.3142  0.0884 -0.1776
14745TIP3    H144192   4.219   3.789   4.758  2.8503 -0.5643  1.4153
14745TIP3    H244193   4.204   3.908   4.665  0.1705 -2.7401 -1.1695
14746TIP3   OH244194   6.699   3.447   6.157  0.0925  0.3084  0.5062
14746TIP3    H144195   6.747   3.523   6.123  0.6877 -0.4214 -0.2999
14746TIP3    H244196   6.767   3.384   6.180 -0.3057  0.5818  2.6467
14747TIP3   OH244197   4.517   3.976   4.568  0.6811 -0.4936 -0.3601
14747TIP3    H144198   4.449   3.940   4.625  2.6507 -0.5260  2.1444
14747TIP3    H244199   4.567   3.900   4.539  1.3962 -0.2661  0.2444
14748TIP3   OH244200   7.588   7.779   6.817  0.0872  0.2315 -0.1982
14748TIP3    H144201   7.640   7.833   6.758  2.2592 -0.7376  0.7122
14748TIP3    H244202   7.566   7.701   6.766 -0.0061  0.3858 -0.3985
14749TIP3   OH244203   0.219   4.786   4.488 -0.4785 -0.0192  1.0422
14749TIP3    H144204   0.287   4.793   4.555 -0.0835 -0.2346  0.6701
14749TIP3    H244205   0.160   4.718   4.520 -0.0121 -0.4785  0.9296
14750TIP3   OH244206   4.656   1.004   1.223 -0.3112 -0.1064 -0.1724
14750TIP3    H144207   4.748   0.993   1.248 -0.4014  2.1762  1.4023
14750TIP3    H244208   4.609   0.939   1.275  0.1104  0.8481  1.4440
14751TIP3   OH244209   8.044   0.451   6.646 -0.7093 -0.1859  0.1817
14751TIP3    H144210   8.125   0.400   6.652  0.0085  1.0612  2.0384
14751TIP3    H244211   8.055   0.505   6.568 -0.5007 -1.2200 -0.5267
14752TIP3   OH244212   2.121   2.386   5.980  0.2671 -0.1216 -0.1667
14752TIP3    H144213   2.119   2.427   5.893 -0.6120 -0.8104 -0.4889
14752TIP3    H244214   2.086   2.298   5.965  0.3477 -0.3321  0.8495
14753TIP3   OH244215   7.938   2.381   1.434 -0.1530 -0.3138  0.3898
14753TIP3    H144216   7.927   2.300   1.383  2.1138 -1.9763  2.3608
14753TIP3    H244217   7.882   2.369   1.510 -1.5194  1.0381 -0.3347
14754TIP3   OH244218   1.290   5.973   5.014  0.2250 -0.3253  0.6835
14754TIP3    H144219   1.221   6.028   5.051  0.2862 -0.4717  1.0282
14754TIP3    H244220   1.368   6.029   5.014  0.2159 -0.3125  0.7464
14755TIP3   OH244221   1.704   2.190   5.841 -0.3096  0.6432 -0.5264
14755TIP3    H144222   1.796   2.175   5.863 -0.6858  0.2959  0.9517
14755TIP3    H244223   1.667   2.102   5.830 -0.4776  0.7772 -1.0395
14756TIP3   OH244224   0.245   0.608   1.241 -0.5114  0.4018  0.0116
14756TIP3    H144225   0.223   0.673   1.307 -1.3371 -2.0501  2.3655
14756TIP3    H244226   0.176   0.615   1.176 -0.0916  2.4084 -0.2661
14757TIP3   OH244227   5.035   4.470   0.881  0.0104  0.3094  0.0477
14757TIP3    H144228   5.082   4.549   0.907 -0.3815  0.0038  1.7900
14757TIP3    H244229   4.956   4.469   0.936 -0.1942 -1.0748 -0.2197
14758TIP3   OH244230   2.972   4.679   1.831 -0.0057 -0.0380  0.1213
14758TIP3    H144231   2.923   4.726   1.764  0.2404 -0.6689 -0.5139
14758TIP3    H244232   3.031   4.622   1.782 -0.6394 -1.3797  0.8523
14759TIP3   OH244233   3.733   2.651   1.664 -0.3161 -0.3982  0.1417
14759TIP3    H144234   3.646   2.632   1.700 -0.2722  0.9445  1.0030
14759TIP3    H244235   3.718   2.720   1.600 -0.1366 -1.5730 -1.2307
14760TIP3   OH244236   4.298   6.431   4.390 -0.0014  0.6395  0.2590
14760TIP3    H144237   4.205   6.442   4.373  0.2557  1.0659 -1.0102
14760TIP3    H244238   4.311   6.466   4.478 -0.9961  0.7449  0.3747
14761TIP3   OH244239   4.351   1.845   1.974 -0.1570  0.5540  0.0741
14761TIP3    H144240   4.357   1.916   1.910 -0.1474  0.4252 -0.0686
14761TIP3    H244241   4.326   1.768   1.922  1.2997  0.1017 -0.0135
14762TIP3   OH244242   7.116   2.419   3.534  0.2520 -0.6453  0.9233
14762TIP3    H144243   7.120   2.421   3.630  1.5061  0.0280  0.8826
14762TIP3    H244244   7.159   2.500   3.507  0.3225 -1.0494 -0.2174
14763TIP3   OH244245   2.749   7.631   6.481 -0.3248 -0.2548 -0.1664
14763TIP3    H144246   2.677   7.621   6.418  0.1052  1.8995 -1.0921
14763TIP3    H244247   2.710   7.680   6.553  0.3884  1.9667 -1.1897
14764TIP3   OH244248   0.354   5.328   2.921  0.7863 -0.1739  0.4471
14764TIP3    H144249   0.413   5.253   2.924 -1.0422 -1.6933  0.3879
14764TIP3    H244250   0.291   5.312   2.991  0.4668  1.4299  0.5663
14765TIP3   OH244251   2.068   5.102   6.408  0.5060 -0.4058  0.1191
14765TIP3    H144252   2.007   5.176   6.399 -0.9754 -1.5461  0.3470
14765TIP3    H244253   2.081   5.069   6.319  0.1483 -0.6418  0.1512
14766TIP3   OH244254   0.986   7.730   3.878  0.1766 -0.1491  0.4325
14766TIP3    H144255   0.986   7.819   3.843  1.3893 -0.2266  0.1982
14766TIP3    H244256   0.927   7.734   3.954  1.0094  1.1080  1.0463
14767TIP3   OH244257   7.147   4.510   2.913  0.5124  0.0361 -0.1346
14767TIP3    H144258   7.083   4.470   2.855 -2.6388  2.0465  1.6761
14767TIP3    H244259   7.184   4.437   2.962 -0.2359 -1.2121 -1.3546
14768TIP3   OH244260   4.046   1.324   3.184  0.0693  0.3124  0.0113
14768TIP3    H144261   4.097   1.384   3.130  1.5099  0.3327  1.3077
14768TIP3    H244262   4.110   1.287   3.245 -1.0582 -1.4274  0.2243
14769TIP3   OH244263  -0.006   4.929   2.152 -0.3710 -0.0950  0.5917
14769TIP3    H144264   0.067   4.921   2.089 -0.8935  2.7605 -0.5516
14769TIP3    H244265  -0.045   4.842   2.155  2.1384 -1.3329  0.0675
14770TIP3   OH244266   0.124   5.515   1.665 -0.0833  0.1096 -0.4437
14770TIP3    H144267   0.104   5.605   1.638  0.9382  0.7080  0.7039
14770TIP3    H244268   0.176   5.479   1.593 -0.8293  0.2885 -1.0841
14771TIP3   OH244269   2.342   1.544   6.153 -0.3744 -0.2004 -0.8412
14771TIP3    H144270   2.425   1.571   6.191 -0.3844  0.0873 -1.0301
14771TIP3    H244271   2.363   1.464   6.104 -0.6042 -1.3985  0.8986
14772TIP3   OH244272   0.569   0.412   3.095  0.0657 -0.2287  0.1863
14772TIP3    H144273   0.662   0.431   3.113 -0.1402  0.8707  0.1281
14772TIP3    H244274   0.569   0.321   3.066  0.8707 -0.9609  2.2855
14773TIP3   OH244275   7.611   3.129   3.269 -0.4493 -0.5957 -0.1572
14773TIP3    H144276   7.674   3.168   3.330 -0.6672  1.3010 -1.0631
14773TIP3    H244277   7.649   3.143   3.182 -1.5583 -0.4874 -0.6431
14774TIP3   OH244278   7.698   5.973   6.039  0.4861 -0.4362 -0.0232
14774TIP3    H144279   7.667   6.032   6.108  0.4341 -1.7928  1.1549
14774TIP3    H244280   7.634   5.984   5.968 -0.4566 -0.2866  0.8252
14775TIP3   OH244281   6.670   0.982   3.705  0.0066  0.2808  0.2173
14775TIP3    H144282   6.711   1.062   3.671  0.3459  0.0084 -0.0244
14775TIP3    H244283   6.576   0.995   3.689  0.1627  0.1007 -0.9883
14776TIP3   OH244284   7.949   1.793   4.437  0.4907  0.1135  0.1507
14776TIP3    H144285   7.914   1.817   4.351  1.9713  0.2926 -0.4226
14776TIP3    H244286   7.974   1.876   4.477 -0.2626  0.0391  0.8111
14777TIP3   OH244287   2.612   6.049   4.246  0.3150  0.3324 -0.1421
14777TIP3    H144288   2.533   6.098   4.268  1.1857  1.5173  0.4251
14777TIP3    H244289   2.641   6.085   4.163 -0.7539 -1.4165 -1.3424
14778TIP3   OH244290   0.219   6.101   0.974 -0.6861 -0.4111  0.2933
14778TIP3    H144291   0.202   6.009   0.953 -1.2846  0.0228 -1.3303
14778TIP3    H244292   0.142   6.129   1.023 -0.1043 -0.9862  1.5559
14779TIP3   OH244293   4.723   7.178   1.702 -0.8458  0.3220 -0.6795
14779TIP3    H144294   4.726   7.211   1.612 -0.0411  1.4827 -0.2496
14779TIP3    H244295   4.684   7.249   1.752 -0.4084  0.0609  0.0400
14780TIP3   OH244296   0.556   4.183   1.501  0.1973 -0.3813 -0.5488
14780TIP3    H144297   0.550   4.193   1.406  1.3059 -1.2801 -0.7335
14780TIP3    H244298   0.501   4.253   1.536  2.0303  1.8416 -1.8140
14781TIP3   OH244299   5.176   0.933   2.684  0.2947  0.5398  0.6091
14781TIP3    H144300   5.258   0.925   2.734 -0.1720 -0.7264  1.2325
14781TIP3    H244301   5.185   1.015   2.636  2.3002  0.0015 -0.0252
14782TIP3   OH244302   6.418   4.044   6.354 -0.3844 -0.5027  0.3347
14782TIP3    H144303   6.326   4.028   6.378 -0.4320 -0.9561 -0.1195
14782TIP3    H244304   6.416   4.060   6.260 -0.0939  0.3595  0.4628
14783TIP3   OH244305   8.093   1.114   1.135 -0.2415 -0.1669  0.3396
14783TIP3    H144306   8.112   1.204   1.161  0.9486 -0.6076  1.0956
14783TIP3    H244307   8.001   1.101   1.159 -0.0167  0.3900  1.5557
14784TIP3   OH244308   4.785   2.200   4.744 -0.2172 -0.0078 -0.8604
14784TIP3    H144309   4.776   2.245   4.660  1.4036  2.1201  0.0042
14784TIP3    H244310   4.875   2.220   4.773 -0.7998 -0.4497  1.4952
14785TIP3   OH244311   2.729   4.098   6.358 -0.1227  0.2469  0.4543
14785TIP3    H144312   2.788   4.172   6.342  1.0261 -0.5854  0.7182
14785TIP3    H244313   2.651   4.118   6.306  0.8574  0.8277 -0.8559
14786TIP3   OH244314   0.435   3.413   1.424 -0.5441 -0.3628 -0.1512
14786TIP3    H144315   0.452   3.445   1.335 -1.6675 -2.9102 -1.3663
14786TIP3    H244316   0.346   3.443   1.444 -1.2748 -1.8702 -0.9601
14787TIP3   OH244317   3.435   4.422   2.904  1.0526  0.3858  0.0027
14787TIP3    H144318   3.381   4.421   2.983  2.7954  1.7225  1.2832
14787TIP3    H244319   3.417   4.507   2.864  0.5414 -0.0925 -0.8037
14788TIP3   OH244320   1.594   1.821   1.468  0.3196 -0.2088 -0.6041
14788TIP3    H144321   1.568   1.784   1.383 -0.7923 -0.9906  0.0420
14788TIP3    H244322   1.590   1.747   1.528 -1.2727  0.8020  0.6063
14789TIP3   OH244323   0.881   5.363   0.574  0.4814 -0.0219 -0.2291
14789TIP3    H144324   0.950   5.430   0.570  0.5842 -0.1183 -0.0824
14789TIP3    H244325   0.802   5.411   0.597  0.2439  0.2796 -1.5522
14790TIP3   OH244326   3.261   2.820   2.045 -0.0525 -0.6215  0.5321
14790TIP3    H144327   3.181   2.869   2.027 -0.5115 -1.9223 -1.2002
14790TIP3    H244328   3.263   2.812   2.141  0.2109  2.8972  0.9310
14791TIP3   OH244329   4.445   4.791   0.616  0.0439  0.6806 -0.3793
14791TIP3    H144330   4.451   4.858   0.685 -1.9063 -1.6517  2.2498
14791TIP3    H244331   4.375   4.822   0.559  0.1755  1.5712 -0.0838
14792TIP3   OH244332   6.802   4.483   2.101 -0.8523 -0.3455  0.3848
14792TIP3    H144333   6.789   4.563   2.049 -2.7999 -0.3535  0.7921
14792TIP3    H244334   6.719   4.436   2.094  0.0694 -2.0670  0.6377
14793TIP3   OH244335   6.346   7.280   3.853 -0.1441 -0.0000 -0.4828
14793TIP3    H144336   6.394   7.227   3.917  0.8583  2.6380  1.1129
14793TIP3    H244337   6.388   7.260   3.769  0.3582 -1.4674  0.0729
14794TIP3   OH244338   8.135   4.643   0.604  0.5998  0.1191  0.2873
14794TIP3    H144339   8.209   4.677   0.553  1.3437 -1.3127  0.3749
14794TIP3    H244340   8.112   4.714   0.664  2.7205  0.1746  1.1132
14795TIP3   OH244341   2.116   0.336   4.628  0.2826  0.1984 -0.1877
14795TIP3    H144342   2.196   0.336   4.681  0.0095  2.0059  0.3037
14795TIP3    H244343   2.137   0.392   4.553 -0.9333  1.9614  0.7073
14796TIP3   OH244344   3.000   0.059   2.652  0.1761 -0.0670 -0.1872
14796TIP3    H144345   2.942  -0.013   2.679  0.8411 -0.4800  0.1635
14796TIP3    H244346   2.985   0.067   2.558 -1.4627  0.7444  0.1051
14797TIP3   OH244347   0.846   7.662   2.664  0.0425 -0.1053  0.6972
14797TIP3    H144348   0.804   7.747   2.674  0.6223  0.2206  0.4245
14797TIP3    H244349   0.788   7.601   2.710 -0.3611  0.4379  0.9210
14798TIP3   OH244350   2.319   3.097   5.545 -0.6235  0.5762  0.3692
14798TIP3    H144351   2.296   3.143   5.626 -2.3653  0.4142  0.0041
14798TIP3    H244352   2.263   3.020   5.544 -0.7698  0.6697 -1.0734
14799TIP3   OH244353   2.519   6.818   4.612  0.0282  0.1624  0.3486
14799TIP3    H144354   2.500   6.846   4.523  1.9340  1.8719  0.4010
14799TIP3    H244355   2.578   6.743   4.602  0.4379  0.5062  0.1469
14800TIP3   OH244356   1.034   6.466   1.540 -0.3634  0.2037  0.0607
14800TIP3    H144357   1.113   6.414   1.523 -1.2883 -1.8936  1.6890
14800TIP3    H244358   1.032   6.477   1.635 -0.5215  2.8345 -0.1725
14801TIP3   OH244359   6.671   4.311   3.958 -0.2060  0.0889 -0.1526
14801TIP3    H144360   6.720   4.249   4.013 -0.8386 -1.2141 -1.0103
14801TIP3    H244361   6.583   4.275   3.954 -0.4034  0.6636 -1.2620
14802TIP3   OH244362   0.409   1.633   4.352 -0.1851  0.0991  0.2319
14802TIP3    H144363   0.393   1.650   4.445  2.3339 -0.8058  0.9221
14802TIP3    H244364   0.475   1.697   4.327 -1.2905  0.7390 -1.1440
14803TIP3   OH244365   1.285   3.940   1.199 -0.0435 -0.2098 -0.0396
14803TIP3    H144366   1.292   3.926   1.293  0.6023 -1.7569 -0.2989
14803TIP3    H244367   1.202   3.899   1.175 -0.0733 -0.0598 -0.1976
14804TIP3   OH244368   8.062   2.596   1.302 -0.6758 -0.0620 -0.3526
14804TIP3    H144369   8.149   2.556   1.296 -0.3074  0.6223  0.2223
14804TIP3    H244370   8.013   2.538   1.359 -0.2333  0.1466  0.2525
14805TIP3   OH244371   5.249   7.335   4.991  0.2302 -0.1137  0.2318
14805TIP3    H144372   5.338   7.325   5.024 -0.6534 -3.1138  2.1193
14805TIP3    H244373   5.244   7.275   4.917 -0.6575 -1.3442  1.2523
14806TIP3   OH244374   2.927   3.000   4.881 -0.5337 -0.3969 -0.5180
14806TIP3    H144375   2.986   3.044   4.942 -1.6337  1.1237 -0.4999
14806TIP3    H244376   2.876   3.070   4.842 -0.0778 -1.3476 -3.0065
14807TIP3   OH244377   0.833   3.386   5.146 -0.2202  0.3753  0.0798
14807TIP3    H144378   0.835   3.290   5.147 -2.0107  0.2883  1.4195
14807TIP3    H244379   0.769   3.407   5.078  0.8880  0.6875 -0.8935
14808TIP3   OH244380   0.404   1.164   0.635  0.0916  0.3359  0.2572
14808TIP3    H144381   0.403   1.195   0.545  1.5314 -1.3892 -0.4287
14808TIP3    H244382   0.483   1.204   0.673  0.1754  0.0799  0.3539
14809TIP3   OH244383   6.568   5.951   1.696  0.0933 -0.0060  0.0808
14809TIP3    H144384   6.502   5.885   1.675 -0.6848  1.0706 -1.0488
14809TIP3    H244385   6.607   5.921   1.778 -0.7351 -1.4735 -0.0300
14810TIP3   OH244386   8.215   6.849   3.552  0.4229 -0.5472 -0.2169
14810TIP3    H144387   8.296   6.805   3.577  0.3485 -0.4572  0.1824
14810TIP3    H244388   8.178   6.882   3.634 -0.7127 -1.7597 -0.2098
14811TIP3   OH244389   4.652   2.925   6.747 -0.1675 -0.0624  0.0881
14811TIP3    H144390   4.628   2.929   6.654 -1.1116 -1.5052  0.2282
14811TIP3    H244391   4.745   2.905   6.747 -0.0718  0.3577 -0.5518
14812TIP3   OH244392   4.966   3.627   5.864  0.2690 -0.3491  0.1767
14812TIP3    H144393   5.018   3.707   5.857 -0.1051 -0.0622  0.5660
14812TIP3    H244394   4.885   3.647   5.817  0.3669 -0.6658 -0.1243
14813TIP3   OH244395   2.888   0.745   2.554  0.0190 -0.6198  0.0256
14813TIP3    H144396   2.816   0.788   2.600 -0.6998  1.7955 -3.0391
14813TIP3    H244397   2.965   0.797   2.577  0.1940 -1.1339  0.6361
14814TIP3   OH244398   1.968   5.895   0.676  0.0574  0.0534 -0.4080
14814TIP3    H144399   2.008   5.976   0.707  0.6856 -0.2204 -0.4775
14814TIP3    H244400   1.886   5.888   0.725 -1.2398  1.9796 -2.1669
14815TIP3   OH244401   4.181   2.341   3.061  0.1699  0.0540  0.3359
14815TIP3    H144402   4.099   2.293   3.072  0.0967  0.0589 -0.1604
14815TIP3    H244403   4.169   2.421   3.112 -0.4935  0.4826 -0.4658
14816TIP3   OH244404   5.977   4.062   3.137  0.4086 -0.0247  0.0063
14816TIP3    H144405   6.005   4.069   3.228  0.5620  1.9165 -0.1568
14816TIP3    H244406   5.987   4.150   3.101 -0.4955 -0.5416 -1.6511
14817TIP3   OH244407   6.685   6.492   5.850 -0.7010 -0.1344 -0.2678
14817TIP3    H144408   6.727   6.406   5.851 -1.0105 -0.2843 -0.1196
14817TIP3    H244409   6.735   6.542   5.785 -1.5309 -0.9301 -1.5785
14818TIP3   OH244410   5.728   2.099   4.130  0.6584 -0.1166  0.2647
14818TIP3    H144411   5.687   2.185   4.135 -0.2615 -0.5546  0.3373
14818TIP3    H244412   5.772   2.088   4.214 -1.1616 -0.6732  1.1777
14819TIP3   OH244413   5.133   1.450   3.725  0.5655 -0.3840  0.3008
14819TIP3    H144414   5.106   1.526   3.776  0.8974  0.5690 -0.8989
14819TIP3    H244415   5.056   1.394   3.722 -0.2320  0.7053 -0.2088
14820TIP3   OH244416   8.011   3.762   0.250  0.1446  0.3347 -0.5069
14820TIP3    H144417   8.015   3.668   0.229 -1.2303  0.0303  0.4462
14820TIP3    H244418   8.082   3.774   0.314  1.3185  0.2941 -1.7633
14821TIP3   OH244419   3.575   2.009   0.519  0.4201  0.4044  0.0291
14821TIP3    H144420   3.497   2.021   0.466  0.0714 -1.5348  0.0376
14821TIP3    H244421   3.557   2.057   0.599 -2.5666 -3.0716  1.7409
14822TIP3   OH244422   7.559   4.848   3.202 -0.0179 -0.7715  0.0623
14822TIP3    H144423   7.627   4.837   3.136 -0.2544  0.7249 -0.4541
14822TIP3    H244424   7.519   4.932   3.182 -2.3195 -1.7811  0.0930
14823TIP3   OH244425   5.488   0.917   4.885 -1.0866  0.1390 -0.4152
14823TIP3    H144426   5.445   0.912   4.800  0.4450  1.7785 -1.3473
14823TIP3    H244427   5.438   0.984   4.933 -0.7110  0.6913 -0.7933
14824TIP3   OH244428   4.672   4.659   0.131  0.3163  0.0183 -0.0148
14824TIP3    H144429   4.739   4.600   0.164  0.7332  0.2458 -0.4417
14824TIP3    H244430   4.692   4.668   0.038 -0.0806  0.3913 -0.0665
14825TIP3   OH244431   8.003   7.801   3.386  0.5585 -0.1700 -0.1604
14825TIP3    H144432   8.043   7.727   3.341  0.3902  0.7915 -1.9857
14825TIP3    H244433   8.046   7.878   3.349 -1.7272  0.8158 -0.9518
14826TIP3   OH244434   0.162   6.276   3.997  0.6211  0.4023 -0.3085
14826TIP3    H144435   0.087   6.217   3.992  1.8202 -1.2227 -0.1361
14826TIP3    H244436   0.132   6.357   3.956 -2.4788  1.2354  3.1056
14827TIP3   OH244437   6.929   1.771   1.439 -0.4344 -0.6784  0.3540
14827TIP3    H144438   6.909   1.727   1.521  1.2626  1.2917  1.9463
14827TIP3    H244439   6.934   1.700   1.374 -1.7920 -2.2930  1.9162
14828TIP3   OH244440   4.777   0.838   0.307 -0.6756  0.0502 -0.0996
14828TIP3    H144441   4.695   0.814   0.263 -0.6739  0.1046 -0.1323
14828TIP3    H244442   4.812   0.910   0.254 -0.8820  0.3917  0.2222
14829TIP3   OH244443   8.119   7.326   1.698 -0.1452 -0.6243  1.0769
14829TIP3    H144444   8.083   7.240   1.677 -0.8735 -0.4157  1.4510
14829TIP3    H244445   8.138   7.365   1.613 -1.1513 -0.5975  0.8524
14830TIP3   OH244446   2.548   4.795   3.713 -0.3245  0.0360  0.4795
14830TIP3    H144447   2.594   4.850   3.777  0.7200 -0.7856  0.4663
14830TIP3    H244448   2.520   4.856   3.645  1.9610  0.4418 -0.1944
14831TIP3   OH244449   2.611   5.651   0.090  0.1945 -0.5050 -0.1125
14831TIP3    H144450   2.653   5.615   0.168  1.2139  0.2096 -0.2985
14831TIP3    H244451   2.655   5.735   0.076 -1.5118  0.4123 -0.1902
14832TIP3   OH244452   6.302   6.324   6.274  0.1111 -0.6220  0.1477
14832TIP3    H144453   6.230   6.284   6.323 -0.6443 -0.0258 -0.4238
14832TIP3    H244454   6.267   6.332   6.185  0.5302  0.5272  0.0685
14833TIP3   OH244455   6.496   7.402   4.196  0.0102  0.1565 -0.0471
14833TIP3    H144456   6.587   7.427   4.178 -0.0032 -0.1884 -0.6158
14833TIP3    H244457   6.446   7.445   4.128 -0.4438  1.5924  1.1473
14834TIP3   OH244458   5.571   5.946   2.585 -0.4912  0.1916  0.0696
14834TIP3    H144459   5.581   6.002   2.509 -1.4004 -0.3370 -0.4602
14834TIP3    H244460   5.554   5.859   2.549 -0.7850 -0.0956  0.8669
14835TIP3   OH244461   4.853   2.940   0.390  0.3852 -0.1256 -0.4231
14835TIP3    H144462   4.884   2.859   0.350 -0.4655 -0.9037  0.4401
14835TIP3    H244463   4.933   2.986   0.416  0.9364  0.0947 -2.3524
14836TIP3   OH244464   2.534   1.621   0.088  0.3506 -0.7080  1.0143
14836TIP3    H144465   2.589   1.698   0.070  0.0859 -0.5966  0.6717
14836TIP3    H244466   2.447   1.646   0.056 -0.4334 -0.0759  3.3990
14837TIP3   OH244467   5.383   7.240   3.432 -0.0184  0.9155 -0.0965
14837TIP3    H144468   5.347   7.152   3.417  0.1806  0.6580  0.8560
14837TIP3    H244469   5.462   7.224   3.484  0.1835  1.6401 -0.1797
   8.31506   7.83951   6.78922   0.00000   0.00000  -2.77168   0.00000  -2.77168  -3.91976
