Title t= 320.00000 step= 160000
19942
    1ASP      N    1   0.870   2.007   3.243
    1ASP    HT1    2   0.842   1.907   3.228
    1ASP    HT2    3   0.906   2.039   3.151
    1ASP    HT3    4   0.786   2.054   3.281
    1ASP     CA    5   0.973   2.019   3.345
    1ASP     HA    6   1.001   2.122   3.330
    1ASP     CB    7   0.913   1.980   3.489
    1ASP    HB1    8   0.883   1.873   3.482
    1ASP    HB2    9   0.826   2.047   3.504
    1ASP     CG   10   1.010   2.004   3.604
    1ASP    OD1   11   0.979   1.957   3.716
    1ASP    OD2   12   1.121   2.070   3.586
    1ASP      C   13   1.101   1.938   3.310
    1ASP      O   14   1.192   1.990   3.247
    2ALA      N   15   1.106   1.804   3.343
    2ALA     HN   16   1.032   1.765   3.399
    2ALA     CA   17   1.195   1.704   3.289
    2ALA     HA   18   1.296   1.744   3.293
    2ALA     CB   19   1.200   1.577   3.381
    2ALA    HB1   20   1.256   1.597   3.475
    2ALA    HB2   21   1.272   1.501   3.343
    2ALA    HB3   22   1.100   1.530   3.394
    2ALA      C   23   1.159   1.669   3.150
    2ALA      O   24   1.060   1.711   3.094
    3ASP      N   25   1.234   1.577   3.082
    3ASP     HN   26   1.328   1.558   3.110
    3ASP     CA   27   1.196   1.520   2.951
    3ASP     HA   28   1.176   1.610   2.893
    3ASP     CB   29   1.306   1.426   2.891
    3ASP    HB1   30   1.289   1.389   2.787
    3ASP    HB2   31   1.332   1.330   2.940
    3ASP     CG   32   1.427   1.518   2.891
    3ASP    OD1   33   1.538   1.476   2.944
    3ASP    OD2   34   1.424   1.631   2.841
    3ASP      C   35   1.064   1.441   2.970
    3ASP      O   36   1.036   1.369   3.062
    4GLY      N   37   0.969   1.457   2.878
    4GLY     HN   38   0.986   1.524   2.806
    4GLY     CA   39   0.844   1.375   2.866
    4GLY    HA1   40   0.784   1.425   2.793
    4GLY    HA2   41   0.798   1.379   2.964
    4GLY      C   42   0.862   1.227   2.825
    4GLY      O   43   0.971   1.176   2.802
    5PRO      N   44   0.756   1.150   2.820
    5PRO     CD   45   0.629   1.192   2.869
    5PRO    HD1   46   0.587   1.279   2.814
    5PRO    HD2   47   0.623   1.218   2.977
    5PRO     CA   48   0.752   1.029   2.733
    5PRO     HA   49   0.805   0.954   2.791
    5PRO     CB   50   0.599   1.012   2.721
    5PRO    HB1   51   0.578   0.904   2.706
    5PRO    HB2   52   0.556   1.077   2.642
    5PRO     CG   53   0.547   1.066   2.854
    5PRO    HG1   54   0.437   1.081   2.845
    5PRO    HG2   55   0.562   0.994   2.937
    5PRO      C   56   0.821   1.035   2.601
    5PRO      O   57   0.836   1.142   2.548
    6GLY      N   58   0.861   0.915   2.550
    6GLY     HN   59   0.830   0.841   2.608
    6GLY     CA   60   0.937   0.885   2.430
    6GLY    HA1   61   0.943   0.778   2.420
    6GLY    HA2   62   1.032   0.933   2.447
    6GLY      C   63   0.867   0.940   2.305
    6GLY      O   64   0.747   0.962   2.291
    7ASP      N   65   0.949   0.966   2.198
    7ASP     HN   66   1.048   0.971   2.206
    7ASP     CA   67   0.890   1.004   2.070
    7ASP     HA   68   0.812   1.078   2.077
    7ASP     CB   69   1.001   1.084   1.990
    7ASP    HB1   70   0.979   1.112   1.885
    7ASP    HB2   71   1.095   1.025   1.984
    7ASP     CG   72   1.015   1.217   2.051
    7ASP    OD1   73   1.119   1.286   2.020
    7ASP    OD2   74   0.931   1.269   2.131
    7ASP      C   75   0.844   0.877   1.994
    7ASP      O   76   0.867   0.766   2.053
    8PRO      N   77   0.767   0.869   1.880
    8PRO     CD   78   0.700   0.987   1.828
    8PRO    HD1   79   0.769   1.055   1.775
    8PRO    HD2   80   0.678   1.053   1.915
    8PRO     CA   81   0.703   0.748   1.828
    8PRO     HA   82   0.635   0.711   1.903
    8PRO     CB   83   0.622   0.798   1.707
    8PRO    HB1   84   0.544   0.736   1.658
    8PRO    HB2   85   0.697   0.805   1.625
    8PRO     CG   86   0.579   0.934   1.754
    8PRO    HG1   87   0.559   0.999   1.665
    8PRO    HG2   88   0.502   0.927   1.834
    8PRO      C   89   0.799   0.633   1.797
    8PRO      O   90   0.772   0.517   1.831
    9ASP      N   91   0.908   0.668   1.732
    9ASP     HN   92   0.910   0.766   1.710
    9ASP     CA   93   1.010   0.585   1.677
    9ASP     HA   94   0.979   0.483   1.695
    9ASP     CB   95   1.029   0.605   1.524
    9ASP    HB1   96   1.134   0.585   1.493
    9ASP    HB2   97   1.014   0.711   1.498
    9ASP     CG   98   0.937   0.516   1.434
    9ASP    OD1   99   0.948   0.542   1.311
    9ASP    OD2  100   0.851   0.434   1.476
    9ASP      C  101   1.137   0.595   1.751
    9ASP      O  102   1.236   0.535   1.712
   10ALA      N  103   1.134   0.671   1.865
   10ALA     HN  104   1.049   0.711   1.899
   10ALA     CA  105   1.239   0.668   1.961
   10ALA     HA  106   1.329   0.703   1.913
   10ALA     CB  107   1.215   0.766   2.073
   10ALA    HB1  108   1.270   0.755   2.169
   10ALA    HB2  109   1.110   0.753   2.107
   10ALA    HB3  110   1.220   0.866   2.025
   10ALA      C  111   1.263   0.529   2.025
   10ALA      O  112   1.177   0.440   2.028
   11GLY      N  113   1.384   0.514   2.082
   11GLY     HN  114   1.453   0.582   2.061
   11GLY     CA  115   1.437   0.393   2.155
   11GLY    HA1  116   1.373   0.373   2.240
   11GLY    HA2  117   1.537   0.416   2.188
   11GLY      C  118   1.439   0.263   2.068
   11GLY    OT1  119   1.374   0.160   2.106
   11GLY    OT2  120   1.504   0.262   1.960
   12LIT    LIT  121   2.213   1.414   0.625
   13LIT    LIT  122   0.708   3.363   1.144
   14LIT    LIT  123   1.889   0.743   3.834
   15LIT    LIT  124   1.521   2.531   0.958
   16LIT    LIT  125   4.287   5.958   3.065
   17LIT    LIT  126   2.096   3.974   3.339
   18LIT    LIT  127   0.009   5.236   1.883
   19LIT    LIT  128   0.530   0.250   0.625
   20LIT    LIT  129   4.533   4.177   0.168
   21LIT    LIT  130   2.173   5.449   3.223
   22LIT    LIT  131   3.554   2.859   0.895
   23LIT    LIT  132   1.997   2.507   3.242
   24LIT    LIT  133   1.913   5.523   4.709
   25LIT    LIT  134   4.433   0.934   1.071
   26LIT    LIT  135   4.624   4.397   1.001
   27LIT    LIT  136   1.035   0.057   2.493
   28LIT    LIT  137   0.879   2.030   3.846
   29LIT    LIT  138   2.292   4.388   4.292
   30LIT    LIT  139   1.724   2.053   2.251
   31LIT    LIT  140   4.256   0.984   4.100
   32LIT    LIT  141   3.383   3.726   2.047
   33LIT    LIT  142   6.261   2.140   3.263
   34CLA    CLA  143   5.666   3.247   2.014
   35CLA    CLA  144   3.747   5.969   4.080
   36CLA    CLA  145   3.781   1.119   4.470
   37CLA    CLA  146   6.336   5.845   3.688
   38CLA    CLA  147   1.677   3.601   4.715
   39CLA    CLA  148   1.450   3.035   1.119
   40CLA    CLA  149   1.768   0.473   4.328
   41CLA    CLA  150   1.147   3.479   1.278
   42CLA    CLA  151   2.802   3.417   1.794
   43CLA    CLA  152   2.593   2.365   2.345
   44CLA    CLA  153   4.292   4.327   3.902
   45CLA    CLA  154   0.147   4.998   2.419
   46CLA    CLA  155   3.906   5.511   3.996
   47CLA    CLA  156   4.555   4.518   1.194
   48CLA    CLA  157   2.932   4.646   4.305
   49CLA    CLA  158   5.735   5.319   0.989
   50CLA    CLA  159   2.726   1.946   3.331
   51CLA    CLA  160   2.623   0.407   1.124
   52TIP3   OH2  161   6.076   1.445   2.169
   52TIP3    H1  162   6.096   1.491   2.088
   52TIP3    H2  163   5.998   1.488   2.203
   53TIP3   OH2  164   4.113   4.886   0.726
   53TIP3    H1  165   4.177   4.882   0.797
   53TIP3    H2  166   4.146   4.954   0.667
   54TIP3   OH2  167   6.192   2.003   4.753
   54TIP3    H1  168   6.231   1.926   4.795
   54TIP3    H2  169   6.151   2.052   4.825
   55TIP3   OH2  170   3.278   3.187   0.436
   55TIP3    H1  171   3.200   3.155   0.481
   55TIP3    H2  172   3.307   3.263   0.488
   56TIP3   OH2  173   4.787   1.085   1.456
   56TIP3    H1  174   4.867   1.106   1.504
   56TIP3    H2  175   4.736   1.166   1.456
   57TIP3   OH2  176   0.406   4.167   1.044
   57TIP3    H1  177   0.454   4.198   0.967
   57TIP3    H2  178   0.398   4.244   1.100
   58TIP3   OH2  179   6.123   3.653   2.230
   58TIP3    H1  180   6.162   3.738   2.249
   58TIP3    H2  181   6.183   3.612   2.168
   59TIP3   OH2  182   1.663   5.381   0.608
   59TIP3    H1  183   1.657   5.451   0.543
   59TIP3    H2  184   1.625   5.305   0.565
   60TIP3   OH2  185   1.890  -0.010   2.712
   60TIP3    H1  186   1.820   0.039   2.669
   60TIP3    H2  187   1.970   0.032   2.684
   61TIP3   OH2  188   5.142   3.469   1.027
   61TIP3    H1  189   5.194   3.432   1.099
   61TIP3    H2  190   5.204   3.522   0.978
   62TIP3   OH2  191   3.543   3.077   3.476
   62TIP3    H1  192   3.618   3.116   3.521
   62TIP3    H2  193   3.522   2.998   3.526
   63TIP3   OH2  194   5.048   3.502   0.271
   63TIP3    H1  195   5.137   3.531   0.249
   63TIP3    H2  196   5.061   3.416   0.312
   64TIP3   OH2  197   3.623   4.859   1.771
   64TIP3    H1  198   3.643   4.766   1.777
   64TIP3    H2  199   3.705   4.903   1.792
   65TIP3   OH2  200   4.235   3.945   3.726
   65TIP3    H1  201   4.188   3.967   3.807
   65TIP3    H2  202   4.183   3.876   3.686
   66TIP3   OH2  203   3.081   0.995   3.450
   66TIP3    H1  204   2.990   0.967   3.464
   66TIP3    H2  205   3.089   1.076   3.500
   67TIP3   OH2  206   1.483   5.382  -0.015
   67TIP3    H1  207   1.457   5.300   0.026
   67TIP3    H2  208   1.575   5.394   0.009
   68TIP3   OH2  209   2.799   1.194   0.212
   68TIP3    H1  210   2.800   1.117   0.156
   68TIP3    H2  211   2.885   1.193   0.255
   69TIP3   OH2  212   1.257   5.708   3.776
   69TIP3    H1  213   1.341   5.705   3.821
   69TIP3    H2  214   1.205   5.640   3.818
   70TIP3   OH2  215   2.605   5.812   2.167
   70TIP3    H1  216   2.644   5.821   2.080
   70TIP3    H2  217   2.645   5.882   2.218
   71TIP3   OH2  218   5.174   4.327   2.636
   71TIP3    H1  219   5.156   4.359   2.725
   71TIP3    H2  220   5.263   4.355   2.618
   72TIP3   OH2  221   2.071   5.864   4.204
   72TIP3    H1  222   2.111   5.876   4.118
   72TIP3    H2  223   2.099   5.776   4.231
   73TIP3   OH2  224   1.244   5.475   2.124
   73TIP3    H1  225   1.325   5.517   2.154
   73TIP3    H2  226   1.179   5.545   2.124
   74TIP3   OH2  227   3.201   1.458   2.895
   74TIP3    H1  228   3.127   1.513   2.922
   74TIP3    H2  229   3.187   1.375   2.942
   75TIP3   OH2  230   3.229   5.516   3.490
   75TIP3    H1  231   3.280   5.451   3.539
   75TIP3    H2  232   3.265   5.600   3.518
   76TIP3   OH2  233   2.373   3.870   5.138
   76TIP3    H1  234   2.467   3.884   5.149
   76TIP3    H2  235   2.335   3.890   5.224
   77TIP3   OH2  236   0.949   0.500   4.105
   77TIP3    H1  237   0.987   0.413   4.111
   77TIP3    H2  238   0.995   0.551   4.172
   78TIP3   OH2  239   0.394   2.047   1.099
   78TIP3    H1  240   0.300   2.045   1.115
   78TIP3    H2  241   0.428   1.974   1.151
   79TIP3   OH2  242   5.047   1.275   2.485
   79TIP3    H1  243   5.009   1.218   2.419
   79TIP3    H2  244   5.133   1.298   2.451
   80TIP3   OH2  245   4.265   1.355   4.315
   80TIP3    H1  246   4.308   1.433   4.351
   80TIP3    H2  247   4.224   1.386   4.234
   81TIP3   OH2  248   0.061   3.779   3.884
   81TIP3    H1  249   0.069   3.794   3.789
   81TIP3    H2  250   0.025   3.861   3.918
   82TIP3   OH2  251   2.022   0.842   2.480
   82TIP3    H1  252   1.938   0.795   2.481
   82TIP3    H2  253   2.029   0.880   2.568
   83TIP3   OH2  254   0.338   2.864   3.457
   83TIP3    H1  255   0.262   2.807   3.444
   83TIP3    H2  256   0.308   2.950   3.426
   84TIP3   OH2  257   2.629   0.167   4.810
   84TIP3    H1  258   2.712   0.172   4.762
   84TIP3    H2  259   2.634   0.085   4.858
   85TIP3   OH2  260   1.839   4.217   4.997
   85TIP3    H1  261   1.791   4.134   5.001
   85TIP3    H2  262   1.798   4.272   5.064
   86TIP3   OH2  263   5.983   1.413   1.749
   86TIP3    H1  264   5.935   1.488   1.715
   86TIP3    H2  265   5.991   1.431   1.843
   87TIP3   OH2  266   3.906   5.020   0.519
   87TIP3    H1  267   3.820   5.059   0.501
   87TIP3    H2  268   3.887   4.944   0.574
   88TIP3   OH2  269   5.142   2.076   2.214
   88TIP3    H1  270   5.177   1.995   2.179
   88TIP3    H2  271   5.217   2.135   2.220
   89TIP3   OH2  272   0.431   2.460   2.729
   89TIP3    H1  273   0.423   2.537   2.673
   89TIP3    H2  274   0.354   2.407   2.709
   90TIP3   OH2  275   4.085   5.213   2.585
   90TIP3    H1  276   3.990   5.207   2.599
   90TIP3    H2  277   4.097   5.192   2.493
   91TIP3   OH2  278   4.430   5.767   4.295
   91TIP3    H1  279   4.460   5.714   4.222
   91TIP3    H2  280   4.338   5.785   4.276
   92TIP3   OH2  281   5.881   2.043   0.542
   92TIP3    H1  282   5.912   1.986   0.612
   92TIP3    H2  283   5.834   1.984   0.482
   93TIP3   OH2  284   4.130   3.900   2.005
   93TIP3    H1  285   4.219   3.920   1.978
   93TIP3    H2  286   4.127   3.804   2.010
   94TIP3   OH2  287   3.497   5.468   2.374
   94TIP3    H1  288   3.556   5.543   2.376
   94TIP3    H2  289   3.470   5.461   2.282
   95TIP3   OH2  290   4.174   0.510   4.062
   95TIP3    H1  291   4.149   0.421   4.089
   95TIP3    H2  292   4.095   0.562   4.076
   96TIP3   OH2  293   6.028   3.779   0.221
   96TIP3    H1  294   6.014   3.865   0.261
   96TIP3    H2  295   5.995   3.717   0.287
   97TIP3   OH2  296   5.021   3.170   4.048
   97TIP3    H1  297   4.964   3.111   3.999
   97TIP3    H2  298   5.105   3.167   4.002
   98TIP3   OH2  299   2.501   1.110   4.811
   98TIP3    H1  300   2.528   1.124   4.901
   98TIP3    H2  301   2.498   1.015   4.801
   99TIP3   OH2  302   2.589   2.056   3.830
   99TIP3    H1  303   2.657   2.075   3.894
   99TIP3    H2  304   2.518   2.117   3.852
  100TIP3   OH2  305   4.761   1.463   3.696
  100TIP3    H1  306   4.807   1.522   3.756
  100TIP3    H2  307   4.803   1.478   3.611
  101TIP3   OH2  308   5.533   4.657   3.499
  101TIP3    H1  309   5.533   4.661   3.595
  101TIP3    H2  310   5.441   4.666   3.475
  102TIP3   OH2  311   5.184   3.604   4.948
  102TIP3    H1  312   5.243   3.550   5.000
  102TIP3    H2  313   5.241   3.649   4.886
  103TIP3   OH2  314   3.152   1.948   2.869
  103TIP3    H1  315   3.196   1.945   2.954
  103TIP3    H2  316   3.207   1.893   2.812
  104TIP3   OH2  317   5.270   2.823   2.835
  104TIP3    H1  318   5.240   2.744   2.880
  104TIP3    H2  319   5.202   2.888   2.853
  105TIP3   OH2  320   1.386   3.220   0.713
  105TIP3    H1  321   1.474   3.245   0.683
  105TIP3    H2  322   1.382   3.126   0.698
  106TIP3   OH2  323   0.023   2.787   1.272
  106TIP3    H1  324  -0.031   2.800   1.194
  106TIP3    H2  325   0.088   2.721   1.246
  107TIP3   OH2  326   5.389   2.134   0.017
  107TIP3    H1  327   5.434   2.071   0.073
  107TIP3    H2  328   5.375   2.211   0.073
  108TIP3   OH2  329   0.056   2.983   3.194
  108TIP3    H1  330   0.067   2.979   3.099
  108TIP3    H2  331  -0.019   3.040   3.208
  109TIP3   OH2  332   6.058   2.444   1.235
  109TIP3    H1  333   5.999   2.392   1.289
  109TIP3    H2  334   6.082   2.519   1.291
  110TIP3   OH2  335   3.651   4.100   4.758
  110TIP3    H1  336   3.708   4.172   4.785
  110TIP3    H2  337   3.592   4.138   4.693
  111TIP3   OH2  338   1.361   3.611   0.472
  111TIP3    H1  339   1.418   3.687   0.486
  111TIP3    H2  340   1.328   3.590   0.559
  112TIP3   OH2  341   1.524   1.265   2.375
  112TIP3    H1  342   1.457   1.285   2.440
  112TIP3    H2  343   1.594   1.222   2.425
  113TIP3   OH2  344   6.150   3.238   0.675
  113TIP3    H1  345   6.091   3.167   0.652
  113TIP3    H2  346   6.218   3.236   0.607
  114TIP3   OH2  347   2.074   3.883   1.758
  114TIP3    H1  348   2.033   3.875   1.671
  114TIP3    H2  349   2.166   3.865   1.742
  115TIP3   OH2  350   0.075   1.631   4.129
  115TIP3    H1  351  -0.015   1.643   4.161
  115TIP3    H2  352   0.109   1.557   4.179
  116TIP3   OH2  353   2.575   0.639   0.686
  116TIP3    H1  354   2.604   0.730   0.674
  116TIP3    H2  355   2.620   0.610   0.765
  117TIP3   OH2  356   1.948   4.321   2.286
  117TIP3    H1  357   2.039   4.322   2.256
  117TIP3    H2  358   1.924   4.229   2.285
  118TIP3   OH2  359   3.143   4.246   2.496
  118TIP3    H1  360   3.110   4.194   2.423
  118TIP3    H2  361   3.154   4.183   2.567
  119TIP3   OH2  362   3.475   4.965   3.236
  119TIP3    H1  363   3.459   5.059   3.231
  119TIP3    H2  364   3.390   4.927   3.255
  120TIP3   OH2  365   0.041   2.501   1.833
  120TIP3    H1  366   0.057   2.585   1.791
  120TIP3    H2  367   0.023   2.441   1.761
  121TIP3   OH2  368   1.443   5.657   1.356
  121TIP3    H1  369   1.446   5.748   1.327
  121TIP3    H2  370   1.431   5.607   1.276
  122TIP3   OH2  371   5.737   5.932   2.565
  122TIP3    H1  372   5.718   5.924   2.658
  122TIP3    H2  373   5.821   5.976   2.560
  123TIP3   OH2  374   1.313   5.203   2.070
  123TIP3    H1  375   1.390   5.220   2.124
  123TIP3    H2  376   1.239   5.211   2.130
  124TIP3   OH2  377   2.702   5.419   0.656
  124TIP3    H1  378   2.691   5.359   0.730
  124TIP3    H2  379   2.676   5.505   0.691
  125TIP3   OH2  380   1.463   0.835   4.413
  125TIP3    H1  381   1.429   0.753   4.450
  125TIP3    H2  382   1.500   0.809   4.329
  126TIP3   OH2  383   1.051   5.027   1.108
  126TIP3    H1  384   1.084   5.033   1.198
  126TIP3    H2  385   1.033   5.118   1.084
  127TIP3   OH2  386   1.729   3.624   3.534
  127TIP3    H1  387   1.755   3.665   3.616
  127TIP3    H2  388   1.716   3.697   3.473
  128TIP3   OH2  389   2.484   0.621   4.896
  128TIP3    H1  390   2.550   0.561   4.930
  128TIP3    H2  391   2.483   0.605   4.801
  129TIP3   OH2  392   0.337   1.321   2.536
  129TIP3    H1  393   0.428   1.292   2.545
  129TIP3    H2  394   0.289   1.243   2.510
  130TIP3   OH2  395   4.212   1.014   0.176
  130TIP3    H1  396   4.215   1.071   0.253
  130TIP3    H2  397   4.226   0.926   0.210
  131TIP3   OH2  398   1.323   4.663   2.542
  131TIP3    H1  399   1.359   4.714   2.470
  131TIP3    H2  400   1.249   4.616   2.504
  132TIP3   OH2  401   1.501   5.296   0.833
  132TIP3    H1  402   1.541   5.339   0.909
  132TIP3    H2  403   1.539   5.341   0.758
  133TIP3   OH2  404   1.564   1.501   4.868
  133TIP3    H1  405   1.563   1.541   4.781
  133TIP3    H2  406   1.646   1.530   4.908
  134TIP3   OH2  407   4.328   2.979   0.944
  134TIP3    H1  408   4.285   3.058   0.912
  134TIP3    H2  409   4.272   2.947   1.015
  135TIP3   OH2  410   0.190   3.124   2.644
  135TIP3    H1  411   0.247   3.200   2.632
  135TIP3    H2  412   0.246   3.058   2.685
  136TIP3   OH2  413   6.226   3.734   3.223
  136TIP3    H1  414   6.303   3.763   3.175
  136TIP3    H2  415   6.244   3.758   3.314
  137TIP3   OH2  416   3.877   1.416   0.497
  137TIP3    H1  417   3.954   1.414   0.440
  137TIP3    H2  418   3.912   1.419   0.585
  138TIP3   OH2  419   1.635   1.372   3.706
  138TIP3    H1  420   1.674   1.427   3.773
  138TIP3    H2  421   1.607   1.432   3.638
  139TIP3   OH2  422   0.296   4.126   4.269
  139TIP3    H1  423   0.343   4.210   4.266
  139TIP3    H2  424   0.346   4.073   4.331
  140TIP3   OH2  425   0.503   3.981   4.389
  140TIP3    H1  426   0.450   3.957   4.465
  140TIP3    H2  427   0.589   4.003   4.426
  141TIP3   OH2  428   6.241   4.244   1.172
  141TIP3    H1  429   6.199   4.286   1.097
  141TIP3    H2  430   6.292   4.314   1.213
  142TIP3   OH2  431   4.294   3.014   4.671
  142TIP3    H1  432   4.216   3.062   4.643
  142TIP3    H2  433   4.345   3.077   4.720
  143TIP3   OH2  434   5.896   0.644   1.609
  143TIP3    H1  435   5.813   0.641   1.561
  143TIP3    H2  436   5.953   0.698   1.554
  144TIP3   OH2  437   0.988   1.369   0.571
  144TIP3    H1  438   1.078   1.384   0.601
  144TIP3    H2  439   0.993   1.384   0.476
  145TIP3   OH2  440   0.895   5.174   3.202
  145TIP3    H1  441   0.821   5.130   3.160
  145TIP3    H2  442   0.855   5.235   3.264
  146TIP3   OH2  443   1.783   5.319   4.489
  146TIP3    H1  444   1.745   5.396   4.447
  146TIP3    H2  445   1.793   5.256   4.417
  147TIP3   OH2  446   1.738   3.437   0.597
  147TIP3    H1  447   1.650   3.411   0.571
  147TIP3    H2  448   1.739   3.532   0.587
  148TIP3   OH2  449   4.977   3.260   2.483
  148TIP3    H1  450   5.044   3.197   2.457
  148TIP3    H2  451   5.008   3.295   2.566
  149TIP3   OH2  452   6.255   5.466   2.283
  149TIP3    H1  453   6.345   5.450   2.312
  149TIP3    H2  454   6.200   5.433   2.355
  150TIP3   OH2  455   3.109  -0.003   2.906
  150TIP3    H1  456   3.105  -0.021   2.812
  150TIP3    H2  457   3.045   0.067   2.919
  151TIP3   OH2  458   5.187   1.657   2.755
  151TIP3    H1  459   5.125   1.717   2.714
  151TIP3    H2  460   5.134   1.582   2.782
  152TIP3   OH2  461   2.996   0.910   1.364
  152TIP3    H1  462   3.014   0.880   1.453
  152TIP3    H2  463   3.080   0.938   1.330
  153TIP3   OH2  464   5.175   4.244   3.315
  153TIP3    H1  465   5.204   4.183   3.247
  153TIP3    H2  466   5.250   4.302   3.328
  154TIP3   OH2  467   1.227   2.183   4.878
  154TIP3    H1  468   1.258   2.175   4.788
  154TIP3    H2  469   1.131   2.186   4.870
  155TIP3   OH2  470   0.834   4.091   1.881
  155TIP3    H1  471   0.906   4.155   1.881
  155TIP3    H2  472   0.816   4.076   1.788
  156TIP3   OH2  473   1.984   4.004   1.170
  156TIP3    H1  474   1.897   3.992   1.133
  156TIP3    H2  475   2.029   4.061   1.108
  157TIP3   OH2  476   3.506   5.674   0.385
  157TIP3    H1  477   3.461   5.597   0.419
  157TIP3    H2  478   3.576   5.638   0.330
  158TIP3   OH2  479   2.923   5.433   2.303
  158TIP3    H1  480   2.951   5.352   2.345
  158TIP3    H2  481   2.920   5.413   2.209
  159TIP3   OH2  482   3.087   5.926   0.812
  159TIP3    H1  483   3.052   5.945   0.725
  159TIP3    H2  484   3.086   5.830   0.818
  160TIP3   OH2  485   0.728   4.354   1.052
  160TIP3    H1  486   0.783   4.433   1.047
  160TIP3    H2  487   0.779   4.293   1.105
  161TIP3   OH2  488   2.734   4.725   1.235
  161TIP3    H1  489   2.680   4.803   1.254
  161TIP3    H2  490   2.683   4.652   1.271
  162TIP3   OH2  491   2.691   2.656   5.112
  162TIP3    H1  492   2.764   2.718   5.108
  162TIP3    H2  493   2.638   2.676   5.034
  163TIP3   OH2  494   3.566   5.598   3.988
  163TIP3    H1  495   3.660   5.581   3.993
  163TIP3    H2  496   3.540   5.614   4.079
  164TIP3   OH2  497   4.882   0.904   4.235
  164TIP3    H1  498   4.835   0.857   4.166
  164TIP3    H2  499   4.813   0.944   4.288
  165TIP3   OH2  500   2.417   3.395   2.507
  165TIP3    H1  501   2.425   3.466   2.444
  165TIP3    H2  502   2.335   3.413   2.553
  166TIP3   OH2  503   3.086   5.798   0.320
  166TIP3    H1  504   2.994   5.825   0.317
  166TIP3    H2  505   3.096   5.740   0.244
  167TIP3   OH2  506   5.538   1.540   2.824
  167TIP3    H1  507   5.492   1.589   2.893
  167TIP3    H2  508   5.619   1.510   2.866
  168TIP3   OH2  509   5.986   2.650   0.628
  168TIP3    H1  510   5.962   2.642   0.536
  168TIP3    H2  511   5.903   2.642   0.675
  169TIP3   OH2  512   2.952   5.507   3.600
  169TIP3    H1  513   2.975   5.598   3.619
  169TIP3    H2  514   3.024   5.473   3.548
  170TIP3   OH2  515   4.317   0.301   2.793
  170TIP3    H1  516   4.317   0.280   2.699
  170TIP3    H2  517   4.402   0.269   2.824
  171TIP3   OH2  518   3.657   3.694   0.638
  171TIP3    H1  519   3.617   3.719   0.555
  171TIP3    H2  520   3.749   3.677   0.616
  172TIP3   OH2  521   4.453   2.098   1.369
  172TIP3    H1  522   4.516   2.120   1.438
  172TIP3    H2  523   4.456   2.002   1.364
  173TIP3   OH2  524   3.017   3.530   3.144
  173TIP3    H1  525   2.975   3.474   3.080
  173TIP3    H2  526   3.021   3.477   3.224
  174TIP3   OH2  527   5.089   0.391   4.810
  174TIP3    H1  528   5.001   0.416   4.836
  174TIP3    H2  529   5.088   0.295   4.810
  175TIP3   OH2  530   3.065   3.406   1.104
  175TIP3    H1  531   3.024   3.472   1.048
  175TIP3    H2  532   3.054   3.439   1.193
  176TIP3   OH2  533   1.829   1.462   2.498
  176TIP3    H1  534   1.797   1.497   2.580
  176TIP3    H2  535   1.793   1.519   2.431
  177TIP3   OH2  536   1.577   5.157   0.481
  177TIP3    H1  537   1.593   5.178   0.389
  177TIP3    H2  538   1.549   5.066   0.481
  178TIP3   OH2  539   5.766   2.104   1.676
  178TIP3    H1  540   5.861   2.115   1.669
  178TIP3    H2  541   5.732   2.194   1.683
  179TIP3   OH2  542   3.202   2.690   1.464
  179TIP3    H1  543   3.260   2.631   1.415
  179TIP3    H2  544   3.142   2.724   1.398
  180TIP3   OH2  545   4.924   1.866   4.993
  180TIP3    H1  546   4.998   1.884   5.052
  180TIP3    H2  547   4.950   1.788   4.945
  181TIP3   OH2  548   0.925   5.779   1.797
  181TIP3    H1  549   0.949   5.810   1.709
  181TIP3    H2  550   0.963   5.843   1.856
  182TIP3   OH2  551   3.618   0.355   1.853
  182TIP3    H1  552   3.524   0.357   1.835
  182TIP3    H2  553   3.626   0.382   1.945
  183TIP3   OH2  554   0.841   3.857   4.970
  183TIP3    H1  555   0.777   3.786   4.975
  183TIP3    H2  556   0.854   3.883   5.061
  184TIP3   OH2  557   1.706   2.181   1.074
  184TIP3    H1  558   1.728   2.241   1.003
  184TIP3    H2  559   1.630   2.133   1.042
  185TIP3   OH2  560   2.607   4.391   2.426
  185TIP3    H1  561   2.576   4.387   2.336
  185TIP3    H2  562   2.612   4.484   2.446
  186TIP3   OH2  563   2.831   4.603   2.659
  186TIP3    H1  564   2.892   4.663   2.616
  186TIP3    H2  565   2.818   4.533   2.595
  187TIP3   OH2  566   1.614   1.971   4.874
  187TIP3    H1  567   1.561   2.036   4.920
  187TIP3    H2  568   1.551   1.912   4.833
  188TIP3   OH2  569   1.751   0.415   1.699
  188TIP3    H1  570   1.827   0.365   1.670
  188TIP3    H2  571   1.761   0.501   1.658
  189TIP3   OH2  572   5.297   0.553   1.501
  189TIP3    H1  573   5.372   0.498   1.523
  189TIP3    H2  574   5.257   0.511   1.425
  190TIP3   OH2  575   0.304   1.771   5.153
  190TIP3    H1  576   0.333   1.697   5.099
  190TIP3    H2  577   0.217   1.744   5.185
  191TIP3   OH2  578   2.656   5.040   1.906
  191TIP3    H1  579   2.710   5.104   1.952
  191TIP3    H2  580   2.606   4.996   1.975
  192TIP3   OH2  581   4.471   5.548   4.085
  192TIP3    H1  582   4.424   5.572   4.005
  192TIP3    H2  583   4.411   5.489   4.132
  193TIP3   OH2  584   5.369   3.293   4.114
  193TIP3    H1  585   5.339   3.212   4.156
  193TIP3    H2  586   5.312   3.361   4.151
  194TIP3   OH2  587   1.830   3.307   5.165
  194TIP3    H1  588   1.826   3.348   5.079
  194TIP3    H2  589   1.911   3.339   5.204
  195TIP3   OH2  590   3.634   0.645   1.908
  195TIP3    H1  591   3.715   0.617   1.865
  195TIP3    H2  592   3.656   0.729   1.947
  196TIP3   OH2  593   4.890   1.030   0.827
  196TIP3    H1  594   4.910   1.012   0.735
  196TIP3    H2  595   4.975   1.052   0.866
  197TIP3   OH2  596   3.613   1.511   3.989
  197TIP3    H1  597   3.692   1.563   3.969
  197TIP3    H2  598   3.578   1.551   4.068
  198TIP3   OH2  599   4.307   5.488   3.078
  198TIP3    H1  600   4.245   5.439   3.131
  198TIP3    H2  601   4.368   5.422   3.045
  199TIP3   OH2  602   5.251   5.932   3.988
  199TIP3    H1  603   5.201   6.002   3.945
  199TIP3    H2  604   5.280   5.971   4.071
  200TIP3   OH2  605   4.978   0.641   0.725
  200TIP3    H1  606   4.976   0.652   0.820
  200TIP3    H2  607   4.982   0.730   0.691
  201TIP3   OH2  608   5.555   4.075   3.178
  201TIP3    H1  609   5.572   4.098   3.270
  201TIP3    H2  610   5.611   4.134   3.128
  202TIP3   OH2  611   1.682   3.433   2.292
  202TIP3    H1  612   1.612   3.432   2.227
  202TIP3    H2  613   1.755   3.388   2.250
  203TIP3   OH2  614   3.081   2.630   1.873
  203TIP3    H1  615   3.093   2.700   1.809
  203TIP3    H2  616   2.987   2.613   1.873
  204TIP3   OH2  617   4.496   4.086   1.187
  204TIP3    H1  618   4.464   4.109   1.100
  204TIP3    H2  619   4.563   4.020   1.171
  205TIP3   OH2  620   2.567   1.414   4.366
  205TIP3    H1  621   2.592   1.322   4.358
  205TIP3    H2  622   2.625   1.449   4.434
  206TIP3   OH2  623   4.876   0.103   1.641
  206TIP3    H1  624   4.919   0.017   1.640
  206TIP3    H2  625   4.804   0.093   1.703
  207TIP3   OH2  626   2.903   0.229   0.762
  207TIP3    H1  627   2.931   0.143   0.795
  207TIP3    H2  628   2.820   0.245   0.806
  208TIP3   OH2  629   4.343   1.784   1.823
  208TIP3    H1  630   4.347   1.842   1.899
  208TIP3    H2  631   4.403   1.823   1.760
  209TIP3   OH2  632   0.424   3.666   0.445
  209TIP3    H1  633   0.465   3.697   0.526
  209TIP3    H2  634   0.417   3.571   0.456
  210TIP3   OH2  635   1.533   0.700   4.998
  210TIP3    H1  636   1.601   0.725   5.061
  210TIP3    H2  637   1.557   0.745   4.917
  211TIP3   OH2  638   1.569   4.340   1.142
  211TIP3    H1  639   1.547   4.268   1.202
  211TIP3    H2  640   1.628   4.300   1.078
  212TIP3   OH2  641   5.344   0.110   2.121
  212TIP3    H1  642   5.385   0.086   2.204
  212TIP3    H2  643   5.416   0.140   2.066
  213TIP3   OH2  644   6.211   2.240   4.194
  213TIP3    H1  645   6.174   2.321   4.159
  213TIP3    H2  646   6.218   2.182   4.118
  214TIP3   OH2  647   2.588   4.197   1.271
  214TIP3    H1  648   2.548   4.172   1.188
  214TIP3    H2  649   2.673   4.152   1.271
  215TIP3   OH2  650   3.424   3.451   0.913
  215TIP3    H1  651   3.376   3.511   0.971
  215TIP3    H2  652   3.374   3.370   0.916
  216TIP3   OH2  653   5.629   4.225   4.709
  216TIP3    H1  654   5.544   4.270   4.702
  216TIP3    H2  655   5.615   4.142   4.664
  217TIP3   OH2  656   0.550   3.861   4.776
  217TIP3    H1  657   0.550   3.943   4.728
  217TIP3    H2  658   0.613   3.806   4.728
  218TIP3   OH2  659   3.224   0.102   1.667
  218TIP3    H1  660   3.169   0.165   1.620
  218TIP3    H2  661   3.204   0.018   1.627
  219TIP3   OH2  662   1.863   5.235   1.244
  219TIP3    H1  663   1.903   5.314   1.281
  219TIP3    H2  664   1.932   5.169   1.246
  220TIP3   OH2  665   4.940   2.748   2.807
  220TIP3    H1  666   4.895   2.759   2.890
  220TIP3    H2  667   5.030   2.729   2.830
  221TIP3   OH2  668   5.927   4.738   4.829
  221TIP3    H1  669   5.921   4.677   4.903
  221TIP3    H2  670   5.897   4.687   4.754
  222TIP3   OH2  671   0.243   2.501   3.393
  222TIP3    H1  672   0.226   2.575   3.451
  222TIP3    H2  673   0.214   2.424   3.443
  223TIP3   OH2  674   2.416   5.510   0.982
  223TIP3    H1  675   2.391   5.563   0.906
  223TIP3    H2  676   2.389   5.562   1.057
  224TIP3   OH2  677   3.852   1.917   2.332
  224TIP3    H1  678   3.853   1.929   2.427
  224TIP3    H2  679   3.867   2.005   2.298
  225TIP3   OH2  680   5.242   4.090   3.104
  225TIP3    H1  681   5.319   4.081   3.047
  225TIP3    H2  682   5.244   4.013   3.160
  226TIP3   OH2  683   1.364   1.297   4.225
  226TIP3    H1  684   1.380   1.229   4.291
  226TIP3    H2  685   1.442   1.297   4.170
  227TIP3   OH2  686   0.254   0.084   1.913
  227TIP3    H1  687   0.266   0.063   1.821
  227TIP3    H2  688   0.309   0.020   1.959
  228TIP3   OH2  689   0.208   1.016   4.844
  228TIP3    H1  690   0.224   0.921   4.848
  228TIP3    H2  691   0.278   1.049   4.788
  229TIP3   OH2  692   2.200   1.199   1.534
  229TIP3    H1  693   2.290   1.175   1.560
  229TIP3    H2  694   2.204   1.208   1.439
  230TIP3   OH2  695   4.355   5.348   4.264
  230TIP3    H1  696   4.271   5.394   4.270
  230TIP3    H2  697   4.341   5.283   4.195
  231TIP3   OH2  698   5.367   4.313   3.012
  231TIP3    H1  699   5.302   4.243   3.016
  231TIP3    H2  700   5.451   4.268   3.017
  232TIP3   OH2  701   0.818   3.498   1.909
  232TIP3    H1  702   0.863   3.414   1.906
  232TIP3    H2  703   0.796   3.517   1.817
  233TIP3   OH2  704   4.191   3.332   3.064
  233TIP3    H1  705   4.187   3.261   3.128
  233TIP3    H2  706   4.246   3.398   3.105
  234TIP3   OH2  707   4.915   4.084   3.975
  234TIP3    H1  708   4.872   4.148   3.919
  234TIP3    H2  709   4.850   4.063   4.042
  235TIP3   OH2  710   3.742   4.662   1.003
  235TIP3    H1  711   3.817   4.655   1.062
  235TIP3    H2  712   3.707   4.749   1.020
  236TIP3   OH2  713   0.509   4.673   4.189
  236TIP3    H1  714   0.491   4.701   4.100
  236TIP3    H2  715   0.572   4.601   4.180
  237TIP3   OH2  716   2.316   3.719   1.684
  237TIP3    H1  717   2.280   3.701   1.597
  237TIP3    H2  718   2.392   3.775   1.666
  238TIP3   OH2  719   0.681   4.833   3.956
  238TIP3    H1  720   0.753   4.780   3.923
  238TIP3    H2  721   0.603   4.800   3.910
  239TIP3   OH2  722   3.618   4.858   2.492
  239TIP3    H1  723   3.620   4.775   2.539
  239TIP3    H2  724   3.588   4.921   2.557
  240TIP3   OH2  725   3.328   0.306   1.859
  240TIP3    H1  726   3.278   0.252   1.797
  240TIP3    H2  727   3.290   0.393   1.852
  241TIP3   OH2  728   4.961   1.740   0.358
  241TIP3    H1  729   4.911   1.741   0.276
  241TIP3    H2  730   4.983   1.647   0.371
  242TIP3   OH2  731   4.464   5.859   1.202
  242TIP3    H1  732   4.451   5.952   1.222
  242TIP3    H2  733   4.515   5.858   1.121
  243TIP3   OH2  734   5.683   4.891   4.831
  243TIP3    H1  735   5.693   4.844   4.914
  243TIP3    H2  736   5.770   4.890   4.792
  244TIP3   OH2  737   5.367   1.725   1.499
  244TIP3    H1  738   5.372   1.743   1.405
  244TIP3    H2  739   5.389   1.809   1.540
  245TIP3   OH2  740   2.990   3.762   4.934
  245TIP3    H1  741   3.078   3.776   4.897
  245TIP3    H2  742   3.005   3.753   5.028
  246TIP3   OH2  743   1.457   5.724   1.010
  246TIP3    H1  744   1.532   5.781   1.029
  246TIP3    H2  745   1.474   5.644   1.061
  247TIP3   OH2  746   3.784   2.649   3.947
  247TIP3    H1  747   3.843   2.709   3.901
  247TIP3    H2  748   3.702   2.655   3.899
  248TIP3   OH2  749   4.033   2.672   4.865
  248TIP3    H1  750   4.061   2.639   4.780
  248TIP3    H2  751   4.108   2.722   4.898
  249TIP3   OH2  752   0.501   0.911   2.158
  249TIP3    H1  753   0.474   0.827   2.119
  249TIP3    H2  754   0.589   0.895   2.192
  250TIP3   OH2  755   0.115   4.228   0.743
  250TIP3    H1  756   0.190   4.173   0.719
  250TIP3    H2  757   0.112   4.294   0.674
  251TIP3   OH2  758   4.947   4.210   4.781
  251TIP3    H1  759   4.919   4.134   4.731
  251TIP3    H2  760   4.873   4.229   4.839
  252TIP3   OH2  761   5.792   2.765   2.833
  252TIP3    H1  762   5.821   2.738   2.746
  252TIP3    H2  763   5.846   2.841   2.854
  253TIP3   OH2  764   3.245   3.665   0.790
  253TIP3    H1  765   3.317   3.726   0.805
  253TIP3    H2  766   3.281   3.601   0.728
  254TIP3   OH2  767   1.440   5.268   1.726
  254TIP3    H1  768   1.389   5.320   1.789
  254TIP3    H2  769   1.507   5.329   1.694
  255TIP3   OH2  770   3.409   1.806   4.083
  255TIP3    H1  771   3.390   1.766   3.998
  255TIP3    H2  772   3.372   1.744   4.146
  256TIP3   OH2  773   2.546   0.379   1.473
  256TIP3    H1  774   2.604   0.437   1.422
  256TIP3    H2  775   2.467   0.431   1.488
  257TIP3   OH2  776   1.304   4.681   4.138
  257TIP3    H1  777   1.223   4.702   4.092
  257TIP3    H2  778   1.285   4.701   4.229
  258TIP3   OH2  779   2.702   2.070   4.943
  258TIP3    H1  780   2.759   2.005   4.984
  258TIP3    H2  781   2.762   2.134   4.905
  259TIP3   OH2  782   1.516   1.497   3.233
  259TIP3    H1  783   1.555   1.480   3.147
  259TIP3    H2  784   1.537   1.419   3.284
  260TIP3   OH2  785   2.456   5.251   1.548
  260TIP3    H1  786   2.450   5.346   1.541
  260TIP3    H2  787   2.407   5.229   1.627
  261TIP3   OH2  788   2.852   4.201   3.430
  261TIP3    H1  789   2.813   4.198   3.343
  261TIP3    H2  790   2.891   4.114   3.443
  262TIP3   OH2  791   1.276   4.025   3.131
  262TIP3    H1  792   1.246   4.114   3.114
  262TIP3    H2  793   1.220   3.970   3.077
  263TIP3   OH2  794   2.907   2.161   1.760
  263TIP3    H1  795   2.904   2.233   1.697
  263TIP3    H2  796   2.965   2.192   1.829
  264TIP3   OH2  797   5.904   5.703   2.835
  264TIP3    H1  798   5.941   5.636   2.777
  264TIP3    H2  799   5.963   5.778   2.826
  265TIP3   OH2  800   0.657   4.740   0.486
  265TIP3    H1  801   0.725   4.798   0.520
  265TIP3    H2  802   0.700   4.656   0.474
  266TIP3   OH2  803   1.896   1.603   3.385
  266TIP3    H1  804   1.963   1.659   3.424
  266TIP3    H2  805   1.817   1.658   3.382
  267TIP3   OH2  806   1.455   3.362   4.769
  267TIP3    H1  807   1.528   3.424   4.763
  267TIP3    H2  808   1.379   3.418   4.785
  268TIP3   OH2  809   3.897   3.428   4.509
  268TIP3    H1  810   3.984   3.459   4.534
  268TIP3    H2  811   3.836   3.486   4.553
  269TIP3   OH2  812   1.960   2.904   3.752
  269TIP3    H1  813   1.930   2.867   3.836
  269TIP3    H2  814   2.051   2.927   3.768
  270TIP3   OH2  815   6.204   1.182   2.957
  270TIP3    H1  816   6.162   1.097   2.967
  270TIP3    H2  817   6.230   1.184   2.864
  271TIP3   OH2  818   4.080   5.346   2.818
  271TIP3    H1  819   4.084   5.265   2.869
  271TIP3    H2  820   4.103   5.319   2.729
  272TIP3   OH2  821   4.572   3.254   2.107
  272TIP3    H1  822   4.527   3.263   2.191
  272TIP3    H2  823   4.658   3.293   2.121
  273TIP3   OH2  824   5.945   2.430   1.664
  273TIP3    H1  825   5.872   2.483   1.697
  273TIP3    H2  826   5.993   2.488   1.606
  274TIP3   OH2  827   5.473   5.712   0.836
  274TIP3    H1  828   5.502   5.621   0.842
  274TIP3    H2  829   5.411   5.722   0.908
  275TIP3   OH2  830   4.795   5.025   2.543
  275TIP3    H1  831   4.731   4.959   2.516
  275TIP3    H2  832   4.877   4.996   2.504
  276TIP3   OH2  833   3.653   2.598   3.242
  276TIP3    H1  834   3.677   2.534   3.175
  276TIP3    H2  835   3.602   2.664   3.195
  277TIP3   OH2  836   4.276   4.090   0.846
  277TIP3    H1  837   4.241   4.058   0.930
  277TIP3    H2  838   4.212   4.155   0.817
  278TIP3   OH2  839   5.530   4.207   1.507
  278TIP3    H1  840   5.528   4.111   1.510
  278TIP3    H2  841   5.482   4.229   1.427
  279TIP3   OH2  842   5.409   5.567   1.144
  279TIP3    H1  843   5.405   5.472   1.136
  279TIP3    H2  844   5.500   5.585   1.166
  280TIP3   OH2  845   3.081   5.662   0.832
  280TIP3    H1  846   3.039   5.581   0.861
  280TIP3    H2  847   3.165   5.662   0.878
  281TIP3   OH2  848   1.811   5.171   4.973
  281TIP3    H1  849   1.806   5.224   5.052
  281TIP3    H2  850   1.898   5.131   4.977
  282TIP3   OH2  851   2.724   4.634   0.224
  282TIP3    H1  852   2.740   4.553   0.176
  282TIP3    H2  853   2.648   4.615   0.279
  283TIP3   OH2  854   2.523   4.720   1.521
  283TIP3    H1  855   2.531   4.814   1.535
  283TIP3    H2  856   2.601   4.696   1.471
  284TIP3   OH2  857   4.917   5.942   3.187
  284TIP3    H1  858   4.901   6.018   3.242
  284TIP3    H2  859   4.932   5.978   3.100
  285TIP3   OH2  860   3.505   0.172   4.346
  285TIP3    H1  861   3.471   0.147   4.261
  285TIP3    H2  862   3.561   0.099   4.372
  286TIP3   OH2  863   0.899   5.048   2.008
  286TIP3    H1  864   0.858   5.080   2.089
  286TIP3    H2  865   0.844   4.975   1.981
  287TIP3   OH2  866   0.519   5.840   1.463
  287TIP3    H1  867   0.452   5.829   1.396
  287TIP3    H2  868   0.504   5.928   1.498
  288TIP3   OH2  869   4.514   3.820   3.550
  288TIP3    H1  870   4.551   3.757   3.488
  288TIP3    H2  871   4.566   3.900   3.536
  289TIP3   OH2  872   0.405   2.704   2.632
  289TIP3    H1  873   0.440   2.784   2.673
  289TIP3    H2  874   0.315   2.727   2.610
  290TIP3   OH2  875   3.913   0.554   3.587
  290TIP3    H1  876   3.948   0.636   3.552
  290TIP3    H2  877   3.883   0.575   3.675
  291TIP3   OH2  878   1.306   3.458   1.797
  291TIP3    H1  879   1.289   3.418   1.711
  291TIP3    H2  880   1.362   3.395   1.842
  292TIP3   OH2  881   1.244   1.216   3.144
  292TIP3    H1  882   1.178   1.281   3.119
  292TIP3    H2  883   1.242   1.215   3.239
  293TIP3   OH2  884   4.503   1.093   2.180
  293TIP3    H1  885   4.571   1.159   2.183
  293TIP3    H2  886   4.469   1.096   2.091
  294TIP3   OH2  887   6.168   5.257   1.881
  294TIP3    H1  888   6.093   5.241   1.824
  294TIP3    H2  889   6.134   5.314   1.950
  295TIP3   OH2  890   3.225   5.870   2.485
  295TIP3    H1  891   3.223   5.825   2.569
  295TIP3    H2  892   3.136   5.862   2.451
  296TIP3   OH2  893   2.921   3.018   4.013
  296TIP3    H1  894   2.897   2.962   3.939
  296TIP3    H2  895   2.920   2.959   4.089
  297TIP3   OH2  896   5.277   5.133   0.924
  297TIP3    H1  897   5.258   5.049   0.965
  297TIP3    H2  898   5.232   5.130   0.840
  298TIP3   OH2  899   5.061   0.049   1.937
  298TIP3    H1  900   4.995   0.116   1.921
  298TIP3    H2  901   5.131   0.096   1.983
  299TIP3   OH2  902   6.307   2.969   2.639
  299TIP3    H1  903   6.245   2.981   2.568
  299TIP3    H2  904   6.360   3.048   2.638
  300TIP3   OH2  905   5.387   3.329   1.007
  300TIP3    H1  906   5.471   3.310   1.048
  300TIP3    H2  907   5.409   3.380   0.929
  301TIP3   OH2  908   0.977   3.301   3.758
  301TIP3    H1  909   1.033   3.341   3.692
  301TIP3    H2  910   0.979   3.363   3.831
  302TIP3   OH2  911   1.263   5.766   4.550
  302TIP3    H1  912   1.238   5.682   4.588
  302TIP3    H2  913   1.342   5.746   4.498
  303TIP3   OH2  914   5.124   0.903   2.473
  303TIP3    H1  915   5.142   0.810   2.489
  303TIP3    H2  916   5.032   0.906   2.450
  304TIP3   OH2  917   2.970   2.291   2.200
  304TIP3    H1  918   2.903   2.280   2.268
  304TIP3    H2  919   3.015   2.373   2.224
  305TIP3   OH2  920   3.581   5.724   1.687
  305TIP3    H1  921   3.511   5.673   1.726
  305TIP3    H2  922   3.594   5.798   1.747
  306TIP3   OH2  923   5.894   5.221   3.946
  306TIP3    H1  924   5.884   5.195   3.855
  306TIP3    H2  925   5.957   5.159   3.983
  307TIP3   OH2  926   5.691   0.647   1.035
  307TIP3    H1  927   5.738   0.663   1.117
  307TIP3    H2  928   5.689   0.732   0.992
  308TIP3   OH2  929   3.463   0.624   2.446
  308TIP3    H1  930   3.373   0.645   2.471
  308TIP3    H2  931   3.476   0.669   2.362
  309TIP3   OH2  932   3.060   4.898   1.373
  309TIP3    H1  933   3.007   4.972   1.403
  309TIP3    H2  934   3.006   4.855   1.307
  310TIP3   OH2  935   1.295   0.119   4.683
  310TIP3    H1  936   1.201   0.112   4.696
  310TIP3    H2  937   1.305   0.161   4.597
  311TIP3   OH2  938   4.714   2.328   0.272
  311TIP3    H1  939   4.747   2.338   0.361
  311TIP3    H2  940   4.790   2.299   0.221
  312TIP3   OH2  941   1.067   5.870   0.710
  312TIP3    H1  942   1.123   5.856   0.787
  312TIP3    H2  943   1.112   5.937   0.660
  313TIP3   OH2  944   4.312   4.402   2.551
  313TIP3    H1  945   4.361   4.334   2.504
  313TIP3    H2  946   4.244   4.353   2.599
  314TIP3   OH2  947   4.339   4.559   1.475
  314TIP3    H1  948   4.415   4.584   1.421
  314TIP3    H2  949   4.322   4.637   1.528
  315TIP3   OH2  950   4.238   4.009   1.621
  315TIP3    H1  951   4.294   3.993   1.545
  315TIP3    H2  952   4.285   3.969   1.694
  316TIP3   OH2  953   5.391   3.008   5.135
  316TIP3    H1  954   5.420   3.086   5.184
  316TIP3    H2  955   5.393   2.938   5.200
  317TIP3   OH2  956   1.646   1.851   4.138
  317TIP3    H1  957   1.656   1.946   4.138
  317TIP3    H2  958   1.680   1.823   4.053
  318TIP3   OH2  959   0.988   5.849   1.560
  318TIP3    H1  960   1.075   5.835   1.522
  318TIP3    H2  961   0.932   5.871   1.485
  319TIP3   OH2  962   3.887   1.490   1.796
  319TIP3    H1  963   3.949   1.538   1.851
  319TIP3    H2  964   3.801   1.516   1.828
  320TIP3   OH2  965   6.145   2.423   0.985
  320TIP3    H1  966   6.123   2.497   0.928
  320TIP3    H2  967   6.135   2.458   1.074
  321TIP3   OH2  968   5.712   3.472   1.206
  321TIP3    H1  969   5.703   3.466   1.301
  321TIP3    H2  970   5.781   3.537   1.193
  322TIP3   OH2  971   3.546   0.107   4.850
  322TIP3    H1  972   3.628   0.122   4.802
  322TIP3    H2  973   3.478   0.124   4.786
  323TIP3   OH2  974   0.225   3.777   4.790
  323TIP3    H1  975   0.152   3.838   4.777
  323TIP3    H2  976   0.291   3.827   4.837
  324TIP3   OH2  977   0.202   4.186   3.419
  324TIP3    H1  978   0.205   4.269   3.466
  324TIP3    H2  979   0.128   4.196   3.358
  325TIP3   OH2  980   1.642   0.087   1.829
  325TIP3    H1  981   1.596   0.143   1.892
  325TIP3    H2  982   1.722   0.061   1.876
  326TIP3   OH2  983   0.825   5.822   3.267
  326TIP3    H1  984   0.892   5.756   3.249
  326TIP3    H2  985   0.874   5.901   3.288
  327TIP3   OH2  986   4.860   4.813   0.790
  327TIP3    H1  987   4.872   4.885   0.853
  327TIP3    H2  988   4.765   4.812   0.775
  328TIP3   OH2  989   5.649   1.994   2.805
  328TIP3    H1  990   5.559   1.966   2.822
  328TIP3    H2  991   5.640   2.079   2.761
  329TIP3   OH2  992   3.813   4.713   0.587
  329TIP3    H1  993   3.774   4.627   0.602
  329TIP3    H2  994   3.858   4.705   0.503
  330TIP3   OH2  995   0.145   5.227   1.208
  330TIP3    H1  996   0.202   5.302   1.226
  330TIP3    H2  997   0.077   5.232   1.274
  331TIP3   OH2  998   2.354   2.406   1.280
  331TIP3    H1  999   2.439   2.375   1.249
  331TIP3    H2 1000   2.375   2.467   1.351
  332TIP3   OH2 1001   3.307   0.594   4.112
  332TIP3    H1 1002   3.259   0.569   4.191
  332TIP3    H2 1003   3.400   0.586   4.137
  333TIP3   OH2 1004   0.152   3.740   0.427
  333TIP3    H1 1005   0.241   3.707   0.417
  333TIP3    H2 1006   0.155   3.830   0.393
  334TIP3   OH2 1007   0.398   2.228   4.357
  334TIP3    H1 1008   0.449   2.180   4.292
  334TIP3    H2 1009   0.463   2.277   4.407
  335TIP3   OH2 1010   3.864   2.461   1.216
  335TIP3    H1 1011   3.853   2.493   1.305
  335TIP3    H2 1012   3.959   2.454   1.205
  336TIP3   OH2 1013   2.691   5.291   1.369
  336TIP3    H1 1014   2.601   5.281   1.398
  336TIP3    H2 1015   2.727   5.202   1.372
  337TIP3   OH2 1016   2.845   2.999   3.548
  337TIP3    H1 1017   2.889   2.914   3.537
  337TIP3    H2 1018   2.898   3.045   3.612
  338TIP3   OH2 1019   5.460   1.967   3.256
  338TIP3    H1 1020   5.433   2.057   3.276
  338TIP3    H2 1021   5.396   1.913   3.301
  339TIP3   OH2 1022   3.489   0.872   0.093
  339TIP3    H1 1023   3.427   0.820   0.145
  339TIP3    H2 1024   3.561   0.891   0.154
  340TIP3   OH2 1025   2.780   1.475   2.915
  340TIP3    H1 1026   2.723   1.402   2.941
  340TIP3    H2 1027   2.841   1.485   2.989
  341TIP3   OH2 1028   4.371   3.916   1.884
  341TIP3    H1 1029   4.419   3.833   1.886
  341TIP3    H2 1030   4.436   3.982   1.910
  342TIP3   OH2 1031   5.900   1.321   2.413
  342TIP3    H1 1032   5.988   1.290   2.391
  342TIP3    H2 1033   5.879   1.385   2.345
  343TIP3   OH2 1034   2.914   4.111   0.336
  343TIP3    H1 1035   2.888   4.089   0.426
  343TIP3    H2 1036   2.831   4.116   0.288
  344TIP3   OH2 1037   5.153   1.524   0.095
  344TIP3    H1 1038   5.088   1.592   0.080
  344TIP3    H2 1039   5.139   1.461   0.025
  345TIP3   OH2 1040   0.481   1.499   0.773
  345TIP3    H1 1041   0.400   1.549   0.783
  345TIP3    H2 1042   0.503   1.508   0.681
  346TIP3   OH2 1043   0.480   0.645   0.362
  346TIP3    H1 1044   0.391   0.676   0.376
  346TIP3    H2 1045   0.523   0.654   0.447
  347TIP3   OH2 1046   0.902   4.637   3.059
  347TIP3    H1 1047   0.990   4.604   3.041
  347TIP3    H2 1048   0.914   4.696   3.133
  348TIP3   OH2 1049   2.494   1.251   1.546
  348TIP3    H1 1050   2.497   1.346   1.532
  348TIP3    H2 1051   2.566   1.217   1.493
  349TIP3   OH2 1052   0.981   0.694   2.777
  349TIP3    H1 1053   0.895   0.655   2.762
  349TIP3    H2 1054   1.002   0.670   2.868
  350TIP3   OH2 1055   2.768   2.098   0.860
  350TIP3    H1 1056   2.735   2.091   0.949
  350TIP3    H2 1057   2.733   2.020   0.815
  351TIP3   OH2 1058   2.579   5.007   1.648
  351TIP3    H1 1059   2.538   5.080   1.601
  351TIP3    H2 1060   2.577   5.032   1.740
  352TIP3   OH2 1061   6.312   2.454   4.797
  352TIP3    H1 1062   6.383   2.412   4.748
  352TIP3    H2 1063   6.256   2.492   4.730
  353TIP3   OH2 1064   4.584   1.495   0.936
  353TIP3    H1 1065   4.539   1.571   0.972
  353TIP3    H2 1066   4.635   1.461   1.010
  354TIP3   OH2 1067   5.188   2.584   4.328
  354TIP3    H1 1068   5.238   2.622   4.400
  354TIP3    H2 1069   5.099   2.617   4.340
  355TIP3   OH2 1070   3.184   3.724   2.020
  355TIP3    H1 1071   3.141   3.808   2.002
  355TIP3    H2 1072   3.122   3.659   1.988
  356TIP3   OH2 1073   5.248   1.098   1.232
  356TIP3    H1 1074   5.330   1.124   1.274
  356TIP3    H2 1075   5.257   1.004   1.217
  357TIP3   OH2 1076   5.066   0.410   4.121
  357TIP3    H1 1077   5.133   0.477   4.132
  357TIP3    H2 1078   5.114   0.327   4.123
  358TIP3   OH2 1079   1.248   5.070   4.234
  358TIP3    H1 1080   1.301   5.109   4.304
  358TIP3    H2 1081   1.182   5.019   4.280
  359TIP3   OH2 1082   3.687   3.518   0.202
  359TIP3    H1 1083   3.656   3.607   0.223
  359TIP3    H2 1084   3.608   3.470   0.178
  360TIP3   OH2 1085   0.629   2.849   4.463
  360TIP3    H1 1086   0.673   2.764   4.460
  360TIP3    H2 1087   0.573   2.844   4.540
  361TIP3   OH2 1088   3.506   3.555   2.367
  361TIP3    H1 1089   3.475   3.635   2.325
  361TIP3    H2 1090   3.583   3.582   2.418
  362TIP3   OH2 1091   3.146   5.050   1.867
  362TIP3    H1 1092   3.185   4.973   1.826
  362TIP3    H2 1093   3.216   5.115   1.868
  363TIP3   OH2 1094   4.128   5.317   4.830
  363TIP3    H1 1095   4.172   5.397   4.858
  363TIP3    H2 1096   4.082   5.341   4.749
  364TIP3   OH2 1097   1.953   3.286   1.586
  364TIP3    H1 1098   2.046   3.296   1.606
  364TIP3    H2 1099   1.952   3.252   1.496
  365TIP3   OH2 1100   2.970   2.842   0.898
  365TIP3    H1 1101   2.892   2.799   0.933
  365TIP3    H2 1102   3.034   2.771   0.888
  366TIP3   OH2 1103   2.934   3.110   1.078
  366TIP3    H1 1104   2.958   3.177   1.014
  366TIP3    H2 1105   2.898   3.038   1.026
  367TIP3   OH2 1106   2.159   0.272   0.330
  367TIP3    H1 1107   2.079   0.322   0.316
  367TIP3    H2 1108   2.129   0.183   0.349
  368TIP3   OH2 1109   3.621   3.838   1.087
  368TIP3    H1 1110   3.609   3.828   0.993
  368TIP3    H2 1111   3.663   3.757   1.115
  369TIP3   OH2 1112   6.036   0.886   5.096
  369TIP3    H1 1113   6.074   0.815   5.044
  369TIP3    H2 1114   6.033   0.851   5.185
  370TIP3   OH2 1115   3.529   1.604   2.732
  370TIP3    H1 1116   3.599   1.597   2.668
  370TIP3    H2 1117   3.565   1.563   2.811
  371TIP3   OH2 1118   1.414   2.542   0.535
  371TIP3    H1 1119   1.442   2.550   0.626
  371TIP3    H2 1120   1.333   2.591   0.529
  372TIP3   OH2 1121   4.105   3.835   0.481
  372TIP3    H1 1122   4.060   3.902   0.429
  372TIP3    H2 1123   4.178   3.806   0.426
  373TIP3   OH2 1124   0.557   5.098   1.998
  373TIP3    H1 1125   0.521   5.171   2.049
  373TIP3    H2 1126   0.483   5.039   1.985
  374TIP3   OH2 1127   0.043   1.655   0.124
  374TIP3    H1 1128   0.088   1.723   0.174
  374TIP3    H2 1129  -0.048   1.685   0.121
  375TIP3   OH2 1130   2.516   1.145   1.141
  375TIP3    H1 1131   2.552   1.065   1.102
  375TIP3    H2 1132   2.516   1.209   1.070
  376TIP3   OH2 1133  -0.020   0.881   1.812
  376TIP3    H1 1134   0.052   0.943   1.823
  376TIP3    H2 1135  -0.011   0.820   1.885
  377TIP3   OH2 1136   0.820   0.701   0.228
  377TIP3    H1 1137   0.759   0.629   0.212
  377TIP3    H2 1138   0.845   0.691   0.320
  378TIP3   OH2 1139   3.788   0.619   1.263
  378TIP3    H1 1140   3.744   0.568   1.195
  378TIP3    H2 1141   3.815   0.700   1.219
  379TIP3   OH2 1142   4.221   4.981   0.483
  379TIP3    H1 1143   4.171   5.053   0.443
  379TIP3    H2 1144   4.245   4.925   0.409
  380TIP3   OH2 1145   3.562   2.232   3.320
  380TIP3    H1 1146   3.472   2.207   3.342
  380TIP3    H2 1147   3.579   2.309   3.375
  381TIP3   OH2 1148   4.494   5.309   2.967
  381TIP3    H1 1149   4.446   5.226   2.962
  381TIP3    H2 1150   4.581   5.288   2.931
  382TIP3   OH2 1151   2.303   1.895   3.520
  382TIP3    H1 1152   2.377   1.838   3.502
  382TIP3    H2 1153   2.342   1.979   3.544
  383TIP3   OH2 1154   1.834   0.650   1.559
  383TIP3    H1 1155   1.924   0.679   1.545
  383TIP3    H2 1156   1.781   0.711   1.509
  384TIP3   OH2 1157   2.907   1.523   3.510
  384TIP3    H1 1158   2.913   1.607   3.465
  384TIP3    H2 1159   2.824   1.527   3.557
  385TIP3   OH2 1160   0.213   0.295   2.904
  385TIP3    H1 1161   0.186   0.317   2.815
  385TIP3    H2 1162   0.221   0.380   2.948
  386TIP3   OH2 1163   5.344   5.548   0.606
  386TIP3    H1 1164   5.379   5.523   0.691
  386TIP3    H2 1165   5.270   5.489   0.592
  387TIP3   OH2 1166   1.683   4.743   3.706
  387TIP3    H1 1167   1.671   4.665   3.651
  387TIP3    H2 1168   1.726   4.806   3.649
  388TIP3   OH2 1169   5.198   0.855   3.904
  388TIP3    H1 1170   5.223   0.789   3.839
  388TIP3    H2 1171   5.103   0.862   3.896
  389TIP3   OH2 1172   4.029   4.950   0.232
  389TIP3    H1 1173   3.982   4.937   0.315
  389TIP3    H2 1174   3.970   4.915   0.165
  390TIP3   OH2 1175   1.536   0.250   0.806
  390TIP3    H1 1176   1.566   0.159   0.818
  390TIP3    H2 1177   1.479   0.266   0.882
  391TIP3   OH2 1178   6.019   5.134   1.697
  391TIP3    H1 1179   5.926   5.115   1.710
  391TIP3    H2 1180   6.023   5.170   1.608
  392TIP3   OH2 1181   3.387   4.921   4.268
  392TIP3    H1 1182   3.338   4.848   4.304
  392TIP3    H2 1183   3.324   4.969   4.215
  393TIP3   OH2 1184   3.703   3.586   4.655
  393TIP3    H1 1185   3.690   3.672   4.696
  393TIP3    H2 1186   3.617   3.544   4.660
  394TIP3   OH2 1187   4.993   1.965   2.855
  394TIP3    H1 1188   4.912   1.920   2.876
  394TIP3    H2 1189   5.045   1.961   2.936
  395TIP3   OH2 1190   5.306   2.585   2.194
  395TIP3    H1 1191   5.256   2.632   2.127
  395TIP3    H2 1192   5.390   2.631   2.199
  396TIP3   OH2 1193   5.295   3.736   4.715
  396TIP3    H1 1194   5.296   3.694   4.629
  396TIP3    H2 1195   5.369   3.797   4.714
  397TIP3   OH2 1196   2.812   2.614   1.870
  397TIP3    H1 1197   2.730   2.659   1.851
  397TIP3    H2 1198   2.803   2.585   1.961
  398TIP3   OH2 1199   3.897   3.271   3.186
  398TIP3    H1 1200   3.954   3.328   3.237
  398TIP3    H2 1201   3.910   3.184   3.225
  399TIP3   OH2 1202   2.656   1.998   1.094
  399TIP3    H1 1203   2.607   1.921   1.064
  399TIP3    H2 1204   2.616   2.020   1.178
  400TIP3   OH2 1205   3.221   5.805   1.964
  400TIP3    H1 1206   3.130   5.827   1.984
  400TIP3    H2 1207   3.261   5.788   2.049
  401TIP3   OH2 1208   6.250   4.075   0.359
  401TIP3    H1 1209   6.344   4.091   0.355
  401TIP3    H2 1210   6.214   4.152   0.403
  402TIP3   OH2 1211   1.900   5.485   0.668
  402TIP3    H1 1212   1.912   5.493   0.763
  402TIP3    H2 1213   1.812   5.449   0.658
  403TIP3   OH2 1214   3.880   2.345   3.759
  403TIP3    H1 1215   3.792   2.308   3.754
  403TIP3    H2 1216   3.885   2.405   3.685
  404TIP3   OH2 1217   4.737   4.960   0.568
  404TIP3    H1 1218   4.649   4.993   0.586
  404TIP3    H2 1219   4.785   4.977   0.649
  405TIP3   OH2 1220   1.786   4.831   1.654
  405TIP3    H1 1221   1.743   4.896   1.598
  405TIP3    H2 1222   1.877   4.861   1.659
  406TIP3   OH2 1223   1.540   3.245   0.497
  406TIP3    H1 1224   1.577   3.164   0.463
  406TIP3    H2 1225   1.528   3.301   0.420
  407TIP3   OH2 1226   2.956   2.143   2.840
  407TIP3    H1 1227   3.015   2.070   2.859
  407TIP3    H2 1228   2.902   2.152   2.919
  408TIP3   OH2 1229   6.108   5.612   3.100
  408TIP3    H1 1230   6.125   5.681   3.036
  408TIP3    H2 1231   6.058   5.656   3.169
  409TIP3   OH2 1232   1.810   4.338   0.955
  409TIP3    H1 1233   1.881   4.376   1.008
  409TIP3    H2 1234   1.845   4.254   0.924
  410TIP3   OH2 1235   3.974   2.068   3.702
  410TIP3    H1 1236   4.029   2.053   3.779
  410TIP3    H2 1237   3.938   2.156   3.715
  411TIP3   OH2 1238   5.237   4.111   0.741
  411TIP3    H1 1239   5.285   4.194   0.750
  411TIP3    H2 1240   5.224   4.102   0.646
  412TIP3   OH2 1241   1.611   2.853   3.710
  412TIP3    H1 1242   1.689   2.882   3.758
  412TIP3    H2 1243   1.551   2.927   3.715
  413TIP3   OH2 1244   1.218   3.942   1.345
  413TIP3    H1 1245   1.125   3.925   1.330
  413TIP3    H2 1246   1.242   3.886   1.419
  414TIP3   OH2 1247   0.653   1.911   0.117
  414TIP3    H1 1248   0.606   1.946   0.192
  414TIP3    H2 1249   0.616   1.957   0.042
  415TIP3   OH2 1250   0.779   0.546   5.197
  415TIP3    H1 1251   0.728   0.622   5.170
  415TIP3    H2 1252   0.783   0.490   5.119
  416TIP3   OH2 1253   1.063   0.057   0.406
  416TIP3    H1 1254   0.986   0.041   0.351
  416TIP3    H2 1255   1.095  -0.030   0.431
  417TIP3   OH2 1256   3.086   1.877   4.186
  417TIP3    H1 1257   2.992   1.873   4.207
  417TIP3    H2 1258   3.128   1.901   4.269
  418TIP3   OH2 1259   3.902   0.538   5.078
  418TIP3    H1 1260   3.873   0.485   5.004
  418TIP3    H2 1261   3.929   0.621   5.038
  419TIP3   OH2 1262   1.468   2.141   4.124
  419TIP3    H1 1263   1.477   2.158   4.030
  419TIP3    H2 1264   1.556   2.116   4.153
  420TIP3   OH2 1265   4.393   5.338   3.587
  420TIP3    H1 1266   4.438   5.311   3.507
  420TIP3    H2 1267   4.454   5.398   3.629
  421TIP3   OH2 1268   5.056   2.636   4.962
  421TIP3    H1 1269   5.019   2.600   5.043
  421TIP3    H2 1270   5.148   2.653   4.984
  422TIP3   OH2 1271   4.299   4.118   4.563
  422TIP3    H1 1272   4.360   4.079   4.500
  422TIP3    H2 1273   4.330   4.087   4.648
  423TIP3   OH2 1274   5.274   0.798   0.041
  423TIP3    H1 1275   5.213   0.724   0.031
  423TIP3    H2 1276   5.226   0.861   0.095
  424TIP3   OH2 1277   3.014   2.338   4.188
  424TIP3    H1 1278   3.048   2.274   4.125
  424TIP3    H2 1279   3.081   2.406   4.191
  425TIP3   OH2 1280   5.827   2.008   5.047
  425TIP3    H1 1281   5.917   2.037   5.033
  425TIP3    H2 1282   5.798   2.058   5.124
  426TIP3   OH2 1283   1.415   4.647   2.803
  426TIP3    H1 1284   1.395   4.597   2.882
  426TIP3    H2 1285   1.344   4.625   2.742
  427TIP3   OH2 1286   0.383   3.528   0.810
  427TIP3    H1 1287   0.415   3.605   0.762
  427TIP3    H2 1288   0.290   3.523   0.788
  428TIP3   OH2 1289   6.117   3.061   5.026
  428TIP3    H1 1290   6.120   3.036   4.934
  428TIP3    H2 1291   6.104   3.156   5.025
  429TIP3   OH2 1292   2.500   4.798   3.140
  429TIP3    H1 1293   2.406   4.807   3.155
  429TIP3    H2 1294   2.521   4.868   3.079
  430TIP3   OH2 1295   4.843   5.702   1.426
  430TIP3    H1 1296   4.814   5.788   1.396
  430TIP3    H2 1297   4.766   5.665   1.469
  431TIP3   OH2 1298   1.836   5.468   1.969
  431TIP3    H1 1299   1.754   5.482   2.016
  431TIP3    H2 1300   1.883   5.551   1.979
  432TIP3   OH2 1301   0.078   4.660   1.773
  432TIP3    H1 1302   0.110   4.676   1.862
  432TIP3    H2 1303   0.147   4.695   1.716
  433TIP3   OH2 1304   5.740   4.638   0.230
  433TIP3    H1 1305   5.728   4.673   0.142
  433TIP3    H2 1306   5.654   4.606   0.256
  434TIP3   OH2 1307   1.339   4.922   0.462
  434TIP3    H1 1308   1.284   4.969   0.399
  434TIP3    H2 1309   1.351   4.835   0.423
  435TIP3   OH2 1310   1.811   4.649   0.585
  435TIP3    H1 1311   1.785   4.634   0.675
  435TIP3    H2 1312   1.729   4.660   0.537
  436TIP3   OH2 1313   2.429   4.466   2.704
  436TIP3    H1 1314   2.472   4.421   2.631
  436TIP3    H2 1315   2.341   4.429   2.705
  437TIP3   OH2 1316   6.001   2.534   3.854
  437TIP3    H1 1317   5.965   2.564   3.770
  437TIP3    H2 1318   5.957   2.588   3.920
  438TIP3   OH2 1319   0.769   2.154   4.518
  438TIP3    H1 1320   0.705   2.094   4.555
  438TIP3    H2 1321   0.719   2.231   4.494
  439TIP3   OH2 1322   4.079   0.011   5.151
  439TIP3    H1 1323   4.112  -0.001   5.240
  439TIP3    H2 1324   4.035   0.096   5.152
  440TIP3   OH2 1325   5.136   3.404   1.738
  440TIP3    H1 1326   5.154   3.465   1.809
  440TIP3    H2 1327   5.072   3.449   1.683
  441TIP3   OH2 1328   3.859   4.684   0.328
  441TIP3    H1 1329   3.875   4.642   0.243
  441TIP3    H2 1330   3.823   4.770   0.306
  442TIP3   OH2 1331   1.358   4.505   3.545
  442TIP3    H1 1332   1.317   4.466   3.468
  442TIP3    H2 1333   1.286   4.537   3.598
  443TIP3   OH2 1334   6.139   2.298   3.862
  443TIP3    H1 1335   6.071   2.364   3.844
  443TIP3    H2 1336   6.095   2.214   3.847
  444TIP3   OH2 1337   0.450   3.917   3.964
  444TIP3    H1 1338   0.455   3.868   4.046
  444TIP3    H2 1339   0.501   3.997   3.981
  445TIP3   OH2 1340   5.404   1.088   0.096
  445TIP3    H1 1341   5.321   1.059   0.058
  445TIP3    H2 1342   5.459   1.010   0.098
  446TIP3   OH2 1343   4.630   0.867   2.288
  446TIP3    H1 1344   4.599   0.944   2.241
  446TIP3    H2 1345   4.552   0.833   2.334
  447TIP3   OH2 1346   1.546   4.200   2.892
  447TIP3    H1 1347   1.606   4.229   2.824
  447TIP3    H2 1348   1.484   4.273   2.902
  448TIP3   OH2 1349   2.559   0.879   4.950
  448TIP3    H1 1350   2.544   0.787   4.930
  448TIP3    H2 1351   2.479   0.908   4.995
  449TIP3   OH2 1352   4.759   2.818   4.619
  449TIP3    H1 1353   4.748   2.783   4.707
  449TIP3    H2 1354   4.691   2.775   4.567
  450TIP3   OH2 1355   4.808   0.247   2.818
  450TIP3    H1 1356   4.806   0.290   2.733
  450TIP3    H2 1357   4.883   0.286   2.863
  451TIP3   OH2 1358   3.882   4.561   3.723
  451TIP3    H1 1359   3.965   4.606   3.707
  451TIP3    H2 1360   3.894   4.519   3.809
  452TIP3   OH2 1361   0.516   3.593   0.192
  452TIP3    H1 1362   0.493   3.618   0.281
  452TIP3    H2 1363   0.497   3.671   0.140
  453TIP3   OH2 1364   3.367   1.666   3.029
  453TIP3    H1 1365   3.362   1.648   3.123
  453TIP3    H2 1366   3.358   1.580   2.988
  454TIP3   OH2 1367   1.767   3.770   1.725
  454TIP3    H1 1368   1.691   3.730   1.767
  454TIP3    H2 1369   1.831   3.699   1.720
  455TIP3   OH2 1370   6.180   1.066   4.473
  455TIP3    H1 1371   6.220   1.151   4.455
  455TIP3    H2 1372   6.186   1.056   4.568
  456TIP3   OH2 1373   1.513   5.623   2.973
  456TIP3    H1 1374   1.509   5.672   3.055
  456TIP3    H2 1375   1.422   5.614   2.945
  457TIP3   OH2 1376   2.795   5.904   5.002
  457TIP3    H1 1377   2.821   5.830   5.056
  457TIP3    H2 1378   2.701   5.893   4.990
  458TIP3   OH2 1379   0.825   5.714   4.144
  458TIP3    H1 1380   0.902   5.759   4.108
  458TIP3    H2 1381   0.854   5.684   4.230
  459TIP3   OH2 1382   6.003   2.995   3.136
  459TIP3    H1 1383   6.017   2.906   3.104
  459TIP3    H2 1384   6.012   3.050   3.059
  460TIP3   OH2 1385   1.814   4.336   0.565
  460TIP3    H1 1386   1.896   4.324   0.612
  460TIP3    H2 1387   1.830   4.412   0.508
  461TIP3   OH2 1388   5.116   5.024   5.042
  461TIP3    H1 1389   5.187   4.998   4.984
  461TIP3    H2 1390   5.123   5.120   5.046
  462TIP3   OH2 1391   4.384   3.159   3.420
  462TIP3    H1 1392   4.360   3.113   3.339
  462TIP3    H2 1393   4.335   3.240   3.418
  463TIP3   OH2 1394   1.789   0.888   3.908
  463TIP3    H1 1395   1.811   0.942   3.983
  463TIP3    H2 1396   1.744   0.947   3.847
  464TIP3   OH2 1397   3.714   2.127   2.722
  464TIP3    H1 1398   3.734   2.065   2.652
  464TIP3    H2 1399   3.793   2.181   2.729
  465TIP3   OH2 1400   4.935   0.226   0.189
  465TIP3    H1 1401   4.985   0.202   0.111
  465TIP3    H2 1402   5.001   0.240   0.256
  466TIP3   OH2 1403   0.006   2.907   5.043
  466TIP3    H1 1404   0.092   2.948   5.027
  466TIP3    H2 1405  -0.057   2.979   5.033
  467TIP3   OH2 1406   3.677   2.517   2.886
  467TIP3    H1 1407   3.647   2.498   2.797
  467TIP3    H2 1408   3.604   2.563   2.927
  468TIP3   OH2 1409   5.374   4.616   2.613
  468TIP3    H1 1410   5.454   4.633   2.662
  468TIP3    H2 1411   5.403   4.578   2.530
  469TIP3   OH2 1412   5.609   5.555   2.105
  469TIP3    H1 1413   5.593   5.477   2.052
  469TIP3    H2 1414   5.646   5.618   2.043
  470TIP3   OH2 1415   3.772   3.927   1.941
  470TIP3    H1 1416   3.746   3.956   1.853
  470TIP3    H2 1417   3.866   3.910   1.934
  471TIP3   OH2 1418   0.350   2.621   0.649
  471TIP3    H1 1419   0.343   2.692   0.585
  471TIP3    H2 1420   0.444   2.605   0.656
  472TIP3   OH2 1421   5.092   0.120   4.861
  472TIP3    H1 1422   5.024   0.056   4.884
  472TIP3    H2 1423   5.163   0.103   4.923
  473TIP3   OH2 1424   2.192   0.377   2.584
  473TIP3    H1 1425   2.282   0.374   2.551
  473TIP3    H2 1426   2.201   0.367   2.679
  474TIP3   OH2 1427   4.288   3.029   3.988
  474TIP3    H1 1428   4.269   2.947   4.034
  474TIP3    H2 1429   4.223   3.091   4.020
  475TIP3   OH2 1430   3.720   5.343   1.300
  475TIP3    H1 1431   3.635   5.310   1.271
  475TIP3    H2 1432   3.705   5.375   1.389
  476TIP3   OH2 1433   2.482   2.581   1.466
  476TIP3    H1 1434   2.525   2.551   1.546
  476TIP3    H2 1435   2.549   2.574   1.398
  477TIP3   OH2 1436   6.213   5.967   1.688
  477TIP3    H1 1437   6.273   5.937   1.757
  477TIP3    H2 1438   6.229   5.908   1.615
  478TIP3   OH2 1439   5.976   2.860   3.864
  478TIP3    H1 1440   5.965   2.939   3.917
  478TIP3    H2 1441   5.898   2.807   3.882
  479TIP3   OH2 1442   1.290   3.008   2.124
  479TIP3    H1 1443   1.346   3.079   2.155
  479TIP3    H2 1444   1.202   3.045   2.125
  480TIP3   OH2 1445   0.989   0.974   3.862
  480TIP3    H1 1446   0.931   0.924   3.920
  480TIP3    H2 1447   1.070   0.985   3.913
  481TIP3   OH2 1448   2.176   3.352   4.630
  481TIP3    H1 1449   2.094   3.397   4.611
  481TIP3    H2 1450   2.200   3.311   4.547
  482TIP3   OH2 1451   5.127   4.226   1.485
  482TIP3    H1 1452   5.168   4.142   1.507
  482TIP3    H2 1453   5.065   4.206   1.415
  483TIP3   OH2 1454   2.818   1.623   2.653
  483TIP3    H1 1455   2.820   1.555   2.720
  483TIP3    H2 1456   2.836   1.704   2.701
  484TIP3   OH2 1457   0.106   2.992   4.038
  484TIP3    H1 1458   0.178   3.045   4.074
  484TIP3    H2 1459   0.121   2.993   3.943
  485TIP3   OH2 1460   4.766   0.189   4.760
  485TIP3    H1 1461   4.681   0.188   4.805
  485TIP3    H2 1462   4.827   0.224   4.825
  486TIP3   OH2 1463   3.230   1.468   1.732
  486TIP3    H1 1464   3.199   1.487   1.644
  486TIP3    H2 1465   3.244   1.554   1.772
  487TIP3   OH2 1466   4.357   5.815   1.543
  487TIP3    H1 1467   4.329   5.769   1.622
  487TIP3    H2 1468   4.388   5.746   1.484
  488TIP3   OH2 1469   1.147   5.383   1.875
  488TIP3    H1 1470   1.069   5.362   1.926
  488TIP3    H2 1471   1.219   5.377   1.938
  489TIP3   OH2 1472   1.995   3.054   5.034
  489TIP3    H1 1473   2.077   3.093   5.003
  489TIP3    H2 1474   2.017   3.017   5.120
  490TIP3   OH2 1475   4.684   1.180   2.897
  490TIP3    H1 1476   4.680   1.135   2.812
  490TIP3    H2 1477   4.635   1.123   2.956
  491TIP3   OH2 1478   3.306   0.190   2.123
  491TIP3    H1 1479   3.311   0.267   2.180
  491TIP3    H2 1480   3.341   0.220   2.039
  492TIP3   OH2 1481   3.316   0.254   2.839
  492TIP3    H1 1482   3.377   0.181   2.851
  492TIP3    H2 1483   3.233   0.222   2.875
  493TIP3   OH2 1484   5.839   3.500   1.942
  493TIP3    H1 1485   5.783   3.429   1.973
  493TIP3    H2 1486   5.840   3.562   2.014
  494TIP3   OH2 1487   1.989   5.091   1.661
  494TIP3    H1 1488   2.064   5.098   1.601
  494TIP3    H2 1489   2.003   5.160   1.725
  495TIP3   OH2 1490   3.482   4.164   1.999
  495TIP3    H1 1491   3.552   4.229   2.006
  495TIP3    H2 1492   3.418   4.189   2.066
  496TIP3   OH2 1493   6.204   3.622   1.720
  496TIP3    H1 1494   6.144   3.581   1.658
  496TIP3    H2 1495   6.195   3.716   1.703
  497TIP3   OH2 1496   4.617   1.631   4.269
  497TIP3    H1 1497   4.619   1.721   4.238
  497TIP3    H2 1498   4.703   1.618   4.310
  498TIP3   OH2 1499   3.964   5.404   4.608
  498TIP3    H1 1500   3.883   5.428   4.562
  498TIP3    H2 1501   4.029   5.395   4.539
  499TIP3   OH2 1502   3.004   5.678   2.126
  499TIP3    H1 1503   3.074   5.660   2.189
  499TIP3    H2 1504   3.013   5.609   2.060
  500TIP3   OH2 1505   5.289   5.755   1.309
  500TIP3    H1 1506   5.320   5.672   1.274
  500TIP3    H2 1507   5.337   5.821   1.260
  501TIP3   OH2 1508   1.281   1.635   1.282
  501TIP3    H1 1509   1.230   1.555   1.275
  501TIP3    H2 1510   1.336   1.636   1.203
  502TIP3   OH2 1511   3.029   1.842   3.414
  502TIP3    H1 1512   2.943   1.868   3.381
  502TIP3    H2 1513   3.037   1.888   3.497
  503TIP3   OH2 1514   6.236   4.090   0.099
  503TIP3    H1 1515   6.257   4.080   0.192
  503TIP3    H2 1516   6.319   4.076   0.054
  504TIP3   OH2 1517   1.268   5.399   1.406
  504TIP3    H1 1518   1.303   5.310   1.403
  504TIP3    H2 1519   1.203   5.397   1.476
  505TIP3   OH2 1520   0.756   1.520   3.746
  505TIP3    H1 1521   0.811   1.583   3.701
  505TIP3    H2 1522   0.763   1.544   3.839
  506TIP3   OH2 1523   5.361   1.012   3.752
  506TIP3    H1 1524   5.420   0.943   3.722
  506TIP3    H2 1525   5.300   0.967   3.811
  507TIP3   OH2 1526   3.144   0.795   2.950
  507TIP3    H1 1527   3.152   0.877   2.900
  507TIP3    H2 1528   3.072   0.811   3.011
  508TIP3   OH2 1529   6.309   4.009   0.724
  508TIP3    H1 1530   6.390   3.958   0.730
  508TIP3    H2 1531   6.338   4.100   0.737
  509TIP3   OH2 1532   0.961   2.513   4.236
  509TIP3    H1 1533   0.998   2.425   4.234
  509TIP3    H2 1534   1.029   2.569   4.201
  510TIP3   OH2 1535   4.032   1.144   2.002
  510TIP3    H1 1536   3.976   1.158   2.078
  510TIP3    H2 1537   4.099   1.211   2.008
  511TIP3   OH2 1538   1.585   2.776   0.557
  511TIP3    H1 1539   1.640   2.704   0.587
  511TIP3    H2 1540   1.521   2.735   0.499
  512TIP3   OH2 1541   1.413   4.822   2.332
  512TIP3    H1 1542   1.428   4.916   2.317
  512TIP3    H2 1543   1.496   4.781   2.307
  513TIP3   OH2 1544   2.936   4.054   2.714
  513TIP3    H1 1545   2.948   4.123   2.779
  513TIP3    H2 1546   2.961   3.974   2.760
  514TIP3   OH2 1547   4.074   3.880   3.109
  514TIP3    H1 1548   4.040   3.876   3.199
  514TIP3    H2 1549   4.150   3.937   3.115
  515TIP3   OH2 1550   6.196   5.863   2.946
  515TIP3    H1 1551   6.152   5.905   2.872
  515TIP3    H2 1552   6.164   5.910   3.023
  516TIP3   OH2 1553   2.135   0.499   1.747
  516TIP3    H1 1554   2.066   0.555   1.781
  516TIP3    H2 1555   2.089   0.420   1.717
  517TIP3   OH2 1556   4.524   0.954   3.030
  517TIP3    H1 1557   4.571   0.888   3.083
  517TIP3    H2 1558   4.454   0.904   2.988
  518TIP3   OH2 1559   5.159   5.399   3.027
  518TIP3    H1 1560   5.217   5.338   3.072
  518TIP3    H2 1561   5.169   5.379   2.934
  519TIP3   OH2 1562   1.140   2.679   3.329
  519TIP3    H1 1563   1.120   2.671   3.236
  519TIP3    H2 1564   1.164   2.591   3.357
  520TIP3   OH2 1565   3.575   4.231   3.767
  520TIP3    H1 1566   3.525   4.158   3.728
  520TIP3    H2 1567   3.663   4.221   3.731
  521TIP3   OH2 1568   1.467   6.011   0.216
  521TIP3    H1 1569   1.446   5.942   0.280
  521TIP3    H2 1570   1.508   5.964   0.143
  522TIP3   OH2 1571   0.626   4.127   3.997
  522TIP3    H1 1572   0.630   4.154   3.905
  522TIP3    H2 1573   0.712   4.149   4.032
  523TIP3   OH2 1574   6.133   0.011   0.636
  523TIP3    H1 1575   6.133   0.094   0.684
  523TIP3    H2 1576   6.054  -0.034   0.665
  524TIP3   OH2 1577   1.141   5.553   4.687
  524TIP3    H1 1578   1.120   5.488   4.620
  524TIP3    H2 1579   1.136   5.504   4.770
  525TIP3   OH2 1580   1.647   0.200   2.936
  525TIP3    H1 1581   1.573   0.141   2.926
  525TIP3    H2 1582   1.626   0.253   3.013
  526TIP3   OH2 1583   2.148   0.124   2.754
  526TIP3    H1 1584   2.193   0.083   2.680
  526TIP3    H2 1585   2.187   0.083   2.831
  527TIP3   OH2 1586   2.064   1.396   4.448
  527TIP3    H1 1587   2.131   1.454   4.482
  527TIP3    H2 1588   2.112   1.324   4.408
  528TIP3   OH2 1589   5.678   4.685   1.427
  528TIP3    H1 1590   5.753   4.631   1.401
  528TIP3    H2 1591   5.625   4.692   1.347
  529TIP3   OH2 1592   3.730   3.975   3.637
  529TIP3    H1 1593   3.796   4.040   3.662
  529TIP3    H2 1594   3.758   3.894   3.681
  530TIP3   OH2 1595   2.878   4.234   4.654
  530TIP3    H1 1596   2.897   4.153   4.702
  530TIP3    H2 1597   2.791   4.220   4.618
  531TIP3   OH2 1598   0.822   1.383   1.744
  531TIP3    H1 1599   0.762   1.447   1.706
  531TIP3    H2 1600   0.831   1.410   1.836
  532TIP3   OH2 1601   3.952   2.239   1.696
  532TIP3    H1 1602   3.941   2.152   1.735
  532TIP3    H2 1603   4.008   2.286   1.758
  533TIP3   OH2 1604   0.157   3.215  -0.006
  533TIP3    H1 1605   0.138   3.139   0.049
  533TIP3    H2 1606   0.248   3.236   0.014
  534TIP3   OH2 1607   5.650   2.552   4.512
  534TIP3    H1 1608   5.672   2.554   4.419
  534TIP3    H2 1609   5.735   2.557   4.556
  535TIP3   OH2 1610   2.162   4.280   0.440
  535TIP3    H1 1611   2.203   4.366   0.440
  535TIP3    H2 1612   2.122   4.272   0.353
  536TIP3   OH2 1613   5.116   0.297   0.390
  536TIP3    H1 1614   5.159   0.312   0.474
  536TIP3    H2 1615   5.186   0.303   0.325
  537TIP3   OH2 1616   5.884   3.194   2.397
  537TIP3    H1 1617   5.946   3.265   2.380
  537TIP3    H2 1618   5.798   3.231   2.377
  538TIP3   OH2 1619   3.820   4.872   3.093
  538TIP3    H1 1620   3.799   4.884   3.001
  538TIP3    H2 1621   3.766   4.799   3.121
  539TIP3   OH2 1622   5.849   4.129   2.809
  539TIP3    H1 1623   5.860   4.152   2.717
  539TIP3    H2 1624   5.804   4.045   2.808
  540TIP3   OH2 1625   6.158   0.595   1.728
  540TIP3    H1 1626   6.230   0.561   1.675
  540TIP3    H2 1627   6.116   0.661   1.671
  541TIP3   OH2 1628   2.158   0.344   0.032
  541TIP3    H1 1629   2.211   0.280  -0.015
  541TIP3    H2 1630   2.153   0.311   0.121
  542TIP3   OH2 1631   2.740   1.127   1.989
  542TIP3    H1 1632   2.722   1.121   2.083
  542TIP3    H2 1633   2.744   1.221   1.971
  543TIP3   OH2 1634   2.410   3.956   2.422
  543TIP3    H1 1635   2.459   3.907   2.488
  543TIP3    H2 1636   2.431   3.913   2.339
  544TIP3   OH2 1637   0.538   5.021   0.801
  544TIP3    H1 1638   0.546   5.099   0.745
  544TIP3    H2 1639   0.496   4.956   0.744
  545TIP3   OH2 1640   3.657   3.173   2.160
  545TIP3    H1 1641   3.680   3.249   2.107
  545TIP3    H2 1642   3.584   3.133   2.114
  546TIP3   OH2 1643   0.396   5.008   2.915
  546TIP3    H1 1644   0.385   5.103   2.909
  546TIP3    H2 1645   0.344   4.972   2.844
  547TIP3   OH2 1646   2.041   2.935   3.229
  547TIP3    H1 1647   1.981   2.990   3.179
  547TIP3    H2 1648   2.023   2.955   3.320
  548TIP3   OH2 1649   1.414   2.566   4.742
  548TIP3    H1 1650   1.355   2.512   4.795
  548TIP3    H2 1651   1.397   2.656   4.771
  549TIP3   OH2 1652   1.109   4.584   4.810
  549TIP3    H1 1653   1.110   4.489   4.801
  549TIP3    H2 1654   1.096   4.617   4.721
  550TIP3   OH2 1655   0.678   5.700   3.716
  550TIP3    H1 1656   0.681   5.606   3.731
  550TIP3    H2 1657   0.587   5.718   3.695
  551TIP3   OH2 1658   1.562   3.112   1.492
  551TIP3    H1 1659   1.610   3.142   1.569
  551TIP3    H2 1660   1.522   3.029   1.519
  552TIP3   OH2 1661   1.258   2.768   3.585
  552TIP3    H1 1662   1.271   2.863   3.579
  552TIP3    H2 1663   1.208   2.746   3.507
  553TIP3   OH2 1664   1.372   3.281   4.471
  553TIP3    H1 1665   1.301   3.271   4.534
  553TIP3    H2 1666   1.451   3.285   4.524
  554TIP3   OH2 1667   1.502   4.186   1.635
  554TIP3    H1 1668   1.461   4.237   1.705
  554TIP3    H2 1669   1.559   4.124   1.680
  555TIP3   OH2 1670   1.424   5.477   4.947
  555TIP3    H1 1671   1.388   5.394   4.978
  555TIP3    H2 1672   1.350   5.521   4.905
  556TIP3   OH2 1673   5.529   5.464   1.721
  556TIP3    H1 1674   5.513   5.545   1.673
  556TIP3    H2 1675   5.473   5.470   1.799
  557TIP3   OH2 1676   5.663   3.823   2.606
  557TIP3    H1 1677   5.683   3.821   2.700
  557TIP3    H2 1678   5.738   3.782   2.564
  558TIP3   OH2 1679   4.880   5.985   1.091
  558TIP3    H1 1680   4.934   6.028   1.025
  558TIP3    H2 1681   4.940   5.926   1.137
  559TIP3   OH2 1682   6.277   4.652   3.976
  559TIP3    H1 1683   6.287   4.674   3.883
  559TIP3    H2 1684   6.288   4.557   3.980
  560TIP3   OH2 1685   3.058   0.412   2.520
  560TIP3    H1 1686   3.144   0.409   2.478
  560TIP3    H2 1687   3.066   0.482   2.585
  561TIP3   OH2 1688   4.943   3.389   1.258
  561TIP3    H1 1689   5.026   3.414   1.218
  561TIP3    H2 1690   4.945   3.293   1.257
  562TIP3   OH2 1691   2.508   3.332   1.731
  562TIP3    H1 1692   2.453   3.365   1.803
  562TIP3    H2 1693   2.597   3.338   1.765
  563TIP3   OH2 1694   5.275   5.505   2.242
  563TIP3    H1 1695   5.295   5.465   2.158
  563TIP3    H2 1696   5.355   5.494   2.293
  564TIP3   OH2 1697   3.233   0.840   4.332
  564TIP3    H1 1698   3.236   0.914   4.393
  564TIP3    H2 1699   3.312   0.789   4.352
  565TIP3   OH2 1700   5.895   0.487   1.821
  565TIP3    H1 1701   5.916   0.399   1.790
  565TIP3    H2 1702   5.903   0.542   1.743
  566TIP3   OH2 1703   2.128   2.305   0.586
  566TIP3    H1 1704   2.159   2.240   0.524
  566TIP3    H2 1705   2.208   2.343   0.624
  567TIP3   OH2 1706   2.958   5.591   0.565
  567TIP3    H1 1707   2.998   5.523   0.620
  567TIP3    H2 1708   3.002   5.672   0.592
  568TIP3   OH2 1709   6.329   3.668   5.116
  568TIP3    H1 1710   6.277   3.610   5.171
  568TIP3    H2 1711   6.416   3.628   5.116
  569TIP3   OH2 1712   2.066   1.311   1.038
  569TIP3    H1 1713   1.972   1.299   1.051
  569TIP3    H2 1714   2.099   1.223   1.016
  570TIP3   OH2 1715   5.246   3.102   0.532
  570TIP3    H1 1716   5.245   3.136   0.622
  570TIP3    H2 1717   5.190   3.024   0.535
  571TIP3   OH2 1718   1.771   2.327   5.005
  571TIP3    H1 1719   1.789   2.407   4.955
  571TIP3    H2 1720   1.808   2.345   5.092
  572TIP3   OH2 1721   3.229   4.041   0.306
  572TIP3    H1 1722   3.255   3.973   0.368
  572TIP3    H2 1723   3.136   4.052   0.321
  573TIP3   OH2 1724   4.295   0.866   5.050
  573TIP3    H1 1725   4.321   0.958   5.063
  573TIP3    H2 1726   4.260   0.840   5.135
  574TIP3   OH2 1727   1.216   5.737   3.529
  574TIP3    H1 1728   1.242   5.740   3.621
  574TIP3    H2 1729   1.120   5.744   3.531
  575TIP3   OH2 1730   5.480   3.487   2.026
  575TIP3    H1 1731   5.532   3.566   2.014
  575TIP3    H2 1732   5.537   3.416   1.996
  576TIP3   OH2 1733   5.638   5.617   3.918
  576TIP3    H1 1734   5.651   5.686   3.853
  576TIP3    H2 1735   5.687   5.646   3.995
  577TIP3   OH2 1736   1.235   3.173   1.310
  577TIP3    H1 1737   1.284   3.136   1.236
  577TIP3    H2 1738   1.206   3.259   1.279
  578TIP3   OH2 1739   4.342   3.947   3.093
  578TIP3    H1 1740   4.370   3.988   3.012
  578TIP3    H2 1741   4.416   3.957   3.153
  579TIP3   OH2 1742   6.338   4.934   2.115
  579TIP3    H1 1743   6.406   4.966   2.175
  579TIP3    H2 1744   6.256   4.967   2.152
  580TIP3   OH2 1745   1.380   4.820   4.942
  580TIP3    H1 1746   1.470   4.819   4.975
  580TIP3    H2 1747   1.333   4.761   5.001
  581TIP3   OH2 1748   0.132   3.315   3.499
  581TIP3    H1 1749   0.169   3.400   3.475
  581TIP3    H2 1750   0.108   3.324   3.591
  582TIP3   OH2 1751   1.028   1.036   0.300
  582TIP3    H1 1752   1.114   1.077   0.310
  582TIP3    H2 1753   1.024   0.970   0.369
  583TIP3   OH2 1754   6.256   2.056   0.112
  583TIP3    H1 1755   6.187   2.101   0.160
  583TIP3    H2 1756   6.267   2.108   0.032
  584TIP3   OH2 1757   5.979   1.488   3.881
  584TIP3    H1 1758   6.017   1.503   3.795
  584TIP3    H2 1759   6.009   1.561   3.935
  585TIP3   OH2 1760   4.491   4.883   0.013
  585TIP3    H1 1761   4.489   4.950  -0.056
  585TIP3    H2 1762   4.526   4.929   0.089
  586TIP3   OH2 1763   6.337   2.304   3.319
  586TIP3    H1 1764   6.348   2.335   3.409
  586TIP3    H2 1765   6.326   2.384   3.267
  587TIP3   OH2 1766   3.402   5.800   2.201
  587TIP3    H1 1767   3.442   5.857   2.267
  587TIP3    H2 1768   3.374   5.723   2.250
  588TIP3   OH2 1769   5.675   0.924   3.490
  588TIP3    H1 1770   5.633   0.842   3.516
  588TIP3    H2 1771   5.719   0.955   3.569
  589TIP3   OH2 1772   6.294   0.397   4.378
  589TIP3    H1 1773   6.210   0.352   4.377
  589TIP3    H2 1774   6.309   0.423   4.287
  590TIP3   OH2 1775   1.789   1.718   0.269
  590TIP3    H1 1776   1.810   1.808   0.292
  590TIP3    H2 1777   1.830   1.704   0.183
  591TIP3   OH2 1778   6.155   3.996   3.914
  591TIP3    H1 1779   6.210   4.022   3.988
  591TIP3    H2 1780   6.104   4.074   3.894
  592TIP3   OH2 1781   4.789   1.371   1.446
  592TIP3    H1 1782   4.745   1.456   1.460
  592TIP3    H2 1783   4.876   1.383   1.483
  593TIP3   OH2 1784   0.402   1.766   3.519
  593TIP3    H1 1785   0.308   1.753   3.513
  593TIP3    H2 1786   0.416   1.857   3.495
  594TIP3   OH2 1787   6.223   3.004   4.585
  594TIP3    H1 1788   6.129   2.997   4.566
  594TIP3    H2 1789   6.240   3.099   4.589
  595TIP3   OH2 1790   1.198   3.003   3.478
  595TIP3    H1 1791   1.246   2.983   3.398
  595TIP3    H2 1792   1.106   3.007   3.451
  596TIP3   OH2 1793   0.431   4.491   1.705
  596TIP3    H1 1794   0.495   4.554   1.737
  596TIP3    H2 1795   0.374   4.542   1.647
  597TIP3   OH2 1796   2.552   5.036   2.930
  597TIP3    H1 1797   2.611   4.979   2.881
  597TIP3    H2 1798   2.590   5.124   2.921
  598TIP3   OH2 1799   5.654   3.795   1.196
  598TIP3    H1 1800   5.687   3.811   1.108
  598TIP3    H2 1801   5.559   3.791   1.186
  599TIP3   OH2 1802   6.313   0.542   3.809
  599TIP3    H1 1803   6.310   0.477   3.738
  599TIP3    H2 1804   6.229   0.532   3.854
  600TIP3   OH2 1805   4.030   0.747   1.616
  600TIP3    H1 1806   4.050   0.791   1.699
  600TIP3    H2 1807   4.021   0.819   1.553
  601TIP3   OH2 1808   4.301   1.965   0.945
  601TIP3    H1 1809   4.216   1.937   0.911
  601TIP3    H2 1810   4.313   1.915   1.026
  602TIP3   OH2 1811   1.766   5.036   1.484
  602TIP3    H1 1812   1.686   5.067   1.526
  602TIP3    H2 1813   1.836   5.066   1.542
  603TIP3   OH2 1814   1.635   0.865   1.217
  603TIP3    H1 1815   1.562   0.908   1.173
  603TIP3    H2 1816   1.713   0.909   1.183
  604TIP3   OH2 1817   3.948   4.192   3.354
  604TIP3    H1 1818   3.975   4.248   3.281
  604TIP3    H2 1819   3.937   4.252   3.428
  605TIP3   OH2 1820   6.065   1.326   1.131
  605TIP3    H1 1821   6.148   1.332   1.085
  605TIP3    H2 1822   6.080   1.262   1.200
  606TIP3   OH2 1823   0.063   0.885   2.100
  606TIP3    H1 1824   0.123   0.835   2.045
  606TIP3    H2 1825   0.116   0.910   2.176
  607TIP3   OH2 1826   6.281   2.510   3.709
  607TIP3    H1 1827   6.216   2.581   3.706
  607TIP3    H2 1828   6.256   2.458   3.785
  608TIP3   OH2 1829   6.251   2.324   1.666
  608TIP3    H1 1830   6.203   2.388   1.613
  608TIP3    H2 1831   6.208   2.241   1.648
  609TIP3   OH2 1832   0.537   0.253   5.146
  609TIP3    H1 1833   0.600   0.323   5.163
  609TIP3    H2 1834   0.453   0.297   5.141
  610TIP3   OH2 1835   5.747   4.801   3.022
  610TIP3    H1 1836   5.731   4.768   3.111
  610TIP3    H2 1837   5.803   4.878   3.035
  611TIP3   OH2 1838   3.137   5.282   2.765
  611TIP3    H1 1839   3.046   5.299   2.742
  611TIP3    H2 1840   3.144   5.307   2.857
  612TIP3   OH2 1841   4.064   1.263   1.061
  612TIP3    H1 1842   4.152   1.274   1.026
  612TIP3    H2 1843   4.020   1.347   1.045
  613TIP3   OH2 1844   0.071   3.183   0.458
  613TIP3    H1 1845   0.127   3.232   0.398
  613TIP3    H2 1846   0.102   3.207   0.545
  614TIP3   OH2 1847   4.561   4.630   0.040
  614TIP3    H1 1848   4.524   4.712   0.009
  614TIP3    H2 1849   4.632   4.656   0.098
  615TIP3   OH2 1850   2.023   2.691   2.869
  615TIP3    H1 1851   2.061   2.778   2.854
  615TIP3    H2 1852   1.967   2.676   2.792
  616TIP3   OH2 1853   1.846   0.664   2.589
  616TIP3    H1 1854   1.773   0.665   2.651
  616TIP3    H2 1855   1.873   0.572   2.587
  617TIP3   OH2 1856   5.363   1.481   2.624
  617TIP3    H1 1857   5.291   1.541   2.643
  617TIP3    H2 1858   5.430   1.500   2.690
  618TIP3   OH2 1859   3.874   3.959   0.070
  618TIP3    H1 1860   3.870   3.871   0.033
  618TIP3    H2 1861   3.851   4.017  -0.003
  619TIP3   OH2 1862   2.502   3.055   1.114
  619TIP3    H1 1863   2.478   3.028   1.025
  619TIP3    H2 1864   2.418   3.075   1.155
  620TIP3   OH2 1865   3.742   2.058   4.093
  620TIP3    H1 1866   3.835   2.072   4.073
  620TIP3    H2 1867   3.738   2.059   4.189
  621TIP3   OH2 1868   5.363   5.355   4.574
  621TIP3    H1 1869   5.382   5.367   4.667
  621TIP3    H2 1870   5.448   5.351   4.532
  622TIP3   OH2 1871   0.797   2.526   0.816
  622TIP3    H1 1872   0.816   2.585   0.889
  622TIP3    H2 1873   0.869   2.541   0.754
  623TIP3   OH2 1874   5.637   1.538   4.711
  623TIP3    H1 1875   5.600   1.474   4.650
  623TIP3    H2 1876   5.651   1.489   4.792
  624TIP3   OH2 1877   4.048   5.212   0.418
  624TIP3    H1 1878   3.994   5.142   0.455
  624TIP3    H2 1879   4.025   5.290   0.469
  625TIP3   OH2 1880   4.623   5.838   3.807
  625TIP3    H1 1881   4.700   5.866   3.758
  625TIP3    H2 1882   4.657   5.787   3.881
  626TIP3   OH2 1883   5.678   2.640   5.041
  626TIP3    H1 1884   5.696   2.552   5.076
  626TIP3    H2 1885   5.589   2.634   5.005
  627TIP3   OH2 1886   2.232   3.775   4.120
  627TIP3    H1 1887   2.281   3.757   4.201
  627TIP3    H2 1888   2.298   3.807   4.059
  628TIP3   OH2 1889   2.884   3.995   4.833
  628TIP3    H1 1890   2.923   3.914   4.864
  628TIP3    H2 1891   2.792   3.975   4.820
  629TIP3   OH2 1892   1.493   1.889   2.780
  629TIP3    H1 1893   1.429   1.926   2.840
  629TIP3    H2 1894   1.466   1.798   2.769
  630TIP3   OH2 1895   2.194   3.716   0.864
  630TIP3    H1 1896   2.248   3.792   0.884
  630TIP3    H2 1897   2.152   3.693   0.947
  631TIP3   OH2 1898   2.157   5.266   5.167
  631TIP3    H1 1899   2.212   5.321   5.111
  631TIP3    H2 1900   2.131   5.323   5.239
  632TIP3   OH2 1901   0.542   0.569   3.236
  632TIP3    H1 1902   0.484   0.550   3.309
  632TIP3    H2 1903   0.547   0.486   3.188
  633TIP3   OH2 1904   1.911   2.585   3.084
  633TIP3    H1 1905   1.830   2.632   3.103
  633TIP3    H2 1906   1.940   2.620   3.000
  634TIP3   OH2 1907   0.971   0.575   4.976
  634TIP3    H1 1908   0.893   0.584   4.922
  634TIP3    H2 1909   0.953   0.627   5.054
  635TIP3   OH2 1910   4.408   3.460   1.248
  635TIP3    H1 1911   4.473   3.511   1.297
  635TIP3    H2 1912   4.400   3.506   1.164
  636TIP3   OH2 1913   1.348   2.050   0.137
  636TIP3    H1 1914   1.426   1.996   0.132
  636TIP3    H2 1915   1.281   1.992   0.173
  637TIP3   OH2 1916   4.111   2.078   2.385
  637TIP3    H1 1917   4.091   2.113   2.472
  637TIP3    H2 1918   4.097   1.984   2.392
  638TIP3   OH2 1919   4.670   0.580   5.031
  638TIP3    H1 1920   4.602   0.608   5.093
  638TIP3    H2 1921   4.750   0.621   5.063
  639TIP3   OH2 1922   4.234   1.834   3.785
  639TIP3    H1 1923   4.184   1.759   3.753
  639TIP3    H2 1924   4.318   1.828   3.739
  640TIP3   OH2 1925   5.246   0.459   1.155
  640TIP3    H1 1926   5.312   0.390   1.157
  640TIP3    H2 1927   5.279   0.523   1.092
  641TIP3   OH2 1928   5.497   3.577   2.832
  641TIP3    H1 1929   5.462   3.656   2.873
  641TIP3    H2 1930   5.419   3.524   2.813
  642TIP3   OH2 1931   3.143   4.864   3.847
  642TIP3    H1 1932   3.139   4.824   3.760
  642TIP3    H2 1933   3.078   4.815   3.898
  643TIP3   OH2 1934   1.159   4.736   1.452
  643TIP3    H1 1935   1.162   4.824   1.414
  643TIP3    H2 1936   1.238   4.730   1.505
  644TIP3   OH2 1937   4.570   0.182   2.901
  644TIP3    H1 1938   4.653   0.202   2.858
  644TIP3    H2 1939   4.562   0.249   2.969
  645TIP3   OH2 1940   4.027   1.954   1.946
  645TIP3    H1 1941   4.052   2.023   2.008
  645TIP3    H2 1942   4.066   1.874   1.982
  646TIP3   OH2 1943   5.802   3.621   1.688
  646TIP3    H1 1944   5.826   3.713   1.695
  646TIP3    H2 1945   5.817   3.584   1.775
  647TIP3   OH2 1946   3.794   2.395   4.376
  647TIP3    H1 1947   3.699   2.400   4.378
  647TIP3    H2 1948   3.816   2.399   4.283
  648TIP3   OH2 1949   4.367   1.281   0.715
  648TIP3    H1 1950   4.300   1.343   0.685
  648TIP3    H2 1951   4.448   1.310   0.672
  649TIP3   OH2 1952   0.349   0.735   3.755
  649TIP3    H1 1953   0.294   0.791   3.700
  649TIP3    H2 1954   0.308   0.648   3.748
  650TIP3   OH2 1955   5.313   3.082   1.583
  650TIP3    H1 1956   5.366   3.134   1.523
  650TIP3    H2 1957   5.286   3.005   1.532
  651TIP3   OH2 1958   2.837   1.649   0.340
  651TIP3    H1 1959   2.924   1.623   0.371
  651TIP3    H2 1960   2.816   1.587   0.270
  652TIP3   OH2 1961   0.398   2.933   2.796
  652TIP3    H1 1962   0.384   2.889   2.880
  652TIP3    H2 1963   0.449   3.010   2.819
  653TIP3   OH2 1964   5.637   2.083   4.837
  653TIP3    H1 1965   5.703   2.073   4.906
  653TIP3    H2 1966   5.597   1.996   4.830
  654TIP3   OH2 1967   5.660   5.633   5.099
  654TIP3    H1 1968   5.745   5.676   5.106
  654TIP3    H2 1969   5.626   5.659   5.013
  655TIP3   OH2 1970   3.249   1.144   2.231
  655TIP3    H1 1971   3.245   1.170   2.323
  655TIP3    H2 1972   3.199   1.212   2.186
  656TIP3   OH2 1973   5.405   0.115   1.495
  656TIP3    H1 1974   5.331   0.064   1.462
  656TIP3    H2 1975   5.455   0.052   1.548
  657TIP3   OH2 1976   4.893   0.953   1.237
  657TIP3    H1 1977   4.838   0.994   1.304
  657TIP3    H2 1978   4.935   0.880   1.282
  658TIP3   OH2 1979   4.243   2.973   3.227
  658TIP3    H1 1980   4.277   2.885   3.206
  658TIP3    H2 1981   4.295   3.032   3.174
  659TIP3   OH2 1982   0.765   1.818   1.305
  659TIP3    H1 1983   0.848   1.772   1.319
  659TIP3    H2 1984   0.777   1.902   1.349
  660TIP3   OH2 1985   5.498   3.935   5.036
  660TIP3    H1 1986   5.527   3.853   4.996
  660TIP3    H2 1987   5.552   3.943   5.115
  661TIP3   OH2 1988   0.865   4.875   4.483
  661TIP3    H1 1989   0.913   4.942   4.531
  661TIP3    H2 1990   0.773   4.889   4.509
  662TIP3   OH2 1991   4.895   0.689   3.929
  662TIP3    H1 1992   4.825   0.708   3.992
  662TIP3    H2 1993   4.883   0.754   3.860
  663TIP3   OH2 1994   2.223   5.176   2.932
  663TIP3    H1 1995   2.301   5.232   2.926
  663TIP3    H2 1996   2.223   5.128   2.849
  664TIP3   OH2 1997   2.674   5.445   4.387
  664TIP3    H1 1998   2.718   5.372   4.343
  664TIP3    H2 1999   2.727   5.521   4.366
  665TIP3   OH2 2000   4.404   1.112   2.431
  665TIP3    H1 2001   4.337   1.044   2.441
  665TIP3    H2 2002   4.441   1.098   2.344
  666TIP3   OH2 2003   4.944   4.740   1.456
  666TIP3    H1 2004   4.967   4.690   1.534
  666TIP3    H2 2005   5.008   4.713   1.391
  667TIP3   OH2 2006   1.132   1.184   1.281
  667TIP3    H1 2007   1.165   1.097   1.303
  667TIP3    H2 2008   1.158   1.239   1.355
  668TIP3   OH2 2009   2.134   2.934   2.765
  668TIP3    H1 2010   2.112   3.025   2.745
  668TIP3    H2 2011   2.189   2.905   2.693
  669TIP3   OH2 2012   1.914   1.993   2.245
  669TIP3    H1 2013   1.897   1.931   2.316
  669TIP3    H2 2014   2.001   1.968   2.213
  670TIP3   OH2 2015   1.248   1.703   4.080
  670TIP3    H1 2016   1.176   1.640   4.076
  670TIP3    H2 2017   1.210   1.785   4.047
  671TIP3   OH2 2018   4.586   0.240   0.571
  671TIP3    H1 2019   4.649   0.215   0.639
  671TIP3    H2 2020   4.638   0.241   0.490
  672TIP3   OH2 2021   0.640   4.318   4.503
  672TIP3    H1 2022   0.700   4.358   4.566
  672TIP3    H2 2023   0.697   4.265   4.446
  673TIP3   OH2 2024   4.964   5.524   4.315
  673TIP3    H1 2025   4.883   5.563   4.281
  673TIP3    H2 2026   4.989   5.460   4.248
  674TIP3   OH2 2027   4.913   2.394   4.247
  674TIP3    H1 2028   4.926   2.388   4.152
  674TIP3    H2 2029   4.896   2.487   4.262
  675TIP3   OH2 2030   5.010   3.192   0.101
  675TIP3    H1 2031   5.032   3.210   0.192
  675TIP3    H2 2032   5.050   3.107   0.083
  676TIP3   OH2 2033   3.021   5.182   2.387
  676TIP3    H1 2034   2.957   5.114   2.363
  676TIP3    H2 2035   3.091   5.134   2.431
  677TIP3   OH2 2036   0.428   4.885   0.589
  677TIP3    H1 2037   0.479   4.821   0.539
  677TIP3    H2 2038   0.337   4.865   0.567
  678TIP3   OH2 2039   5.913   0.888   4.829
  678TIP3    H1 2040   5.899   0.912   4.920
  678TIP3    H2 2041   5.866   0.806   4.818
  679TIP3   OH2 2042   0.297   3.598   2.058
  679TIP3    H1 2043   0.321   3.691   2.054
  679TIP3    H2 2044   0.288   3.573   1.966
  680TIP3   OH2 2045   5.978   1.878   0.733
  680TIP3    H1 2046   6.039   1.858   0.804
  680TIP3    H2 2047   5.892   1.873   0.773
  681TIP3   OH2 2048   1.525   3.450   0.309
  681TIP3    H1 2049   1.471   3.421   0.235
  681TIP3    H2 2050   1.467   3.503   0.363
  682TIP3   OH2 2051   3.754   3.597   4.256
  682TIP3    H1 2052   3.708   3.528   4.305
  682TIP3    H2 2053   3.806   3.643   4.322
  683TIP3   OH2 2054   4.395   4.852   2.657
  683TIP3    H1 2055   4.337   4.801   2.601
  683TIP3    H2 2056   4.368   4.942   2.644
  684TIP3   OH2 2057   3.021   4.833   2.706
  684TIP3    H1 2058   3.027   4.909   2.763
  684TIP3    H2 2059   3.052   4.760   2.761
  685TIP3   OH2 2060   4.648   2.797   4.274
  685TIP3    H1 2061   4.612   2.852   4.344
  685TIP3    H2 2062   4.592   2.719   4.274
  686TIP3   OH2 2063   0.373   3.858   1.957
  686TIP3    H1 2064   0.450   3.915   1.964
  686TIP3    H2 2065   0.360   3.847   1.863
  687TIP3   OH2 2066   2.305   0.692   0.649
  687TIP3    H1 2067   2.266   0.649   0.573
  687TIP3    H2 2068   2.398   0.672   0.643
  688TIP3   OH2 2069   3.087   2.757   0.235
  688TIP3    H1 2070   3.018   2.821   0.219
  688TIP3    H2 2071   3.130   2.787   0.315
  689TIP3   OH2 2072   5.225   2.037   1.038
  689TIP3    H1 2073   5.231   2.133   1.036
  689TIP3    H2 2074   5.284   2.008   0.969
  690TIP3   OH2 2075   5.809   2.216   3.144
  690TIP3    H1 2076   5.775   2.254   3.063
  690TIP3    H2 2077   5.774   2.127   3.146
  691TIP3   OH2 2078   4.192   2.615   3.322
  691TIP3    H1 2079   4.245   2.536   3.315
  691TIP3    H2 2080   4.207   2.662   3.240
  692TIP3   OH2 2081   0.620   5.684   5.006
  692TIP3    H1 2082   0.541   5.713   5.051
  692TIP3    H2 2083   0.596   5.599   4.969
  693TIP3   OH2 2084   3.002   3.920   0.902
  693TIP3    H1 2085   3.061   3.992   0.884
  693TIP3    H2 2086   2.919   3.961   0.925
  694TIP3   OH2 2087   3.656   4.591   4.255
  694TIP3    H1 2088   3.600   4.601   4.178
  694TIP3    H2 2089   3.702   4.508   4.240
  695TIP3   OH2 2090   3.342   1.537   2.411
  695TIP3    H1 2091   3.349   1.513   2.503
  695TIP3    H2 2092   3.427   1.512   2.373
  696TIP3   OH2 2093   0.823   0.530   0.744
  696TIP3    H1 2094   0.849   0.446   0.782
  696TIP3    H2 2095   0.845   0.595   0.811
  697TIP3   OH2 2096   1.786   5.135   4.282
  697TIP3    H1 2097   1.766   5.187   4.205
  697TIP3    H2 2098   1.840   5.063   4.250
  698TIP3   OH2 2099   1.510   0.260   1.640
  698TIP3    H1 2100   1.544   0.191   1.697
  698TIP3    H2 2101   1.563   0.337   1.661
  699TIP3   OH2 2102   5.651   4.247   2.993
  699TIP3    H1 2103   5.695   4.318   3.039
  699TIP3    H2 2104   5.711   4.222   2.923
  700TIP3   OH2 2105   5.852   5.848   0.299
  700TIP3    H1 2106   5.821   5.925   0.346
  700TIP3    H2 2107   5.884   5.882   0.216
  701TIP3   OH2 2108   2.526   2.320   0.415
  701TIP3    H1 2109   2.544   2.286   0.502
  701TIP3    H2 2110   2.559   2.253   0.355
  702TIP3   OH2 2111   3.537   4.814   3.023
  702TIP3    H1 2112   3.541   4.877   3.095
  702TIP3    H2 2113   3.457   4.765   3.038
  703TIP3   OH2 2114   4.850   1.369   3.023
  703TIP3    H1 2115   4.793   1.301   2.988
  703TIP3    H2 2116   4.793   1.445   3.033
  704TIP3   OH2 2117   4.387   1.563   2.032
  704TIP3    H1 2118   4.418   1.480   1.996
  704TIP3    H2 2119   4.398   1.625   1.961
  705TIP3   OH2 2120   5.512   5.841   0.433
  705TIP3    H1 2121   5.532   5.912   0.494
  705TIP3    H2 2122   5.591   5.832   0.380
  706TIP3   OH2 2123   3.493   2.795   1.878
  706TIP3    H1 2124   3.563   2.739   1.911
  706TIP3    H2 2125   3.440   2.815   1.955
  707TIP3   OH2 2126   4.719   1.769   2.236
  707TIP3    H1 2127   4.695   1.855   2.271
  707TIP3    H2 2128   4.815   1.773   2.229
  708TIP3   OH2 2129   4.904   5.193   0.472
  708TIP3    H1 2130   4.848   5.135   0.421
  708TIP3    H2 2131   4.851   5.271   0.488
  709TIP3   OH2 2132   5.862   0.034   3.543
  709TIP3    H1 2133   5.927  -0.014   3.492
  709TIP3    H2 2134   5.906   0.057   3.624
  710TIP3   OH2 2135   4.093   0.042   4.833
  710TIP3    H1 2136   4.151   0.094   4.889
  710TIP3    H2 2137   4.022   0.015   4.892
  711TIP3   OH2 2138   6.185   1.903   0.547
  711TIP3    H1 2139   6.100   1.884   0.588
  711TIP3    H2 2140   6.221   1.817   0.525
  712TIP3   OH2 2141   1.597   5.193   1.286
  712TIP3    H1 2142   1.691   5.188   1.268
  712TIP3    H2 2143   1.590   5.251   1.362
  713TIP3   OH2 2144   5.640   5.166   4.082
  713TIP3    H1 2145   5.647   5.116   4.163
  713TIP3    H2 2146   5.726   5.205   4.070
  714TIP3   OH2 2147   2.515   2.934   4.510
  714TIP3    H1 2148   2.512   2.847   4.548
  714TIP3    H2 2149   2.465   2.989   4.571
  715TIP3   OH2 2150   6.220   1.495   2.957
  715TIP3    H1 2151   6.253   1.424   2.903
  715TIP3    H2 2152   6.238   1.574   2.906
  716TIP3   OH2 2153   3.032   5.111   4.716
  716TIP3    H1 2154   3.002   5.154   4.636
  716TIP3    H2 2155   3.065   5.182   4.771
  717TIP3   OH2 2156   4.687   5.441   0.967
  717TIP3    H1 2157   4.740   5.378   1.016
  717TIP3    H2 2158   4.722   5.526   0.992
  718TIP3   OH2 2159   2.455   0.861   4.629
  718TIP3    H1 2160   2.513   0.803   4.581
  718TIP3    H2 2161   2.370   0.817   4.625
  719TIP3   OH2 2162   5.523   2.673   2.459
  719TIP3    H1 2163   5.482   2.590   2.433
  719TIP3    H2 2164   5.454   2.721   2.505
  720TIP3   OH2 2165   4.722   5.098   3.947
  720TIP3    H1 2166   4.696   5.029   4.008
  720TIP3    H2 2167   4.815   5.113   3.966
  721TIP3   OH2 2168   0.067   2.673   5.169
  721TIP3    H1 2169   0.034   2.743   5.112
  721TIP3    H2 2170   0.018   2.595   5.141
  722TIP3   OH2 2171   2.851   5.683   1.701
  722TIP3    H1 2172   2.793   5.699   1.627
  722TIP3    H2 2173   2.903   5.763   1.708
  723TIP3   OH2 2174   4.144   2.943   1.552
  723TIP3    H1 2175   4.239   2.944   1.562
  723TIP3    H2 2176   4.124   2.851   1.531
  724TIP3   OH2 2177   0.926   4.821   0.961
  724TIP3    H1 2178   0.963   4.820   0.872
  724TIP3    H2 2179   0.970   4.894   1.004
  725TIP3   OH2 2180   0.773   0.374   4.707
  725TIP3    H1 2181   0.725   0.373   4.625
  725TIP3    H2 2182   0.752   0.290   4.749
  726TIP3   OH2 2183   5.825   1.401   0.772
  726TIP3    H1 2184   5.870   1.334   0.823
  726TIP3    H2 2185   5.893   1.441   0.718
  727TIP3   OH2 2186   2.506   3.227   3.467
  727TIP3    H1 2187   2.434   3.164   3.466
  727TIP3    H2 2188   2.538   3.229   3.376
  728TIP3   OH2 2189   4.174   5.500   2.234
  728TIP3    H1 2190   4.213   5.499   2.321
  728TIP3    H2 2191   4.136   5.412   2.224
  729TIP3   OH2 2192   4.723   2.511   3.731
  729TIP3    H1 2193   4.759   2.597   3.709
  729TIP3    H2 2194   4.708   2.515   3.825
  730TIP3   OH2 2195   0.329   5.868   4.488
  730TIP3    H1 2196   0.388   5.874   4.413
  730TIP3    H2 2197   0.250   5.914   4.461
  731TIP3   OH2 2198   6.166   1.350   4.030
  731TIP3    H1 2199   6.111   1.366   3.953
  731TIP3    H2 2200   6.117   1.286   4.081
  732TIP3   OH2 2201   0.758   0.850   4.997
  732TIP3    H1 2202   0.702   0.925   4.976
  732TIP3    H2 2203   0.763   0.800   4.915
  733TIP3   OH2 2204   0.139   3.571   3.436
  733TIP3    H1 2205   0.094   3.607   3.359
  733TIP3    H2 2206   0.188   3.646   3.471
  734TIP3   OH2 2207   0.819   0.173   4.183
  734TIP3    H1 2208   0.783   0.132   4.104
  734TIP3    H2 2209   0.850   0.100   4.236
  735TIP3   OH2 2210   6.136   1.822   3.751
  735TIP3    H1 2211   6.114   1.799   3.841
  735TIP3    H2 2212   6.150   1.738   3.707
  736TIP3   OH2 2213   5.002   0.919   3.341
  736TIP3    H1 2214   5.031   0.998   3.296
  736TIP3    H2 2215   5.001   0.943   3.434
  737TIP3   OH2 2216   3.950   0.837   3.775
  737TIP3    H1 2217   3.915   0.793   3.852
  737TIP3    H2 2218   3.975   0.924   3.806
  738TIP3   OH2 2219   6.267   1.159   3.224
  738TIP3    H1 2220   6.261   1.153   3.129
  738TIP3    H2 2221   6.185   1.199   3.252
  739TIP3   OH2 2222   5.878   0.004   2.043
  739TIP3    H1 2223   5.959  -0.005   1.994
  739TIP3    H2 2224   5.882   0.091   2.082
  740TIP3   OH2 2225   5.134   4.984   0.095
  740TIP3    H1 2226   5.099   4.933   0.168
  740TIP3    H2 2227   5.156   5.069   0.134
  741TIP3   OH2 2228   3.178   2.631   0.869
  741TIP3    H1 2229   3.273   2.625   0.875
  741TIP3    H2 2230   3.148   2.630   0.960
  742TIP3   OH2 2231   2.361   2.904   3.345
  742TIP3    H1 2232   2.414   2.892   3.267
  742TIP3    H2 2233   2.422   2.896   3.418
  743TIP3   OH2 2234   0.488   1.839   1.310
  743TIP3    H1 2235   0.447   1.768   1.359
  743TIP3    H2 2236   0.581   1.817   1.309
  744TIP3   OH2 2237   4.232   0.087   0.195
  744TIP3    H1 2238   4.180   0.041   0.129
  744TIP3    H2 2239   4.172   0.100   0.269
  745TIP3   OH2 2240   4.354   2.310   5.081
  745TIP3    H1 2241   4.394   2.367   5.147
  745TIP3    H2 2242   4.274   2.355   5.055
  746TIP3   OH2 2243   4.285   5.794   0.070
  746TIP3    H1 2244   4.244   5.879   0.085
  746TIP3    H2 2245   4.333   5.775   0.150
  747TIP3   OH2 2246   4.722   0.602   0.589
  747TIP3    H1 2247   4.800   0.639   0.632
  747TIP3    H2 2248   4.757   0.533   0.533
  748TIP3   OH2 2249   1.982   0.123   0.894
  748TIP3    H1 2250   2.067   0.163   0.876
  748TIP3    H2 2251   1.918   0.192   0.877
  749TIP3   OH2 2252   2.389   0.489   1.900
  749TIP3    H1 2253   2.453   0.552   1.932
  749TIP3    H2 2254   2.314   0.541   1.874
  750TIP3   OH2 2255   5.580   1.310   2.283
  750TIP3    H1 2256   5.620   1.395   2.270
  750TIP3    H2 2257   5.558   1.280   2.195
  751TIP3   OH2 2258   1.814   5.055   2.405
  751TIP3    H1 2259   1.759   5.078   2.480
  751TIP3    H2 2260   1.904   5.064   2.437
  752TIP3   OH2 2261   4.564   2.930   3.324
  752TIP3    H1 2262   4.609   2.851   3.354
  752TIP3    H2 2263   4.556   2.984   3.403
  753TIP3   OH2 2264   4.814   4.718   0.122
  753TIP3    H1 2265   4.906   4.698   0.103
  753TIP3    H2 2266   4.814   4.745   0.213
  754TIP3   OH2 2267   1.225   1.311   3.649
  754TIP3    H1 2268   1.146   1.321   3.597
  754TIP3    H2 2269   1.262   1.227   3.622
  755TIP3   OH2 2270   5.884   1.427   0.346
  755TIP3    H1 2271   5.936   1.374   0.407
  755TIP3    H2 2272   5.810   1.458   0.398
  756TIP3   OH2 2273   0.765   3.929   2.084
  756TIP3    H1 2274   0.728   3.851   2.042
  756TIP3    H2 2275   0.790   3.986   2.011
  757TIP3   OH2 2276   1.158   1.360   4.034
  757TIP3    H1 2277   1.225   1.322   3.977
  757TIP3    H2 2278   1.201   1.371   4.119
  758TIP3   OH2 2279   4.335   5.710   3.579
  758TIP3    H1 2280   4.329   5.715   3.675
  758TIP3    H2 2281   4.427   5.695   3.561
  759TIP3   OH2 2282   5.364   0.351   0.849
  759TIP3    H1 2283   5.358   0.445   0.869
  759TIP3    H2 2284   5.360   0.309   0.934
  760TIP3   OH2 2285   2.282   0.079   2.202
  760TIP3    H1 2286   2.307   0.164   2.166
  760TIP3    H2 2287   2.337   0.016   2.155
  761TIP3   OH2 2288   2.077   1.038   2.157
  761TIP3    H1 2289   1.989   1.005   2.177
  761TIP3    H2 2290   2.076   1.129   2.189
  762TIP3   OH2 2291   3.982   3.112   2.149
  762TIP3    H1 2292   3.924   3.181   2.183
  762TIP3    H2 2293   3.969   3.115   2.054
  763TIP3   OH2 2294   2.141   1.479   0.834
  763TIP3    H1 2295   2.123   1.410   0.898
  763TIP3    H2 2296   2.165   1.555   0.887
  764TIP3   OH2 2297   1.846   0.348   2.848
  764TIP3    H1 2298   1.876   0.348   2.757
  764TIP3    H2 2299   1.769   0.291   2.848
  765TIP3   OH2 2300   0.709   1.032   3.745
  765TIP3    H1 2301   0.691   0.952   3.793
  765TIP3    H2 2302   0.805   1.040   3.748
  766TIP3   OH2 2303   0.376   5.295   2.887
  766TIP3    H1 2304   0.461   5.332   2.862
  766TIP3    H2 2305   0.316   5.326   2.819
  767TIP3   OH2 2306   5.214   1.232   2.021
  767TIP3    H1 2307   5.264   1.236   1.940
  767TIP3    H2 2308   5.247   1.154   2.066
  768TIP3   OH2 2309   4.153   5.952   3.208
  768TIP3    H1 2310   4.168   5.888   3.277
  768TIP3    H2 2311   4.062   5.980   3.220
  769TIP3   OH2 2312   3.585   3.539   3.708
  769TIP3    H1 2313   3.657   3.487   3.743
  769TIP3    H2 2314   3.532   3.561   3.785
  770TIP3   OH2 2315   3.915   0.096   1.369
  770TIP3    H1 2316   4.004   0.132   1.367
  770TIP3    H2 2317   3.859   0.169   1.342
  771TIP3   OH2 2318   5.197   4.932   3.025
  771TIP3    H1 2319   5.282   4.892   3.044
  771TIP3    H2 2320   5.141   4.859   2.999
  772TIP3   OH2 2321   2.402   2.982   1.737
  772TIP3    H1 2322   2.441   3.062   1.702
  772TIP3    H2 2323   2.315   2.978   1.696
  773TIP3   OH2 2324   6.246   3.076   1.054
  773TIP3    H1 2325   6.340   3.089   1.049
  773TIP3    H2 2326   6.233   2.985   1.027
  774TIP3   OH2 2327   2.854   2.290   4.440
  774TIP3    H1 2328   2.919   2.302   4.371
  774TIP3    H2 2329   2.802   2.214   4.410
  775TIP3   OH2 2330   4.233   4.925   2.309
  775TIP3    H1 2331   4.273   4.840   2.329
  775TIP3    H2 2332   4.233   4.971   2.392
  776TIP3   OH2 2333   2.445   0.082   0.798
  776TIP3    H1 2334   2.412   0.031   0.872
  776TIP3    H2 2335   2.424   0.029   0.721
  777TIP3   OH2 2336   0.040   1.264   1.323
  777TIP3    H1 2337   0.083   1.350   1.327
  777TIP3    H2 2338  -0.048   1.280   1.357
  778TIP3   OH2 2339   5.621   3.463   5.155
  778TIP3    H1 2340   5.716   3.457   5.166
  778TIP3    H2 2341   5.607   3.544   5.108
  779TIP3   OH2 2342   5.351   5.058   1.377
  779TIP3    H1 2343   5.444   5.080   1.372
  779TIP3    H2 2344   5.327   5.072   1.469
  780TIP3   OH2 2345   1.310   0.159   0.228
  780TIP3    H1 2346   1.306   0.156   0.323
  780TIP3    H2 2347   1.291   0.250   0.206
  781TIP3   OH2 2348   0.001   5.730   1.851
  781TIP3    H1 2349   0.037   5.672   1.785
  781TIP3    H2 2350  -0.026   5.671   1.922
  782TIP3   OH2 2351   5.241   3.093   1.069
  782TIP3    H1 2352   5.151   3.106   1.040
  782TIP3    H2 2353   5.281   3.179   1.062
  783TIP3   OH2 2354   2.811   2.936   4.499
  783TIP3    H1 2355   2.846   2.851   4.471
  783TIP3    H2 2356   2.716   2.926   4.493
  784TIP3   OH2 2357   4.316   3.103   2.194
  784TIP3    H1 2358   4.327   3.150   2.112
  784TIP3    H2 2359   4.372   3.150   2.257
  785TIP3   OH2 2360   0.519   0.368   4.267
  785TIP3    H1 2361   0.611   0.340   4.272
  785TIP3    H2 2362   0.524   0.464   4.268
  786TIP3   OH2 2363   5.042   3.460   2.277
  786TIP3    H1 2364   5.114   3.516   2.307
  786TIP3    H2 2365   5.029   3.399   2.349
  787TIP3   OH2 2366   1.974   1.258   4.003
  787TIP3    H1 2367   1.941   1.324   4.063
  787TIP3    H2 2368   1.963   1.175   4.050
  788TIP3   OH2 2369   6.298   0.176   4.701
  788TIP3    H1 2370   6.389   0.195   4.679
  788TIP3    H2 2371   6.254   0.262   4.697
  789TIP3   OH2 2372   3.008   5.215   5.065
  789TIP3    H1 2373   3.096   5.183   5.084
  789TIP3    H2 2374   2.979   5.163   4.990
  790TIP3   OH2 2375   0.179   3.290   4.435
  790TIP3    H1 2376   0.219   3.225   4.378
  790TIP3    H2 2377   0.205   3.375   4.398
  791TIP3   OH2 2378   0.975   2.174   4.740
  791TIP3    H1 2379   0.916   2.167   4.666
  791TIP3    H2 2380   0.957   2.097   4.793
  792TIP3   OH2 2381   4.947   4.433   1.805
  792TIP3    H1 2382   4.896   4.356   1.780
  792TIP3    H2 2383   5.012   4.443   1.734
  793TIP3   OH2 2384   2.027   2.106   1.724
  793TIP3    H1 2385   2.089   2.174   1.697
  793TIP3    H2 2386   2.081   2.040   1.768
  794TIP3   OH2 2387   4.339   1.952   2.047
  794TIP3    H1 2388   4.370   1.936   2.136
  794TIP3    H2 2389   4.349   2.047   2.035
  795TIP3   OH2 2390   4.518   5.755   1.806
  795TIP3    H1 2391   4.441   5.699   1.813
  795TIP3    H2 2392   4.574   5.712   1.741
  796TIP3   OH2 2393   2.319   0.821   3.306
  796TIP3    H1 2394   2.249   0.765   3.339
  796TIP3    H2 2395   2.394   0.762   3.296
  797TIP3   OH2 2396   5.745   2.134   2.249
  797TIP3    H1 2397   5.704   2.119   2.334
  797TIP3    H2 2398   5.787   2.051   2.228
  798TIP3   OH2 2399   2.171   0.462   4.524
  798TIP3    H1 2400   2.086   0.435   4.557
  798TIP3    H2 2401   2.229   0.461   4.600
  799TIP3   OH2 2402   4.986   5.203   3.453
  799TIP3    H1 2403   4.989   5.128   3.512
  799TIP3    H2 2404   5.071   5.204   3.410
  800TIP3   OH2 2405   2.202   5.097   0.461
  800TIP3    H1 2406   2.151   5.155   0.518
  800TIP3    H2 2407   2.268   5.154   0.422
  801TIP3   OH2 2408   2.005   0.658   4.412
  801TIP3    H1 2409   1.941   0.589   4.393
  801TIP3    H2 2410   2.090   0.616   4.393
  802TIP3   OH2 2411   5.051   3.212   0.916
  802TIP3    H1 2412   5.095   3.291   0.948
  802TIP3    H2 2413   4.967   3.244   0.883
  803TIP3   OH2 2414   2.159   0.327   3.401
  803TIP3    H1 2415   2.187   0.392   3.466
  803TIP3    H2 2416   2.081   0.366   3.362
  804TIP3   OH2 2417   1.611   4.501   0.007
  804TIP3    H1 2418   1.579   4.486   0.096
  804TIP3    H2 2419   1.570   4.433  -0.046
  805TIP3   OH2 2420   0.235   0.357   5.130
  805TIP3    H1 2421   0.230   0.431   5.069
  805TIP3    H2 2422   0.153   0.310   5.118
  806TIP3   OH2 2423   5.909   1.549   1.418
  806TIP3    H1 2424   5.919   1.633   1.463
  806TIP3    H2 2425   5.999   1.520   1.399
  807TIP3   OH2 2426   5.210   1.620   3.978
  807TIP3    H1 2427   5.257   1.576   3.907
  807TIP3    H2 2428   5.258   1.703   3.989
  808TIP3   OH2 2429   3.936   5.973   1.442
  808TIP3    H1 2430   3.912   5.909   1.510
  808TIP3    H2 2431   3.947   5.920   1.363
  809TIP3   OH2 2432   3.300   4.814   2.244
  809TIP3    H1 2433   3.294   4.729   2.199
  809TIP3    H2 2434   3.373   4.858   2.200
  810TIP3   OH2 2435   0.400   2.756   1.421
  810TIP3    H1 2436   0.448   2.829   1.460
  810TIP3    H2 2437   0.412   2.767   1.327
  811TIP3   OH2 2438   2.920   3.601   0.358
  811TIP3    H1 2439   2.866   3.561   0.290
  811TIP3    H2 2440   2.857   3.631   0.424
  812TIP3   OH2 2441   4.404   0.524   5.124
  812TIP3    H1 2442   4.405   0.431   5.104
  812TIP3    H2 2443   4.352   0.531   5.205
  813TIP3   OH2 2444   1.731   5.555   2.391
  813TIP3    H1 2445   1.660   5.556   2.455
  813TIP3    H2 2446   1.787   5.483   2.418
  814TIP3   OH2 2447   3.558   3.282   2.386
  814TIP3    H1 2448   3.588   3.255   2.299
  814TIP3    H2 2449   3.539   3.376   2.376
  815TIP3   OH2 2450   2.390   2.647   3.710
  815TIP3    H1 2451   2.311   2.655   3.764
  815TIP3    H2 2452   2.461   2.637   3.772
  816TIP3   OH2 2453   4.609   2.265   5.015
  816TIP3    H1 2454   4.528   2.221   5.040
  816TIP3    H2 2455   4.655   2.280   5.098
  817TIP3   OH2 2456   1.992   2.898   1.853
  817TIP3    H1 2457   2.064   2.915   1.793
  817TIP3    H2 2458   1.915   2.889   1.797
  818TIP3   OH2 2459   4.452   4.872   2.933
  818TIP3    H1 2460   4.517   4.942   2.926
  818TIP3    H2 2461   4.422   4.859   2.844
  819TIP3   OH2 2462   4.570   1.126   1.723
  819TIP3    H1 2463   4.532   1.125   1.635
  819TIP3    H2 2464   4.576   1.034   1.748
  820TIP3   OH2 2465   4.149   3.228   1.598
  820TIP3    H1 2466   4.199   3.217   1.679
  820TIP3    H2 2467   4.139   3.139   1.564
  821TIP3   OH2 2468   3.439   2.151   0.129
  821TIP3    H1 2469   3.476   2.064   0.137
  821TIP3    H2 2470   3.503   2.200   0.077
  822TIP3   OH2 2471   0.408   0.435   1.335
  822TIP3    H1 2472   0.393   0.368   1.401
  822TIP3    H2 2473   0.470   0.495   1.375
  823TIP3   OH2 2474   2.088   3.015   0.232
  823TIP3    H1 2475   2.092   2.961   0.153
  823TIP3    H2 2476   2.009   3.068   0.222
  824TIP3   OH2 2477   2.786   5.937   4.679
  824TIP3    H1 2478   2.743   6.020   4.700
  824TIP3    H2 2479   2.738   5.871   4.729
  825TIP3   OH2 2480   2.359   5.110   0.751
  825TIP3    H1 2481   2.415   5.160   0.810
  825TIP3    H2 2482   2.373   5.151   0.665
  826TIP3   OH2 2483   1.493   2.777   5.145
  826TIP3    H1 2484   1.575   2.823   5.124
  826TIP3    H2 2485   1.469   2.809   5.232
  827TIP3   OH2 2486   3.299   1.735   2.032
  827TIP3    H1 2487   3.364   1.665   2.037
  827TIP3    H2 2488   3.320   1.793   2.106
  828TIP3   OH2 2489   4.351   3.161   0.201
  828TIP3    H1 2490   4.267   3.135   0.238
  828TIP3    H2 2491   4.389   3.219   0.266
  829TIP3   OH2 2492   4.386   2.993   1.339
  829TIP3    H1 2493   4.336   3.032   1.269
  829TIP3    H2 2494   4.456   3.056   1.357
  830TIP3   OH2 2495   5.433   4.049   2.916
  830TIP3    H1 2496   5.527   4.052   2.933
  830TIP3    H2 2497   5.422   3.977   2.854
  831TIP3   OH2 2498   5.996   1.075   3.843
  831TIP3    H1 2499   5.991   1.040   3.932
  831TIP3    H2 2500   6.040   1.159   3.852
  832TIP3   OH2 2501   1.020   0.393   2.861
  832TIP3    H1 2502   1.016   0.446   2.782
  832TIP3    H2 2503   0.960   0.436   2.922
  833TIP3   OH2 2504   4.607   1.547   3.136
  833TIP3    H1 2505   4.512   1.554   3.148
  833TIP3    H2 2506   4.619   1.546   3.041
  834TIP3   OH2 2507   5.085   5.507   2.446
  834TIP3    H1 2508   5.168   5.495   2.400
  834TIP3    H2 2509   5.043   5.421   2.442
  835TIP3   OH2 2510   5.384   1.185   2.720
  835TIP3    H1 2511   5.406   1.278   2.716
  835TIP3    H2 2512   5.288   1.184   2.725
  836TIP3   OH2 2513   1.233   2.964   1.490
  836TIP3    H1 2514   1.321   2.934   1.466
  836TIP3    H2 2515   1.218   3.040   1.434
  837TIP3   OH2 2516   4.968   3.690   4.796
  837TIP3    H1 2517   4.953   3.773   4.841
  837TIP3    H2 2518   5.058   3.666   4.820
  838TIP3   OH2 2519   4.302   0.661   3.273
  838TIP3    H1 2520   4.354   0.595   3.319
  838TIP3    H2 2521   4.219   0.664   3.321
  839TIP3   OH2 2522   1.423   1.387   1.901
  839TIP3    H1 2523   1.415   1.330   1.977
  839TIP3    H2 2524   1.438   1.474   1.937
  840TIP3   OH2 2525   0.252   3.279   1.784
  840TIP3    H1 2526   0.219   3.261   1.872
  840TIP3    H2 2527   0.212   3.362   1.759
  841TIP3   OH2 2528   5.364   2.142   4.257
  841TIP3    H1 2529   5.306   2.193   4.314
  841TIP3    H2 2530   5.400   2.074   4.314
  842TIP3   OH2 2531   2.054   5.054   1.206
  842TIP3    H1 2532   2.142   5.078   1.235
  842TIP3    H2 2533   2.029   4.980   1.261
  843TIP3   OH2 2534   3.408   5.167   0.629
  843TIP3    H1 2535   3.460   5.215   0.694
  843TIP3    H2 2536   3.348   5.233   0.594
  844TIP3   OH2 2537   3.567   1.238   1.672
  844TIP3    H1 2538   3.608   1.312   1.716
  844TIP3    H2 2539   3.562   1.170   1.740
  845TIP3   OH2 2540   5.715   4.276   2.085
  845TIP3    H1 2541   5.773   4.349   2.066
  845TIP3    H2 2542   5.706   4.231   2.001
  846TIP3   OH2 2543   0.797   1.412   4.401
  846TIP3    H1 2544   0.879   1.451   4.432
  846TIP3    H2 2545   0.805   1.414   4.306
  847TIP3   OH2 2546   5.619   4.676   2.812
  847TIP3    H1 2547   5.647   4.721   2.892
  847TIP3    H2 2548   5.701   4.654   2.768
  848TIP3   OH2 2549   2.485   0.302   3.760
  848TIP3    H1 2550   2.470   0.221   3.808
  848TIP3    H2 2551   2.477   0.278   3.667
  849TIP3   OH2 2552   3.264   2.840   2.917
  849TIP3    H1 2553   3.233   2.749   2.922
  849TIP3    H2 2554   3.217   2.885   2.987
  850TIP3   OH2 2555   0.516   5.766   0.900
  850TIP3    H1 2556   0.423   5.765   0.922
  850TIP3    H2 2557   0.518   5.765   0.804
  851TIP3   OH2 2558   3.496   1.650   4.933
  851TIP3    H1 2559   3.498   1.559   4.905
  851TIP3    H2 2560   3.522   1.700   4.855
  852TIP3   OH2 2561   5.875   0.323   4.016
  852TIP3    H1 2562   5.879   0.231   4.045
  852TIP3    H2 2563   5.867   0.373   4.097
  853TIP3   OH2 2564   3.786   0.682   0.792
  853TIP3    H1 2565   3.734   0.677   0.712
  853TIP3    H2 2566   3.721   0.673   0.862
  854TIP3   OH2 2567   3.849   4.269   2.229
  854TIP3    H1 2568   3.906   4.232   2.161
  854TIP3    H2 2569   3.909   4.298   2.297
  855TIP3   OH2 2570   3.840   0.606   4.352
  855TIP3    H1 2571   3.841   0.510   4.352
  855TIP3    H2 2572   3.878   0.630   4.437
  856TIP3   OH2 2573   0.881   4.666   3.831
  856TIP3    H1 2574   0.896   4.574   3.851
  856TIP3    H2 2575   0.846   4.666   3.741
  857TIP3   OH2 2576   1.537   1.028   4.691
  857TIP3    H1 2577   1.519   1.101   4.750
  857TIP3    H2 2578   1.551   1.069   4.605
  858TIP3   OH2 2579   4.117   1.046   2.614
  858TIP3    H1 2580   4.103   1.069   2.706
  858TIP3    H2 2581   4.083   1.121   2.565
  859TIP3   OH2 2582   0.294   1.411   1.629
  859TIP3    H1 2583   0.345   1.340   1.668
  859TIP3    H2 2584   0.225   1.366   1.580
  860TIP3   OH2 2585   0.839   3.669   2.401
  860TIP3    H1 2586   0.866   3.749   2.355
  860TIP3    H2 2587   0.830   3.603   2.333
  861TIP3   OH2 2588   2.614   2.810   1.880
  861TIP3    H1 2589   2.595   2.845   1.793
  861TIP3    H2 2590   2.575   2.873   1.940
  862TIP3   OH2 2591   6.195   1.263   5.100
  862TIP3    H1 2592   6.186   1.259   5.195
  862TIP3    H2 2593   6.271   1.208   5.081
  863TIP3   OH2 2594   4.218   0.085   1.395
  863TIP3    H1 2595   4.239   0.072   1.303
  863TIP3    H2 2596   4.257   0.169   1.417
  864TIP3   OH2 2597   6.214   1.164   0.318
  864TIP3    H1 2598   6.210   1.230   0.249
  864TIP3    H2 2599   6.125   1.158   0.352
  865TIP3   OH2 2600   5.584   3.036   3.462
  865TIP3    H1 2601   5.614   3.073   3.379
  865TIP3    H2 2602   5.660   2.990   3.496
  866TIP3   OH2 2603   5.492   0.141   0.520
  866TIP3    H1 2604   5.480   0.046   0.527
  866TIP3    H2 2605   5.551   0.153   0.446
  867TIP3   OH2 2606   2.676   1.575   4.562
  867TIP3    H1 2607   2.610   1.620   4.615
  867TIP3    H2 2608   2.758   1.586   4.611
  868TIP3   OH2 2609   5.436   0.665   0.236
  868TIP3    H1 2610   5.423   0.664   0.331
  868TIP3    H2 2611   5.349   0.684   0.201
  869TIP3   OH2 2612   4.603   4.803   0.819
  869TIP3    H1 2613   4.589   4.864   0.891
  869TIP3    H2 2614   4.533   4.823   0.757
  870TIP3   OH2 2615   5.043   3.487   2.682
  870TIP3    H1 2616   5.071   3.566   2.637
  870TIP3    H2 2617   5.122   3.457   2.729
  871TIP3   OH2 2618   5.666   3.462   4.740
  871TIP3    H1 2619   5.747   3.493   4.699
  871TIP3    H2 2620   5.643   3.531   4.803
  872TIP3   OH2 2621   3.301   2.959   2.408
  872TIP3    H1 2622   3.207   2.941   2.415
  872TIP3    H2 2623   3.340   2.917   2.484
  873TIP3   OH2 2624   4.236   0.368   3.553
  873TIP3    H1 2625   4.290   0.399   3.481
  873TIP3    H2 2626   4.223   0.444   3.608
  874TIP3   OH2 2627   4.113   4.328   2.761
  874TIP3    H1 2628   4.020   4.309   2.778
  874TIP3    H2 2629   4.160   4.280   2.829
  875TIP3   OH2 2630   2.261   1.602   1.992
  875TIP3    H1 2631   2.222   1.620   1.907
  875TIP3    H2 2632   2.198   1.636   2.055
  876TIP3   OH2 2633   1.974   2.484   1.794
  876TIP3    H1 2634   2.048   2.498   1.852
  876TIP3    H2 2635   1.932   2.405   1.827
  877TIP3   OH2 2636   3.302   3.978   4.117
  877TIP3    H1 2637   3.240   3.906   4.131
  877TIP3    H2 2638   3.302   4.025   4.200
  878TIP3   OH2 2639   5.115   4.347   1.119
  878TIP3    H1 2640   5.201   4.303   1.122
  878TIP3    H2 2641   5.065   4.296   1.056
  879TIP3   OH2 2642   2.515   4.190   1.522
  879TIP3    H1 2643   2.516   4.094   1.529
  879TIP3    H2 2644   2.544   4.207   1.433
  880TIP3   OH2 2645   1.662   5.475   2.783
  880TIP3    H1 2646   1.586   5.453   2.729
  880TIP3    H2 2647   1.634   5.551   2.835
  881TIP3   OH2 2648   4.511   0.114   4.538
  881TIP3    H1 2649   4.420   0.113   4.508
  881TIP3    H2 2650   4.527   0.024   4.567
  882TIP3   OH2 2651   2.004   2.291   0.843
  882TIP3    H1 2652   1.913   2.267   0.827
  882TIP3    H2 2653   2.044   2.293   0.756
  883TIP3   OH2 2654   2.440   2.016   3.179
  883TIP3    H1 2655   2.525   1.994   3.218
  883TIP3    H2 2656   2.457   2.021   3.085
  884TIP3   OH2 2657   1.644   2.509   2.334
  884TIP3    H1 2658   1.695   2.586   2.310
  884TIP3    H2 2659   1.554   2.533   2.315
  885TIP3   OH2 2660   1.772   0.688   2.292
  885TIP3    H1 2661   1.866   0.677   2.278
  885TIP3    H2 2662   1.763   0.698   2.387
  886TIP3   OH2 2663   1.321   2.043   2.964
  886TIP3    H1 2664   1.304   2.102   3.038
  886TIP3    H2 2665   1.235   2.013   2.937
  887TIP3   OH2 2666   4.882   4.321   2.481
  887TIP3    H1 2667   4.913   4.390   2.539
  887TIP3    H2 2668   4.826   4.266   2.536
  888TIP3   OH2 2669   1.588   3.051   3.113
  888TIP3    H1 2670   1.657   3.013   3.059
  888TIP3    H2 2671   1.595   3.145   3.096
  889TIP3   OH2 2672   3.013   5.578   4.519
  889TIP3    H1 2673   3.017   5.671   4.540
  889TIP3    H2 2674   2.981   5.536   4.598
  890TIP3   OH2 2675   5.541   1.743   4.236
  890TIP3    H1 2676   5.578   1.656   4.252
  890TIP3    H2 2677   5.598   1.803   4.284
  891TIP3   OH2 2678   1.313   4.203   3.418
  891TIP3    H1 2679   1.285   4.270   3.356
  891TIP3    H2 2680   1.401   4.229   3.444
  892TIP3   OH2 2681   1.710   1.833   4.427
  892TIP3    H1 2682   1.729   1.834   4.333
  892TIP3    H2 2683   1.660   1.914   4.442
  893TIP3   OH2 2684   0.235   0.650   4.187
  893TIP3    H1 2685   0.239   0.578   4.124
  893TIP3    H2 2686   0.319   0.646   4.232
  894TIP3   OH2 2687   1.747   4.535   2.782
  894TIP3    H1 2688   1.676   4.503   2.727
  894TIP3    H2 2689   1.816   4.559   2.720
  895TIP3   OH2 2690   4.841   5.553   0.226
  895TIP3    H1 2691   4.831   5.459   0.239
  895TIP3    H2 2692   4.834   5.566   0.132
  896TIP3   OH2 2693   2.000   0.100   4.402
  896TIP3    H1 2694   1.927   0.124   4.460
  896TIP3    H2 2695   2.009   0.005   4.413
  897TIP3   OH2 2696   0.495  -0.005   5.188
  897TIP3    H1 2697   0.465  -0.045   5.106
  897TIP3    H2 2698   0.529   0.081   5.161
  898TIP3   OH2 2699   2.987   1.253   2.107
  898TIP3    H1 2700   3.011   1.164   2.080
  898TIP3    H2 2701   2.959   1.243   2.199
  899TIP3   OH2 2702   4.423   2.312   4.027
  899TIP3    H1 2703   4.359   2.264   4.080
  899TIP3    H2 2704   4.480   2.355   4.091
  900TIP3   OH2 2705   0.367   0.921   0.648
  900TIP3    H1 2706   0.382   1.015   0.653
  900TIP3    H2 2707   0.435   0.889   0.588
  901TIP3   OH2 2708   1.878   0.992   1.213
  901TIP3    H1 2709   1.913   1.062   1.158
  901TIP3    H2 2710   1.956   0.953   1.252
  902TIP3   OH2 2711   3.062   2.194   1.133
  902TIP3    H1 2712   3.125   2.223   1.199
  902TIP3    H2 2713   2.977   2.203   1.176
  903TIP3   OH2 2714   2.360   3.766   0.173
  903TIP3    H1 2715   2.385   3.782   0.264
  903TIP3    H2 2716   2.396   3.840   0.124
  904TIP3   OH2 2717   5.111   1.837   1.188
  904TIP3    H1 2718   5.123   1.774   1.117
  904TIP3    H2 2719   5.161   1.914   1.160
  905TIP3   OH2 2720   4.826   3.640   3.886
  905TIP3    H1 2721   4.777   3.611   3.809
  905TIP3    H2 2722   4.857   3.558   3.926
  906TIP3   OH2 2723   3.317   0.070   3.653
  906TIP3    H1 2724   3.276   0.109   3.576
  906TIP3    H2 2725   3.295   0.129   3.725
  907TIP3   OH2 2726   1.594   3.203   0.105
  907TIP3    H1 2727   1.676   3.174   0.144
  907TIP3    H2 2728   1.615   3.217   0.012
  908TIP3   OH2 2729   2.659   2.527   4.286
  908TIP3    H1 2730   2.600   2.516   4.211
  908TIP3    H2 2731   2.701   2.441   4.296
  909TIP3   OH2 2732   3.386   2.565   2.761
  909TIP3    H1 2733   3.291   2.554   2.761
  909TIP3    H2 2734   3.419   2.481   2.730
  910TIP3   OH2 2735   5.428   2.731   0.839
  910TIP3    H1 2736   5.470   2.816   0.824
  910TIP3    H2 2737   5.449   2.680   0.761
  911TIP3   OH2 2738   1.167   3.242   3.315
  911TIP3    H1 2739   1.105   3.235   3.242
  911TIP3    H2 2740   1.149   3.166   3.370
  912TIP3   OH2 2741   2.591   0.558   3.853
  912TIP3    H1 2742   2.570   0.492   3.787
  912TIP3    H2 2743   2.679   0.536   3.882
  913TIP3   OH2 2744   0.476   2.910   4.788
  913TIP3    H1 2745   0.415   2.840   4.764
  913TIP3    H2 2746   0.557   2.864   4.809
  914TIP3   OH2 2747   4.364   1.056   1.487
  914TIP3    H1 2748   4.269   1.067   1.492
  914TIP3    H2 2749   4.377   0.961   1.487
  915TIP3   OH2 2750   2.383   5.547   4.028
  915TIP3    H1 2751   2.414   5.609   3.961
  915TIP3    H2 2752   2.437   5.469   4.014
  916TIP3   OH2 2753   4.960   5.306   0.107
  916TIP3    H1 2754   5.051   5.302   0.135
  916TIP3    H2 2755   4.923   5.222   0.133
  917TIP3   OH2 2756   5.250   4.052   4.605
  917TIP3    H1 2757   5.277   4.079   4.693
  917TIP3    H2 2758   5.208   3.967   4.619
  918TIP3   OH2 2759   0.165   3.576   0.652
  918TIP3    H1 2760   0.138   3.563   0.561
  918TIP3    H2 2761   0.152   3.670   0.667
  919TIP3   OH2 2762   3.495   2.442   4.085
  919TIP3    H1 2763   3.526   2.465   3.997
  919TIP3    H2 2764   3.462   2.524   4.121
  920TIP3   OH2 2765   3.405   3.051   1.577
  920TIP3    H1 2766   3.390   2.989   1.505
  920TIP3    H2 2767   3.484   3.019   1.620
  921TIP3   OH2 2768   3.156   5.218   3.223
  921TIP3    H1 2769   3.248   5.245   3.220
  921TIP3    H2 2770   3.113   5.285   3.275
  922TIP3   OH2 2771   0.058   0.155   5.072
  922TIP3    H1 2772   0.040   0.061   5.073
  922TIP3    H2 2773  -0.029   0.196   5.081
  923TIP3   OH2 2774   0.077   4.288   5.033
  923TIP3    H1 2775  -0.004   4.237   5.035
  923TIP3    H2 2776   0.142   4.229   4.994
  924TIP3   OH2 2777   3.171   2.585   4.194
  924TIP3    H1 2778   3.261   2.607   4.172
  924TIP3    H2 2779   3.174   2.561   4.287
  925TIP3   OH2 2780   1.686   1.050   2.438
  925TIP3    H1 2781   1.761   1.096   2.477
  925TIP3    H2 2782   1.724   1.003   2.364
  926TIP3   OH2 2783   4.022   1.442   0.729
  926TIP3    H1 2784   4.078   1.517   0.708
  926TIP3    H2 2785   3.963   1.474   0.796
  927TIP3   OH2 2786   2.896   0.763   2.656
  927TIP3    H1 2787   2.950   0.841   2.645
  927TIP3    H2 2788   2.863   0.744   2.569
  928TIP3   OH2 2789   4.940   1.901   4.495
  928TIP3    H1 2790   4.875   1.832   4.482
  928TIP3    H2 2791   4.889   1.980   4.511
  929TIP3   OH2 2792   0.795   0.997   1.383
  929TIP3    H1 2793   0.737   1.063   1.422
  929TIP3    H2 2794   0.741   0.917   1.382
  930TIP3   OH2 2795   4.603   4.895   0.255
  930TIP3    H1 2796   4.554   4.957   0.308
  930TIP3    H2 2797   4.631   4.827   0.316
  931TIP3   OH2 2798   2.734   1.410   1.925
  931TIP3    H1 2799   2.814   1.423   1.976
  931TIP3    H2 2800   2.663   1.437   1.983
  932TIP3   OH2 2801   5.519   4.376   4.253
  932TIP3    H1 2802   5.466   4.299   4.274
  932TIP3    H2 2803   5.554   4.405   4.337
  933TIP3   OH2 2804   5.029   5.767   1.200
  933TIP3    H1 2805   5.117   5.760   1.237
  933TIP3    H2 2806   4.971   5.749   1.274
  934TIP3   OH2 2807   2.901   1.573   0.627
  934TIP3    H1 2808   2.913   1.547   0.718
  934TIP3    H2 2809   2.948   1.656   0.620
  935TIP3   OH2 2810   4.368   4.483   0.554
  935TIP3    H1 2811   4.294   4.543   0.551
  935TIP3    H2 2812   4.402   4.490   0.643
  936TIP3   OH2 2813   3.187   3.213   3.472
  936TIP3    H1 2814   3.275   3.251   3.467
  936TIP3    H2 2815   3.191   3.151   3.544
  937TIP3   OH2 2816   1.983   4.701   4.930
  937TIP3    H1 2817   1.989   4.667   4.841
  937TIP3    H2 2818   2.068   4.680   4.969
  938TIP3   OH2 2819   2.326   4.331   1.240
  938TIP3    H1 2820   2.395   4.267   1.254
  938TIP3    H2 2821   2.296   4.316   1.151
  939TIP3   OH2 2822   0.358   2.537   4.138
  939TIP3    H1 2823   0.315   2.474   4.080
  939TIP3    H2 2824   0.287   2.590   4.174
  940TIP3   OH2 2825   3.038   5.433   2.986
  940TIP3    H1 2826   2.976   5.496   2.949
  940TIP3    H2 2827   3.059   5.468   3.072
  941TIP3   OH2 2828   5.285   5.778   2.882
  941TIP3    H1 2829   5.217   5.746   2.823
  941TIP3    H2 2830   5.272   5.729   2.963
  942TIP3   OH2 2831   1.895   0.588   2.964
  942TIP3    H1 2832   1.821   0.646   2.947
  942TIP3    H2 2833   1.876   0.508   2.914
  943TIP3   OH2 2834   3.490   2.331   2.667
  943TIP3    H1 2835   3.419   2.277   2.701
  943TIP3    H2 2836   3.569   2.279   2.682
  944TIP3   OH2 2837   1.791   1.984   0.257
  944TIP3    H1 2838   1.836   2.026   0.331
  944TIP3    H2 2839   1.766   2.057   0.200
  945TIP3   OH2 2840   2.359   1.990   4.553
  945TIP3    H1 2841   2.334   1.899   4.565
  945TIP3    H2 2842   2.282   2.040   4.579
  946TIP3   OH2 2843   5.272   5.551   4.288
  946TIP3    H1 2844   5.237   5.585   4.206
  946TIP3    H2 2845   5.360   5.520   4.266
  947TIP3   OH2 2846   2.877   0.464   3.829
  947TIP3    H1 2847   2.906   0.392   3.773
  947TIP3    H2 2848   2.925   0.540   3.796
  948TIP3   OH2 2849   4.166   2.314   0.048
  948TIP3    H1 2850   4.172   2.248  -0.021
  948TIP3    H2 2851   4.126   2.390   0.006
  949TIP3   OH2 2852   4.280   3.411   0.666
  949TIP3    H1 2853   4.327   3.494   0.663
  949TIP3    H2 2854   4.216   3.417   0.595
  950TIP3   OH2 2855   3.630   1.139   2.938
  950TIP3    H1 2856   3.539   1.166   2.951
  950TIP3    H2 2857   3.642   1.065   2.998
  951TIP3   OH2 2858   3.066   4.056   1.241
  951TIP3    H1 2859   3.074   4.000   1.164
  951TIP3    H2 2860   3.115   4.009   1.309
  952TIP3   OH2 2861   0.449   5.896   3.765
  952TIP3    H1 2862   0.451   5.964   3.832
  952TIP3    H2 2863   0.411   5.939   3.688
  953TIP3   OH2 2864   2.253   4.593   3.863
  953TIP3    H1 2865   2.204   4.560   3.938
  953TIP3    H2 2866   2.236   4.530   3.793
  954TIP3   OH2 2867   4.363   2.757   3.482
  954TIP3    H1 2868   4.375   2.827   3.417
  954TIP3    H2 2869   4.285   2.711   3.453
  955TIP3   OH2 2870   5.772   2.191   1.160
  955TIP3    H1 2871   5.821   2.116   1.126
  955TIP3    H2 2872   5.830   2.230   1.226
  956TIP3   OH2 2873   0.406   2.836   0.116
  956TIP3    H1 2874   0.455   2.863   0.193
  956TIP3    H2 2875   0.464   2.853   0.043
  957TIP3   OH2 2876   3.744   0.499   2.449
  957TIP3    H1 2877   3.792   0.564   2.398
  957TIP3    H2 2878   3.653   0.528   2.446
  958TIP3   OH2 2879   3.842   3.799   3.822
  958TIP3    H1 2880   3.866   3.718   3.868
  958TIP3    H2 2881   3.845   3.867   3.889
  959TIP3   OH2 2882   4.840   1.515   4.678
  959TIP3    H1 2883   4.873   1.526   4.767
  959TIP3    H2 2884   4.753   1.556   4.679
  960TIP3   OH2 2885   0.154   1.770   1.086
  960TIP3    H1 2886   0.105   1.851   1.074
  960TIP3    H2 2887   0.096   1.701   1.056
  961TIP3   OH2 2888   1.542   5.734   0.743
  961TIP3    H1 2889   1.521   5.747   0.835
  961TIP3    H2 2890   1.507   5.811   0.699
  962TIP3   OH2 2891   3.877   2.145   0.953
  962TIP3    H1 2892   3.807   2.091   0.991
  962TIP3    H2 2893   3.857   2.234   0.982
  963TIP3   OH2 2894   2.414   2.243   0.991
  963TIP3    H1 2895   2.413   2.187   0.914
  963TIP3    H2 2896   2.346   2.206   1.048
  964TIP3   OH2 2897   3.343   4.035   4.567
  964TIP3    H1 2898   3.423   3.983   4.556
  964TIP3    H2 2899   3.281   3.974   4.607
  965TIP3   OH2 2900   3.319   4.653   3.031
  965TIP3    H1 2901   3.337   4.645   3.124
  965TIP3    H2 2902   3.225   4.635   3.023
  966TIP3   OH2 2903   6.205   5.692   0.816
  966TIP3    H1 2904   6.215   5.602   0.783
  966TIP3    H2 2905   6.123   5.723   0.777
  967TIP3   OH2 2906   3.383   0.781   5.185
  967TIP3    H1 2907   3.471   0.746   5.173
  967TIP3    H2 2908   3.326   0.715   5.146
  968TIP3   OH2 2909   6.323   0.475   4.110
  968TIP3    H1 2910   6.261   0.539   4.076
  968TIP3    H2 2911   6.349   0.423   4.033
  969TIP3   OH2 2912   4.285   1.359   2.515
  969TIP3    H1 2913   4.357   1.300   2.495
  969TIP3    H2 2914   4.266   1.403   2.432
  970TIP3   OH2 2915   0.197   5.373   2.677
  970TIP3    H1 2916   0.260   5.355   2.607
  970TIP3    H2 2917   0.131   5.304   2.668
  971TIP3   OH2 2918   1.629   5.766   3.697
  971TIP3    H1 2919   1.709   5.755   3.646
  971TIP3    H2 2920   1.635   5.855   3.731
  972TIP3   OH2 2921   3.686   2.959   1.020
  972TIP3    H1 2922   3.661   2.998   1.104
  972TIP3    H2 2923   3.778   2.981   1.010
  973TIP3   OH2 2924   5.782   5.340   1.678
  973TIP3    H1 2925   5.696   5.378   1.662
  973TIP3    H2 2926   5.765   5.247   1.694
  974TIP3   OH2 2927   3.438   2.737   1.617
  974TIP3    H1 2928   3.438   2.768   1.707
  974TIP3    H2 2929   3.350   2.702   1.604
  975TIP3   OH2 2930   3.016   2.200   2.546
  975TIP3    H1 2931   2.954   2.161   2.607
  975TIP3    H2 2932   2.989   2.292   2.541
  976TIP3   OH2 2933   4.183   3.640   2.030
  976TIP3    H1 2934   4.186   3.612   2.122
  976TIP3    H2 2935   4.253   3.592   1.987
  977TIP3   OH2 2936   5.400   0.261   4.602
  977TIP3    H1 2937   5.445   0.336   4.564
  977TIP3    H2 2938   5.456   0.234   4.675
  978TIP3   OH2 2939   5.814   4.882   2.318
  978TIP3    H1 2940   5.719   4.870   2.324
  978TIP3    H2 2941   5.831   4.964   2.364
  979TIP3   OH2 2942   3.669   5.708   1.436
  979TIP3    H1 2943   3.626   5.699   1.522
  979TIP3    H2 2944   3.631   5.788   1.399
  980TIP3   OH2 2945   3.802   1.864   4.749
  980TIP3    H1 2946   3.845   1.794   4.798
  980TIP3    H2 2947   3.869   1.895   4.687
  981TIP3   OH2 2948   2.187   1.829   1.234
  981TIP3    H1 2949   2.100   1.843   1.272
  981TIP3    H2 2950   2.234   1.911   1.251
  982TIP3   OH2 2951   0.903   3.866   1.016
  982TIP3    H1 2952   0.814   3.876   1.051
  982TIP3    H2 2953   0.960   3.880   1.092
  983TIP3   OH2 2954   0.466   5.433   4.056
  983TIP3    H1 2955   0.396   5.417   3.993
  983TIP3    H2 2956   0.543   5.392   4.016
  984TIP3   OH2 2957   1.283   2.663   2.747
  984TIP3    H1 2958   1.216   2.715   2.703
  984TIP3    H2 2959   1.350   2.649   2.680
  985TIP3   OH2 2960   0.476   2.087   2.573
  985TIP3    H1 2961   0.532   2.019   2.535
  985TIP3    H2 2962   0.494   2.165   2.521
  986TIP3   OH2 2963   5.312   0.338   0.191
  986TIP3    H1 2964   5.399   0.375   0.207
  986TIP3    H2 2965   5.328   0.258   0.141
  987TIP3   OH2 2966   0.622   4.905   4.809
  987TIP3    H1 2967   0.640   4.997   4.829
  987TIP3    H2 2968   0.615   4.902   4.714
  988TIP3   OH2 2969   1.686   3.030   2.488
  988TIP3    H1 2970   1.659   3.119   2.509
  988TIP3    H2 2971   1.777   3.025   2.514
  989TIP3   OH2 2972   2.661   5.681   4.056
  989TIP3    H1 2973   2.614   5.615   4.108
  989TIP3    H2 2974   2.743   5.695   4.104
  990TIP3   OH2 2975   1.429   4.583   1.049
  990TIP3    H1 2976   1.503   4.643   1.042
  990TIP3    H2 2977   1.469   4.497   1.060
  991TIP3   OH2 2978   2.126   4.713   1.190
  991TIP3    H1 2979   2.191   4.695   1.258
  991TIP3    H2 2980   2.063   4.773   1.232
  992TIP3   OH2 2981   2.330   5.815   1.549
  992TIP3    H1 2982   2.306   5.863   1.470
  992TIP3    H2 2983   2.277   5.854   1.618
  993TIP3   OH2 2984   4.706   5.117   1.598
  993TIP3    H1 2985   4.742   5.100   1.685
  993TIP3    H2 2986   4.779   5.102   1.538
  994TIP3   OH2 2987   3.501   2.579   5.083
  994TIP3    H1 2988   3.436   2.636   5.041
  994TIP3    H2 2989   3.515   2.618   5.170
  995TIP3   OH2 2990   6.181   3.794   0.858
  995TIP3    H1 2991   6.160   3.869   0.803
  995TIP3    H2 2992   6.254   3.823   0.913
  996TIP3   OH2 2993   4.096   4.836   4.948
  996TIP3    H1 2994   4.081   4.929   4.933
  996TIP3    H2 2995   4.136   4.805   4.866
  997TIP3   OH2 2996   5.875   4.442   0.545
  997TIP3    H1 2997   5.857   4.517   0.602
  997TIP3    H2 2998   5.915   4.377   0.603
  998TIP3   OH2 2999   3.044   0.883   5.019
  998TIP3    H1 3000   3.019   0.808   5.073
  998TIP3    H2 3001   3.064   0.953   5.082
  999TIP3   OH2 3002   4.639   1.044   4.871
  999TIP3    H1 3003   4.597   0.959   4.877
  999TIP3    H2 3004   4.568   1.105   4.852
 1000TIP3   OH2 3005   1.732   2.112   4.182
 1000TIP3    H1 3006   1.750   2.205   4.171
 1000TIP3    H2 3007   1.804   2.068   4.137
 1001TIP3   OH2 3008   1.474   0.054   4.940
 1001TIP3    H1 3009   1.388   0.011   4.942
 1001TIP3    H2 3010   1.455   0.146   4.923
 1002TIP3   OH2 3011   2.003   0.671   0.641
 1002TIP3    H1 3012   2.011   0.691   0.735
 1002TIP3    H2 3013   2.074   0.609   0.624
 1003TIP3   OH2 3014   5.597   5.138   2.530
 1003TIP3    H1 3015   5.545   5.217   2.543
 1003TIP3    H2 3016   5.650   5.131   2.609
 1004TIP3   OH2 3017   4.925   2.364   4.715
 1004TIP3    H1 3018   4.882   2.291   4.759
 1004TIP3    H2 3019   4.926   2.435   4.780
 1005TIP3   OH2 3020   5.159   2.602   2.987
 1005TIP3    H1 3021   5.208   2.522   3.006
 1005TIP3    H2 3022   5.104   2.615   3.065
 1006TIP3   OH2 3023   4.710   3.039   4.943
 1006TIP3    H1 3024   4.696   3.118   4.890
 1006TIP3    H2 3025   4.804   3.021   4.934
 1007TIP3   OH2 3026   1.647   1.008   4.217
 1007TIP3    H1 3027   1.573   1.052   4.176
 1007TIP3    H2 3028   1.620   0.916   4.223
 1008TIP3   OH2 3029   2.428   3.739   1.936
 1008TIP3    H1 3030   2.367   3.721   1.864
 1008TIP3    H2 3031   2.514   3.719   1.900
 1009TIP3   OH2 3032   4.512   4.144   0.366
 1009TIP3    H1 3033   4.449   4.131   0.437
 1009TIP3    H2 3034   4.597   4.143   0.409
 1010TIP3   OH2 3035   2.117   1.167   1.843
 1010TIP3    H1 3036   2.189   1.133   1.896
 1010TIP3    H2 3037   2.147   1.158   1.753
 1011TIP3   OH2 3038   4.134   5.901   5.138
 1011TIP3    H1 3039   4.174   5.815   5.123
 1011TIP3    H2 3040   4.086   5.920   5.057
 1012TIP3   OH2 3041   0.516   3.492   3.648
 1012TIP3    H1 3042   0.458   3.550   3.697
 1012TIP3    H2 3043   0.603   3.531   3.656
 1013TIP3   OH2 3044   5.359   4.664   1.023
 1013TIP3    H1 3045   5.378   4.757   1.037
 1013TIP3    H2 3046   5.415   4.619   1.086
 1014TIP3   OH2 3047   4.558   4.611   4.752
 1014TIP3    H1 3048   4.623   4.545   4.728
 1014TIP3    H2 3049   4.548   4.664   4.673
 1015TIP3   OH2 3050   5.166   4.939   3.901
 1015TIP3    H1 3051   5.205   4.876   3.961
 1015TIP3    H2 3052   5.126   5.005   3.958
 1016TIP3   OH2 3053   5.333   0.436   3.955
 1016TIP3    H1 3054   5.312   0.516   4.004
 1016TIP3    H2 3055   5.423   0.415   3.982
 1017TIP3   OH2 3056   6.004   1.209   3.322
 1017TIP3    H1 3057   5.953   1.228   3.400
 1017TIP3    H2 3058   5.983   1.118   3.302
 1018TIP3   OH2 3059   5.550   5.963   0.710
 1018TIP3    H1 3060   5.530   5.873   0.734
 1018TIP3    H2 3061   5.564   6.009   0.793
 1019TIP3   OH2 3062   4.084   4.982   4.323
 1019TIP3    H1 3063   4.116   5.042   4.390
 1019TIP3    H2 3064   3.994   4.961   4.350
 1020TIP3   OH2 3065   0.156   5.169   4.388
 1020TIP3    H1 3066   0.160   5.213   4.303
 1020TIP3    H2 3067   0.185   5.080   4.370
 1021TIP3   OH2 3068   0.724   3.291   0.464
 1021TIP3    H1 3069   0.785   3.364   0.460
 1021TIP3    H2 3070   0.728   3.260   0.554
 1022TIP3   OH2 3071   1.720   4.022   1.105
 1022TIP3    H1 3072   1.685   4.018   1.016
 1022TIP3    H2 3073   1.650   3.987   1.160
 1023TIP3   OH2 3074   1.433   2.684   2.519
 1023TIP3    H1 3075   1.517   2.683   2.474
 1023TIP3    H2 3076   1.416   2.777   2.534
 1024TIP3   OH2 3077   5.729   1.014   2.127
 1024TIP3    H1 3078   5.806   0.964   2.101
 1024TIP3    H2 3079   5.687   0.960   2.194
 1025TIP3   OH2 3080   3.171   1.205   3.816
 1025TIP3    H1 3081   3.133   1.290   3.794
 1025TIP3    H2 3082   3.257   1.226   3.852
 1026TIP3   OH2 3083   4.071   1.962   4.326
 1026TIP3    H1 3084   3.982   1.997   4.333
 1026TIP3    H2 3085   4.114   1.991   4.406
 1027TIP3   OH2 3086   3.255   3.632   3.043
 1027TIP3    H1 3087   3.185   3.567   3.051
 1027TIP3    H2 3088   3.262   3.671   3.130
 1028TIP3   OH2 3089   3.934   1.952   0.581
 1028TIP3    H1 3090   3.839   1.944   0.595
 1028TIP3    H2 3091   3.943   1.953   0.485
 1029TIP3   OH2 3092   5.600   3.142   0.196
 1029TIP3    H1 3093   5.555   3.204   0.253
 1029TIP3    H2 3094   5.658   3.197   0.143
 1030TIP3   OH2 3095   4.595   0.380   2.421
 1030TIP3    H1 3096   4.549   0.296   2.426
 1030TIP3    H2 3097   4.668   0.364   2.362
 1031TIP3   OH2 3098   6.144   0.079   0.352
 1031TIP3    H1 3099   6.168   0.065   0.444
 1031TIP3    H2 3100   6.072   0.017   0.337
 1032TIP3   OH2 3101   5.644   4.176   3.404
 1032TIP3    H1 3102   5.724   4.124   3.414
 1032TIP3    H2 3103   5.673   4.266   3.419
 1033TIP3   OH2 3104   1.240   4.554   0.124
 1033TIP3    H1 3105   1.189   4.619   0.074
 1033TIP3    H2 3106   1.279   4.498   0.058
 1034TIP3   OH2 3107   6.104   0.425   0.822
 1034TIP3    H1 3108   6.081   0.515   0.848
 1034TIP3    H2 3109   6.172   0.436   0.757
 1035TIP3   OH2 3110   1.189   2.942   2.893
 1035TIP3    H1 3111   1.141   3.024   2.885
 1035TIP3    H2 3112   1.164   2.891   2.817
 1036TIP3   OH2 3113   4.248   1.329   3.103
 1036TIP3    H1 3114   4.281   1.353   3.016
 1036TIP3    H2 3115   4.259   1.409   3.155
 1037TIP3   OH2 3116   6.281   5.072   2.971
 1037TIP3    H1 3117   6.343   5.078   3.044
 1037TIP3    H2 3118   6.205   5.123   3.000
 1038TIP3   OH2 3119   5.011   4.711   2.913
 1038TIP3    H1 3120   5.006   4.619   2.938
 1038TIP3    H2 3121   4.932   4.750   2.951
 1039TIP3   OH2 3122   2.501   4.061   4.381
 1039TIP3    H1 3123   2.579   4.091   4.336
 1039TIP3    H2 3124   2.488   3.971   4.349
 1040TIP3   OH2 3125   5.909   5.424   1.227
 1040TIP3    H1 3126   5.862   5.406   1.146
 1040TIP3    H2 3127   5.874   5.509   1.256
 1041TIP3   OH2 3128   5.542   3.019   0.883
 1041TIP3    H1 3129   5.488   3.047   0.957
 1041TIP3    H2 3130   5.627   2.997   0.922
 1042TIP3   OH2 3131   2.576   0.940   0.659
 1042TIP3    H1 3132   2.663   0.957   0.695
 1042TIP3    H2 3133   2.540   1.027   0.643
 1043TIP3   OH2 3134   1.969   3.589   1.700
 1043TIP3    H1 3135   1.942   3.497   1.704
 1043TIP3    H2 3136   2.036   3.591   1.631
 1044TIP3   OH2 3137   4.406   3.144   3.101
 1044TIP3    H1 3138   4.391   3.179   3.013
 1044TIP3    H2 3139   4.491   3.102   3.096
 1045TIP3   OH2 3140   4.314   0.301   0.575
 1045TIP3    H1 3141   4.406   0.294   0.549
 1045TIP3    H2 3142   4.313   0.278   0.668
 1046TIP3   OH2 3143   3.710   3.256   1.708
 1046TIP3    H1 3144   3.766   3.237   1.633
 1046TIP3    H2 3145   3.670   3.172   1.730
 1047TIP3   OH2 3146   3.585   1.066   2.285
 1047TIP3    H1 3147   3.636   1.012   2.344
 1047TIP3    H2 3148   3.547   1.005   2.222
 1048TIP3   OH2 3149   5.850   4.959   0.663
 1048TIP3    H1 3150   5.931   4.950   0.713
 1048TIP3    H2 3151   5.879   4.982   0.574
 1049TIP3   OH2 3152   3.616   4.681   5.122
 1049TIP3    H1 3153   3.576   4.620   5.061
 1049TIP3    H2 3154   3.668   4.740   5.067
 1050TIP3   OH2 3155   1.539   5.572   3.511
 1050TIP3    H1 3156   1.566   5.633   3.579
 1050TIP3    H2 3157   1.467   5.522   3.551
 1051TIP3   OH2 3158   3.848   1.743   2.811
 1051TIP3    H1 3159   3.918   1.731   2.874
 1051TIP3    H2 3160   3.768   1.743   2.864
 1052TIP3   OH2 3161   2.741   0.336   2.766
 1052TIP3    H1 3162   2.755   0.345   2.672
 1052TIP3    H2 3163   2.761   0.423   2.802
 1053TIP3   OH2 3164   3.357   4.635   3.296
 1053TIP3    H1 3165   3.361   4.541   3.313
 1053TIP3    H2 3166   3.309   4.671   3.371
 1054TIP3   OH2 3167   2.222   2.072   0.461
 1054TIP3    H1 3168   2.159   2.003   0.439
 1054TIP3    H2 3169   2.292   2.026   0.508
 1055TIP3   OH2 3170   3.399   5.085   2.295
 1055TIP3    H1 3171   3.477   5.112   2.345
 1055TIP3    H2 3172   3.373   5.002   2.336
 1056TIP3   OH2 3173   3.136   0.455   0.866
 1056TIP3    H1 3174   3.112   0.381   0.810
 1056TIP3    H2 3175   3.094   0.436   0.950
 1057TIP3   OH2 3176   1.874   3.148   3.210
 1057TIP3    H1 3177   1.893   3.198   3.130
 1057TIP3    H2 3178   1.905   3.205   3.281
 1058TIP3   OH2 3179   3.493   4.856   2.051
 1058TIP3    H1 3180   3.428   4.794   2.017
 1058TIP3    H2 3181   3.543   4.883   1.974
 1059TIP3   OH2 3182   5.650   2.919   3.134
 1059TIP3    H1 3183   5.692   2.968   3.063
 1059TIP3    H2 3184   5.623   2.986   3.196
 1060TIP3   OH2 3185   0.219   4.745   4.082
 1060TIP3    H1 3186   0.247   4.658   4.110
 1060TIP3    H2 3187   0.124   4.742   4.083
 1061TIP3   OH2 3188   2.977   0.787   1.111
 1061TIP3    H1 3189   3.040   0.736   1.060
 1061TIP3    H2 3190   3.031   0.831   1.177
 1062TIP3   OH2 3191   0.693   1.811   1.957
 1062TIP3    H1 3192   0.699   1.844   1.868
 1062TIP3    H2 3193   0.613   1.758   1.958
 1063TIP3   OH2 3194   2.579   5.796   2.577
 1063TIP3    H1 3195   2.629   5.754   2.506
 1063TIP3    H2 3196   2.640   5.860   2.614
 1064TIP3   OH2 3197   1.556   4.654   0.546
 1064TIP3    H1 3198   1.477   4.673   0.495
 1064TIP3    H2 3199   1.550   4.712   0.622
 1065TIP3   OH2 3200   2.513   5.268   3.807
 1065TIP3    H1 3201   2.572   5.240   3.737
 1065TIP3    H2 3202   2.430   5.285   3.762
 1066TIP3   OH2 3203   4.170   1.444   4.764
 1066TIP3    H1 3204   4.262   1.432   4.741
 1066TIP3    H2 3205   4.122   1.392   4.700
 1067TIP3   OH2 3206   1.181   5.825   0.947
 1067TIP3    H1 3207   1.119   5.836   1.019
 1067TIP3    H2 3208   1.267   5.832   0.988
 1068TIP3   OH2 3209   1.043   0.316   5.058
 1068TIP3    H1 3210   1.030   0.403   5.020
 1068TIP3    H2 3211   1.044   0.332   5.153
 1069TIP3   OH2 3212   2.534   3.278   4.354
 1069TIP3    H1 3213   2.589   3.275   4.432
 1069TIP3    H2 3214   2.590   3.247   4.283
 1070TIP3   OH2 3215   5.318   1.343   2.399
 1070TIP3    H1 3216   5.337   1.404   2.470
 1070TIP3    H2 3217   5.401   1.332   2.353
 1071TIP3   OH2 3218   4.967   5.970   2.908
 1071TIP3    H1 3219   4.907   5.994   2.838
 1071TIP3    H2 3220   4.995   5.881   2.886
 1072TIP3   OH2 3221   0.824   4.279   3.123
 1072TIP3    H1 3222   0.836   4.244   3.211
 1072TIP3    H2 3223   0.784   4.207   3.074
 1073TIP3   OH2 3224   2.284   0.081   3.780
 1073TIP3    H1 3225   2.216   0.139   3.748
 1073TIP3    H2 3226   2.250  -0.007   3.764
 1074TIP3   OH2 3227   0.087   2.283   3.588
 1074TIP3    H1 3228   0.028   2.336   3.642
 1074TIP3    H2 3229   0.059   2.193   3.603
 1075TIP3   OH2 3230   3.386   4.506   3.755
 1075TIP3    H1 3231   3.477   4.488   3.733
 1075TIP3    H2 3232   3.365   4.587   3.709
 1076TIP3   OH2 3233   4.581   2.931   3.054
 1076TIP3    H1 3234   4.670   2.896   3.050
 1076TIP3    H2 3235   4.552   2.914   3.143
 1077TIP3   OH2 3236   5.159   5.626   4.803
 1077TIP3    H1 3237   5.247   5.663   4.812
 1077TIP3    H2 3238   5.159   5.585   4.716
 1078TIP3   OH2 3239   2.390   5.511   4.312
 1078TIP3    H1 3240   2.383   5.490   4.218
 1078TIP3    H2 3241   2.472   5.469   4.340
 1079TIP3   OH2 3242   4.877   0.686   2.855
 1079TIP3    H1 3243   4.874   0.713   2.947
 1079TIP3    H2 3244   4.787   0.658   2.836
 1080TIP3   OH2 3245   0.615   0.552   1.508
 1080TIP3    H1 3246   0.578   0.543   1.595
 1080TIP3    H2 3247   0.702   0.511   1.515
 1081TIP3   OH2 3248   5.922   3.469   3.817
 1081TIP3    H1 3249   5.981   3.394   3.805
 1081TIP3    H2 3250   5.835   3.430   3.827
 1082TIP3   OH2 3251   6.246   1.951   2.290
 1082TIP3    H1 3252   6.187   1.975   2.362
 1082TIP3    H2 3253   6.334   1.955   2.329
 1083TIP3   OH2 3254   3.747   0.982   4.779
 1083TIP3    H1 3255   3.738   1.046   4.709
 1083TIP3    H2 3256   3.754   0.898   4.734
 1084TIP3   OH2 3257   4.426   0.344   4.120
 1084TIP3    H1 3258   4.334   0.317   4.118
 1084TIP3    H2 3259   4.471   0.272   4.165
 1085TIP3   OH2 3260   2.169   3.889   2.885
 1085TIP3    H1 3261   2.156   3.903   2.791
 1085TIP3    H2 3262   2.141   3.971   2.925
 1086TIP3   OH2 3263   2.501   5.896   4.047
 1086TIP3    H1 3264   2.523   5.988   4.035
 1086TIP3    H2 3265   2.585   5.850   4.047
 1087TIP3   OH2 3266   3.648   4.276   3.000
 1087TIP3    H1 3267   3.638   4.191   2.957
 1087TIP3    H2 3268   3.591   4.334   2.950
 1088TIP3   OH2 3269   1.959   5.586   4.263
 1088TIP3    H1 3270   2.006   5.506   4.237
 1088TIP3    H2 3271   1.931   5.625   4.180
 1089TIP3   OH2 3272   3.654   1.141   0.825
 1089TIP3    H1 3273   3.654   1.229   0.788
 1089TIP3    H2 3274   3.726   1.142   0.889
 1090TIP3   OH2 3275   5.947   4.825   1.893
 1090TIP3    H1 3276   5.922   4.797   1.805
 1090TIP3    H2 3277   5.943   4.745   1.945
 1091TIP3   OH2 3278   4.204   5.515   3.385
 1091TIP3    H1 3279   4.155   5.443   3.426
 1091TIP3    H2 3280   4.250   5.557   3.458
 1092TIP3   OH2 3281   0.014   1.123   2.302
 1092TIP3    H1 3282   0.097   1.144   2.261
 1092TIP3    H2 3283  -0.044   1.100   2.229
 1093TIP3   OH2 3284   4.441   0.508   3.450
 1093TIP3    H1 3285   4.439   0.550   3.536
 1093TIP3    H2 3286   4.531   0.520   3.420
 1094TIP3   OH2 3287   3.784   0.897   3.354
 1094TIP3    H1 3288   3.733   0.859   3.426
 1094TIP3    H2 3289   3.875   0.874   3.375
 1095TIP3   OH2 3290   1.467   5.878   3.136
 1095TIP3    H1 3291   1.457   5.890   3.230
 1095TIP3    H2 3292   1.381   5.899   3.100
 1096TIP3   OH2 3293   6.106   0.728   1.156
 1096TIP3    H1 3294   6.186   0.705   1.204
 1096TIP3    H2 3295   6.134   0.736   1.065
 1097TIP3   OH2 3296   4.802   5.607   5.192
 1097TIP3    H1 3297   4.844   5.605   5.106
 1097TIP3    H2 3298   4.809   5.698   5.220
 1098TIP3   OH2 3299   5.888   5.110   2.456
 1098TIP3    H1 3300   5.838   5.191   2.452
 1098TIP3    H2 3301   5.979   5.139   2.465
 1099TIP3   OH2 3302   2.626   3.035   0.273
 1099TIP3    H1 3303   2.583   2.962   0.318
 1099TIP3    H2 3304   2.593   3.030   0.183
 1100TIP3   OH2 3305   0.530   1.138   2.322
 1100TIP3    H1 3306   0.609   1.181   2.289
 1100TIP3    H2 3307   0.550   1.045   2.318
 1101TIP3   OH2 3308   4.181   4.251   2.242
 1101TIP3    H1 3309   4.142   4.221   2.160
 1101TIP3    H2 3310   4.198   4.344   2.228
 1102TIP3   OH2 3311   6.239   2.972   0.240
 1102TIP3    H1 3312   6.236   2.881   0.269
 1102TIP3    H2 3313   6.182   3.019   0.301
 1103TIP3   OH2 3314   2.293   2.655   1.689
 1103TIP3    H1 3315   2.358   2.632   1.755
 1103TIP3    H2 3316   2.338   2.641   1.606
 1104TIP3   OH2 3317   2.088   2.344   3.177
 1104TIP3    H1 3318   2.165   2.356   3.122
 1104TIP3    H2 3319   2.054   2.257   3.153
 1105TIP3   OH2 3320   2.221   3.862   1.310
 1105TIP3    H1 3321   2.137   3.855   1.265
 1105TIP3    H2 3322   2.286   3.850   1.241
 1106TIP3   OH2 3323   1.643   1.714   3.026
 1106TIP3    H1 3324   1.588   1.664   2.965
 1106TIP3    H2 3325   1.581   1.769   3.074
 1107TIP3   OH2 3326   4.526   5.468   2.211
 1107TIP3    H1 3327   4.461   5.496   2.275
 1107TIP3    H2 3328   4.608   5.464   2.260
 1108TIP3   OH2 3329   2.004   3.414   2.262
 1108TIP3    H1 3330   1.975   3.388   2.350
 1108TIP3    H2 3331   2.088   3.457   2.277
 1109TIP3   OH2 3332   6.325   0.242   1.971
 1109TIP3    H1 3333   6.332   0.147   1.959
 1109TIP3    H2 3334   6.358   0.278   1.888
 1110TIP3   OH2 3335   2.075   5.625   2.202
 1110TIP3    H1 3336   2.096   5.627   2.296
 1110TIP3    H2 3337   2.043   5.714   2.183
 1111TIP3   OH2 3338   6.182   0.421   4.899
 1111TIP3    H1 3339   6.170   0.337   4.943
 1111TIP3    H2 3340   6.277   0.430   4.891
 1112TIP3   OH2 3341   5.998   4.822   3.844
 1112TIP3    H1 3342   6.012   4.732   3.814
 1112TIP3    H2 3343   5.919   4.818   3.897
 1113TIP3   OH2 3344   0.695   0.176   4.909
 1113TIP3    H1 3345   0.669   0.097   4.861
 1113TIP3    H2 3346   0.613   0.210   4.944
 1114TIP3   OH2 3347   4.472   4.672   2.206
 1114TIP3    H1 3348   4.559   4.712   2.210
 1114TIP3    H2 3349   4.474   4.603   2.273
 1115TIP3   OH2 3350   5.250   3.762   2.012
 1115TIP3    H1 3351   5.288   3.678   2.037
 1115TIP3    H2 3352   5.163   3.763   2.052
 1116TIP3   OH2 3353   1.965   1.238   3.646
 1116TIP3    H1 3354   2.012   1.175   3.701
 1116TIP3    H2 3355   2.035   1.286   3.601
 1117TIP3   OH2 3356   1.509   4.435   4.758
 1117TIP3    H1 3357   1.464   4.407   4.838
 1117TIP3    H2 3358   1.479   4.373   4.691
 1118TIP3   OH2 3359   3.320   4.448   4.379
 1118TIP3    H1 3360   3.395   4.394   4.353
 1118TIP3    H2 3361   3.254   4.385   4.407
 1119TIP3   OH2 3362   5.198   4.831   2.629
 1119TIP3    H1 3363   5.242   4.893   2.687
 1119TIP3    H2 3364   5.260   4.759   2.620
 1120TIP3   OH2 3365   0.770   2.809   3.487
 1120TIP3    H1 3366   0.860   2.801   3.457
 1120TIP3    H2 3367   0.776   2.808   3.582
 1121TIP3   OH2 3368   3.873   0.076   0.088
 1121TIP3    H1 3369   3.919   0.066   0.004
 1121TIP3    H2 3370   3.927   0.029   0.151
 1122TIP3   OH2 3371   6.269   0.743   0.506
 1122TIP3    H1 3372   6.213   0.680   0.551
 1122TIP3    H2 3373   6.235   0.747   0.417
 1123TIP3   OH2 3374   2.605   1.695   2.923
 1123TIP3    H1 3375   2.524   1.675   2.875
 1123TIP3    H2 3376   2.663   1.621   2.904
 1124TIP3   OH2 3377   2.900   3.152   2.269
 1124TIP3    H1 3378   2.829   3.187   2.323
 1124TIP3    H2 3379   2.891   3.196   2.185
 1125TIP3   OH2 3380   4.413   1.494   1.593
 1125TIP3    H1 3381   4.324   1.526   1.583
 1125TIP3    H2 3382   4.430   1.498   1.687
 1126TIP3   OH2 3383   3.456   3.252   2.882
 1126TIP3    H1 3384   3.527   3.264   2.945
 1126TIP3    H2 3385   3.447   3.337   2.840
 1127TIP3   OH2 3386   5.183   4.363   2.353
 1127TIP3    H1 3387   5.273   4.363   2.384
 1127TIP3    H2 3388   5.135   4.311   2.418
 1128TIP3   OH2 3389   4.666   4.982   3.441
 1128TIP3    H1 3390   4.573   4.987   3.420
 1128TIP3    H2 3391   4.675   5.031   3.523
 1129TIP3   OH2 3392   1.961   2.772   2.478
 1129TIP3    H1 3393   2.019   2.710   2.432
 1129TIP3    H2 3394   1.913   2.718   2.540
 1130TIP3   OH2 3395   1.764   1.076   4.977
 1130TIP3    H1 3396   1.788   1.027   4.898
 1130TIP3    H2 3397   1.693   1.133   4.948
 1131TIP3   OH2 3398   2.033   1.155   5.002
 1131TIP3    H1 3399   1.939   1.137   5.004
 1131TIP3    H2 3400   2.047   1.198   4.917
 1132TIP3   OH2 3401   5.383   5.895   3.353
 1132TIP3    H1 3402   5.437   5.879   3.276
 1132TIP3    H2 3403   5.307   5.944   3.321
 1133TIP3   OH2 3404   5.869   5.598   2.274
 1133TIP3    H1 3405   5.905   5.677   2.233
 1133TIP3    H2 3406   5.792   5.578   2.221
 1134TIP3   OH2 3407   2.660   5.489   0.390
 1134TIP3    H1 3408   2.600   5.558   0.362
 1134TIP3    H2 3409   2.640   5.475   0.483
 1135TIP3   OH2 3410   0.095   1.499   3.606
 1135TIP3    H1 3411   0.110   1.482   3.699
 1135TIP3    H2 3412   0.161   1.447   3.561
 1136TIP3   OH2 3413   3.753   5.452   3.686
 1136TIP3    H1 3414   3.791   5.466   3.772
 1136TIP3    H2 3415   3.751   5.539   3.646
 1137TIP3   OH2 3416   4.064   1.381   1.539
 1137TIP3    H1 3417   4.046   1.320   1.611
 1137TIP3    H2 3418   3.983   1.432   1.530
 1138TIP3   OH2 3419   2.010   4.227   1.578
 1138TIP3    H1 3420   1.952   4.203   1.505
 1138TIP3    H2 3421   2.071   4.154   1.585
 1139TIP3   OH2 3422   2.630   0.768   3.015
 1139TIP3    H1 3423   2.566   0.704   2.984
 1139TIP3    H2 3424   2.643   0.827   2.940
 1140TIP3   OH2 3425   4.281   3.802   1.164
 1140TIP3    H1 3426   4.223   3.878   1.172
 1140TIP3    H2 3427   4.340   3.809   1.240
 1141TIP3   OH2 3428   0.779   4.513   0.411
 1141TIP3    H1 3429   0.871   4.504   0.388
 1141TIP3    H2 3430   0.732   4.484   0.333
 1142TIP3   OH2 3431   1.290  -0.029   1.455
 1142TIP3    H1 3432   1.257   0.028   1.386
 1142TIP3    H2 3433   1.255   0.008   1.536
 1143TIP3   OH2 3434   5.691   0.930   1.111
 1143TIP3    H1 3435   5.780   0.963   1.097
 1143TIP3    H2 3436   5.677   0.939   1.205
 1144TIP3   OH2 3437   4.905   4.975   1.050
 1144TIP3    H1 3438   4.995   4.944   1.051
 1144TIP3    H2 3439   4.854   4.902   1.084
 1145TIP3   OH2 3440   1.046   3.702   1.452
 1145TIP3    H1 3441   1.076   3.628   1.400
 1145TIP3    H2 3442   1.104   3.704   1.527
 1146TIP3   OH2 3443   2.101   2.960   1.348
 1146TIP3    H1 3444   2.097   3.052   1.321
 1146TIP3    H2 3445   2.194   2.938   1.347
 1147TIP3   OH2 3446   3.494   1.970   4.328
 1147TIP3    H1 3447   3.422   1.939   4.384
 1147TIP3    H2 3448   3.456   1.973   4.240
 1148TIP3   OH2 3449   3.214   5.275   2.161
 1148TIP3    H1 3450   3.291   5.236   2.202
 1148TIP3    H2 3451   3.140   5.223   2.193
 1149TIP3   OH2 3452   2.930   1.376   3.256
 1149TIP3    H1 3453   2.943   1.387   3.350
 1149TIP3    H2 3454   2.950   1.462   3.219
 1150TIP3   OH2 3455   1.135   2.425   0.419
 1150TIP3    H1 3456   1.056   2.375   0.398
 1150TIP3    H2 3457   1.160   2.466   0.337
 1151TIP3   OH2 3458   4.021   4.135   4.559
 1151TIP3    H1 3459   4.110   4.157   4.528
 1151TIP3    H2 3460   4.032   4.055   4.609
 1152TIP3   OH2 3461   2.154   5.280   2.314
 1152TIP3    H1 3462   2.211   5.232   2.374
 1152TIP3    H2 3463   2.212   5.307   2.242
 1153TIP3   OH2 3464   5.306   5.748   2.396
 1153TIP3    H1 3465   5.402   5.753   2.398
 1153TIP3    H2 3466   5.287   5.688   2.324
 1154TIP3   OH2 3467   0.141   5.452   0.142
 1154TIP3    H1 3468   0.077   5.522   0.155
 1154TIP3    H2 3469   0.225   5.498   0.139
 1155TIP3   OH2 3470   4.873   0.900   2.100
 1155TIP3    H1 3471   4.832   0.907   2.187
 1155TIP3    H2 3472   4.962   0.933   2.113
 1156TIP3   OH2 3473   0.610   5.413   1.343
 1156TIP3    H1 3474   0.579   5.338   1.394
 1156TIP3    H2 3475   0.649   5.374   1.264
 1157TIP3   OH2 3476   5.973   1.258   2.670
 1157TIP3    H1 3477   6.053   1.311   2.666
 1157TIP3    H2 3478   5.931   1.272   2.584
 1158TIP3   OH2 3479   5.148   2.928   5.070
 1158TIP3    H1 3480   5.096   2.976   5.135
 1158TIP3    H2 3481   5.229   2.979   5.063
 1159TIP3   OH2 3482   2.612   5.770   1.523
 1159TIP3    H1 3483   2.639   5.822   1.599
 1159TIP3    H2 3484   2.517   5.766   1.529
 1160TIP3   OH2 3485   2.307   5.539   4.789
 1160TIP3    H1 3486   2.386   5.588   4.763
 1160TIP3    H2 3487   2.261   5.598   4.848
 1161TIP3   OH2 3488   6.000   2.340   4.794
 1161TIP3    H1 3489   6.048   2.422   4.805
 1161TIP3    H2 3490   6.011   2.317   4.702
 1162TIP3   OH2 3491   3.698   2.127   1.846
 1162TIP3    H1 3492   3.615   2.128   1.894
 1162TIP3    H2 3493   3.677   2.166   1.761
 1163TIP3   OH2 3494   2.851   2.805   3.841
 1163TIP3    H1 3495   2.831   2.761   3.759
 1163TIP3    H2 3496   2.872   2.734   3.902
 1164TIP3   OH2 3497   1.798   2.280   2.811
 1164TIP3    H1 3498   1.754   2.342   2.753
 1164TIP3    H2 3499   1.732   2.256   2.876
 1165TIP3   OH2 3500   1.739   1.548   2.733
 1165TIP3    H1 3501   1.809   1.558   2.798
 1165TIP3    H2 3502   1.664   1.518   2.784
 1166TIP3   OH2 3503   5.553   2.244   2.649
 1166TIP3    H1 3504   5.476   2.281   2.691
 1166TIP3    H2 3505   5.611   2.319   2.633
 1167TIP3   OH2 3506   2.731   0.351   3.308
 1167TIP3    H1 3507   2.657   0.353   3.248
 1167TIP3    H2 3508   2.691   0.353   3.395
 1168TIP3   OH2 3509   4.012   5.677   0.332
 1168TIP3    H1 3510   3.931   5.629   0.348
 1168TIP3    H2 3511   3.985   5.754   0.282
 1169TIP3   OH2 3512   0.363   1.285   0.063
 1169TIP3    H1 3513   0.383   1.236   0.143
 1169TIP3    H2 3514   0.277   1.252   0.036
 1170TIP3   OH2 3515   4.245   1.415   3.589
 1170TIP3    H1 3516   4.181   1.486   3.586
 1170TIP3    H2 3517   4.319   1.448   3.536
 1171TIP3   OH2 3518   2.370   2.089   0.782
 1171TIP3    H1 3519   2.317   2.166   0.762
 1171TIP3    H2 3520   2.307   2.018   0.793
 1172TIP3   OH2 3521   4.802   1.091   2.411
 1172TIP3    H1 3522   4.880   1.088   2.355
 1172TIP3    H2 3523   4.735   1.130   2.355
 1173TIP3   OH2 3524   2.934   2.308   3.497
 1173TIP3    H1 3525   2.852   2.260   3.501
 1173TIP3    H2 3526   2.939   2.355   3.581
 1174TIP3   OH2 3527   4.495   0.300   4.754
 1174TIP3    H1 3528   4.518   0.251   4.675
 1174TIP3    H2 3529   4.548   0.380   4.748
 1175TIP3   OH2 3530   4.466   2.660   0.984
 1175TIP3    H1 3531   4.534   2.706   0.934
 1175TIP3    H2 3532   4.497   2.663   1.075
 1176TIP3   OH2 3533   4.845   5.347   3.690
 1176TIP3    H1 3534   4.884   5.362   3.604
 1176TIP3    H2 3535   4.767   5.294   3.672
 1177TIP3   OH2 3536   3.320   5.624   1.410
 1177TIP3    H1 3537   3.362   5.623   1.324
 1177TIP3    H2 3538   3.264   5.546   1.410
 1178TIP3   OH2 3539   5.265   4.732   2.226
 1178TIP3    H1 3540   5.181   4.694   2.251
 1178TIP3    H2 3541   5.321   4.656   2.208
 1179TIP3   OH2 3542   1.555   2.491   3.281
 1179TIP3    H1 3543   1.501   2.560   3.318
 1179TIP3    H2 3544   1.633   2.536   3.249
 1180TIP3   OH2 3545   4.126   2.540   0.384
 1180TIP3    H1 3546   4.059   2.553   0.450
 1180TIP3    H2 3547   4.101   2.598   0.312
 1181TIP3   OH2 3548   2.851   3.741   4.574
 1181TIP3    H1 3549   2.784   3.723   4.509
 1181TIP3    H2 3550   2.831   3.683   4.647
 1182TIP3   OH2 3551   2.229   4.958   1.554
 1182TIP3    H1 3552   2.280   4.977   1.475
 1182TIP3    H2 3553   2.242   4.865   1.569
 1183TIP3   OH2 3554   3.892   1.130   3.115
 1183TIP3    H1 3555   3.874   1.083   3.034
 1183TIP3    H2 3556   3.868   1.221   3.096
 1184TIP3   OH2 3557   5.525   2.606   2.817
 1184TIP3    H1 3558   5.447   2.660   2.810
 1184TIP3    H2 3559   5.597   2.663   2.790
 1185TIP3   OH2 3560   1.421   1.337   4.583
 1185TIP3    H1 3561   1.516   1.340   4.576
 1185TIP3    H2 3562   1.395   1.259   4.534
 1186TIP3   OH2 3563   0.982   4.503   2.778
 1186TIP3    H1 3564   1.005   4.593   2.754
 1186TIP3    H2 3565   0.921   4.475   2.709
 1187TIP3   OH2 3566   1.125   5.051   1.860
 1187TIP3    H1 3567   1.053   5.041   1.923
 1187TIP3    H2 3568   1.194   5.094   1.910
 1188TIP3   OH2 3569   2.395   0.140   0.305
 1188TIP3    H1 3570   2.367   0.081   0.235
 1188TIP3    H2 3571   2.316   0.191   0.325
 1189TIP3   OH2 3572   1.706   2.395   3.546
 1189TIP3    H1 3573   1.727   2.354   3.630
 1189TIP3    H2 3574   1.625   2.443   3.562
 1190TIP3   OH2 3575   3.181   3.731   0.417
 1190TIP3    H1 3576   3.144   3.773   0.495
 1190TIP3    H2 3577   3.106   3.695   0.371
 1191TIP3   OH2 3578   5.538   1.271   4.126
 1191TIP3    H1 3579   5.609   1.317   4.082
 1191TIP3    H2 3580   5.582   1.214   4.190
 1192TIP3   OH2 3581   2.835   0.135   2.930
 1192TIP3    H1 3582   2.791   0.182   2.859
 1192TIP3    H2 3583   2.769   0.129   2.999
 1193TIP3   OH2 3584   4.121   4.828   2.802
 1193TIP3    H1 3585   4.040   4.778   2.814
 1193TIP3    H2 3586   4.184   4.763   2.772
 1194TIP3   OH2 3587   2.895   2.296   3.087
 1194TIP3    H1 3588   2.839   2.299   3.164
 1194TIP3    H2 3589   2.841   2.331   3.016
 1195TIP3   OH2 3590   5.365   4.339   4.642
 1195TIP3    H1 3591   5.309   4.400   4.690
 1195TIP3    H2 3592   5.306   4.273   4.608
 1196TIP3   OH2 3593   5.967   5.805   3.623
 1196TIP3    H1 3594   6.051   5.835   3.657
 1196TIP3    H2 3595   5.981   5.712   3.605
 1197TIP3   OH2 3596   5.957   4.263   5.028
 1197TIP3    H1 3597   5.889   4.206   4.992
 1197TIP3    H2 3598   5.915   4.348   5.039
 1198TIP3   OH2 3599   3.956   2.125   4.559
 1198TIP3    H1 3600   3.930   2.208   4.599
 1198TIP3    H2 3601   4.050   2.119   4.576
 1199TIP3   OH2 3602   0.018   2.041   3.137
 1199TIP3    H1 3603  -0.007   1.952   3.110
 1199TIP3    H2 3604   0.041   2.086   3.056
 1200TIP3   OH2 3605   3.365   4.934   1.728
 1200TIP3    H1 3606   3.322   4.851   1.709
 1200TIP3    H2 3607   3.457   4.911   1.741
 1201TIP3   OH2 3608   4.645   5.125   3.680
 1201TIP3    H1 3609   4.692   5.083   3.752
 1201TIP3    H2 3610   4.590   5.191   3.722
 1202TIP3   OH2 3611   1.732   0.904   1.491
 1202TIP3    H1 3612   1.712   0.994   1.518
 1202TIP3    H2 3613   1.740   0.909   1.396
 1203TIP3   OH2 3614   4.881   2.453   1.590
 1203TIP3    H1 3615   4.890   2.382   1.654
 1203TIP3    H2 3616   4.797   2.494   1.612
 1204TIP3   OH2 3617   5.759   3.205   0.516
 1204TIP3    H1 3618   5.666   3.212   0.535
 1204TIP3    H2 3619   5.777   3.275   0.453
 1205TIP3   OH2 3620   1.757   1.030   3.640
 1205TIP3    H1 3621   1.785   1.002   3.553
 1205TIP3    H2 3622   1.817   1.101   3.663
 1206TIP3   OH2 3623   0.143   1.174   0.347
 1206TIP3    H1 3624   0.154   1.260   0.306
 1206TIP3    H2 3625   0.048   1.163   0.353
 1207TIP3   OH2 3626   1.876   4.241   4.403
 1207TIP3    H1 3627   1.930   4.165   4.424
 1207TIP3    H2 3628   1.799   4.232   4.460
 1208TIP3   OH2 3629   5.098   0.308   3.425
 1208TIP3    H1 3630   5.051   0.382   3.462
 1208TIP3    H2 3631   5.119   0.252   3.499
 1209TIP3   OH2 3632   0.248   5.908   0.996
 1209TIP3    H1 3633   0.180   5.945   1.052
 1209TIP3    H2 3634   0.209   5.830   0.958
 1210TIP3   OH2 3635   1.472   3.898   1.181
 1210TIP3    H1 3636   1.423   3.936   1.254
 1210TIP3    H2 3637   1.466   3.804   1.196
 1211TIP3   OH2 3638   4.020   4.283   2.464
 1211TIP3    H1 3639   4.104   4.262   2.423
 1211TIP3    H2 3640   4.035   4.365   2.510
 1212TIP3   OH2 3641   2.891   5.067   3.562
 1212TIP3    H1 3642   2.837   5.070   3.483
 1212TIP3    H2 3643   2.879   4.979   3.597
 1213TIP3   OH2 3644   0.044   3.490   2.665
 1213TIP3    H1 3645  -0.049   3.510   2.664
 1213TIP3    H2 3646   0.087   3.575   2.649
 1214TIP3   OH2 3647   1.826   3.136   3.663
 1214TIP3    H1 3648   1.857   3.052   3.696
 1214TIP3    H2 3649   1.847   3.198   3.733
 1215TIP3   OH2 3650   0.098   2.589   4.259
 1215TIP3    H1 3651   0.094   2.600   4.164
 1215TIP3    H2 3652   0.024   2.640   4.292
 1216TIP3   OH2 3653   5.775   1.839   0.378
 1216TIP3    H1 3654   5.808   1.761   0.333
 1216TIP3    H2 3655   5.736   1.892   0.308
 1217TIP3   OH2 3656   5.783   3.298   3.033
 1217TIP3    H1 3657   5.761   3.219   2.985
 1217TIP3    H2 3658   5.832   3.268   3.109
 1218TIP3   OH2 3659   6.201   3.107   3.711
 1218TIP3    H1 3660   6.235   3.170   3.647
 1218TIP3    H2 3661   6.266   3.037   3.713
 1219TIP3   OH2 3662   2.183   4.027   1.510
 1219TIP3    H1 3663   2.270   4.062   1.532
 1219TIP3    H2 3664   2.201   3.961   1.443
 1220TIP3   OH2 3665   5.224   0.060   4.591
 1220TIP3    H1 3666   5.271   0.142   4.583
 1220TIP3    H2 3667   5.181   0.065   4.676
 1221TIP3   OH2 3668   4.339   0.824   2.061
 1221TIP3    H1 3669   4.337   0.775   2.143
 1221TIP3    H2 3670   4.368   0.761   1.996
 1222TIP3   OH2 3671   1.249   3.507   4.847
 1222TIP3    H1 3672   1.244   3.551   4.932
 1222TIP3    H2 3673   1.161   3.519   4.809
 1223TIP3   OH2 3674   3.887   1.412   5.017
 1223TIP3    H1 3675   3.811   1.443   5.066
 1223TIP3    H2 3676   3.902   1.323   5.048
 1224TIP3   OH2 3677   2.201   5.359   4.405
 1224TIP3    H1 3678   2.156   5.345   4.322
 1224TIP3    H2 3679   2.251   5.439   4.392
 1225TIP3   OH2 3680   0.263   0.984   1.716
 1225TIP3    H1 3681   0.331   1.035   1.672
 1225TIP3    H2 3682   0.255   1.025   1.802
 1226TIP3   OH2 3683   0.125   0.605   3.269
 1226TIP3    H1 3684   0.145   0.650   3.351
 1226TIP3    H2 3685   0.055   0.657   3.229
 1227TIP3   OH2 3686   4.218   5.068   1.634
 1227TIP3    H1 3687   4.288   5.060   1.570
 1227TIP3    H2 3688   4.250   5.131   1.698
 1228TIP3   OH2 3689   3.906   0.418   4.673
 1228TIP3    H1 3690   3.848   0.419   4.749
 1228TIP3    H2 3691   3.978   0.477   4.698
 1229TIP3   OH2 3692   1.128   3.468   3.550
 1229TIP3    H1 3693   1.165   3.535   3.492
 1229TIP3    H2 3694   1.198   3.404   3.559
 1230TIP3   OH2 3695   1.386   2.146   3.475
 1230TIP3    H1 3696   1.304   2.109   3.508
 1230TIP3    H2 3697   1.449   2.130   3.546
 1231TIP3   OH2 3698   1.408   2.365   0.983
 1231TIP3    H1 3699   1.379   2.331   1.068
 1231TIP3    H2 3700   1.396   2.291   0.923
 1232TIP3   OH2 3701   3.224   3.209   3.962
 1232TIP3    H1 3702   3.301   3.160   3.936
 1232TIP3    H2 3703   3.197   3.169   4.045
 1233TIP3   OH2 3704   4.839   3.340   2.123
 1233TIP3    H1 3705   4.902   3.389   2.175
 1233TIP3    H2 3706   4.866   3.249   2.131
 1234TIP3   OH2 3707   4.295   0.831   2.906
 1234TIP3    H1 3708   4.242   0.846   2.985
 1234TIP3    H2 3709   4.273   0.742   2.879
 1235TIP3   OH2 3710   5.555   4.503   1.177
 1235TIP3    H1 3711   5.508   4.435   1.225
 1235TIP3    H2 3712   5.647   4.486   1.194
 1236TIP3   OH2 3713   1.492   0.419   5.005
 1236TIP3    H1 3714   1.408   0.386   4.974
 1236TIP3    H2 3715   1.473   0.509   5.032
 1237TIP3   OH2 3716   5.834   2.338   0.407
 1237TIP3    H1 3717   5.809   2.254   0.368
 1237TIP3    H2 3718   5.840   2.319   0.501
 1238TIP3   OH2 3719   4.452   3.595   1.602
 1238TIP3    H1 3720   4.374   3.539   1.591
 1238TIP3    H2 3721   4.462   3.638   1.518
 1239TIP3   OH2 3722   4.973   0.500   3.573
 1239TIP3    H1 3723   4.969   0.593   3.595
 1239TIP3    H2 3724   4.984   0.456   3.657
 1240TIP3   OH2 3725   3.005   1.020   1.908
 1240TIP3    H1 3726   3.049   1.053   1.830
 1240TIP3    H2 3727   2.912   1.039   1.894
 1241TIP3   OH2 3728   2.288   5.682   4.484
 1241TIP3    H1 3729   2.281   5.758   4.427
 1241TIP3    H2 3730   2.337   5.618   4.433
 1242TIP3   OH2 3731   3.816   1.505   1.534
 1242TIP3    H1 3732   3.794   1.490   1.626
 1242TIP3    H2 3733   3.816   1.600   1.524
 1243TIP3   OH2 3734   0.493   4.853   1.873
 1243TIP3    H1 3735   0.499   4.762   1.903
 1243TIP3    H2 3736   0.577   4.870   1.830
 1244TIP3   OH2 3737   4.202   1.085   3.497
 1244TIP3    H1 3738   4.152   1.130   3.565
 1244TIP3    H2 3739   4.175   1.127   3.415
 1245TIP3   OH2 3740   0.712   5.183   1.775
 1245TIP3    H1 3741   0.679   5.121   1.840
 1245TIP3    H2 3742   0.636   5.235   1.750
 1246TIP3   OH2 3743   0.650   0.564   4.067
 1246TIP3    H1 3744   0.590   0.589   4.137
 1246TIP3    H2 3745   0.735   0.558   4.110
 1247TIP3   OH2 3746   4.694   4.966   1.285
 1247TIP3    H1 3747   4.719   4.875   1.274
 1247TIP3    H2 3748   4.762   5.002   1.343
 1248TIP3   OH2 3749   4.342   0.484   2.457
 1248TIP3    H1 3750   4.296   0.403   2.434
 1248TIP3    H2 3751   4.434   0.466   2.436
 1249TIP3   OH2 3752   1.819   4.119   1.387
 1249TIP3    H1 3753   1.787   4.049   1.445
 1249TIP3    H2 3754   1.857   4.073   1.312
 1250TIP3   OH2 3755   3.599   3.719   2.036
 1250TIP3    H1 3756   3.639   3.804   2.018
 1250TIP3    H2 3757   3.626   3.665   1.961
 1251TIP3   OH2 3758   5.055   1.292   1.261
 1251TIP3    H1 3759   5.114   1.218   1.272
 1251TIP3    H2 3760   4.982   1.273   1.320
 1252TIP3   OH2 3761   1.143   1.004   1.015
 1252TIP3    H1 3762   1.100   0.919   1.014
 1252TIP3    H2 3763   1.085   1.061   1.064
 1253TIP3   OH2 3764   4.468   3.768   2.319
 1253TIP3    H1 3765   4.440   3.679   2.341
 1253TIP3    H2 3766   4.551   3.756   2.272
 1254TIP3   OH2 3767   6.171   3.785   0.557
 1254TIP3    H1 3768   6.252   3.824   0.524
 1254TIP3    H2 3769   6.187   3.774   0.651
 1255TIP3   OH2 3770   0.099   0.904   4.555
 1255TIP3    H1 3771   0.048   0.838   4.507
 1255TIP3    H2 3772   0.102   0.979   4.496
 1256TIP3   OH2 3773   3.648   1.819   3.244
 1256TIP3    H1 3774   3.626   1.833   3.151
 1256TIP3    H2 3775   3.728   1.869   3.257
 1257TIP3   OH2 3776   1.280   4.290   1.794
 1257TIP3    H1 3777   1.321   4.313   1.877
 1257TIP3    H2 3778   1.303   4.361   1.735
 1258TIP3   OH2 3779   2.519   3.829   4.249
 1258TIP3    H1 3780   2.503   3.846   4.157
 1258TIP3    H2 3781   2.612   3.806   4.253
 1259TIP3   OH2 3782   3.888   3.264   1.403
 1259TIP3    H1 3783   3.803   3.305   1.390
 1259TIP3    H2 3784   3.931   3.318   1.470
 1260TIP3   OH2 3785   3.847   3.378   2.673
 1260TIP3    H1 3786   3.785   3.306   2.677
 1260TIP3    H2 3787   3.842   3.419   2.759
 1261TIP3   OH2 3788   1.361   3.180   4.008
 1261TIP3    H1 3789   1.337   3.096   3.968
 1261TIP3    H2 3790   1.306   3.186   4.086
 1262TIP3   OH2 3791   1.025   2.348   2.009
 1262TIP3    H1 3792   0.933   2.326   1.995
 1262TIP3    H2 3793   1.025   2.404   2.087
 1263TIP3   OH2 3794   1.431   3.414   2.189
 1263TIP3    H1 3795   1.337   3.427   2.184
 1263TIP3    H2 3796   1.441   3.323   2.219
 1264TIP3   OH2 3797   0.905   2.997   1.115
 1264TIP3    H1 3798   0.893   3.029   1.205
 1264TIP3    H2 3799   0.996   2.968   1.112
 1265TIP3   OH2 3800   4.574   5.502   3.713
 1265TIP3    H1 3801   4.592   5.581   3.662
 1265TIP3    H2 3802   4.658   5.479   3.752
 1266TIP3   OH2 3803   5.661   0.617   1.451
 1266TIP3    H1 3804   5.703   0.641   1.368
 1266TIP3    H2 3805   5.619   0.532   1.434
 1267TIP3   OH2 3806   5.018   4.881   2.421
 1267TIP3    H1 3807   5.063   4.880   2.505
 1267TIP3    H2 3808   5.032   4.794   2.384
 1268TIP3   OH2 3809   5.250   2.689   1.565
 1268TIP3    H1 3810   5.231   2.777   1.532
 1268TIP3    H2 3811   5.242   2.697   1.660
 1269TIP3   OH2 3812   2.980   1.373   1.313
 1269TIP3    H1 3813   3.020   1.454   1.283
 1269TIP3    H2 3814   2.956   1.327   1.233
 1270TIP3   OH2 3815   2.244   1.792   4.890
 1270TIP3    H1 3816   2.205   1.872   4.924
 1270TIP3    H2 3817   2.244   1.732   4.965
 1271TIP3   OH2 3818   4.773   1.860   2.988
 1271TIP3    H1 3819   4.714   1.918   2.939
 1271TIP3    H2 3820   4.769   1.891   3.078
 1272TIP3   OH2 3821   4.602   4.313   3.670
 1272TIP3    H1 3822   4.571   4.240   3.724
 1272TIP3    H2 3823   4.575   4.391   3.718
 1273TIP3   OH2 3824   4.592   3.638   1.354
 1273TIP3    H1 3825   4.668   3.633   1.296
 1273TIP3    H2 3826   4.625   3.685   1.431
 1274TIP3   OH2 3827   5.524   4.552   2.392
 1274TIP3    H1 3828   5.607   4.563   2.440
 1274TIP3    H2 3829   5.549   4.552   2.300
 1275TIP3   OH2 3830   2.234   3.332   0.848
 1275TIP3    H1 3831   2.220   3.254   0.795
 1275TIP3    H2 3832   2.287   3.390   0.793
 1276TIP3   OH2 3833   5.961   2.686   4.261
 1276TIP3    H1 3834   5.898   2.720   4.197
 1276TIP3    H2 3835   5.959   2.750   4.332
 1277TIP3   OH2 3836   1.220   4.413   2.681
 1277TIP3    H1 3837   1.130   4.414   2.714
 1277TIP3    H2 3838   1.210   4.435   2.588
 1278TIP3   OH2 3839   6.000   5.850   4.310
 1278TIP3    H1 3840   5.995   5.946   4.302
 1278TIP3    H2 3841   6.079   5.835   4.361
 1279TIP3   OH2 3842   1.016   1.579   2.584
 1279TIP3    H1 3843   1.038   1.613   2.497
 1279TIP3    H2 3844   1.092   1.527   2.609
 1280TIP3   OH2 3845   3.461   2.469   0.839
 1280TIP3    H1 3846   3.382   2.423   0.864
 1280TIP3    H2 3847   3.533   2.413   0.868
 1281TIP3   OH2 3848   2.293   0.487   1.520
 1281TIP3    H1 3849   2.244   0.473   1.601
 1281TIP3    H2 3850   2.236   0.454   1.451
 1282TIP3   OH2 3851   2.791   0.602   2.857
 1282TIP3    H1 3852   2.754   0.645   2.934
 1282TIP3    H2 3853   2.825   0.674   2.804
 1283TIP3   OH2 3854   3.424   2.668   0.164
 1283TIP3    H1 3855   3.465   2.642   0.082
 1283TIP3    H2 3856   3.440   2.763   0.169
 1284TIP3   OH2 3857   4.579   1.109   4.445
 1284TIP3    H1 3858   4.547   1.108   4.355
 1284TIP3    H2 3859   4.510   1.151   4.496
 1285TIP3   OH2 3860   1.899   0.455   4.629
 1285TIP3    H1 3861   1.840   0.445   4.704
 1285TIP3    H2 3862   1.843   0.489   4.560
 1286TIP3   OH2 3863   0.440   3.379   0.490
 1286TIP3    H1 3864   0.443   3.361   0.584
 1286TIP3    H2 3865   0.531   3.372   0.461
 1287TIP3   OH2 3866   4.810   2.269   3.079
 1287TIP3    H1 3867   4.767   2.197   3.033
 1287TIP3    H2 3868   4.799   2.345   3.020
 1288TIP3   OH2 3869   6.149   0.594   3.159
 1288TIP3    H1 3870   6.199   0.674   3.143
 1288TIP3    H2 3871   6.063   0.611   3.120
 1289TIP3   OH2 3872   4.242   5.478   3.967
 1289TIP3    H1 3873   4.253   5.418   3.893
 1289TIP3    H2 3874   4.147   5.484   3.980
 1290TIP3   OH2 3875   5.206   5.777   0.543
 1290TIP3    H1 3876   5.280   5.717   0.543
 1290TIP3    H2 3877   5.139   5.732   0.492
 1291TIP3   OH2 3878   4.685   1.463   1.998
 1291TIP3    H1 3879   4.776   1.459   2.028
 1291TIP3    H2 3880   4.660   1.555   2.009
 1292TIP3   OH2 3881   2.895   4.436   1.461
 1292TIP3    H1 3882   2.938   4.506   1.509
 1292TIP3    H2 3883   2.962   4.404   1.400
 1293TIP3   OH2 3884   6.304   2.256   2.356
 1293TIP3    H1 3885   6.240   2.193   2.324
 1293TIP3    H2 3886   6.374   2.203   2.393
 1294TIP3   OH2 3887   1.656   0.615   3.568
 1294TIP3    H1 3888   1.692   0.528   3.548
 1294TIP3    H2 3889   1.564   0.597   3.591
 1295TIP3   OH2 3890   1.531   2.106   2.284
 1295TIP3    H1 3891   1.447   2.136   2.249
 1295TIP3    H2 3892   1.546   2.161   2.361
 1296TIP3   OH2 3893   6.325   2.522   2.329
 1296TIP3    H1 3894   6.294   2.532   2.239
 1296TIP3    H2 3895   6.327   2.427   2.344
 1297TIP3   OH2 3896   5.636   1.808   5.080
 1297TIP3    H1 3897   5.710   1.867   5.090
 1297TIP3    H2 3898   5.565   1.849   5.128
 1298TIP3   OH2 3899   0.401   4.363   4.350
 1298TIP3    H1 3900   0.483   4.343   4.395
 1298TIP3    H2 3901   0.357   4.425   4.407
 1299TIP3   OH2 3902   1.378   3.389   3.408
 1299TIP3    H1 3903   1.324   3.316   3.378
 1299TIP3    H2 3904   1.467   3.366   3.380
 1300TIP3   OH2 3905   2.254   0.143   4.501
 1300TIP3    H1 3906   2.245   0.200   4.578
 1300TIP3    H2 3907   2.173   0.156   4.452
 1301TIP3   OH2 3908   5.083   3.044   2.847
 1301TIP3    H1 3909   4.992   3.049   2.876
 1301TIP3    H2 3910   5.130   3.101   2.907
 1302TIP3   OH2 3911   3.748   5.153   0.757
 1302TIP3    H1 3912   3.808   5.181   0.826
 1302TIP3    H2 3913   3.747   5.058   0.763
 1303TIP3   OH2 3914   6.324   5.443   4.077
 1303TIP3    H1 3915   6.264   5.426   4.150
 1303TIP3    H2 3916   6.299   5.529   4.044
 1304TIP3   OH2 3917   1.908   4.045   3.282
 1304TIP3    H1 3918   1.893   4.072   3.191
 1304TIP3    H2 3919   1.859   4.109   3.334
 1305TIP3   OH2 3920   1.508   2.178   3.861
 1305TIP3    H1 3921   1.547   2.141   3.782
 1305TIP3    H2 3922   1.511   2.273   3.848
 1306TIP3   OH2 3923   1.462   5.591   2.258
 1306TIP3    H1 3924   1.416   5.675   2.251
 1306TIP3    H2 3925   1.553   5.615   2.271
 1307TIP3   OH2 3926   0.055   3.703   1.254
 1307TIP3    H1 3927   0.040   3.653   1.334
 1307TIP3    H2 3928   0.070   3.637   1.187
 1308TIP3   OH2 3929   6.002   3.357   0.217
 1308TIP3    H1 3930   5.976   3.448   0.209
 1308TIP3    H2 3931   6.078   3.348   0.160
 1309TIP3   OH2 3932   2.942   1.829   2.040
 1309TIP3    H1 3933   2.863   1.785   2.008
 1309TIP3    H2 3934   3.007   1.813   1.972
 1310TIP3   OH2 3935   2.592   3.966   3.268
 1310TIP3    H1 3936   2.626   4.050   3.240
 1310TIP3    H2 3937   2.531   3.987   3.339
 1311TIP3   OH2 3938   1.330   5.142   1.503
 1311TIP3    H1 3939   1.326   5.190   1.586
 1311TIP3    H2 3940   1.412   5.093   1.508
 1312TIP3   OH2 3941   2.165   2.960   1.618
 1312TIP3    H1 3942   2.174   2.869   1.588
 1312TIP3    H2 3943   2.173   3.013   1.539
 1313TIP3   OH2 3944   3.038   0.122   3.976
 1313TIP3    H1 3945   3.089   0.200   3.997
 1313TIP3    H2 3946   3.058   0.060   4.047
 1314TIP3   OH2 3947   0.794   5.360   1.098
 1314TIP3    H1 3948   0.829   5.412   1.026
 1314TIP3    H2 3949   0.867   5.351   1.159
 1315TIP3   OH2 3950   3.695   4.132   4.467
 1315TIP3    H1 3951   3.667   4.043   4.489
 1315TIP3    H2 3952   3.788   4.135   4.490
 1316TIP3   OH2 3953   0.161   3.536   1.789
 1316TIP3    H1 3954   0.072   3.551   1.757
 1316TIP3    H2 3955   0.217   3.551   1.713
 1317TIP3   OH2 3956   0.076   1.743   3.160
 1317TIP3    H1 3957   0.136   1.675   3.190
 1317TIP3    H2 3958   0.081   1.738   3.064
 1318TIP3   OH2 3959   6.307   0.394   3.583
 1318TIP3    H1 3960   6.358   0.340   3.523
 1318TIP3    H2 3961   6.244   0.440   3.527
 1319TIP3   OH2 3962   4.877   3.261   4.504
 1319TIP3    H1 3963   4.863   3.204   4.429
 1319TIP3    H2 3964   4.896   3.347   4.467
 1320TIP3   OH2 3965   1.119   2.092   2.198
 1320TIP3    H1 3966   1.184   2.133   2.141
 1320TIP3    H2 3967   1.036   2.132   2.172
 1321TIP3   OH2 3968   2.135   5.329   1.092
 1321TIP3    H1 3969   2.091   5.335   1.176
 1321TIP3    H2 3970   2.223   5.299   1.113
 1322TIP3   OH2 3971   0.835   5.719   0.713
 1322TIP3    H1 3972   0.908   5.777   0.696
 1322TIP3    H2 3973   0.759   5.777   0.719
 1323TIP3   OH2 3974   5.160   3.263   4.622
 1323TIP3    H1 3975   5.122   3.324   4.684
 1323TIP3    H2 3976   5.087   3.205   4.597
 1324TIP3   OH2 3977   2.860   0.168   4.630
 1324TIP3    H1 3978   2.792   0.154   4.565
 1324TIP3    H2 3979   2.942   0.165   4.580
 1325TIP3   OH2 3980   5.918   5.725   1.302
 1325TIP3    H1 3981   5.892   5.801   1.355
 1325TIP3    H2 3982   5.977   5.762   1.236
 1326TIP3   OH2 3983   0.199   2.928   4.520
 1326TIP3    H1 3984   0.113   2.951   4.556
 1326TIP3    H2 3985   0.215   2.839   4.550
 1327TIP3   OH2 3986   4.000   2.683   2.201
 1327TIP3    H1 3987   4.044   2.768   2.187
 1327TIP3    H2 3988   4.071   2.624   2.227
 1328TIP3   OH2 3989   5.998   1.743   3.106
 1328TIP3    H1 3990   6.019   1.650   3.113
 1328TIP3    H2 3991   5.922   1.745   3.047
 1329TIP3   OH2 3992   6.219   3.480   3.618
 1329TIP3    H1 3993   6.282   3.515   3.555
 1329TIP3    H2 3994   6.145   3.541   3.616
 1330TIP3   OH2 3995   3.007   0.323   4.821
 1330TIP3    H1 3996   2.970   0.262   4.757
 1330TIP3    H2 3997   2.972   0.408   4.797
 1331TIP3   OH2 3998   1.033   2.139   3.922
 1331TIP3    H1 3999   1.095   2.083   3.968
 1331TIP3    H2 4000   1.086   2.183   3.855
 1332TIP3   OH2 4001   4.624   5.822   4.972
 1332TIP3    H1 4002   4.560   5.891   4.954
 1332TIP3    H2 4003   4.576   5.741   4.957
 1333TIP3   OH2 4004   6.282   1.937   1.450
 1333TIP3    H1 4005   6.308   1.871   1.515
 1333TIP3    H2 4006   6.364   1.963   1.408
 1334TIP3   OH2 4007   4.041   4.147   0.584
 1334TIP3    H1 4008   3.950   4.164   0.609
 1334TIP3    H2 4009   4.034   4.092   0.506
 1335TIP3   OH2 4010   2.381   5.622   0.463
 1335TIP3    H1 4011   2.375   5.639   0.369
 1335TIP3    H2 4012   2.296   5.581   0.484
 1336TIP3   OH2 4013   4.792   4.051   3.726
 1336TIP3    H1 4014   4.830   4.009   3.803
 1336TIP3    H2 4015   4.698   4.041   3.738
 1337TIP3   OH2 4016   0.959   1.156   0.759
 1337TIP3    H1 4017   0.970   1.214   0.684
 1337TIP3    H2 4018   1.037   1.101   0.759
 1338TIP3   OH2 4019   0.792   2.320   2.384
 1338TIP3    H1 4020   0.697   2.313   2.381
 1338TIP3    H2 4021   0.810   2.370   2.464
 1339TIP3   OH2 4022   0.828   0.706   3.475
 1339TIP3    H1 4023   0.901   0.747   3.521
 1339TIP3    H2 4024   0.750   0.747   3.514
 1340TIP3   OH2 4025   1.769   2.948   2.956
 1340TIP3    H1 4026   1.838   3.009   2.930
 1340TIP3    H2 4027   1.733   2.915   2.874
 1341TIP3   OH2 4028   1.176   1.766   4.981
 1341TIP3    H1 4029   1.248   1.798   4.926
 1341TIP3    H2 4030   1.208   1.683   5.016
 1342TIP3   OH2 4031   5.396   5.935   1.731
 1342TIP3    H1 4032   5.456   5.917   1.804
 1342TIP3    H2 4033   5.400   6.030   1.720
 1343TIP3   OH2 4034   0.897   2.846   1.725
 1343TIP3    H1 4035   0.840   2.778   1.761
 1343TIP3    H2 4036   0.925   2.812   1.641
 1344TIP3   OH2 4037   3.006   3.493   4.849
 1344TIP3    H1 4038   3.083   3.490   4.907
 1344TIP3    H2 4039   2.956   3.569   4.879
 1345TIP3   OH2 4040   5.195   5.944   2.642
 1345TIP3    H1 4041   5.154   5.859   2.627
 1345TIP3    H2 4042   5.256   5.929   2.715
 1346TIP3   OH2 4043   3.183   0.569   0.161
 1346TIP3    H1 4044   3.203   0.475   0.169
 1346TIP3    H2 4045   3.238   0.610   0.227
 1347TIP3   OH2 4046   1.325   0.413   1.495
 1347TIP3    H1 4047   1.297   0.481   1.557
 1347TIP3    H2 4048   1.366   0.346   1.549
 1348TIP3   OH2 4049   1.801   5.118   0.772
 1348TIP3    H1 4050   1.730   5.133   0.835
 1348TIP3    H2 4051   1.877   5.098   0.826
 1349TIP3   OH2 4052   3.826   1.441   2.126
 1349TIP3    H1 4053   3.879   1.469   2.200
 1349TIP3    H2 4054   3.871   1.477   2.049
 1350TIP3   OH2 4055   5.372   1.449   0.236
 1350TIP3    H1 4056   5.363   1.406   0.151
 1350TIP3    H2 4057   5.325   1.532   0.226
 1351TIP3   OH2 4058   2.334   0.367   2.920
 1351TIP3    H1 4059   2.349   0.460   2.940
 1351TIP3    H2 4060   2.246   0.350   2.954
 1352TIP3   OH2 4061   3.044   3.494   1.358
 1352TIP3    H1 4062   2.948   3.490   1.351
 1352TIP3    H2 4063   3.063   3.458   1.444
 1353TIP3   OH2 4064   3.656   1.146   3.776
 1353TIP3    H1 4065   3.575   1.105   3.746
 1353TIP3    H2 4066   3.658   1.230   3.731
 1354TIP3   OH2 4067   6.201   5.275   4.496
 1354TIP3    H1 4068   6.227   5.359   4.457
 1354TIP3    H2 4069   6.281   5.221   4.490
 1355TIP3   OH2 4070   0.078   5.050   1.879
 1355TIP3    H1 4071   0.160   5.025   1.836
 1355TIP3    H2 4072   0.064   4.983   1.944
 1356TIP3   OH2 4073   1.785   2.242   2.315
 1356TIP3    H1 4074   1.874   2.261   2.344
 1356TIP3    H2 4075   1.748   2.328   2.294
 1357TIP3   OH2 4076   3.195   1.293   4.958
 1357TIP3    H1 4077   3.200   1.202   4.987
 1357TIP3    H2 4078   3.154   1.289   4.872
 1358TIP3   OH2 4079   0.512   2.404   2.970
 1358TIP3    H1 4080   0.498   2.441   2.883
 1358TIP3    H2 4081   0.433   2.428   3.019
 1359TIP3   OH2 4082  -0.031   1.355   2.732
 1359TIP3    H1 4083  -0.014   1.270   2.692
 1359TIP3    H2 4084   0.054   1.381   2.769
 1360TIP3   OH2 4085   0.010   5.038   4.633
 1360TIP3    H1 4086   0.047   4.959   4.672
 1360TIP3    H2 4087   0.065   5.054   4.556
 1361TIP3   OH2 4088   5.418   4.297   2.500
 1361TIP3    H1 4089   5.474   4.372   2.479
 1361TIP3    H2 4090   5.480   4.226   2.517
 1362TIP3   OH2 4091   4.172   0.308   1.861
 1362TIP3    H1 4092   4.143   0.284   1.773
 1362TIP3    H2 4093   4.250   0.362   1.847
 1363TIP3   OH2 4094   5.173   1.113   3.233
 1363TIP3    H1 4095   5.181   1.050   3.162
 1363TIP3    H2 4096   5.249   1.097   3.289
 1364TIP3   OH2 4097   4.725   0.831   4.666
 1364TIP3    H1 4098   4.642   0.842   4.619
 1364TIP3    H2 4099   4.764   0.918   4.666
 1365TIP3   OH2 4100   4.176   5.175   0.114
 1365TIP3    H1 4101   4.119   5.105   0.145
 1365TIP3    H2 4102   4.217   5.139   0.035
 1366TIP3   OH2 4103   5.581   1.797   0.582
 1366TIP3    H1 4104   5.610   1.883   0.552
 1366TIP3    H2 4105   5.618   1.789   0.670
 1367TIP3   OH2 4106   0.247   2.030   2.680
 1367TIP3    H1 4107   0.264   1.937   2.692
 1367TIP3    H2 4108   0.332   2.067   2.657
 1368TIP3   OH2 4109   3.579   4.806   3.638
 1368TIP3    H1 4110   3.607   4.716   3.654
 1368TIP3    H2 4111   3.540   4.834   3.721
 1369TIP3   OH2 4112   1.682   4.872   4.678
 1369TIP3    H1 4113   1.764   4.913   4.707
 1369TIP3    H2 4114   1.667   4.802   4.741
 1370TIP3   OH2 4115   4.893   3.466   1.526
 1370TIP3    H1 4116   4.822   3.407   1.553
 1370TIP3    H2 4117   4.915   3.439   1.437
 1371TIP3   OH2 4118   2.549   1.776   0.123
 1371TIP3    H1 4119   2.497   1.826   0.060
 1371TIP3    H2 4120   2.598   1.713   0.070
 1372TIP3   OH2 4121   0.834   1.483   2.020
 1372TIP3    H1 4122   0.889   1.555   2.050
 1372TIP3    H2 4123   0.884   1.405   2.040
 1373TIP3   OH2 4124   4.356   5.640   2.050
 1373TIP3    H1 4125   4.428   5.590   2.088
 1373TIP3    H2 4126   4.280   5.617   2.105
 1374TIP3   OH2 4127   2.799   3.266   3.141
 1374TIP3    H1 4128   2.745   3.188   3.128
 1374TIP3    H2 4129   2.861   3.241   3.209
 1375TIP3   OH2 4130   4.149   0.144   3.031
 1375TIP3    H1 4131   4.177   0.203   2.962
 1375TIP3    H2 4132   4.193   0.176   3.110
 1376TIP3   OH2 4133   1.162   1.884   1.412
 1376TIP3    H1 4134   1.213   1.951   1.366
 1376TIP3    H2 4135   1.189   1.801   1.371
 1377TIP3   OH2 4136   4.341   4.534   0.199
 1377TIP3    H1 4137   4.307   4.609   0.249
 1377TIP3    H2 4138   4.426   4.564   0.167
 1378TIP3   OH2 4139   0.523   5.887   0.224
 1378TIP3    H1 4140   0.520   5.934   0.308
 1378TIP3    H2 4141   0.483   5.947   0.162
 1379TIP3   OH2 4142   6.145   4.399   1.574
 1379TIP3    H1 4143   6.155   4.490   1.601
 1379TIP3    H2 4144   6.129   4.352   1.656
 1380TIP3   OH2 4145   3.693   4.876   0.226
 1380TIP3    H1 4146   3.620   4.845   0.280
 1380TIP3    H2 4147   3.653   4.943   0.170
 1381TIP3   OH2 4148   4.931   1.301   4.486
 1381TIP3    H1 4149   4.845   1.328   4.454
 1381TIP3    H2 4150   4.953   1.366   4.553
 1382TIP3   OH2 4151   3.101   4.052   2.965
 1382TIP3    H1 4152   3.148   4.122   3.012
 1382TIP3    H2 4153   3.100   3.979   3.026
 1383TIP3   OH2 4154   1.732   4.736   2.486
 1383TIP3    H1 4155   1.786   4.796   2.433
 1383TIP3    H2 4156   1.775   4.651   2.477
 1384TIP3   OH2 4157   5.591   5.206   0.756
 1384TIP3    H1 4158   5.656   5.229   0.823
 1384TIP3    H2 4159   5.575   5.113   0.770
 1385TIP3   OH2 4160   4.448   5.456   1.089
 1385TIP3    H1 4161   4.411   5.511   1.020
 1385TIP3    H2 4162   4.530   5.423   1.053
 1386TIP3   OH2 4163   3.622   0.944   3.154
 1386TIP3    H1 4164   3.541   0.959   3.204
 1386TIP3    H2 4165   3.692   0.956   3.218
 1387TIP3   OH2 4166   0.627   3.071   1.432
 1387TIP3    H1 4167   0.628   3.103   1.522
 1387TIP3    H2 4168   0.704   3.015   1.424
 1388TIP3   OH2 4169   1.880   0.679   4.851
 1388TIP3    H1 4170   1.860   0.591   4.885
 1388TIP3    H2 4171   1.801   0.704   4.803
 1389TIP3   OH2 4172   2.547   1.147   3.239
 1389TIP3    H1 4173   2.452   1.155   3.242
 1389TIP3    H2 4174   2.577   1.189   3.320
 1390TIP3   OH2 4175   5.578   4.067   2.231
 1390TIP3    H1 4176   5.627   4.136   2.187
 1390TIP3    H2 4177   5.537   4.017   2.160
 1391TIP3   OH2 4178   4.849   2.471   0.514
 1391TIP3    H1 4179   4.772   2.464   0.570
 1391TIP3    H2 4180   4.911   2.524   0.564
 1392TIP3   OH2 4181   0.743   3.664   3.371
 1392TIP3    H1 4182   0.824   3.714   3.380
 1392TIP3    H2 4183   0.771   3.572   3.374
 1393TIP3   OH2 4184   3.079   2.023   0.507
 1393TIP3    H1 4185   3.130   2.041   0.586
 1393TIP3    H2 4186   2.997   2.072   0.521
 1394TIP3   OH2 4187   4.769   0.146   3.266
 1394TIP3    H1 4188   4.716   0.124   3.343
 1394TIP3    H2 4189   4.745   0.236   3.246
 1395TIP3   OH2 4190   3.345   0.592   1.832
 1395TIP3    H1 4191   3.437   0.585   1.856
 1395TIP3    H2 4192   3.345   0.638   1.748
 1396TIP3   OH2 4193   5.179   5.697   0.973
 1396TIP3    H1 4194   5.229   5.621   1.001
 1396TIP3    H2 4195   5.128   5.722   1.049
 1397TIP3   OH2 4196   4.826   5.921   2.634
 1397TIP3    H1 4197   4.751   5.868   2.608
 1397TIP3    H2 4198   4.903   5.867   2.613
 1398TIP3   OH2 4199   0.332   1.569   0.091
 1398TIP3    H1 4200   0.316   1.476   0.074
 1398TIP3    H2 4201   0.352   1.606   0.005
 1399TIP3   OH2 4202   3.068   5.644   3.997
 1399TIP3    H1 4203   3.022   5.728   3.991
 1399TIP3    H2 4204   3.131   5.656   4.068
 1400TIP3   OH2 4205   4.198   3.435   4.636
 1400TIP3    H1 4206   4.199   3.513   4.692
 1400TIP3    H2 4207   4.290   3.417   4.618
 1401TIP3   OH2 4208   0.847   0.706   0.944
 1401TIP3    H1 4209   0.791   0.662   1.008
 1401TIP3    H2 4210   0.833   0.799   0.961
 1402TIP3   OH2 4211   5.702   4.321   0.338
 1402TIP3    H1 4212   5.751   4.384   0.390
 1402TIP3    H2 4213   5.759   4.301   0.264
 1403TIP3   OH2 4214   0.277   4.963   1.712
 1403TIP3    H1 4215   0.258   4.889   1.654
 1403TIP3    H2 4216   0.367   4.948   1.741
 1404TIP3   OH2 4217   3.776   5.344   4.262
 1404TIP3    H1 4218   3.771   5.420   4.204
 1404TIP3    H2 4219   3.732   5.274   4.214
 1405TIP3   OH2 4220   3.136   2.530   4.470
 1405TIP3    H1 4221   3.159   2.600   4.531
 1405TIP3    H2 4222   3.174   2.451   4.508
 1406TIP3   OH2 4223   3.060   2.490   0.243
 1406TIP3    H1 4224   3.075   2.582   0.223
 1406TIP3    H2 4225   3.145   2.448   0.230
 1407TIP3   OH2 4226   0.945   3.164   3.165
 1407TIP3    H1 4227   0.862   3.212   3.170
 1407TIP3    H2 4228   0.956   3.145   3.072
 1408TIP3   OH2 4229   5.244   3.138   1.993
 1408TIP3    H1 4230   5.251   3.202   1.923
 1408TIP3    H2 4231   5.188   3.069   1.957
 1409TIP3   OH2 4232   1.748   0.157   2.525
 1409TIP3    H1 4233   1.695   0.236   2.541
 1409TIP3    H2 4234   1.720   0.127   2.439
 1410TIP3   OH2 4235   0.416   2.123   1.548
 1410TIP3    H1 4236   0.492   2.173   1.520
 1410TIP3    H2 4237   0.348   2.189   1.564
 1411TIP3   OH2 4238   1.728   0.400   4.839
 1411TIP3    H1 4239   1.682   0.335   4.784
 1411TIP3    H2 4240   1.659   0.437   4.894
 1412TIP3   OH2 4241   3.088   3.786   4.132
 1412TIP3    H1 4242   3.064   3.815   4.044
 1412TIP3    H2 4243   3.107   3.693   4.122
 1413TIP3   OH2 4244   0.649   2.184   3.270
 1413TIP3    H1 4245   0.579   2.225   3.320
 1413TIP3    H2 4246   0.654   2.234   3.189
 1414TIP3   OH2 4247   3.708   2.870   0.069
 1414TIP3    H1 4248   3.779   2.896   0.010
 1414TIP3    H2 4249   3.745   2.799   0.121
 1415TIP3   OH2 4250   6.257   4.684   1.304
 1415TIP3    H1 4251   6.328   4.667   1.242
 1415TIP3    H2 4252   6.179   4.693   1.248
 1416TIP3   OH2 4253   6.091   2.115   3.157
 1416TIP3    H1 4254   6.066   2.134   3.066
 1416TIP3    H2 4255   6.020   2.061   3.191
 1417TIP3   OH2 4256   3.311   3.417   4.501
 1417TIP3    H1 4257   3.293   3.425   4.408
 1417TIP3    H2 4258   3.250   3.351   4.533
 1418TIP3   OH2 4259   2.883   4.090   0.657
 1418TIP3    H1 4260   2.846   4.176   0.638
 1418TIP3    H2 4261   2.833   4.059   0.732
 1419TIP3   OH2 4262   2.397   3.646   3.326
 1419TIP3    H1 4263   2.347   3.593   3.264
 1419TIP3    H2 4264   2.488   3.635   3.300
 1420TIP3   OH2 4265   0.475   2.903   3.715
 1420TIP3    H1 4266   0.444   2.835   3.775
 1420TIP3    H2 4267   0.430   2.885   3.633
 1421TIP3   OH2 4268   1.356   1.035   1.439
 1421TIP3    H1 4269   1.355   1.039   1.535
 1421TIP3    H2 4270   1.339   0.943   1.418
 1422TIP3   OH2 4271   6.101   1.159   1.340
 1422TIP3    H1 4272   6.044   1.178   1.415
 1422TIP3    H2 4273   6.161   1.092   1.373
 1423TIP3   OH2 4274   5.429   0.822   0.622
 1423TIP3    H1 4275   5.363   0.890   0.637
 1423TIP3    H2 4276   5.382   0.751   0.579
 1424TIP3   OH2 4277   2.684   3.833   3.576
 1424TIP3    H1 4278   2.595   3.839   3.541
 1424TIP3    H2 4279   2.671   3.814   3.669
 1425TIP3   OH2 4280   3.355   5.130   2.942
 1425TIP3    H1 4281   3.440   5.135   2.985
 1425TIP3    H2 4282   3.322   5.220   2.942
 1426TIP3   OH2 4283   3.972   3.294   1.918
 1426TIP3    H1 4284   3.926   3.211   1.906
 1426TIP3    H2 4285   4.063   3.274   1.898
 1427TIP3   OH2 4286   5.834   2.658   3.649
 1427TIP3    H1 4287   5.773   2.606   3.702
 1427TIP3    H2 4288   5.856   2.602   3.575
 1428TIP3   OH2 4289   0.705   0.355   3.515
 1428TIP3    H1 4290   0.655   0.388   3.589
 1428TIP3    H2 4291   0.794   0.388   3.529
 1429TIP3   OH2 4292   2.205   2.738   4.447
 1429TIP3    H1 4293   2.160   2.760   4.366
 1429TIP3    H2 4294   2.208   2.820   4.497
 1430TIP3   OH2 4295   1.944   2.198   3.920
 1430TIP3    H1 4296   2.007   2.268   3.931
 1430TIP3    H2 4297   1.966   2.134   3.987
 1431TIP3   OH2 4298   1.357   2.183   2.062
 1431TIP3    H1 4299   1.381   2.139   1.981
 1431TIP3    H2 4300   1.360   2.277   2.040
 1432TIP3   OH2 4301   0.198   5.047   3.379
 1432TIP3    H1 4302   0.161   4.972   3.424
 1432TIP3    H2 4303   0.272   5.012   3.330
 1433TIP3   OH2 4304   2.621   4.128   2.344
 1433TIP3    H1 4305   2.608   4.209   2.395
 1433TIP3    H2 4306   2.549   4.071   2.371
 1434TIP3   OH2 4307   6.100   0.571   3.993
 1434TIP3    H1 4308   6.012   0.532   3.988
 1434TIP3    H2 4309   6.086   0.665   3.983
 1435TIP3   OH2 4310   2.916   4.600   3.712
 1435TIP3    H1 4311   2.872   4.527   3.670
 1435TIP3    H2 4312   2.984   4.560   3.766
 1436TIP3   OH2 4313   5.249   1.757   4.388
 1436TIP3    H1 4314   5.323   1.815   4.407
 1436TIP3    H2 4315   5.258   1.686   4.452
 1437TIP3   OH2 4316   2.711   3.007   3.086
 1437TIP3    H1 4317   2.797   2.966   3.071
 1437TIP3    H2 4318   2.653   2.934   3.108
 1438TIP3   OH2 4319   4.391   1.895   2.719
 1438TIP3    H1 4320   4.424   1.982   2.695
 1438TIP3    H2 4321   4.439   1.835   2.662
 1439TIP3   OH2 4322   5.426   4.893   5.066
 1439TIP3    H1 4323   5.389   4.891   5.155
 1439TIP3    H2 4324   5.427   4.986   5.042
 1440TIP3   OH2 4325   4.399   0.991   0.672
 1440TIP3    H1 4326   4.330   1.034   0.622
 1440TIP3    H2 4327   4.398   1.036   0.757
 1441TIP3   OH2 4328   1.139   2.232   1.811
 1441TIP3    H1 4329   1.123   2.279   1.893
 1441TIP3    H2 4330   1.072   2.164   1.810
 1442TIP3   OH2 4331   4.757   5.481   4.649
 1442TIP3    H1 4332   4.813   5.557   4.637
 1442TIP3    H2 4333   4.817   5.408   4.665
 1443TIP3   OH2 4334   2.325   3.449   1.889
 1443TIP3    H1 4335   2.240   3.445   1.934
 1443TIP3    H2 4336   2.319   3.527   1.835
 1444TIP3   OH2 4337   4.651   3.560   3.174
 1444TIP3    H1 4338   4.690   3.646   3.186
 1444TIP3    H2 4339   4.631   3.555   3.080
 1445TIP3   OH2 4340   0.848   0.764   3.988
 1445TIP3    H1 4341   0.838   0.670   3.974
 1445TIP3    H2 4342   0.764   0.801   3.963
 1446TIP3   OH2 4343   5.771   0.127   2.444
 1446TIP3    H1 4344   5.774   0.134   2.539
 1446TIP3    H2 4345   5.809   0.209   2.412
 1447TIP3   OH2 4346   3.513   5.357   1.059
 1447TIP3    H1 4347   3.468   5.297   1.118
 1447TIP3    H2 4348   3.512   5.441   1.106
 1448TIP3   OH2 4349   1.243   5.106   3.505
 1448TIP3    H1 4350   1.293   5.173   3.552
 1448TIP3    H2 4351   1.202   5.154   3.432
 1449TIP3   OH2 4352   3.541   5.269   2.606
 1449TIP3    H1 4353   3.474   5.202   2.620
 1449TIP3    H2 4354   3.573   5.253   2.517
 1450TIP3   OH2 4355   3.360   1.444   3.647
 1450TIP3    H1 4356   3.274   1.461   3.685
 1450TIP3    H2 4357   3.341   1.391   3.569
 1451TIP3   OH2 4358   1.069   2.826   2.657
 1451TIP3    H1 4359   1.025   2.743   2.673
 1451TIP3    H2 4360   1.023   2.863   2.582
 1452TIP3   OH2 4361   0.692   4.861   2.635
 1452TIP3    H1 4362   0.712   4.799   2.565
 1452TIP3    H2 4363   0.601   4.840   2.660
 1453TIP3   OH2 4364   2.107   1.943   0.804
 1453TIP3    H1 4365   2.047   1.977   0.870
 1453TIP3    H2 4366   2.065   1.863   0.772
 1454TIP3   OH2 4367   0.923   1.730   2.068
 1454TIP3    H1 4368   0.853   1.755   2.008
 1454TIP3    H2 4369   1.000   1.779   2.039
 1455TIP3   OH2 4370   4.677   4.087   0.075
 1455TIP3    H1 4371   4.723   4.128   0.002
 1455TIP3    H2 4372   4.687   3.993   0.060
 1456TIP3   OH2 4373   4.865   3.738   2.939
 1456TIP3    H1 4374   4.845   3.831   2.953
 1456TIP3    H2 4375   4.779   3.696   2.935
 1457TIP3   OH2 4376   0.133   4.497   2.090
 1457TIP3    H1 4377   0.186   4.418   2.090
 1457TIP3    H2 4378   0.196   4.569   2.081
 1458TIP3   OH2 4379   2.308   5.905   1.829
 1458TIP3    H1 4380   2.318   5.815   1.859
 1458TIP3    H2 4381   2.242   5.942   1.888
 1459TIP3   OH2 4382   1.083   2.403   0.130
 1459TIP3    H1 4383   1.035   2.322   0.113
 1459TIP3    H2 4384   1.167   2.390   0.086
 1460TIP3   OH2 4385   6.286   5.632   0.266
 1460TIP3    H1 4386   6.214   5.572   0.283
 1460TIP3    H2 4387   6.246   5.706   0.220
 1461TIP3   OH2 4388   2.967   2.582   4.007
 1461TIP3    H1 4389   2.966   2.492   3.975
 1461TIP3    H2 4390   3.020   2.578   4.087
 1462TIP3   OH2 4391   6.050   5.565   3.520
 1462TIP3    H1 4392   6.026   5.549   3.612
 1462TIP3    H2 4393   6.145   5.548   3.517
 1463TIP3   OH2 4394   0.584   3.922   3.668
 1463TIP3    H1 4395   0.527   3.881   3.733
 1463TIP3    H2 4396   0.657   3.861   3.659
 1464TIP3   OH2 4397   3.221   1.697   5.097
 1464TIP3    H1 4398   3.234   1.766   5.163
 1464TIP3    H2 4399   3.308   1.681   5.060
 1465TIP3   OH2 4400   5.736   5.165   1.442
 1465TIP3    H1 4401   5.798   5.229   1.476
 1465TIP3    H2 4402   5.786   5.083   1.437
 1466TIP3   OH2 4403   0.170   0.787   1.399
 1466TIP3    H1 4404   0.256   0.823   1.421
 1466TIP3    H2 4405   0.178   0.764   1.306
 1467TIP3   OH2 4406   5.893   0.672   3.801
 1467TIP3    H1 4407   5.894   0.591   3.750
 1467TIP3    H2 4408   5.940   0.735   3.745
 1468TIP3   OH2 4409   2.064   5.147   2.075
 1468TIP3    H1 4410   2.055   5.225   2.020
 1468TIP3    H2 4411   2.099   5.181   2.158
 1469TIP3   OH2 4412   2.934   0.678   0.120
 1469TIP3    H1 4413   3.024   0.651   0.138
 1469TIP3    H2 4414   2.889   0.597   0.093
 1470TIP3   OH2 4415   5.261   4.514   4.805
 1470TIP3    H1 4416   5.314   4.549   4.878
 1470TIP3    H2 4417   5.244   4.591   4.750
 1471TIP3   OH2 4418   3.056   4.444   4.604
 1471TIP3    H1 4419   3.005   4.447   4.523
 1471TIP3    H2 4420   3.023   4.367   4.651
 1472TIP3   OH2 4421   3.396   3.985   0.687
 1472TIP3    H1 4422   3.456   4.055   0.660
 1472TIP3    H2 4423   3.322   4.032   0.726
 1473TIP3   OH2 4424   1.915   0.639   1.861
 1473TIP3    H1 4425   1.932   0.622   1.954
 1473TIP3    H2 4426   1.918   0.734   1.853
 1474TIP3   OH2 4427   0.753   3.409   0.021
 1474TIP3    H1 4428   0.730   3.473   0.088
 1474TIP3    H2 4429   0.745   3.324   0.064
 1475TIP3   OH2 4430   2.239   4.668   1.541
 1475TIP3    H1 4431   2.220   4.582   1.503
 1475TIP3    H2 4432   2.329   4.661   1.572
 1476TIP3   OH2 4433   3.031   2.381   1.613
 1476TIP3    H1 4434   3.044   2.467   1.652
 1476TIP3    H2 4435   3.105   2.329   1.644
 1477TIP3   OH2 4436   4.377   1.905   4.146
 1477TIP3    H1 4437   4.369   1.886   4.052
 1477TIP3    H2 4438   4.468   1.884   4.166
 1478TIP3   OH2 4439   3.215   4.540   4.130
 1478TIP3    H1 4440   3.247   4.466   4.181
 1478TIP3    H2 4441   3.148   4.580   4.186
 1479TIP3   OH2 4442   1.141   1.289   4.375
 1479TIP3    H1 4443   1.127   1.378   4.408
 1479TIP3    H2 4444   1.229   1.291   4.338
 1480TIP3   OH2 4445   0.927   3.580   3.904
 1480TIP3    H1 4446   0.982   3.658   3.901
 1480TIP3    H2 4447   0.845   3.610   3.941
 1481TIP3   OH2 4448   4.163   1.694   4.331
 1481TIP3    H1 4449   4.093   1.668   4.271
 1481TIP3    H2 4450   4.149   1.788   4.344
 1482TIP3   OH2 4451   5.535   1.917   3.535
 1482TIP3    H1 4452   5.504   1.917   3.625
 1482TIP3    H2 4453   5.572   2.005   3.522
 1483TIP3   OH2 4454   3.446   5.575   3.260
 1483TIP3    H1 4455   3.427   5.658   3.304
 1483TIP3    H2 4456   3.485   5.520   3.329
 1484TIP3   OH2 4457   4.804   1.789   3.660
 1484TIP3    H1 4458   4.865   1.810   3.731
 1484TIP3    H2 4459   4.821   1.697   3.640
 1485TIP3   OH2 4460   4.827   5.792   0.565
 1485TIP3    H1 4461   4.872   5.755   0.488
 1485TIP3    H2 4462   4.881   5.765   0.639
 1486TIP3   OH2 4463   3.143   3.686   4.502
 1486TIP3    H1 4464   3.049   3.676   4.490
 1486TIP3    H2 4465   3.169   3.611   4.556
 1487TIP3   OH2 4466   3.178   1.270   0.907
 1487TIP3    H1 4467   3.221   1.334   0.851
 1487TIP3    H2 4468   3.229   1.190   0.894
 1488TIP3   OH2 4469   3.105   5.672   4.935
 1488TIP3    H1 4470   3.058   5.696   4.855
 1488TIP3    H2 4471   3.194   5.651   4.906
 1489TIP3   OH2 4472   5.141   1.746   3.619
 1489TIP3    H1 4473   5.224   1.705   3.643
 1489TIP3    H2 4474   5.081   1.672   3.606
 1490TIP3   OH2 4475   4.425   2.258   0.829
 1490TIP3    H1 4476   4.426   2.162   0.822
 1490TIP3    H2 4477   4.332   2.281   0.818
 1491TIP3   OH2 4478   1.033   3.099   2.153
 1491TIP3    H1 4479   0.975   3.055   2.092
 1491TIP3    H2 4480   1.028   3.192   2.128
 1492TIP3   OH2 4481   3.918   3.022   1.888
 1492TIP3    H1 4482   3.878   2.947   1.932
 1492TIP3    H2 4483   3.973   2.983   1.820
 1493TIP3   OH2 4484   5.291   1.213   3.986
 1493TIP3    H1 4485   5.243   1.154   4.044
 1493TIP3    H2 4486   5.373   1.231   4.033
 1494TIP3   OH2 4487   1.855   4.501   4.637
 1494TIP3    H1 4488   1.908   4.421   4.632
 1494TIP3    H2 4489   1.919   4.572   4.641
 1495TIP3   OH2 4490   5.273   3.980   1.528
 1495TIP3    H1 4491   5.286   3.904   1.584
 1495TIP3    H2 4492   5.284   3.947   1.439
 1496TIP3   OH2 4493   4.542   2.999   1.645
 1496TIP3    H1 4494   4.635   3.016   1.661
 1496TIP3    H2 4495   4.496   3.055   1.708
 1497TIP3   OH2 4496   3.055   4.596   2.857
 1497TIP3    H1 4497   3.096   4.513   2.834
 1497TIP3    H2 4498   2.963   4.585   2.831
 1498TIP3   OH2 4499   2.940   5.891   4.008
 1498TIP3    H1 4500   2.890   5.956   4.057
 1498TIP3    H2 4501   3.032   5.916   4.022
 1499TIP3   OH2 4502   2.351   4.803   0.560
 1499TIP3    H1 4503   2.402   4.878   0.528
 1499TIP3    H2 4504   2.261   4.822   0.536
 1500TIP3   OH2 4505   6.202   0.680   4.979
 1500TIP3    H1 4506   6.286   0.694   5.022
 1500TIP3    H2 4507   6.207   0.590   4.946
 1501TIP3   OH2 4508   5.693   5.712   1.906
 1501TIP3    H1 4509   5.679   5.676   1.819
 1501TIP3    H2 4510   5.641   5.793   1.907
 1502TIP3   OH2 4511   3.477   2.952   0.187
 1502TIP3    H1 4512   3.546   2.915   0.131
 1502TIP3    H2 4513   3.454   3.035   0.145
 1503TIP3   OH2 4514   5.308   4.386   1.795
 1503TIP3    H1 4515   5.268   4.307   1.832
 1503TIP3    H2 4516   5.281   4.385   1.703
 1504TIP3   OH2 4517   4.402   0.754   0.995
 1504TIP3    H1 4518   4.471   0.694   1.024
 1504TIP3    H2 4519   4.373   0.719   0.911
 1505TIP3   OH2 4520   0.517   2.254   4.850
 1505TIP3    H1 4521   0.526   2.255   4.945
 1505TIP3    H2 4522   0.547   2.166   4.824
 1506TIP3   OH2 4523   2.395   4.521   1.978
 1506TIP3    H1 4524   2.412   4.605   1.935
 1506TIP3    H2 4525   2.401   4.457   1.907
 1507TIP3   OH2 4526   4.383   1.134   4.759
 1507TIP3    H1 4527   4.305   1.132   4.815
 1507TIP3    H2 4528   4.350   1.115   4.672
 1508TIP3   OH2 4529   4.610   3.634   2.900
 1508TIP3    H1 4530   4.519   3.663   2.889
 1508TIP3    H2 4531   4.640   3.614   2.811
 1509TIP3   OH2 4532   0.529   2.319   2.430
 1509TIP3    H1 4533   0.498   2.317   2.339
 1509TIP3    H2 4534   0.522   2.410   2.457
 1510TIP3   OH2 4535   0.528   3.739   0.690
 1510TIP3    H1 4536   0.536   3.834   0.686
 1510TIP3    H2 4537   0.618   3.708   0.706
 1511TIP3   OH2 4538   6.063   1.506   3.352
 1511TIP3    H1 4539   6.032   1.504   3.262
 1511TIP3    H2 4540   6.061   1.414   3.380
 1512TIP3   OH2 4541   0.364   3.599   1.171
 1512TIP3    H1 4542   0.377   3.679   1.121
 1512TIP3    H2 4543   0.285   3.560   1.133
 1513TIP3   OH2 4544   1.655   3.565   4.387
 1513TIP3    H1 4545   1.662   3.525   4.474
 1513TIP3    H2 4546   1.745   3.567   4.355
 1514TIP3   OH2 4547   5.474   4.378   0.487
 1514TIP3    H1 4548   5.550   4.362   0.431
 1514TIP3    H2 4549   5.401   4.335   0.443
 1515TIP3   OH2 4550   0.946   1.989   1.871
 1515TIP3    H1 4551   0.867   1.979   1.818
 1515TIP3    H2 4552   1.004   1.918   1.843
 1516TIP3   OH2 4553   2.841   4.889   1.764
 1516TIP3    H1 4554   2.879   4.958   1.710
 1516TIP3    H2 4555   2.776   4.933   1.819
 1517TIP3   OH2 4556   5.663   5.286   0.487
 1517TIP3    H1 4557   5.655   5.200   0.446
 1517TIP3    H2 4558   5.629   5.273   0.576
 1518TIP3   OH2 4559   3.245   4.370   0.902
 1518TIP3    H1 4560   3.225   4.421   0.980
 1518TIP3    H2 4561   3.244   4.433   0.830
 1519TIP3   OH2 4562   2.207   1.221   0.696
 1519TIP3    H1 4563   2.207   1.177   0.781
 1519TIP3    H2 4564   2.212   1.150   0.632
 1520TIP3   OH2 4565   0.274   1.564   3.271
 1520TIP3    H1 4566   0.225   1.485   3.249
 1520TIP3    H2 4567   0.366   1.538   3.267
 1521TIP3   OH2 4568   0.175   2.166   1.796
 1521TIP3    H1 4569   0.106   2.201   1.853
 1521TIP3    H2 4570   0.171   2.222   1.718
 1522TIP3   OH2 4571   1.442   0.955   1.034
 1522TIP3    H1 4572   1.397   1.035   1.008
 1522TIP3    H2 4573   1.407   0.888   0.976
 1523TIP3   OH2 4574   4.339   3.374   3.859
 1523TIP3    H1 4575   4.394   3.358   3.936
 1523TIP3    H2 4576   4.389   3.340   3.786
 1524TIP3   OH2 4577   5.453   0.021   0.855
 1524TIP3    H1 4578   5.441  -0.012   0.944
 1524TIP3    H2 4579   5.365   0.041   0.824
 1525TIP3   OH2 4580   0.710   3.276   4.677
 1525TIP3    H1 4581   0.705   3.370   4.693
 1525TIP3    H2 4582   0.622   3.252   4.646
 1526TIP3   OH2 4583   4.840   3.021   1.669
 1526TIP3    H1 4584   4.836   3.026   1.764
 1526TIP3    H2 4585   4.932   3.035   1.648
 1527TIP3   OH2 4586   4.357   0.433   3.140
 1527TIP3    H1 4587   4.345   0.523   3.172
 1527TIP3    H2 4588   4.286   0.384   3.180
 1528TIP3   OH2 4589   5.090   2.968   0.808
 1528TIP3    H1 4590   5.042   3.044   0.840
 1528TIP3    H2 4591   5.118   2.922   0.888
 1529TIP3   OH2 4592   1.004   0.026   2.306
 1529TIP3    H1 4593   1.040   0.072   2.231
 1529TIP3    H2 4594   1.013  -0.067   2.284
 1530TIP3   OH2 4595   1.071   1.422   0.311
 1530TIP3    H1 4596   1.155   1.378   0.328
 1530TIP3    H2 4597   1.038   1.379   0.232
 1531TIP3   OH2 4598   6.273   4.400   3.791
 1531TIP3    H1 4599   6.358   4.438   3.813
 1531TIP3    H2 4600   6.293   4.311   3.761
 1532TIP3   OH2 4601   3.320   5.056   4.866
 1532TIP3    H1 4602   3.279   4.973   4.841
 1532TIP3    H2 4603   3.346   5.096   4.783
 1533TIP3   OH2 4604   5.895   2.004   2.643
 1533TIP3    H1 4605   5.822   1.996   2.703
 1533TIP3    H2 4606   5.893   1.924   2.591
 1534TIP3   OH2 4607   2.186   2.325   3.670
 1534TIP3    H1 4608   2.186   2.329   3.765
 1534TIP3    H2 4609   2.124   2.392   3.642
 1535TIP3   OH2 4610   0.315   1.300   3.027
 1535TIP3    H1 4611   0.238   1.340   3.066
 1535TIP3    H2 4612   0.388   1.332   3.080
 1536TIP3   OH2 4613   4.816   3.654   1.203
 1536TIP3    H1 4614   4.881   3.693   1.262
 1536TIP3    H2 4615   4.829   3.559   1.214
 1537TIP3   OH2 4616   3.238   1.054   3.224
 1537TIP3    H1 4617   3.185   1.095   3.156
 1537TIP3    H2 4618   3.175   1.030   3.292
 1538TIP3   OH2 4619   1.339   4.659   0.404
 1538TIP3    H1 4620   1.286   4.593   0.449
 1538TIP3    H2 4621   1.394   4.609   0.344
 1539TIP3   OH2 4622   3.983   3.883   3.361
 1539TIP3    H1 4623   4.020   3.894   3.448
 1539TIP3    H2 4624   3.940   3.967   3.343
 1540TIP3   OH2 4625   2.644   5.364   4.660
 1540TIP3    H1 4626   2.724   5.346   4.611
 1540TIP3    H2 4627   2.579   5.386   4.593
 1541TIP3   OH2 4628   6.227   1.392   0.129
 1541TIP3    H1 4629   6.301   1.340   0.101
 1541TIP3    H2 4630   6.260   1.482   0.131
 1542TIP3   OH2 4631   3.036   5.365   1.977
 1542TIP3    H1 4632   3.113   5.352   2.032
 1542TIP3    H2 4633   3.068   5.357   1.888
 1543TIP3   OH2 4634   0.474   0.536   0.918
 1543TIP3    H1 4635   0.502   0.484   0.993
 1543TIP3    H2 4636   0.463   0.625   0.952
 1544TIP3   OH2 4637   5.218   3.123   3.504
 1544TIP3    H1 4638   5.296   3.166   3.469
 1544TIP3    H2 4639   5.213   3.152   3.595
 1545TIP3   OH2 4640   0.874   4.227   4.074
 1545TIP3    H1 4641   0.881   4.283   4.151
 1545TIP3    H2 4642   0.931   4.152   4.094
 1546TIP3   OH2 4643   5.630   5.126   4.464
 1546TIP3    H1 4644   5.623   5.221   4.453
 1546TIP3    H2 4645   5.546   5.091   4.432
 1547TIP3   OH2 4646   3.661   1.678   1.267
 1547TIP3    H1 4647   3.680   1.701   1.357
 1547TIP3    H2 4648   3.593   1.611   1.273
 1548TIP3   OH2 4649   2.426   2.557   1.909
 1548TIP3    H1 4650   2.425   2.489   1.976
 1548TIP3    H2 4651   2.402   2.637   1.956
 1549TIP3   OH2 4652   0.265   1.038   2.561
 1549TIP3    H1 4653   0.234   0.985   2.487
 1549TIP3    H2 4654   0.308   0.975   2.619
 1550TIP3   OH2 4655   1.855   5.916   2.498
 1550TIP3    H1 4656   1.862   5.882   2.408
 1550TIP3    H2 4657   1.910   5.857   2.550
 1551TIP3   OH2 4658   3.919   2.110   0.305
 1551TIP3    H1 4659   3.858   2.172   0.345
 1551TIP3    H2 4660   3.988   2.165   0.267
 1552TIP3   OH2 4661   4.886   0.055   4.194
 1552TIP3    H1 4662   4.887   0.144   4.231
 1552TIP3    H2 4663   4.862  -0.001   4.268
 1553TIP3   OH2 4664   2.414   5.367   2.595
 1553TIP3    H1 4665   2.410   5.353   2.689
 1553TIP3    H2 4666   2.390   5.283   2.557
 1554TIP3   OH2 4667   4.526   5.948   0.786
 1554TIP3    H1 4668   4.477   5.873   0.751
 1554TIP3    H2 4669   4.572   5.913   0.862
 1555TIP3   OH2 4670   1.009   1.358   4.985
 1555TIP3    H1 4671   1.077   1.300   5.021
 1555TIP3    H2 4672   1.057   1.434   4.954
 1556TIP3   OH2 4673   1.989   3.697   5.115
 1556TIP3    H1 4674   1.903   3.681   5.076
 1556TIP3    H2 4675   1.973   3.758   5.187
 1557TIP3   OH2 4676   2.227   3.311   1.574
 1557TIP3    H1 4677   2.318   3.299   1.602
 1557TIP3    H2 4678   2.233   3.332   1.481
 1558TIP3   OH2 4679   2.922   1.276   1.571
 1558TIP3    H1 4680   2.976   1.320   1.505
 1558TIP3    H2 4681   2.852   1.234   1.521
 1559TIP3   OH2 4682   5.374   3.191   0.008
 1559TIP3    H1 4683   5.404   3.277   0.038
 1559TIP3    H2 4684   5.408   3.130   0.073
 1560TIP3   OH2 4685   6.188   2.914   4.093
 1560TIP3    H1 4686   6.276   2.944   4.073
 1560TIP3    H2 4687   6.178   2.834   4.042
 1561TIP3   OH2 4688   0.916   2.902   2.436
 1561TIP3    H1 4689   0.906   2.997   2.436
 1561TIP3    H2 4690   0.965   2.883   2.356
 1562TIP3   OH2 4691   4.334   0.705   3.611
 1562TIP3    H1 4692   4.264   0.673   3.668
 1562TIP3    H2 4693   4.365   0.784   3.654
 1563TIP3   OH2 4694   5.427   0.260   1.110
 1563TIP3    H1 4695   5.520   0.280   1.103
 1563TIP3    H2 4696   5.424   0.169   1.141
 1564TIP3   OH2 4697   4.855   5.670   1.004
 1564TIP3    H1 4698   4.904   5.665   0.922
 1564TIP3    H2 4699   4.920   5.698   1.069
 1565TIP3   OH2 4700   1.575   4.505   2.304
 1565TIP3    H1 4701   1.661   4.523   2.268
 1565TIP3    H2 4702   1.565   4.568   2.375
 1566TIP3   OH2 4703   3.943   0.523   1.478
 1566TIP3    H1 4704   3.971   0.597   1.532
 1566TIP3    H2 4705   3.891   0.563   1.408
 1567TIP3   OH2 4706   3.008   1.846   0.768
 1567TIP3    H1 4707   2.926   1.851   0.718
 1567TIP3    H2 4708   3.014   1.932   0.810
 1568TIP3   OH2 4709   3.864   1.471   3.732
 1568TIP3    H1 4710   3.773   1.457   3.707
 1568TIP3    H2 4711   3.860   1.539   3.799
 1569TIP3   OH2 4712   3.164   2.777   4.694
 1569TIP3    H1 4713   3.076   2.798   4.661
 1569TIP3    H2 4714   3.222   2.834   4.645
 1570TIP3   OH2 4715   0.587   4.940   4.547
 1570TIP3    H1 4716   0.515   4.891   4.506
 1570TIP3    H2 4717   0.564   5.032   4.533
 1571TIP3   OH2 4718   0.337   5.626   4.635
 1571TIP3    H1 4719   0.432   5.632   4.645
 1571TIP3    H2 4720   0.314   5.703   4.583
 1572TIP3   OH2 4721   3.634   4.714   3.353
 1572TIP3    H1 4722   3.613   4.737   3.444
 1572TIP3    H2 4723   3.549   4.705   3.310
 1573TIP3   OH2 4724   4.356   5.568   2.434
 1573TIP3    H1 4725   4.399   5.539   2.514
 1573TIP3    H2 4726   4.316   5.652   2.457
 1574TIP3   OH2 4727   4.877   5.823   4.858
 1574TIP3    H1 4728   4.782   5.830   4.864
 1574TIP3    H2 4729   4.897   5.734   4.889
 1575TIP3   OH2 4730   0.125   3.723   2.565
 1575TIP3    H1 4731   0.092   3.811   2.545
 1575TIP3    H2 4732   0.168   3.695   2.484
 1576TIP3   OH2 4733   4.368   4.158   0.082
 1576TIP3    H1 4734   4.322   4.205   0.013
 1576TIP3    H2 4735   4.310   4.085   0.104
 1577TIP3   OH2 4736   3.215   5.373   1.402
 1577TIP3    H1 4737   3.300   5.340   1.371
 1577TIP3    H2 4738   3.171   5.296   1.437
 1578TIP3   OH2 4739   0.267   5.155   4.782
 1578TIP3    H1 4740   0.230   5.087   4.726
 1578TIP3    H2 4741   0.280   5.230   4.724
 1579TIP3   OH2 4742   5.896   3.059   4.048
 1579TIP3    H1 4743   5.834   3.126   4.018
 1579TIP3    H2 4744   5.879   3.051   4.142
 1580TIP3   OH2 4745   2.558   2.662   3.925
 1580TIP3    H1 4746   2.607   2.744   3.933
 1580TIP3    H2 4747   2.510   2.655   4.008
 1581TIP3   OH2 4748   5.116   1.875   1.828
 1581TIP3    H1 4749   5.155   1.793   1.799
 1581TIP3    H2 4750   5.180   1.942   1.804
 1582TIP3   OH2 4751   5.923   2.931   1.803
 1582TIP3    H1 4752   5.852   2.971   1.752
 1582TIP3    H2 4753   5.993   2.917   1.739
 1583TIP3   OH2 4754   5.638   3.622   1.439
 1583TIP3    H1 4755   5.669   3.654   1.354
 1583TIP3    H2 4756   5.713   3.634   1.498
 1584TIP3   OH2 4757   6.180   1.775   4.947
 1584TIP3    H1 4758   6.269   1.804   4.966
 1584TIP3    H2 4759   6.191   1.685   4.916
 1585TIP3   OH2 4760   0.088   1.779   2.636
 1585TIP3    H1 4761   0.118   1.696   2.598
 1585TIP3    H2 4762  -0.006   1.765   2.651
 1586TIP3   OH2 4763   5.757   2.114   0.245
 1586TIP3    H1 4764   5.665   2.087   0.238
 1586TIP3    H2 4765   5.798   2.080   0.166
 1587TIP3   OH2 4766   3.614   4.073   1.749
 1587TIP3    H1 4767   3.640   4.159   1.716
 1587TIP3    H2 4768   3.576   4.091   1.835
 1588TIP3   OH2 4769   4.269   5.865   2.894
 1588TIP3    H1 4770   4.237   5.789   2.845
 1588TIP3    H2 4771   4.342   5.898   2.841
 1589TIP3   OH2 4772   2.065   2.469   4.478
 1589TIP3    H1 4773   2.117   2.549   4.487
 1589TIP3    H2 4774   2.045   2.444   4.568
 1590TIP3   OH2 4775   3.177   5.138   0.318
 1590TIP3    H1 4776   3.271   5.127   0.306
 1590TIP3    H2 4777   3.160   5.230   0.294
 1591TIP3   OH2 4778   6.249   5.431   2.942
 1591TIP3    H1 4779   6.211   5.477   3.016
 1591TIP3    H2 4780   6.338   5.410   2.970
 1592TIP3   OH2 4781   5.933   3.155   3.701
 1592TIP3    H1 4782   6.000   3.098   3.739
 1592TIP3    H2 4783   5.981   3.211   3.640
 1593TIP3   OH2 4784   6.328   1.674   4.424
 1593TIP3    H1 4785   6.367   1.601   4.472
 1593TIP3    H2 4786   6.234   1.656   4.425
 1594TIP3   OH2 4787   5.906   3.915   1.636
 1594TIP3    H1 4788   5.890   3.960   1.719
 1594TIP3    H2 4789   6.000   3.897   1.636
 1595TIP3   OH2 4790   3.007   0.700   3.680
 1595TIP3    H1 4791   2.948   0.763   3.637
 1595TIP3    H2 4792   3.075   0.755   3.719
 1596TIP3   OH2 4793   0.769   0.463   0.105
 1596TIP3    H1 4794   0.687   0.430   0.143
 1596TIP3    H2 4795   0.838   0.423   0.158
 1597TIP3   OH2 4796   2.248   0.644   1.278
 1597TIP3    H1 4797   2.337   0.650   1.313
 1597TIP3    H2 4798   2.260   0.633   1.184
 1598TIP3   OH2 4799   0.654   4.058   1.300
 1598TIP3    H1 4800   0.626   4.149   1.295
 1598TIP3    H2 4801   0.657   4.039   1.394
 1599TIP3   OH2 4802   1.880   0.015   4.110
 1599TIP3    H1 4803   1.919   0.102   4.110
 1599TIP3    H2 4804   1.953  -0.045   4.127
 1600TIP3   OH2 4805   4.579   1.410   0.537
 1600TIP3    H1 4806   4.633   1.414   0.458
 1600TIP3    H2 4807   4.583   1.499   0.572
 1601TIP3   OH2 4808   1.061   0.238   1.506
 1601TIP3    H1 4809   1.100   0.234   1.593
 1601TIP3    H2 4810   1.000   0.311   1.510
 1602TIP3   OH2 4811   2.449   3.490   0.180
 1602TIP3    H1 4812   2.434   3.429   0.108
 1602TIP3    H2 4813   2.362   3.520   0.206
 1603TIP3   OH2 4814   3.550   5.165   2.064
 1603TIP3    H1 4815   3.497   5.122   2.131
 1603TIP3    H2 4816   3.637   5.125   2.073
 1604TIP3   OH2 4817   3.356   2.356   3.816
 1604TIP3    H1 4818   3.302   2.279   3.835
 1604TIP3    H2 4819   3.444   2.331   3.845
 1605TIP3   OH2 4820   3.621   5.169   4.990
 1605TIP3    H1 4821   3.709   5.177   4.953
 1605TIP3    H2 4822   3.582   5.094   4.945
 1606TIP3   OH2 4823   0.817   3.622   0.234
 1606TIP3    H1 4824   0.721   3.624   0.234
 1606TIP3    H2 4825   0.840   3.576   0.314
 1607TIP3   OH2 4826   1.922   0.358   0.308
 1607TIP3    H1 4827   1.900   0.428   0.247
 1607TIP3    H2 4828   1.908   0.396   0.395
 1608TIP3   OH2 4829   5.101   1.569   4.233
 1608TIP3    H1 4830   5.156   1.614   4.297
 1608TIP3    H2 4831   5.153   1.567   4.153
 1609TIP3   OH2 4832   5.651   2.953   4.640
 1609TIP3    H1 4833   5.602   3.023   4.684
 1609TIP3    H2 4834   5.672   2.891   4.709
 1610TIP3   OH2 4835   5.985   1.158   1.601
 1610TIP3    H1 4836   6.002   1.090   1.666
 1610TIP3    H2 4837   5.978   1.239   1.652
 1611TIP3   OH2 4838   1.033   2.551   0.630
 1611TIP3    H1 4839   1.055   2.501   0.708
 1611TIP3    H2 4840   1.076   2.503   0.558
 1612TIP3   OH2 4841   5.449   2.412   1.828
 1612TIP3    H1 4842   5.374   2.395   1.884
 1612TIP3    H2 4843   5.472   2.504   1.845
 1613TIP3   OH2 4844   4.949   3.404   0.690
 1613TIP3    H1 4845   4.976   3.461   0.618
 1613TIP3    H2 4846   4.988   3.444   0.768
 1614TIP3   OH2 4847   6.155   5.645   2.107
 1614TIP3    H1 4848   6.169   5.576   2.171
 1614TIP3    H2 4849   6.132   5.599   2.026
 1615TIP3   OH2 4850  -0.001   0.756   2.838
 1615TIP3    H1 4851   0.072   0.768   2.778
 1615TIP3    H2 4852   0.011   0.823   2.905
 1616TIP3   OH2 4853   4.626   0.860   1.775
 1616TIP3    H1 4854   4.544   0.809   1.777
 1616TIP3    H2 4855   4.689   0.805   1.822
 1617TIP3   OH2 4856   0.040   1.545   2.175
 1617TIP3    H1 4857   0.018   1.623   2.124
 1617TIP3    H2 4858  -0.010   1.474   2.134
 1618TIP3   OH2 4859   6.063   1.731   3.993
 1618TIP3    H1 4860   6.107   1.724   4.077
 1618TIP3    H2 4861   5.984   1.781   4.011
 1619TIP3   OH2 4862   4.117   3.784   5.067
 1619TIP3    H1 4863   4.187   3.843   5.039
 1619TIP3    H2 4864   4.162   3.706   5.099
 1620TIP3   OH2 4865   0.411   2.971   4.313
 1620TIP3    H1 4866   0.478   2.918   4.357
 1620TIP3    H2 4867   0.328   2.941   4.350
 1621TIP3   OH2 4868   3.083   1.846   4.913
 1621TIP3    H1 4869   3.144   1.856   4.840
 1621TIP3    H2 4870   3.131   1.796   4.978
 1622TIP3   OH2 4871   5.753   0.267   3.375
 1622TIP3    H1 4872   5.810   0.344   3.368
 1622TIP3    H2 4873   5.801   0.207   3.432
 1623TIP3   OH2 4874   5.852   5.843   2.137
 1623TIP3    H1 4875   5.788   5.855   2.067
 1623TIP3    H2 4876   5.937   5.860   2.096
 1624TIP3   OH2 4877   2.398   1.470   3.093
 1624TIP3    H1 4878   2.321   1.526   3.079
 1624TIP3    H2 4879   2.413   1.430   3.007
 1625TIP3   OH2 4880   0.758   3.347   4.203
 1625TIP3    H1 4881   0.698   3.345   4.129
 1625TIP3    H2 4882   0.809   3.267   4.195
 1626TIP3   OH2 4883   5.418   0.507   3.356
 1626TIP3    H1 4884   5.389   0.588   3.398
 1626TIP3    H2 4885   5.342   0.477   3.306
 1627TIP3   OH2 4886   3.987   4.621   3.423
 1627TIP3    H1 4887   3.993   4.660   3.511
 1627TIP3    H2 4888   4.016   4.691   3.364
 1628TIP3   OH2 4889   6.245   2.905   1.509
 1628TIP3    H1 4890   6.295   2.851   1.448
 1628TIP3    H2 4891   6.156   2.905   1.473
 1629TIP3   OH2 4892   3.509   3.795   3.640
 1629TIP3    H1 4893   3.556   3.713   3.654
 1629TIP3    H2 4894   3.577   3.862   3.646
 1630TIP3   OH2 4895   1.891   1.827   1.919
 1630TIP3    H1 4896   1.986   1.837   1.931
 1630TIP3    H2 4897   1.872   1.738   1.947
 1631TIP3   OH2 4898   0.379   3.089   3.190
 1631TIP3    H1 4899   0.390   3.128   3.277
 1631TIP3    H2 4900   0.314   3.020   3.203
 1632TIP3   OH2 4901   2.965   4.767   0.261
 1632TIP3    H1 4902   3.026   4.726   0.199
 1632TIP3    H2 4903   2.902   4.698   0.281
 1633TIP3   OH2 4904   1.679   4.682   1.138
 1633TIP3    H1 4905   1.722   4.605   1.173
 1633TIP3    H2 4906   1.688   4.748   1.206
 1634TIP3   OH2 4907   6.304   1.310   4.409
 1634TIP3    H1 4908   6.324   1.291   4.501
 1634TIP3    H2 4909   6.220   1.356   4.412
 1635TIP3   OH2 4910   0.726   3.067   3.991
 1635TIP3    H1 4911   0.802   3.095   4.042
 1635TIP3    H2 4912   0.741   3.105   3.905
 1636TIP3   OH2 4913   6.264   2.937   1.904
 1636TIP3    H1 4914   6.258   3.032   1.895
 1636TIP3    H2 4915   6.178   2.910   1.935
 1637TIP3   OH2 4916   4.469   3.014   1.956
 1637TIP3    H1 4917   4.530   3.052   2.019
 1637TIP3    H2 4918   4.459   2.923   1.985
 1638TIP3   OH2 4919   2.787   0.651   4.704
 1638TIP3    H1 4920   2.745   0.736   4.696
 1638TIP3    H2 4921   2.722   0.589   4.670
 1639TIP3   OH2 4922   0.946   3.162   4.140
 1639TIP3    H1 4923   1.038   3.174   4.164
 1639TIP3    H2 4924   0.921   3.079   4.182
 1640TIP3   OH2 4925   0.779   3.559   3.665
 1640TIP3    H1 4926   0.788   3.652   3.642
 1640TIP3    H2 4927   0.848   3.545   3.730
 1641TIP3   OH2 4928   5.217   5.328   2.774
 1641TIP3    H1 4929   5.154   5.334   2.702
 1641TIP3    H2 4930   5.254   5.240   2.767
 1642TIP3   OH2 4931   4.156   0.921   4.266
 1642TIP3    H1 4932   4.063   0.936   4.284
 1642TIP3    H2 4933   4.175   0.837   4.308
 1643TIP3   OH2 4934   3.984   1.883   3.490
 1643TIP3    H1 4935   4.012   1.949   3.555
 1643TIP3    H2 4936   3.947   1.934   3.418
 1644TIP3   OH2 4937   3.365   5.719   3.687
 1644TIP3    H1 4938   3.395   5.732   3.597
 1644TIP3    H2 4939   3.445   5.722   3.740
 1645TIP3   OH2 4940   5.030   5.865   4.205
 1645TIP3    H1 4941   5.111   5.823   4.235
 1645TIP3    H2 4942   5.000   5.811   4.132
 1646TIP3   OH2 4943   3.435   2.278   2.251
 1646TIP3    H1 4944   3.349   2.254   2.285
 1646TIP3    H2 4945   3.472   2.196   2.219
 1647TIP3   OH2 4946   6.243   4.635   0.170
 1647TIP3    H1 4947   6.219   4.544   0.155
 1647TIP3    H2 4948   6.176   4.669   0.229
 1648TIP3   OH2 4949   0.801   5.788   0.247
 1648TIP3    H1 4950   0.854   5.805   0.169
 1648TIP3    H2 4951   0.716   5.828   0.227
 1649TIP3   OH2 4952   4.188   1.636   1.632
 1649TIP3    H1 4953   4.219   1.674   1.714
 1649TIP3    H2 4954   4.101   1.602   1.653
 1650TIP3   OH2 4955   1.166   0.155   1.283
 1650TIP3    H1 4956   1.117   0.174   1.364
 1650TIP3    H2 4957   1.199   0.240   1.255
 1651TIP3   OH2 4958   2.607   3.465   3.590
 1651TIP3    H1 4959   2.677   3.486   3.527
 1651TIP3    H2 4960   2.567   3.385   3.556
 1652TIP3   OH2 4961   5.670   1.541   0.453
 1652TIP3    H1 4962   5.634   1.625   0.482
 1652TIP3    H2 4963   5.598   1.499   0.406
 1653TIP3   OH2 4964   1.481   2.958   1.955
 1653TIP3    H1 4965   1.554   2.969   2.016
 1653TIP3    H2 4966   1.403   2.970   2.009
 1654TIP3   OH2 4967   4.381   0.026   0.777
 1654TIP3    H1 4968   4.410   0.084   0.847
 1654TIP3    H2 4969   4.389  -0.062   0.813
 1655TIP3   OH2 4970   0.972   0.895   0.529
 1655TIP3    H1 4971   0.898   0.889   0.589
 1655TIP3    H2 4972   0.995   0.804   0.510
 1656TIP3   OH2 4973   1.953   1.348   1.647
 1656TIP3    H1 4974   2.024   1.306   1.597
 1656TIP3    H2 4975   1.937   1.287   1.719
 1657TIP3   OH2 4976   2.781   1.923   3.018
 1657TIP3    H1 4977   2.762   1.925   3.111
 1657TIP3    H2 4978   2.711   1.870   2.979
 1658TIP3   OH2 4979   2.575   1.740   1.041
 1658TIP3    H1 4980   2.618   1.682   0.979
 1658TIP3    H2 4981   2.549   1.683   1.114
 1659TIP3   OH2 4982   2.699   3.260   4.578
 1659TIP3    H1 4983   2.766   3.306   4.629
 1659TIP3    H2 4984   2.709   3.168   4.603
 1660TIP3   OH2 4985   3.454   3.767   2.655
 1660TIP3    H1 4986   3.379   3.813   2.618
 1660TIP3    H2 4987   3.530   3.808   2.613
 1661TIP3   OH2 4988   1.856   2.031   4.661
 1661TIP3    H1 4989   1.883   2.027   4.753
 1661TIP3    H2 4990   1.784   1.969   4.655
 1662TIP3   OH2 4991   4.939   5.114   4.097
 1662TIP3    H1 4992   4.966   5.204   4.078
 1662TIP3    H2 4993   4.895   5.119   4.182
 1663TIP3   OH2 4994   2.795   5.812   3.768
 1663TIP3    H1 4995   2.855   5.747   3.731
 1663TIP3    H2 4996   2.841   5.848   3.844
 1664TIP3   OH2 4997   0.718   4.542   1.328
 1664TIP3    H1 4998   0.788   4.539   1.263
 1664TIP3    H2 4999   0.697   4.635   1.337
 1665TIP3   OH2 5000   2.451   3.450   2.141
 1665TIP3    H1 5001   2.428   3.460   2.049
 1665TIP3    H2 5002   2.369   3.464   2.188
 1666TIP3   OH2 5003   6.074   3.018   2.230
 1666TIP3    H1 5004   5.981   3.005   2.212
 1666TIP3    H2 5005   6.107   3.067   2.155
 1667TIP3   OH2 5006   3.052   3.139   0.595
 1667TIP3    H1 5007   2.984   3.188   0.549
 1667TIP3    H2 5008   3.031   3.151   0.688
 1668TIP3   OH2 5009   1.854   1.392   4.947
 1668TIP3    H1 5010   1.791   1.320   4.954
 1668TIP3    H2 5011   1.878   1.394   4.855
 1669TIP3   OH2 5012   2.216   0.232   0.800
 1669TIP3    H1 5013   2.245   0.298   0.863
 1669TIP3    H2 5014   2.297   0.191   0.769
 1670TIP3   OH2 5015   3.510   1.865   0.444
 1670TIP3    H1 5016   3.510   1.947   0.493
 1670TIP3    H2 5017   3.423   1.859   0.405
 1671TIP3   OH2 5018   4.308   0.391   1.119
 1671TIP3    H1 5019   4.254   0.469   1.134
 1671TIP3    H2 5020   4.394   0.415   1.151
 1672TIP3   OH2 5021   5.716   0.538   5.104
 1672TIP3    H1 5022   5.731   0.628   5.074
 1672TIP3    H2 5023   5.664   0.548   5.184
 1673TIP3   OH2 5024   6.185   1.899   1.781
 1673TIP3    H1 5025   6.277   1.888   1.805
 1673TIP3    H2 5026   6.140   1.914   1.864
 1674TIP3   OH2 5027   1.733   2.780   1.387
 1674TIP3    H1 5028   1.797   2.719   1.350
 1674TIP3    H2 5029   1.755   2.865   1.348
 1675TIP3   OH2 5030   1.919   5.334   2.440
 1675TIP3    H1 5031   2.006   5.372   2.434
 1675TIP3    H2 5032   1.908   5.284   2.359
 1676TIP3   OH2 5033   4.982   5.261   1.324
 1676TIP3    H1 5034   4.967   5.170   1.349
 1676TIP3    H2 5035   5.049   5.292   1.385
 1677TIP3   OH2 5036   4.418   5.976   3.914
 1677TIP3    H1 5037   4.491   5.934   3.870
 1677TIP3    H2 5038   4.340   5.933   3.878
 1678TIP3   OH2 5039   3.289   1.076   0.100
 1678TIP3    H1 5040   3.215   1.040   0.052
 1678TIP3    H2 5041   3.359   1.011   0.089
 1679TIP3   OH2 5042   3.023   1.004   2.543
 1679TIP3    H1 5043   2.971   1.081   2.567
 1679TIP3    H2 5044   3.112   1.027   2.570
 1680TIP3   OH2 5045   0.666   4.369   0.622
 1680TIP3    H1 5046   0.659   4.311   0.547
 1680TIP3    H2 5047   0.741   4.425   0.602
 1681TIP3   OH2 5048   0.778   3.252   1.594
 1681TIP3    H1 5049   0.736   3.250   1.680
 1681TIP3    H2 5050   0.827   3.334   1.595
 1682TIP3   OH2 5051   6.360   2.199   4.408
 1682TIP3    H1 5052   6.359   2.106   4.384
 1682TIP3    H2 5053   6.297   2.239   4.348
 1683TIP3   OH2 5054   5.220   3.166   2.399
 1683TIP3    H1 5055   5.261   3.223   2.334
 1683TIP3    H2 5056   5.258   3.193   2.483
 1684TIP3   OH2 5057   5.220   5.166   2.498
 1684TIP3    H1 5058   5.283   5.235   2.520
 1684TIP3    H2 5059   5.244   5.092   2.555
 1685TIP3   OH2 5060   2.769   0.585   0.892
 1685TIP3    H1 5061   2.725   0.535   0.960
 1685TIP3    H2 5062   2.854   0.607   0.930
 1686TIP3   OH2 5063   0.517   0.180   3.040
 1686TIP3    H1 5064   0.435   0.220   3.012
 1686TIP3    H2 5065   0.519   0.096   2.995
 1687TIP3   OH2 5066   1.209   5.295   4.596
 1687TIP3    H1 5067   1.294   5.287   4.640
 1687TIP3    H2 5068   1.230   5.287   4.503
 1688TIP3   OH2 5069   2.509   1.310   0.928
 1688TIP3    H1 5070   2.565   1.385   0.908
 1688TIP3    H2 5071   2.508   1.258   0.847
 1689TIP3   OH2 5072   5.234   2.295   3.085
 1689TIP3    H1 5073   5.154   2.294   3.137
 1689TIP3    H2 5074   5.303   2.312   3.149
 1690TIP3   OH2 5075   2.109   0.894   0.170
 1690TIP3    H1 5076   2.047   0.838   0.216
 1690TIP3    H2 5077   2.186   0.897   0.226
 1691TIP3   OH2 5078   5.389   1.746   1.880
 1691TIP3    H1 5079   5.463   1.805   1.867
 1691TIP3    H2 5080   5.424   1.659   1.860
 1692TIP3   OH2 5081   1.505   2.456   1.347
 1692TIP3    H1 5082   1.597   2.431   1.356
 1692TIP3    H2 5083   1.465   2.430   1.430
 1693TIP3   OH2 5084   0.755   2.600   5.012
 1693TIP3    H1 5085   0.827   2.549   5.048
 1693TIP3    H2 5086   0.687   2.596   5.080
 1694TIP3   OH2 5087   4.137   4.452   4.945
 1694TIP3    H1 5088   4.197   4.519   4.977
 1694TIP3    H2 5089   4.154   4.446   4.852
 1695TIP3   OH2 5090   3.559   3.871   3.292
 1695TIP3    H1 5091   3.572   3.946   3.351
 1695TIP3    H2 5092   3.620   3.804   3.324
 1696TIP3   OH2 5093   0.742   5.839   2.807
 1696TIP3    H1 5094   0.736   5.921   2.758
 1696TIP3    H2 5095   0.821   5.849   2.860
 1697TIP3   OH2 5096   4.347   3.316   4.219
 1697TIP3    H1 5097   4.424   3.293   4.271
 1697TIP3    H2 5098   4.296   3.235   4.215
 1698TIP3   OH2 5099   4.438   2.234   2.051
 1698TIP3    H1 5100   4.525   2.220   2.014
 1698TIP3    H2 5101   4.390   2.280   1.982
 1699TIP3   OH2 5102   5.873   5.892   4.018
 1699TIP3    H1 5103   5.939   5.918   4.082
 1699TIP3    H2 5104   5.898   5.804   3.992
 1700TIP3   OH2 5105   0.319   3.334   2.215
 1700TIP3    H1 5106   0.354   3.420   2.190
 1700TIP3    H2 5107   0.352   3.275   2.147
 1701TIP3   OH2 5108   0.126   1.845   3.541
 1701TIP3    H1 5109   0.135   1.799   3.624
 1701TIP3    H2 5110   0.059   1.796   3.494
 1702TIP3   OH2 5111   3.217   0.736   0.910
 1702TIP3    H1 5112   3.183   0.647   0.894
 1702TIP3    H2 5113   3.269   0.756   0.832
 1703TIP3   OH2 5114   2.194   3.218   4.909
 1703TIP3    H1 5115   2.145   3.297   4.933
 1703TIP3    H2 5116   2.228   3.237   4.821
 1704TIP3   OH2 5117   0.661   2.853   0.491
 1704TIP3    H1 5118   0.658   2.868   0.585
 1704TIP3    H2 5119   0.732   2.790   0.478
 1705TIP3   OH2 5120   5.004   0.440   1.886
 1705TIP3    H1 5121   5.086   0.481   1.914
 1705TIP3    H2 5122   5.022   0.409   1.797
 1706TIP3   OH2 5123   1.458   0.570   3.292
 1706TIP3    H1 5124   1.523   0.631   3.256
 1706TIP3    H2 5125   1.405   0.624   3.351
 1707TIP3   OH2 5126   2.583   0.893   2.770
 1707TIP3    H1 5127   2.578   0.980   2.732
 1707TIP3    H2 5128   2.516   0.843   2.724
 1708TIP3   OH2 5129   5.748   2.967   1.202
 1708TIP3    H1 5130   5.692   2.971   1.280
 1708TIP3    H2 5131   5.834   2.999   1.232
 1709TIP3   OH2 5132   5.974   4.631   2.284
 1709TIP3    H1 5133   6.066   4.629   2.308
 1709TIP3    H2 5134   5.941   4.712   2.322
 1710TIP3   OH2 5135   1.705   1.998   2.053
 1710TIP3    H1 5136   1.758   1.949   1.990
 1710TIP3    H2 5137   1.631   2.030   2.002
 1711TIP3   OH2 5138   2.980   4.793   0.821
 1711TIP3    H1 5139   2.933   4.871   0.792
 1711TIP3    H2 5140   2.912   4.725   0.825
 1712TIP3   OH2 5141   1.764   3.916   2.523
 1712TIP3    H1 5142   1.793   4.000   2.487
 1712TIP3    H2 5143   1.705   3.880   2.455
 1713TIP3   OH2 5144   0.677   4.657   3.296
 1713TIP3    H1 5145   0.643   4.602   3.226
 1713TIP3    H2 5146   0.748   4.707   3.255
 1714TIP3   OH2 5147   3.324   0.990   4.032
 1714TIP3    H1 5148   3.232   0.986   4.004
 1714TIP3    H2 5149   3.324   0.958   4.122
 1715TIP3   OH2 5150   2.773   4.238   1.631
 1715TIP3    H1 5151   2.816   4.290   1.563
 1715TIP3    H2 5152   2.689   4.213   1.592
 1716TIP3   OH2 5153   2.683   0.339   1.731
 1716TIP3    H1 5154   2.667   0.270   1.668
 1716TIP3    H2 5155   2.624   0.320   1.804
 1717TIP3   OH2 5156   1.825   0.473   1.103
 1717TIP3    H1 5157   1.735   0.498   1.121
 1717TIP3    H2 5158   1.871   0.490   1.185
 1718TIP3   OH2 5159   1.065   1.574   4.408
 1718TIP3    H1 5160   1.050   1.665   4.384
 1718TIP3    H2 5161   1.157   1.570   4.433
 1719TIP3   OH2 5162   4.153   1.695   4.001
 1719TIP3    H1 5163   4.154   1.752   3.925
 1719TIP3    H2 5164   4.147   1.755   4.076
 1720TIP3   OH2 5165   5.192   5.083   3.264
 1720TIP3    H1 5166   5.257   5.151   3.248
 1720TIP3    H2 5167   5.214   5.014   3.201
 1721TIP3   OH2 5168   2.489   1.936   2.644
 1721TIP3    H1 5169   2.467   2.013   2.592
 1721TIP3    H2 5170   2.584   1.938   2.651
 1722TIP3   OH2 5171   4.987   5.770   2.482
 1722TIP3    H1 5172   5.060   5.711   2.464
 1722TIP3    H2 5173   4.917   5.741   2.424
 1723TIP3   OH2 5174   0.636   3.090   3.467
 1723TIP3    H1 5175   0.670   3.141   3.540
 1723TIP3    H2 5176   0.573   3.030   3.507
 1724TIP3   OH2 5177   4.707   1.262   2.207
 1724TIP3    H1 5178   4.706   1.353   2.235
 1724TIP3    H2 5179   4.776   1.257   2.141
 1725TIP3   OH2 5180   0.603   5.388   2.782
 1725TIP3    H1 5181   0.680   5.339   2.811
 1725TIP3    H2 5182   0.626   5.419   2.694
 1726TIP3   OH2 5183   5.383   4.339   0.740
 1726TIP3    H1 5184   5.413   4.365   0.654
 1726TIP3    H2 5185   5.444   4.379   0.801
 1727TIP3   OH2 5186   4.435   1.126   1.137
 1727TIP3    H1 5187   4.386   1.196   1.094
 1727TIP3    H2 5188   4.470   1.165   1.217
 1728TIP3   OH2 5189   3.954   4.412   0.391
 1728TIP3    H1 5190   3.963   4.507   0.399
 1728TIP3    H2 5191   4.043   4.381   0.378
 1729TIP3   OH2 5192   4.998   1.991   3.632
 1729TIP3    H1 5193   4.910   1.954   3.623
 1729TIP3    H2 5194   5.057   1.920   3.605
 1730TIP3   OH2 5195   2.157   5.336   1.628
 1730TIP3    H1 5196   2.226   5.401   1.614
 1730TIP3    H2 5197   2.122   5.318   1.541
 1731TIP3   OH2 5198   2.034   4.482   0.689
 1731TIP3    H1 5199   2.050   4.392   0.719
 1731TIP3    H2 5200   2.077   4.537   0.754
 1732TIP3   OH2 5201   2.316   0.320   2.108
 1732TIP3    H1 5202   2.352   0.358   2.028
 1732TIP3    H2 5203   2.222   0.338   2.102
 1733TIP3   OH2 5204   5.895   2.298   1.389
 1733TIP3    H1 5205   5.852   2.375   1.428
 1733TIP3    H2 5206   5.920   2.245   1.464
 1734TIP3   OH2 5207   0.215   1.683   2.921
 1734TIP3    H1 5208   0.228   1.590   2.901
 1734TIP3    H2 5209   0.178   1.720   2.841
 1735TIP3   OH2 5210   5.914   0.833   2.001
 1735TIP3    H1 5211   5.944   0.744   2.016
 1735TIP3    H2 5212   5.969   0.865   1.929
 1736TIP3   OH2 5213   5.262   5.745   5.152
 1736TIP3    H1 5214   5.263   5.752   5.247
 1736TIP3    H2 5215   5.169   5.747   5.129
 1737TIP3   OH2 5216   6.011   3.294   4.602
 1737TIP3    H1 5217   6.025   3.361   4.536
 1737TIP3    H2 5218   6.095   3.287   4.647
 1738TIP3   OH2 5219   5.896   5.257   4.437
 1738TIP3    H1 5220   5.808   5.220   4.427
 1738TIP3    H2 5221   5.904   5.276   4.531
 1739TIP3   OH2 5222   1.064   5.906   4.126
 1739TIP3    H1 5223   1.059   5.867   4.213
 1739TIP3    H2 5224   1.146   5.954   4.127
 1740TIP3   OH2 5225   5.174   2.351   0.728
 1740TIP3    H1 5226   5.119   2.306   0.664
 1740TIP3    H2 5227   5.158   2.444   0.713
 1741TIP3   OH2 5228   5.476   3.383   3.092
 1741TIP3    H1 5229   5.535   3.414   3.023
 1741TIP3    H2 5230   5.473   3.456   3.154
 1742TIP3   OH2 5231   3.929   1.090   5.097
 1742TIP3    H1 5232   3.843   1.073   5.137
 1742TIP3    H2 5233   3.991   1.074   5.168
 1743TIP3   OH2 5234   4.163   2.719   3.766
 1743TIP3    H1 5235   4.170   2.806   3.727
 1743TIP3    H2 5236   4.247   2.678   3.747
 1744TIP3   OH2 5237   0.859   4.727   3.548
 1744TIP3    H1 5238   0.813   4.711   3.466
 1744TIP3    H2 5239   0.921   4.797   3.527
 1745TIP3   OH2 5240   2.103   1.804   2.407
 1745TIP3    H1 5241   2.196   1.802   2.430
 1745TIP3    H2 5242   2.059   1.833   2.487
 1746TIP3   OH2 5243   1.448   5.977   3.570
 1746TIP3    H1 5244   1.357   5.979   3.601
 1746TIP3    H2 5245   1.484   5.896   3.606
 1747TIP3   OH2 5246   2.588   4.637   3.571
 1747TIP3    H1 5247   2.565   4.627   3.664
 1747TIP3    H2 5248   2.504   4.642   3.526
 1748TIP3   OH2 5249   2.687   3.693   1.865
 1748TIP3    H1 5250   2.725   3.605   1.867
 1748TIP3    H2 5251   2.726   3.734   1.788
 1749TIP3   OH2 5252   2.525   2.803   3.130
 1749TIP3    H1 5253   2.580   2.757   3.066
 1749TIP3    H2 5254   2.444   2.823   3.081
 1750TIP3   OH2 5255   4.351   3.593   1.007
 1750TIP3    H1 5256   4.261   3.578   0.977
 1750TIP3    H2 5257   4.341   3.653   1.081
 1751TIP3   OH2 5258   4.825   1.401   0.807
 1751TIP3    H1 5259   4.871   1.403   0.891
 1751TIP3    H2 5260   4.733   1.404   0.830
 1752TIP3   OH2 5261   6.008   3.373   4.138
 1752TIP3    H1 5262   6.025   3.365   4.044
 1752TIP3    H2 5263   6.095   3.374   4.178
 1753TIP3   OH2 5264   1.671   2.438   0.645
 1753TIP3    H1 5265   1.748   2.494   0.657
 1753TIP3    H2 5266   1.662   2.428   0.550
 1754TIP3   OH2 5267   2.192   4.026   0.233
 1754TIP3    H1 5268   2.102   4.053   0.221
 1754TIP3    H2 5269   2.186   3.932   0.253
 1755TIP3   OH2 5270   0.470   1.455   0.452
 1755TIP3    H1 5271   0.465   1.366   0.420
 1755TIP3    H2 5272   0.520   1.502   0.386
 1756TIP3   OH2 5273   5.697   5.663   0.161
 1756TIP3    H1 5274   5.730   5.586   0.208
 1756TIP3    H2 5275   5.747   5.736   0.198
 1757TIP3   OH2 5276   1.275   4.067   2.213
 1757TIP3    H1 5277   1.333   4.013   2.159
 1757TIP3    H2 5278   1.251   4.140   2.156
 1758TIP3   OH2 5279  -0.026   3.780   2.877
 1758TIP3    H1 5280  -0.021   3.875   2.880
 1758TIP3    H2 5281   0.065   3.751   2.865
 1759TIP3   OH2 5282   2.082   2.367   1.327
 1759TIP3    H1 5283   2.076   2.290   1.382
 1759TIP3    H2 5284   2.175   2.376   1.308
 1760TIP3   OH2 5285   3.765   2.864   2.836
 1760TIP3    H1 5286   3.769   2.834   2.745
 1760TIP3    H2 5287   3.672   2.871   2.855
 1761TIP3   OH2 5288   0.913   1.760   4.664
 1761TIP3    H1 5289   0.973   1.797   4.599
 1761TIP3    H2 5290   0.838   1.731   4.612
 1762TIP3   OH2 5291   2.565   0.124   1.556
 1762TIP3    H1 5292   2.499   0.144   1.623
 1762TIP3    H2 5293   2.562   0.199   1.496
 1763TIP3   OH2 5294   2.284   5.624   3.646
 1763TIP3    H1 5295   2.350   5.660   3.706
 1763TIP3    H2 5296   2.292   5.676   3.566
 1764TIP3   OH2 5297   3.061   5.733   3.683
 1764TIP3    H1 5298   3.070   5.733   3.778
 1764TIP3    H2 5299   3.148   5.753   3.650
 1765TIP3   OH2 5300   1.270   0.914   4.691
 1765TIP3    H1 5301   1.274   0.838   4.750
 1765TIP3    H2 5302   1.361   0.938   4.676
 1766TIP3   OH2 5303   0.449   1.193   0.701
 1766TIP3    H1 5304   0.428   1.281   0.732
 1766TIP3    H2 5305   0.542   1.197   0.680
 1767TIP3   OH2 5306   4.257   5.237   1.850
 1767TIP3    H1 5307   4.240   5.194   1.934
 1767TIP3    H2 5308   4.170   5.260   1.817
 1768TIP3   OH2 5309   2.662   4.449   1.318
 1768TIP3    H1 5310   2.618   4.366   1.304
 1768TIP3    H2 5311   2.720   4.434   1.393
 1769TIP3   OH2 5312   5.690   2.647   1.217
 1769TIP3    H1 5313   5.637   2.699   1.278
 1769TIP3    H2 5314   5.632   2.631   1.142
 1770TIP3   OH2 5315   4.351   4.251   5.116
 1770TIP3    H1 5316   4.336   4.343   5.138
 1770TIP3    H2 5317   4.445   4.239   5.127
 1771TIP3   OH2 5318   2.041   3.712   1.977
 1771TIP3    H1 5319   2.042   3.628   1.931
 1771TIP3    H2 5320   2.041   3.777   1.907
 1772TIP3   OH2 5321   4.907   5.099   2.986
 1772TIP3    H1 5322   4.851   5.099   3.063
 1772TIP3    H2 5323   4.993   5.072   3.018
 1773TIP3   OH2 5324   2.065   1.534   3.752
 1773TIP3    H1 5325   2.013   1.464   3.790
 1773TIP3    H2 5326   2.081   1.507   3.662
 1774TIP3   OH2 5327   5.295   1.406   1.406
 1774TIP3    H1 5328   5.338   1.480   1.448
 1774TIP3    H2 5329   5.337   1.399   1.320
 1775TIP3   OH2 5330   2.103   0.787   3.852
 1775TIP3    H1 5331   2.160   0.710   3.861
 1775TIP3    H2 5332   2.163   0.857   3.828
 1776TIP3   OH2 5333   0.600   0.327   0.789
 1776TIP3    H1 5334   0.654   0.282   0.854
 1776TIP3    H2 5335   0.568   0.405   0.834
 1777TIP3   OH2 5336   5.559   2.514   3.980
 1777TIP3    H1 5337   5.473   2.549   4.004
 1777TIP3    H2 5338   5.548   2.419   3.984
 1778TIP3   OH2 5339   5.984   3.849   3.713
 1778TIP3    H1 5340   5.972   3.808   3.798
 1778TIP3    H2 5341   6.031   3.930   3.732
 1779TIP3   OH2 5342   2.776   5.266   2.889
 1779TIP3    H1 5343   2.843   5.221   2.940
 1779TIP3    H2 5344   2.824   5.315   2.823
 1780TIP3   OH2 5345   4.453   5.020   1.498
 1780TIP3    H1 5346   4.536   5.028   1.544
 1780TIP3    H2 5347   4.474   5.043   1.407
 1781TIP3   OH2 5348   1.211   4.187   0.120
 1781TIP3    H1 5349   1.193   4.193   0.213
 1781TIP3    H2 5350   1.128   4.211   0.078
 1782TIP3   OH2 5351   4.872   0.416   0.470
 1782TIP3    H1 5352   4.953   0.368   0.451
 1782TIP3    H2 5353   4.804   0.367   0.424
 1783TIP3   OH2 5354   3.834   1.797   1.449
 1783TIP3    H1 5355   3.904   1.827   1.391
 1783TIP3    H2 5356   3.840   1.854   1.525
 1784TIP3   OH2 5357   3.353   0.074   4.679
 1784TIP3    H1 5358   3.383   0.002   4.623
 1784TIP3    H2 5359   3.291   0.033   4.740
 1785TIP3   OH2 5360   2.740   5.672   2.371
 1785TIP3    H1 5361   2.804   5.603   2.355
 1785TIP3    H2 5362   2.688   5.676   2.291
 1786TIP3   OH2 5363   2.524   1.824   1.670
 1786TIP3    H1 5364   2.450   1.771   1.640
 1786TIP3    H2 5365   2.497   1.914   1.655
 1787TIP3   OH2 5366   3.961   5.416   0.556
 1787TIP3    H1 5367   3.882   5.455   0.593
 1787TIP3    H2 5368   4.022   5.489   0.549
 1788TIP3   OH2 5369   5.492   2.248   3.865
 1788TIP3    H1 5370   5.543   2.203   3.932
 1788TIP3    H2 5371   5.480   2.182   3.797
 1789TIP3   OH2 5372   4.874   2.125   4.166
 1789TIP3    H1 5373   4.904   2.044   4.208
 1789TIP3    H2 5374   4.858   2.186   4.238
 1790TIP3   OH2 5375   0.081   0.165   0.490
 1790TIP3    H1 5376   0.007   0.223   0.475
 1790TIP3    H2 5377   0.124   0.158   0.405
 1791TIP3   OH2 5378   0.618   4.431   2.637
 1791TIP3    H1 5379   0.545   4.492   2.624
 1791TIP3    H2 5380   0.616   4.411   2.731
 1792TIP3   OH2 5381   4.867   2.778   0.987
 1792TIP3    H1 5382   4.880   2.873   0.982
 1792TIP3    H2 5383   4.799   2.760   0.921
 1793TIP3   OH2 5384   1.930   0.408   3.175
 1793TIP3    H1 5385   1.937   0.334   3.115
 1793TIP3    H2 5386   1.944   0.485   3.120
 1794TIP3   OH2 5387   6.143   2.959   3.385
 1794TIP3    H1 5388   6.180   3.043   3.413
 1794TIP3    H2 5389   6.092   2.980   3.307
 1795TIP3   OH2 5390   1.015   5.536   5.198
 1795TIP3    H1 5391   0.975   5.470   5.142
 1795TIP3    H2 5392   1.042   5.606   5.138
 1796TIP3   OH2 5393   5.402   0.304   2.687
 1796TIP3    H1 5394   5.483   0.347   2.661
 1796TIP3    H2 5395   5.385   0.336   2.776
 1797TIP3   OH2 5396   2.582   3.486   0.429
 1797TIP3    H1 5397   2.652   3.428   0.398
 1797TIP3    H2 5398   2.541   3.519   0.349
 1798TIP3   OH2 5399   4.328   1.316   0.991
 1798TIP3    H1 5400   4.317   1.312   0.896
 1798TIP3    H2 5401   4.387   1.391   1.005
 1799TIP3   OH2 5402   5.141   1.477   0.600
 1799TIP3    H1 5403   5.207   1.547   0.603
 1799TIP3    H2 5404   5.105   1.482   0.512
 1800TIP3   OH2 5405   3.531   2.009   2.889
 1800TIP3    H1 5406   3.593   2.056   2.833
 1800TIP3    H2 5407   3.479   2.077   2.931
 1801TIP3   OH2 5408   2.925   1.514   4.225
 1801TIP3    H1 5409   2.931   1.543   4.134
 1801TIP3    H2 5410   2.851   1.563   4.261
 1802TIP3   OH2 5411   1.410   2.646   0.836
 1802TIP3    H1 5412   1.441   2.735   0.849
 1802TIP3    H2 5413   1.316   2.655   0.820
 1803TIP3   OH2 5414   3.062   5.686   0.078
 1803TIP3    H1 5415   3.141   5.715   0.032
 1803TIP3    H2 5416   2.990   5.726   0.030
 1804TIP3   OH2 5417   0.146   5.933   4.782
 1804TIP3    H1 5418   0.111   6.008   4.735
 1804TIP3    H2 5419   0.241   5.938   4.769
 1805TIP3   OH2 5420   1.908   1.169   0.123
 1805TIP3    H1 5421   1.864   1.090   0.094
 1805TIP3    H2 5422   1.867   1.239   0.072
 1806TIP3   OH2 5423   4.030   4.537   2.554
 1806TIP3    H1 5424   4.020   4.599   2.481
 1806TIP3    H2 5425   4.039   4.593   2.631
 1807TIP3   OH2 5426   2.212   0.960   0.637
 1807TIP3    H1 5427   2.135   0.941   0.690
 1807TIP3    H2 5428   2.268   0.884   0.648
 1808TIP3   OH2 5429   5.765   5.619   2.507
 1808TIP3    H1 5430   5.814   5.624   2.425
 1808TIP3    H2 5431   5.780   5.703   2.550
 1809TIP3   OH2 5432   4.294   0.794   0.302
 1809TIP3    H1 5433   4.366   0.770   0.360
 1809TIP3    H2 5434   4.223   0.735   0.327
 1810TIP3   OH2 5435   5.596   3.575   0.940
 1810TIP3    H1 5436   5.653   3.568   1.016
 1810TIP3    H2 5437   5.625   3.507   0.880
 1811TIP3   OH2 5438   5.049   4.606   1.231
 1811TIP3    H1 5439   5.073   4.598   1.138
 1811TIP3    H2 5440   5.037   4.516   1.261
 1812TIP3   OH2 5441   1.438   0.761   0.376
 1812TIP3    H1 5442   1.436   0.841   0.428
 1812TIP3    H2 5443   1.517   0.769   0.322
 1813TIP3   OH2 5444   5.965   4.210   3.056
 1813TIP3    H1 5445   5.937   4.195   2.966
 1813TIP3    H2 5446   6.001   4.126   3.085
 1814TIP3   OH2 5447   3.251   2.204   1.709
 1814TIP3    H1 5448   3.265   2.110   1.696
 1814TIP3    H2 5449   3.211   2.210   1.796
 1815TIP3   OH2 5450   2.771   4.823   3.661
 1815TIP3    H1 5451   2.842   4.761   3.676
 1815TIP3    H2 5452   2.693   4.769   3.654
 1816TIP3   OH2 5453   6.084   3.969   3.104
 1816TIP3    H1 5454   6.089   3.950   3.010
 1816TIP3    H2 5455   6.097   3.884   3.146
 1817TIP3   OH2 5456   4.396   4.308   1.684
 1817TIP3    H1 5457   4.376   4.224   1.644
 1817TIP3    H2 5458   4.386   4.372   1.613
 1818TIP3   OH2 5459   6.105   2.061   2.468
 1818TIP3    H1 5460   6.028   2.031   2.516
 1818TIP3    H2 5461   6.148   2.122   2.527
 1819TIP3   OH2 5462   1.575   0.042   1.004
 1819TIP3    H1 5463   1.665   0.010   1.008
 1819TIP3    H2 5464   1.560   0.082   1.090
 1820TIP3   OH2 5465   4.469   2.783   1.498
 1820TIP3    H1 5466   4.508   2.855   1.547
 1820TIP3    H2 5467   4.430   2.824   1.421
 1821TIP3   OH2 5468   3.025   5.794   4.687
 1821TIP3    H1 5469   3.082   5.850   4.635
 1821TIP3    H2 5470   2.947   5.848   4.703
 1822TIP3   OH2 5471   6.216   4.419   4.596
 1822TIP3    H1 5472   6.130   4.459   4.597
 1822TIP3    H2 5473   6.272   4.482   4.552
 1823TIP3   OH2 5474   2.097   4.532   4.067
 1823TIP3    H1 5475   2.016   4.487   4.042
 1823TIP3    H2 5476   2.068   4.608   4.117
 1824TIP3   OH2 5477   3.968   3.910   4.796
 1824TIP3    H1 5478   3.875   3.914   4.776
 1824TIP3    H2 5479   3.982   3.981   4.859
 1825TIP3   OH2 5480   3.309   2.244   4.303
 1825TIP3    H1 5481   3.240   2.187   4.335
 1825TIP3    H2 5482   3.354   2.192   4.236
 1826TIP3   OH2 5483   5.956   4.037   0.363
 1826TIP3    H1 5484   5.992   4.099   0.299
 1826TIP3    H2 5485   5.861   4.046   0.355
 1827TIP3   OH2 5486   0.943   0.798   0.014
 1827TIP3    H1 5487   0.889   0.780   0.091
 1827TIP3    H2 5488   1.021   0.744   0.027
 1828TIP3   OH2 5489   4.740   3.252   4.021
 1828TIP3    H1 5490   4.713   3.220   3.935
 1828TIP3    H2 5491   4.684   3.328   4.038
 1829TIP3   OH2 5492   2.022   3.156   1.955
 1829TIP3    H1 5493   2.112   3.124   1.962
 1829TIP3    H2 5494   1.972   3.081   1.925
 1830TIP3   OH2 5495   4.613   0.368   3.718
 1830TIP3    H1 5496   4.661   0.365   3.801
 1830TIP3    H2 5497   4.657   0.436   3.667
 1831TIP3   OH2 5498   1.871   4.048   0.403
 1831TIP3    H1 5499   1.779   4.075   0.403
 1831TIP3    H2 5500   1.881   3.999   0.485
 1832TIP3   OH2 5501   3.733   0.209   1.149
 1832TIP3    H1 5502   3.819   0.244   1.124
 1832TIP3    H2 5503   3.670   0.265   1.103
 1833TIP3   OH2 5504   3.771   5.033   4.763
 1833TIP3    H1 5505   3.734   5.099   4.705
 1833TIP3    H2 5506   3.825   5.082   4.824
 1834TIP3   OH2 5507   5.160   2.827   0.582
 1834TIP3    H1 5508   5.131   2.888   0.650
 1834TIP3    H2 5509   5.251   2.809   0.605
 1835TIP3   OH2 5510   3.477   3.437   4.695
 1835TIP3    H1 5511   3.476   3.349   4.732
 1835TIP3    H2 5512   3.415   3.434   4.622
 1836TIP3   OH2 5513   4.766   4.424   4.666
 1836TIP3    H1 5514   4.835   4.432   4.599
 1836TIP3    H2 5515   4.716   4.347   4.639
 1837TIP3   OH2 5516   1.976   5.255   2.697
 1837TIP3    H1 5517   1.986   5.160   2.693
 1837TIP3    H2 5518   1.941   5.279   2.611
 1838TIP3   OH2 5519   2.337   3.515   0.687
 1838TIP3    H1 5520   2.427   3.545   0.673
 1838TIP3    H2 5521   2.299   3.579   0.747
 1839TIP3   OH2 5522   5.519   1.969   0.204
 1839TIP3    H1 5523   5.498   1.878   0.184
 1839TIP3    H2 5524   5.480   1.985   0.290
 1840TIP3   OH2 5525   0.691   4.437   4.874
 1840TIP3    H1 5526   0.695   4.525   4.913
 1840TIP3    H2 5527   0.748   4.443   4.797
 1841TIP3   OH2 5528   6.218   0.585   1.990
 1841TIP3    H1 5529   6.206   0.577   1.895
 1841TIP3    H2 5530   6.298   0.537   2.008
 1842TIP3   OH2 5531   6.286   1.079   3.592
 1842TIP3    H1 5532   6.222   1.141   3.628
 1842TIP3    H2 5533   6.335   1.049   3.669
 1843TIP3   OH2 5534   1.169   3.693   1.742
 1843TIP3    H1 5535   1.083   3.709   1.781
 1843TIP3    H2 5536   1.200   3.613   1.784
 1844TIP3   OH2 5537   2.113   4.374   2.755
 1844TIP3    H1 5538   2.119   4.290   2.708
 1844TIP3    H2 5539   2.065   4.353   2.835
 1845TIP3   OH2 5540   0.926   3.062   3.444
 1845TIP3    H1 5541   0.928   3.114   3.364
 1845TIP3    H2 5542   0.838   3.025   3.447
 1846TIP3   OH2 5543   4.889   2.201   2.205
 1846TIP3    H1 5544   4.972   2.155   2.197
 1846TIP3    H2 5545   4.897   2.277   2.147
 1847TIP3   OH2 5546   1.601   0.367   2.581
 1847TIP3    H1 5547   1.582   0.449   2.535
 1847TIP3    H2 5548   1.581   0.385   2.673
 1848TIP3   OH2 5549   4.093   5.857   2.310
 1848TIP3    H1 5550   4.112   5.839   2.403
 1848TIP3    H2 5551   4.018   5.916   2.313
 1849TIP3   OH2 5552   0.352   4.836   0.960
 1849TIP3    H1 5553   0.412   4.884   1.017
 1849TIP3    H2 5554   0.403   4.820   0.881
 1850TIP3   OH2 5555   4.197   2.347   1.895
 1850TIP3    H1 5556   4.213   2.300   1.813
 1850TIP3    H2 5557   4.174   2.279   1.957
 1851TIP3   OH2 5558   5.885   0.760   0.492
 1851TIP3    H1 5559   5.804   0.763   0.542
 1851TIP3    H2 5560   5.953   0.743   0.557
 1852TIP3   OH2 5561   1.745   2.342   3.809
 1852TIP3    H1 5562   1.817   2.280   3.820
 1852TIP3    H2 5563   1.699   2.340   3.893
 1853TIP3   OH2 5564   6.339   3.372   4.905
 1853TIP3    H1 5565   6.261   3.386   4.958
 1853TIP3    H2 5566   6.319   3.414   4.821
 1854TIP3   OH2 5567   3.049   5.022   2.130
 1854TIP3    H1 5568   3.057   5.048   2.038
 1854TIP3    H2 5569   3.119   4.958   2.144
 1855TIP3   OH2 5570   1.389   2.428   1.620
 1855TIP3    H1 5571   1.435   2.346   1.636
 1855TIP3    H2 5572   1.441   2.494   1.665
 1856TIP3   OH2 5573   0.568   0.599   2.416
 1856TIP3    H1 5574   0.627   0.608   2.342
 1856TIP3    H2 5575   0.579   0.508   2.445
 1857TIP3   OH2 5576   5.145   0.558   2.776
 1857TIP3    H1 5577   5.193   0.608   2.711
 1857TIP3    H2 5578   5.062   0.605   2.786
 1858TIP3   OH2 5579   5.672   0.246   4.301
 1858TIP3    H1 5580   5.645   0.206   4.218
 1858TIP3    H2 5581   5.625   0.197   4.368
 1859TIP3   OH2 5582   6.323   0.417   0.417
 1859TIP3    H1 5583   6.362   0.420   0.504
 1859TIP3    H2 5584   6.229   0.427   0.432
 1860TIP3   OH2 5585   1.262   1.971   3.938
 1860TIP3    H1 5586   1.329   2.038   3.955
 1860TIP3    H2 5587   1.295   1.924   3.861
 1861TIP3   OH2 5588   2.979   4.766   3.378
 1861TIP3    H1 5589   3.022   4.743   3.296
 1861TIP3    H2 5590   2.886   4.758   3.359
 1862TIP3   OH2 5591   0.522   2.024   3.757
 1862TIP3    H1 5592   0.456   2.063   3.815
 1862TIP3    H2 5593   0.484   2.031   3.669
 1863TIP3   OH2 5594   2.780   0.668   4.068
 1863TIP3    H1 5595   2.856   0.634   4.020
 1863TIP3    H2 5596   2.791   0.635   4.157
 1864TIP3   OH2 5597   1.523   3.098   4.755
 1864TIP3    H1 5598   1.509   3.193   4.763
 1864TIP3    H2 5599   1.608   3.083   4.794
 1865TIP3   OH2 5600   4.817   2.754   3.061
 1865TIP3    H1 5601   4.891   2.769   3.120
 1865TIP3    H2 5602   4.776   2.675   3.094
 1866TIP3   OH2 5603   2.630   4.347   0.365
 1866TIP3    H1 5604   2.610   4.260   0.331
 1866TIP3    H2 5605   2.547   4.394   0.364
 1867TIP3   OH2 5606   2.849   4.143   1.337
 1867TIP3    H1 5607   2.869   4.101   1.421
 1867TIP3    H2 5608   2.914   4.107   1.277
 1868TIP3   OH2 5609   1.745   0.062   0.569
 1868TIP3    H1 5610   1.720   0.092   0.482
 1868TIP3    H2 5611   1.810   0.125   0.599
 1869TIP3   OH2 5612   3.990   4.377   4.703
 1869TIP3    H1 5613   3.956   4.291   4.682
 1869TIP3    H2 5614   4.030   4.409   4.622
 1870TIP3   OH2 5615   1.939   4.252   0.191
 1870TIP3    H1 5616   1.907   4.337   0.222
 1870TIP3    H2 5617   1.906   4.190   0.257
 1871TIP3   OH2 5618   4.556   3.481   0.897
 1871TIP3    H1 5619   4.479   3.532   0.923
 1871TIP3    H2 5620   4.605   3.540   0.839
 1872TIP3   OH2 5621   4.559   5.347   3.338
 1872TIP3    H1 5622   4.483   5.321   3.285
 1872TIP3    H2 5623   4.629   5.362   3.275
 1873TIP3   OH2 5624   2.474   4.872   5.166
 1873TIP3    H1 5625   2.443   4.873   5.075
 1873TIP3    H2 5626   2.500   4.962   5.184
 1874TIP3   OH2 5627   4.458   1.798   1.130
 1874TIP3    H1 5628   4.512   1.876   1.123
 1874TIP3    H2 5629   4.501   1.745   1.198
 1875TIP3   OH2 5630   3.337   5.899   4.475
 1875TIP3    H1 5631   3.274   5.955   4.521
 1875TIP3    H2 5632   3.301   5.811   4.482
 1876TIP3   OH2 5633   5.562   2.691   1.898
 1876TIP3    H1 5634   5.504   2.759   1.864
 1876TIP3    H2 5635   5.556   2.699   1.993
 1877TIP3   OH2 5636   3.391   3.501   0.492
 1877TIP3    H1 5637   3.339   3.566   0.444
 1877TIP3    H2 5638   3.436   3.451   0.424
 1878TIP3   OH2 5639   1.634   2.795   4.437
 1878TIP3    H1 5640   1.563   2.850   4.470
 1878TIP3    H2 5641   1.636   2.720   4.497
 1879TIP3   OH2 5642   0.277   4.058   2.717
 1879TIP3    H1 5643   0.327   3.995   2.665
 1879TIP3    H2 5644   0.185   4.034   2.702
 1880TIP3   OH2 5645   0.580   0.056   3.687
 1880TIP3    H1 5646   0.663   0.010   3.670
 1880TIP3    H2 5647   0.569   0.114   3.612
 1881TIP3   OH2 5648   3.340   0.916   1.710
 1881TIP3    H1 5649   3.404   0.969   1.758
 1881TIP3    H2 5650   3.359   0.932   1.618
 1882TIP3   OH2 5651   1.494   1.139   3.640
 1882TIP3    H1 5652   1.530   1.210   3.694
 1882TIP3    H2 5653   1.566   1.078   3.628
 1883TIP3   OH2 5654   5.147   2.404   1.835
 1883TIP3    H1 5655   5.133   2.366   1.748
 1883TIP3    H2 5656   5.151   2.498   1.820
 1884TIP3   OH2 5657   0.577  -0.005   4.357
 1884TIP3    H1 5658   0.512   0.038   4.302
 1884TIP3    H2 5659   0.648  -0.027   4.297
 1885TIP3   OH2 5660   5.649   5.117   0.266
 1885TIP3    H1 5661   5.690   5.084   0.186
 1885TIP3    H2 5662   5.614   5.203   0.241
 1886TIP3   OH2 5663   2.371   1.758   2.452
 1886TIP3    H1 5664   2.428   1.760   2.375
 1886TIP3    H2 5665   2.422   1.802   2.520
 1887TIP3   OH2 5666   3.939   0.741   4.575
 1887TIP3    H1 5667   4.000   0.702   4.638
 1887TIP3    H2 5668   3.972   0.829   4.560
 1888TIP3   OH2 5669   0.610   2.385   4.453
 1888TIP3    H1 5670   0.595   2.431   4.535
 1888TIP3    H2 5671   0.629   2.454   4.390
 1889TIP3   OH2 5672   5.510   4.618   4.140
 1889TIP3    H1 5673   5.527   4.533   4.179
 1889TIP3    H2 5674   5.465   4.668   4.208
 1890TIP3   OH2 5675   2.966   4.338   3.151
 1890TIP3    H1 5676   3.056   4.306   3.148
 1890TIP3    H2 5677   2.954   4.383   3.068
 1891TIP3   OH2 5678   4.505   1.922   0.742
 1891TIP3    H1 5679   4.451   1.925   0.821
 1891TIP3    H2 5680   4.442   1.918   0.670
 1892TIP3   OH2 5681   5.823   4.308   1.010
 1892TIP3    H1 5682   5.865   4.260   0.939
 1892TIP3    H2 5683   5.758   4.364   0.967
 1893TIP3   OH2 5684   0.283   3.515   3.850
 1893TIP3    H1 5685   0.353   3.476   3.903
 1893TIP3    H2 5686   0.205   3.464   3.872
 1894TIP3   OH2 5687   5.773   4.464   3.107
 1894TIP3    H1 5688   5.863   4.441   3.086
 1894TIP3    H2 5689   5.781   4.524   3.182
 1895TIP3   OH2 5690   2.779   0.164   4.312
 1895TIP3    H1 5691   2.698   0.204   4.282
 1895TIP3    H2 5692   2.765   0.070   4.303
 1896TIP3   OH2 5693   2.538   3.110   0.580
 1896TIP3    H1 5694   2.566   3.032   0.532
 1896TIP3    H2 5695   2.451   3.130   0.546
 1897TIP3   OH2 5696   2.951   3.382   4.332
 1897TIP3    H1 5697   2.983   3.296   4.307
 1897TIP3    H2 5698   2.975   3.390   4.424
 1898TIP3   OH2 5699   2.114   2.587   2.329
 1898TIP3    H1 5700   2.107   2.622   2.241
 1898TIP3    H2 5701   2.208   2.578   2.344
 1899TIP3   OH2 5702   4.558   3.206   4.361
 1899TIP3    H1 5703   4.644   3.183   4.325
 1899TIP3    H2 5704   4.537   3.133   4.419
 1900TIP3   OH2 5705   0.886   4.445   4.661
 1900TIP3    H1 5706   0.952   4.379   4.685
 1900TIP3    H2 5707   0.936   4.513   4.615
 1901TIP3   OH2 5708   3.471   4.065   0.154
 1901TIP3    H1 5709   3.401   4.078   0.218
 1901TIP3    H2 5710   3.507   3.979   0.175
 1902TIP3   OH2 5711   4.986   5.251   2.386
 1902TIP3    H1 5712   4.994   5.229   2.294
 1902TIP3    H2 5713   5.051   5.196   2.430
 1903TIP3   OH2 5714   4.359   3.504   2.474
 1903TIP3    H1 5715   4.275   3.477   2.510
 1903TIP3    H2 5716   4.388   3.575   2.532
 1904TIP3   OH2 5717   0.688   3.173   1.057
 1904TIP3    H1 5718   0.623   3.149   0.991
 1904TIP3    H2 5719   0.739   3.092   1.072
 1905TIP3   OH2 5720   5.183   4.471   0.635
 1905TIP3    H1 5721   5.111   4.504   0.688
 1905TIP3    H2 5722   5.233   4.415   0.695
 1906TIP3   OH2 5723   5.050   1.483   0.356
 1906TIP3    H1 5724   5.090   1.494   0.269
 1906TIP3    H2 5725   4.973   1.427   0.339
 1907TIP3   OH2 5726   0.553   2.005   4.643
 1907TIP3    H1 5727   0.469   2.047   4.625
 1907TIP3    H2 5728   0.538   1.912   4.625
 1908TIP3   OH2 5729   4.718   2.625   2.425
 1908TIP3    H1 5730   4.806   2.591   2.411
 1908TIP3    H2 5731   4.662   2.571   2.368
 1909TIP3   OH2 5732   1.879   4.935   2.695
 1909TIP3    H1 5733   1.864   4.931   2.789
 1909TIP3    H2 5734   1.795   4.910   2.656
 1910TIP3   OH2 5735   4.399   1.895   0.061
 1910TIP3    H1 5736   4.335   1.830   0.031
 1910TIP3    H2 5737   4.442   1.925  -0.020
 1911TIP3   OH2 5738   0.414   3.258   0.739
 1911TIP3    H1 5739   0.483   3.205   0.779
 1911TIP3    H2 5740   0.426   3.345   0.776
 1912TIP3   OH2 5741   5.485   0.973   5.123
 1912TIP3    H1 5742   5.481   1.050   5.180
 1912TIP3    H2 5743   5.397   0.937   5.125
 1913TIP3   OH2 5744   6.264   2.171   0.600
 1913TIP3    H1 5745   6.178   2.199   0.569
 1913TIP3    H2 5746   6.285   2.096   0.544
 1914TIP3   OH2 5747   0.318   1.146   3.766
 1914TIP3    H1 5748   0.262   1.221   3.745
 1914TIP3    H2 5749   0.406   1.174   3.741
 1915TIP3   OH2 5750   4.021   4.968   4.048
 1915TIP3    H1 5751   4.011   5.051   4.001
 1915TIP3    H2 5752   4.041   4.994   4.138
 1916TIP3   OH2 5753   5.427   2.416   5.156
 1916TIP3    H1 5754   5.410   2.508   5.141
 1916TIP3    H2 5755   5.518   2.412   5.185
 1917TIP3   OH2 5756   0.398   2.666   3.841
 1917TIP3    H1 5757   0.401   2.571   3.829
 1917TIP3    H2 5758   0.321   2.682   3.895
 1918TIP3   OH2 5759   5.385   0.906   4.121
 1918TIP3    H1 5760   5.345   0.903   4.034
 1918TIP3    H2 5761   5.312   0.897   4.182
 1919TIP3   OH2 5762   2.031   0.807   1.526
 1919TIP3    H1 5763   2.117   0.823   1.565
 1919TIP3    H2 5764   2.030   0.860   1.446
 1920TIP3   OH2 5765   1.139   3.722   3.046
 1920TIP3    H1 5766   1.120   3.633   3.075
 1920TIP3    H2 5767   1.229   3.717   3.011
 1921TIP3   OH2 5768   3.826   2.149   2.214
 1921TIP3    H1 5769   3.784   2.217   2.265
 1921TIP3    H2 5770   3.831   2.184   2.125
 1922TIP3   OH2 5771   5.971   5.626   4.684
 1922TIP3    H1 5772   5.983   5.532   4.695
 1922TIP3    H2 5773   6.050   5.665   4.721
 1923TIP3   OH2 5774   3.224   4.199   3.150
 1923TIP3    H1 5775   3.274   4.250   3.212
 1923TIP3    H2 5776   3.287   4.135   3.115
 1924TIP3   OH2 5777   0.558   5.213   4.530
 1924TIP3    H1 5778   0.478   5.261   4.553
 1924TIP3    H2 5779   0.582   5.248   4.444
 1925TIP3   OH2 5780   2.747   2.386   0.839
 1925TIP3    H1 5781   2.711   2.439   0.767
 1925TIP3    H2 5782   2.841   2.397   0.832
 1926TIP3   OH2 5783   0.149   3.995   1.989
 1926TIP3    H1 5784   0.227   3.941   2.001
 1926TIP3    H2 5785   0.176   4.063   1.927
 1927TIP3   OH2 5786   3.071   3.416   2.190
 1927TIP3    H1 5787   3.037   3.498   2.154
 1927TIP3    H2 5788   3.141   3.442   2.250
 1928TIP3   OH2 5789   2.708   1.651   4.297
 1928TIP3    H1 5790   2.710   1.638   4.392
 1928TIP3    H2 5791   2.620   1.624   4.271
 1929TIP3   OH2 5792   1.976   2.138   1.443
 1929TIP3    H1 5793   1.971   2.132   1.538
 1929TIP3    H2 5794   1.888   2.116   1.412
 1930TIP3   OH2 5795   2.261   5.362   0.312
 1930TIP3    H1 5796   2.228   5.343   0.224
 1930TIP3    H2 5797   2.344   5.408   0.296
 1931TIP3   OH2 5798   0.535   4.314   0.861
 1931TIP3    H1 5799   0.560   4.325   0.769
 1931TIP3    H2 5800   0.597   4.368   0.909
 1932TIP3   OH2 5801   1.750   1.273   0.736
 1932TIP3    H1 5802   1.839   1.303   0.754
 1932TIP3    H2 5803   1.696   1.320   0.799
 1933TIP3   OH2 5804   5.087   5.332   4.161
 1933TIP3    H1 5805   5.134   5.295   4.236
 1933TIP3    H2 5806   5.154   5.382   4.114
 1934TIP3   OH2 5807   3.648   2.136   3.638
 1934TIP3    H1 5808   3.646   2.204   3.570
 1934TIP3    H2 5809   3.618   2.057   3.593
 1935TIP3   OH2 5810   4.055   5.321   0.800
 1935TIP3    H1 5811   4.029   5.370   0.722
 1935TIP3    H2 5812   3.973   5.304   0.846
 1936TIP3   OH2 5813   1.766   5.907   4.217
 1936TIP3    H1 5814   1.857   5.935   4.228
 1936TIP3    H2 5815   1.773   5.824   4.169
 1937TIP3   OH2 5816   3.810   0.974   2.452
 1937TIP3    H1 5817   3.827   1.059   2.491
 1937TIP3    H2 5818   3.850   0.911   2.512
 1938TIP3   OH2 5819   5.786   3.349   4.309
 1938TIP3    H1 5820   5.869   3.366   4.264
 1938TIP3    H2 5821   5.720   3.364   4.242
 1939TIP3   OH2 5822   4.038   2.900   2.951
 1939TIP3    H1 5823   4.001   2.975   2.905
 1939TIP3    H2 5824   3.980   2.827   2.928
 1940TIP3   OH2 5825   0.380   0.977   3.267
 1940TIP3    H1 5826   0.447   0.984   3.335
 1940TIP3    H2 5827   0.300   1.009   3.309
 1941TIP3   OH2 5828   1.182   5.454   3.916
 1941TIP3    H1 5829   1.135   5.370   3.909
 1941TIP3    H2 5830   1.230   5.447   3.999
 1942TIP3   OH2 5831   0.290   0.820   2.761
 1942TIP3    H1 5832   0.299   0.822   2.856
 1942TIP3    H2 5833   0.335   0.740   2.734
 1943TIP3   OH2 5834   0.489   0.054   0.622
 1943TIP3    H1 5835   0.538  -0.026   0.604
 1943TIP3    H2 5836   0.406   0.024   0.658
 1944TIP3   OH2 5837   6.236   4.893   2.801
 1944TIP3    H1 5838   6.261   4.950   2.874
 1944TIP3    H2 5839   6.140   4.892   2.803
 1945TIP3   OH2 5840   1.997   5.947   0.971
 1945TIP3    H1 5841   2.051   5.986   1.040
 1945TIP3    H2 5842   1.956   5.872   1.013
 1946TIP3   OH2 5843   0.828   1.367   0.169
 1946TIP3    H1 5844   0.759   1.376   0.104
 1946TIP3    H2 5845   0.860   1.456   0.182
 1947TIP3   OH2 5846   1.119   2.590   1.081
 1947TIP3    H1 5847   1.113   2.494   1.087
 1947TIP3    H2 5848   1.180   2.614   1.150
 1948TIP3   OH2 5849   5.612   4.907   2.057
 1948TIP3    H1 5850   5.704   4.883   2.058
 1948TIP3    H2 5851   5.591   4.926   2.148
 1949TIP3   OH2 5852   0.252   4.933   3.827
 1949TIP3    H1 5853   0.301   5.014   3.813
 1949TIP3    H2 5854   0.197   4.951   3.904
 1950TIP3   OH2 5855   1.558   0.557   3.989
 1950TIP3    H1 5856   1.535   0.468   3.964
 1950TIP3    H2 5857   1.627   0.582   3.929
 1951TIP3   OH2 5858   1.420   5.161   3.892
 1951TIP3    H1 5859   1.497   5.107   3.875
 1951TIP3    H2 5860   1.352   5.098   3.918
 1952TIP3   OH2 5861   2.989   4.541   0.518
 1952TIP3    H1 5862   3.062   4.519   0.576
 1952TIP3    H2 5863   3.000   4.482   0.443
 1953TIP3   OH2 5864   0.875   0.184   3.864
 1953TIP3    H1 5865   0.790   0.197   3.907
 1953TIP3    H2 5866   0.856   0.191   3.770
 1954TIP3   OH2 5867   0.680   4.423   2.924
 1954TIP3    H1 5868   0.720   4.375   2.997
 1954TIP3    H2 5869   0.745   4.490   2.901
 1955TIP3   OH2 5870   0.131   5.695   0.863
 1955TIP3    H1 5871   0.048   5.660   0.832
 1955TIP3    H2 5872   0.166   5.627   0.920
 1956TIP3   OH2 5873   3.023   2.924   2.364
 1956TIP3    H1 5874   2.987   3.004   2.326
 1956TIP3    H2 5875   2.946   2.878   2.399
 1957TIP3   OH2 5876   0.261   4.512   4.516
 1957TIP3    H1 5877   0.287   4.473   4.599
 1957TIP3    H2 5878   0.170   4.539   4.530
 1958TIP3   OH2 5879   0.645   5.393   3.708
 1958TIP3    H1 5880   0.694   5.346   3.640
 1958TIP3    H2 5881   0.578   5.442   3.660
 1959TIP3   OH2 5882   5.261   2.456   3.666
 1959TIP3    H1 5883   5.349   2.492   3.675
 1959TIP3    H2 5884   5.271   2.362   3.682
 1960TIP3   OH2 5885   3.193   4.466   1.795
 1960TIP3    H1 5886   3.097   4.463   1.793
 1960TIP3    H2 5887   3.220   4.377   1.773
 1961TIP3   OH2 5888   2.903   3.671   0.678
 1961TIP3    H1 5889   2.955   3.637   0.750
 1961TIP3    H2 5890   2.954   3.745   0.644
 1962TIP3   OH2 5891   6.287   0.342   1.562
 1962TIP3    H1 5892   6.297   0.255   1.524
 1962TIP3    H2 5893   6.198   0.369   1.538
 1963TIP3   OH2 5894   3.120   2.747   2.136
 1963TIP3    H1 5895   3.068   2.827   2.142
 1963TIP3    H2 5896   3.099   2.711   2.050
 1964TIP3   OH2 5897   0.362   5.593   5.080
 1964TIP3    H1 5898   0.312   5.528   5.128
 1964TIP3    H2 5899   0.310   5.609   5.001
 1965TIP3   OH2 5900   1.162   0.453   0.161
 1965TIP3    H1 5901   1.145   0.546   0.177
 1965TIP3    H2 5902   1.258   0.447   0.161
 1966TIP3   OH2 5903   1.547   4.216   2.400
 1966TIP3    H1 5904   1.568   4.284   2.336
 1966TIP3    H2 5905   1.580   4.135   2.362
 1967TIP3   OH2 5906   3.800   2.365   4.680
 1967TIP3    H1 5907   3.775   2.393   4.767
 1967TIP3    H2 5908   3.722   2.378   4.627
 1968TIP3   OH2 5909   3.195   5.992   4.999
 1968TIP3    H1 5910   3.277   5.990   4.950
 1968TIP3    H2 5911   3.213   5.941   5.078
 1969TIP3   OH2 5912   0.030   1.228   4.679
 1969TIP3    H1 5913   0.035   1.306   4.734
 1969TIP3    H2 5914   0.112   1.182   4.695
 1970TIP3   OH2 5915   0.225   1.662   0.454
 1970TIP3    H1 5916   0.232   1.754   0.477
 1970TIP3    H2 5917   0.314   1.629   0.459
 1971TIP3   OH2 5918   3.571   0.566   4.188
 1971TIP3    H1 5919   3.589   0.481   4.148
 1971TIP3    H2 5920   3.656   0.610   4.188
 1972TIP3   OH2 5921   1.947   2.111  -0.002
 1972TIP3    H1 5922   1.968   2.029   0.042
 1972TIP3    H2 5923   2.030   2.158  -0.005
 1973TIP3   OH2 5924   0.691   4.059   0.831
 1973TIP3    H1 5925   0.678   4.147   0.867
 1973TIP3    H2 5926   0.672   4.000   0.904
 1974TIP3   OH2 5927   2.032   3.780   0.394
 1974TIP3    H1 5928   1.975   3.783   0.317
 1974TIP3    H2 5929   2.061   3.690   0.399
 1975TIP3   OH2 5930   2.417   1.471   1.184
 1975TIP3    H1 5931   2.507   1.482   1.216
 1975TIP3    H2 5932   2.426   1.418   1.105
 1976TIP3   OH2 5933   0.785   0.376   4.376
 1976TIP3    H1 5934   0.748   0.318   4.442
 1976TIP3    H2 5935   0.832   0.318   4.317
 1977TIP3   OH2 5936   2.992   1.215   4.135
 1977TIP3    H1 5937   3.086   1.219   4.155
 1977TIP3    H2 5938   2.955   1.292   4.178
 1978TIP3   OH2 5939   1.795   3.850   3.061
 1978TIP3    H1 5940   1.763   3.894   2.982
 1978TIP3    H2 5941   1.728   3.868   3.127
 1979TIP3   OH2 5942   6.292   3.300   4.557
 1979TIP3    H1 5943   6.232   3.366   4.521
 1979TIP3    H2 5944   6.371   3.309   4.504
 1980TIP3   OH2 5945   2.020   0.500   1.371
 1980TIP3    H1 5946   1.961   0.544   1.432
 1980TIP3    H2 5947   2.098   0.555   1.370
 1981TIP3   OH2 5948   5.005   3.516   3.010
 1981TIP3    H1 5949   5.005   3.564   3.093
 1981TIP3    H2 5950   4.984   3.583   2.945
 1982TIP3   OH2 5951   4.091   0.895   3.074
 1982TIP3    H1 5952   4.042   0.963   3.121
 1982TIP3    H2 5953   4.080   0.816   3.127
 1983TIP3   OH2 5954   5.063   5.887   3.621
 1983TIP3    H1 5955   5.111   5.969   3.618
 1983TIP3    H2 5956   5.131   5.819   3.621
 1984TIP3   OH2 5957   0.120   2.172   0.814
 1984TIP3    H1 5958   0.047   2.186   0.753
 1984TIP3    H2 5959   0.173   2.251   0.806
 1985TIP3   OH2 5960   3.615   3.894   2.428
 1985TIP3    H1 5961   3.602   3.989   2.438
 1985TIP3    H2 5962   3.651   3.884   2.340
 1986TIP3   OH2 5963   1.346   2.801   4.872
 1986TIP3    H1 5964   1.383   2.880   4.832
 1986TIP3    H2 5965   1.386   2.798   4.959
 1987TIP3   OH2 5966   3.030   3.020   1.912
 1987TIP3    H1 5967   3.092   3.084   1.877
 1987TIP3    H2 5968   3.046   2.940   1.862
 1988TIP3   OH2 5969   5.069   2.867   3.637
 1988TIP3    H1 5970   5.009   2.926   3.591
 1988TIP3    H2 5971   5.060   2.891   3.729
 1989TIP3   OH2 5972   3.948   3.569   1.873
 1989TIP3    H1 5973   4.017   3.607   1.928
 1989TIP3    H2 5974   3.965   3.475   1.874
 1990TIP3   OH2 5975   1.993   2.934   4.686
 1990TIP3    H1 5976   1.923   2.981   4.732
 1990TIP3    H2 5977   1.955   2.909   4.602
 1991TIP3   OH2 5978   4.354   0.870   3.997
 1991TIP3    H1 5979   4.388   0.889   3.909
 1991TIP3    H2 5980   4.379   0.780   4.014
 1992TIP3   OH2 5981   4.069   0.316   5.183
 1992TIP3    H1 5982   4.020   0.389   5.147
 1992TIP3    H2 5983   4.140   0.300   5.120
 1993TIP3   OH2 5984   0.262   3.885   4.522
 1993TIP3    H1 5985   0.252   3.814   4.586
 1993TIP3    H2 5986   0.203   3.860   4.451
 1994TIP3   OH2 5987   0.135   3.470   1.114
 1994TIP3    H1 5988   0.087   3.449   1.034
 1994TIP3    H2 5989   0.100   3.410   1.180
 1995TIP3   OH2 5990   0.228   4.932   4.307
 1995TIP3    H1 5991   0.281   4.870   4.358
 1995TIP3    H2 5992   0.224   4.894   4.219
 1996TIP3   OH2 5993   1.303   0.684   4.838
 1996TIP3    H1 5994   1.235   0.617   4.846
 1996TIP3    H2 5995   1.370   0.657   4.901
 1997TIP3   OH2 5996   6.090   5.549   0.576
 1997TIP3    H1 5997   6.085   5.642   0.553
 1997TIP3    H2 5998   6.005   5.530   0.616
 1998TIP3   OH2 5999   6.351   0.092   4.379
 1998TIP3    H1 6000   6.318   0.061   4.294
 1998TIP3    H2 6001   6.332   0.186   4.379
 1999TIP3   OH2 6002   1.759   2.240   0.162
 1999TIP3    H1 6003   1.811   2.237   0.081
 1999TIP3    H2 6004   1.695   2.310   0.146
 2000TIP3   OH2 6005   6.307   3.871   2.220
 2000TIP3    H1 6006   6.359   3.880   2.300
 2000TIP3    H2 6007   6.303   3.959   2.184
 2001TIP3   OH2 6008   5.688   2.193   4.397
 2001TIP3    H1 6009   5.686   2.288   4.383
 2001TIP3    H2 6010   5.604   2.173   4.438
 2002TIP3   OH2 6011   2.365   5.477   3.220
 2002TIP3    H1 6012   2.401   5.561   3.192
 2002TIP3    H2 6013   2.438   5.416   3.216
 2003TIP3   OH2 6014   3.394   1.157   1.129
 2003TIP3    H1 6015   3.397   1.135   1.036
 2003TIP3    H2 6016   3.314   1.115   1.161
 2004TIP3   OH2 6017   0.555   5.588   1.983
 2004TIP3    H1 6018   0.569   5.534   1.905
 2004TIP3    H2 6019   0.501   5.661   1.952
 2005TIP3   OH2 6020   5.218   1.470   2.170
 2005TIP3    H1 6021   5.211   1.398   2.107
 2005TIP3    H2 6022   5.258   1.430   2.247
 2006TIP3   OH2 6023   1.143   4.343   2.225
 2006TIP3    H1 6024   1.222   4.385   2.192
 2006TIP3    H2 6025   1.071   4.398   2.192
 2007TIP3   OH2 6026   3.654   1.307   0.184
 2007TIP3    H1 6027   3.715   1.375   0.212
 2007TIP3    H2 6028   3.708   1.242   0.140
 2008TIP3   OH2 6029   0.550   0.335   0.221
 2008TIP3    H1 6030   0.526   0.264   0.162
 2008TIP3    H2 6031   0.467   0.374   0.247
 2009TIP3   OH2 6032   4.633   5.723   2.567
 2009TIP3    H1 6033   4.676   5.711   2.482
 2009TIP3    H2 6034   4.556   5.667   2.562
 2010TIP3   OH2 6035   4.662   4.001   4.439
 2010TIP3    H1 6036   4.694   4.022   4.351
 2010TIP3    H2 6037   4.570   3.979   4.427
 2011TIP3   OH2 6038   4.728   1.355   1.151
 2011TIP3    H1 6039   4.753   1.267   1.125
 2011TIP3    H2 6040   4.708   1.349   1.244
 2012TIP3   OH2 6041   0.938   4.233   1.221
 2012TIP3    H1 6042   0.898   4.178   1.289
 2012TIP3    H2 6043   1.020   4.264   1.260
 2013TIP3   OH2 6044   5.572   1.480   3.810
 2013TIP3    H1 6045   5.607   1.493   3.722
 2013TIP3    H2 6046   5.559   1.568   3.844
 2014TIP3   OH2 6047   4.722   2.838   1.229
 2014TIP3    H1 6048   4.723   2.819   1.135
 2014TIP3    H2 6049   4.634   2.813   1.258
 2015TIP3   OH2 6050   0.433   0.341   4.552
 2015TIP3    H1 6051   0.446   0.365   4.461
 2015TIP3    H2 6052   0.482   0.259   4.562
 2016TIP3   OH2 6053   3.738   3.259   4.645
 2016TIP3    H1 6054   3.796   3.327   4.610
 2016TIP3    H2 6055   3.725   3.283   4.737
 2017TIP3   OH2 6056   2.233   1.888   3.049
 2017TIP3    H1 6057   2.318   1.911   3.086
 2017TIP3    H2 6058   2.184   1.850   3.123
 2018TIP3   OH2 6059   3.231   0.623   1.252
 2018TIP3    H1 6060   3.280   0.573   1.317
 2018TIP3    H2 6061   3.167   0.561   1.217
 2019TIP3   OH2 6062   0.427   5.277   2.538
 2019TIP3    H1 6063   0.488   5.350   2.522
 2019TIP3    H2 6064   0.482   5.208   2.575
 2020TIP3   OH2 6065   0.883   0.275   1.230
 2020TIP3    H1 6066   0.906   0.364   1.257
 2020TIP3    H2 6067   0.836   0.239   1.305
 2021TIP3   OH2 6068   1.215   4.261   1.309
 2021TIP3    H1 6069   1.292   4.297   1.265
 2021TIP3    H2 6070   1.236   4.169   1.324
 2022TIP3   OH2 6071   2.921   0.876   4.333
 2022TIP3    H1 6072   2.831   0.844   4.327
 2022TIP3    H2 6073   2.972   0.814   4.282
 2023TIP3   OH2 6074   6.264   1.388   0.569
 2023TIP3    H1 6075   6.219   1.319   0.619
 2023TIP3    H2 6076   6.319   1.340   0.507
 2024TIP3   OH2 6077   5.529   3.751   2.261
 2024TIP3    H1 6078   5.573   3.744   2.176
 2024TIP3    H2 6079   5.598   3.777   2.322
 2025TIP3   OH2 6080   3.349   1.182   2.983
 2025TIP3    H1 6081   3.375   1.237   3.057
 2025TIP3    H2 6082   3.332   1.096   3.022
 2026TIP3   OH2 6083   3.445   5.240   1.316
 2026TIP3    H1 6084   3.398   5.157   1.327
 2026TIP3    H2 6085   3.485   5.256   1.401
 2027TIP3   OH2 6086   5.701   0.753   3.103
 2027TIP3    H1 6087   5.683   0.842   3.135
 2027TIP3    H2 6088   5.711   0.701   3.182
 2028TIP3   OH2 6089   3.474   2.097   0.571
 2028TIP3    H1 6090   3.548   2.121   0.627
 2028TIP3    H2 6091   3.476   2.161   0.499
 2029TIP3   OH2 6092   0.760   0.940   0.702
 2029TIP3    H1 6093   0.725   0.902   0.782
 2029TIP3    H2 6094   0.807   1.019   0.731
 2030TIP3   OH2 6095   3.727   5.535   4.469
 2030TIP3    H1 6096   3.765   5.596   4.406
 2030TIP3    H2 6097   3.710   5.456   4.419
 2031TIP3   OH2 6098   2.998   3.797   2.845
 2031TIP3    H1 6099   3.093   3.795   2.853
 2031TIP3    H2 6100   2.965   3.796   2.935
 2032TIP3   OH2 6101   5.355   1.191   0.344
 2032TIP3    H1 6102   5.399   1.144   0.273
 2032TIP3    H2 6103   5.356   1.283   0.316
 2033TIP3   OH2 6104   0.121   1.901   1.850
 2033TIP3    H1 6105   0.124   1.991   1.819
 2033TIP3    H2 6106   0.200   1.861   1.814
 2034TIP3   OH2 6107   0.727   2.148   5.081
 2034TIP3    H1 6108   0.822   2.152   5.084
 2034TIP3    H2 6109   0.698   2.199   5.157
 2035TIP3   OH2 6110   1.245   2.766   1.763
 2035TIP3    H1 6111   1.190   2.688   1.774
 2035TIP3    H2 6112   1.196   2.836   1.806
 2036TIP3   OH2 6113   4.657   1.312   3.898
 2036TIP3    H1 6114   4.684   1.351   3.815
 2036TIP3    H2 6115   4.595   1.375   3.934
 2037TIP3   OH2 6116   1.241   0.797   1.306
 2037TIP3    H1 6117   1.150   0.809   1.278
 2037TIP3    H2 6118   1.282   0.749   1.234
 2038TIP3   OH2 6119   0.480   3.397   1.916
 2038TIP3    H1 6120   0.453   3.438   1.834
 2038TIP3    H2 6121   0.432   3.313   1.917
 2039TIP3   OH2 6122   2.211   4.233   5.176
 2039TIP3    H1 6123   2.219   4.139   5.191
 2039TIP3    H2 6124   2.166   4.240   5.091
 2040TIP3   OH2 6125   2.441   2.121   5.047
 2040TIP3    H1 6126   2.527   2.097   5.012
 2040TIP3    H2 6127   2.458   2.192   5.108
 2041TIP3   OH2 6128   1.424   0.962   0.627
 2041TIP3    H1 6129   1.465   0.907   0.694
 2041TIP3    H2 6130   1.468   1.047   0.636
 2042TIP3   OH2 6131   5.872   4.361   4.690
 2042TIP3    H1 6132   5.778   4.343   4.700
 2042TIP3    H2 6133   5.876   4.454   4.665
 2043TIP3   OH2 6134   3.016   0.904   2.281
 2043TIP3    H1 6135   3.087   0.957   2.243
 2043TIP3    H2 6136   3.013   0.930   2.373
 2044TIP3   OH2 6137   5.693   0.602   3.321
 2044TIP3    H1 6138   5.606   0.564   3.324
 2044TIP3    H2 6139   5.740   0.559   3.392
 2045TIP3   OH2 6140   4.912   1.000   2.806
 2045TIP3    H1 6141   4.847   1.011   2.737
 2045TIP3    H2 6142   4.948   0.913   2.792
 2046TIP3   OH2 6143   2.285   4.288   3.245
 2046TIP3    H1 6144   2.337   4.360   3.208
 2046TIP3    H2 6145   2.337   4.256   3.318
 2047TIP3   OH2 6146   3.498   2.948   4.850
 2047TIP3    H1 6147   3.570   3.001   4.883
 2047TIP3    H2 6148   3.443   3.010   4.802
 2048TIP3   OH2 6149   2.641   1.478   0.546
 2048TIP3    H1 6150   2.734   1.496   0.557
 2048TIP3    H2 6151   2.632   1.447   0.456
 2049TIP3   OH2 6152   2.612   1.171   2.660
 2049TIP3    H1 6153   2.667   1.226   2.605
 2049TIP3    H2 6154   2.541   1.142   2.602
 2050TIP3   OH2 6155   0.096   4.780   4.781
 2050TIP3    H1 6156   0.048   4.702   4.812
 2050TIP3    H2 6157   0.187   4.764   4.806
 2051TIP3   OH2 6158   6.014   3.040   1.239
 2051TIP3    H1 6159   6.096   3.042   1.191
 2051TIP3    H2 6160   5.994   3.132   1.257
 2052TIP3   OH2 6161   6.066   4.114   3.637
 2052TIP3    H1 6162   6.039   4.104   3.545
 2052TIP3    H2 6163   6.160   4.132   3.632
 2053TIP3   OH2 6164   2.844   5.638   4.289
 2053TIP3    H1 6165   2.929   5.620   4.329
 2053TIP3    H2 6166   2.808   5.711   4.340
 2054TIP3   OH2 6167   3.212   3.451   3.808
 2054TIP3    H1 6168   3.250   3.523   3.858
 2054TIP3    H2 6169   3.244   3.372   3.851
 2055TIP3   OH2 6170   2.112   0.302   4.986
 2055TIP3    H1 6171   2.161   0.379   5.015
 2055TIP3    H2 6172   2.149   0.230   5.038
 2056TIP3   OH2 6173   3.374   1.608   1.497
 2056TIP3    H1 6174   3.294   1.640   1.455
 2056TIP3    H2 6175   3.406   1.539   1.438
 2057TIP3   OH2 6176   0.979   3.450   4.694
 2057TIP3    H1 6177   0.922   3.450   4.618
 2057TIP3    H2 6178   0.982   3.542   4.721
 2058TIP3   OH2 6179   6.095   5.002   4.525
 2058TIP3    H1 6180   6.119   5.095   4.530
 2058TIP3    H2 6181   6.156   4.958   4.584
 2059TIP3   OH2 6182   0.181   3.219   4.723
 2059TIP3    H1 6183   0.113   3.272   4.764
 2059TIP3    H2 6184   0.176   3.241   4.630
 2060TIP3   OH2 6185   3.212   5.369   1.764
 2060TIP3    H1 6186   3.290   5.314   1.770
 2060TIP3    H2 6187   3.194   5.376   1.670
 2061TIP3   OH2 6188   1.177   4.574   1.141
 2061TIP3    H1 6189   1.268   4.546   1.132
 2061TIP3    H2 6190   1.155   4.553   1.231
 2062TIP3   OH2 6191   5.036   2.225   2.733
 2062TIP3    H1 6192   5.022   2.143   2.780
 2062TIP3    H2 6193   5.028   2.201   2.640
 2063TIP3   OH2 6194   4.898   1.885   3.267
 2063TIP3    H1 6195   4.808   1.852   3.272
 2063TIP3    H2 6196   4.901   1.955   3.332
 2064TIP3   OH2 6197   3.838   3.118   0.365
 2064TIP3    H1 6198   3.831   3.206   0.402
 2064TIP3    H2 6199   3.802   3.126   0.277
 2065TIP3   OH2 6200   6.107   1.698   2.687
 2065TIP3    H1 6201   6.040   1.764   2.668
 2065TIP3    H2 6202   6.081   1.622   2.635
 2066TIP3   OH2 6203   0.086   1.002   3.390
 2066TIP3    H1 6204   0.060   1.057   3.463
 2066TIP3    H2 6205   0.061   1.051   3.312
 2067TIP3   OH2 6206   5.710   5.819   3.692
 2067TIP3    H1 6207   5.800   5.801   3.665
 2067TIP3    H2 6208   5.678   5.882   3.628
 2068TIP3   OH2 6209   4.017   0.777   0.598
 2068TIP3    H1 6210   3.943   0.835   0.612
 2068TIP3    H2 6211   4.086   0.812   0.655
 2069TIP3   OH2 6212   4.647   2.136   3.519
 2069TIP3    H1 6213   4.671   2.170   3.605
 2069TIP3    H2 6214   4.721   2.157   3.463
 2070TIP3   OH2 6215   4.659   2.859   0.015
 2070TIP3    H1 6216   4.594   2.894   0.076
 2070TIP3    H2 6217   4.609   2.803  -0.044
 2071TIP3   OH2 6218   4.119   3.766   4.182
 2071TIP3    H1 6219   4.120   3.671   4.189
 2071TIP3    H2 6220   4.208   3.790   4.155
 2072TIP3   OH2 6221   1.132   2.776   0.742
 2072TIP3    H1 6222   1.064   2.844   0.747
 2072TIP3    H2 6223   1.108   2.724   0.666
 2073TIP3   OH2 6224   0.553   2.697   3.348
 2073TIP3    H1 6225   0.633   2.726   3.392
 2073TIP3    H2 6226   0.483   2.749   3.389
 2074TIP3   OH2 6227   1.554   1.202   0.559
 2074TIP3    H1 6228   1.603   1.241   0.631
 2074TIP3    H2 6229   1.616   1.198   0.486
 2075TIP3   OH2 6230   4.618   4.477   1.658
 2075TIP3    H1 6231   4.563   4.401   1.677
 2075TIP3    H2 6232   4.628   4.521   1.742
 2076TIP3   OH2 6233   1.717   4.820   0.169
 2076TIP3    H1 6234   1.673   4.893   0.126
 2076TIP3    H2 6235   1.657   4.746   0.160
 2077TIP3   OH2 6236   5.418   3.293   0.336
 2077TIP3    H1 6237   5.460   3.372   0.370
 2077TIP3    H2 6238   5.356   3.268   0.404
 2078TIP3   OH2 6239   3.452   1.359   3.176
 2078TIP3    H1 6240   3.541   1.373   3.145
 2078TIP3    H2 6241   3.428   1.440   3.221
 2079TIP3   OH2 6242   2.931   5.454   4.764
 2079TIP3    H1 6243   2.882   5.504   4.829
 2079TIP3    H2 6244   2.876   5.377   4.747
 2080TIP3   OH2 6245   5.814   1.514   2.241
 2080TIP3    H1 6246   5.755   1.526   2.166
 2080TIP3    H2 6247   5.832   1.603   2.272
 2081TIP3   OH2 6248   1.713   3.510   3.837
 2081TIP3    H1 6249   1.642   3.465   3.882
 2081TIP3    H2 6250   1.754   3.441   3.784
 2082TIP3   OH2 6251   4.250   0.253   4.940
 2082TIP3    H1 6252   4.306   0.274   4.865
 2082TIP3    H2 6253   4.304   0.273   5.016
 2083TIP3   OH2 6254   5.532   5.807   2.745
 2083TIP3    H1 6255   5.469   5.798   2.816
 2083TIP3    H2 6256   5.537   5.720   2.706
 2084TIP3   OH2 6257   3.577   0.834   1.093
 2084TIP3    H1 6258   3.484   0.856   1.103
 2084TIP3    H2 6259   3.623   0.906   1.134
 2085TIP3   OH2 6260   1.339   5.105   2.392
 2085TIP3    H1 6261   1.413   5.163   2.374
 2085TIP3    H2 6262   1.265   5.165   2.409
 2086TIP3   OH2 6263   4.738   1.979   2.638
 2086TIP3    H1 6264   4.653   2.011   2.608
 2086TIP3    H2 6265   4.801   2.039   2.598
 2087TIP3   OH2 6266   5.517   0.002   3.058
 2087TIP3    H1 6267   5.449   0.025   2.995
 2087TIP3    H2 6268   5.598   0.004   3.008
 2088TIP3   OH2 6269   4.853   1.072   1.851
 2088TIP3    H1 6270   4.766   1.104   1.826
 2088TIP3    H2 6271   4.837   1.016   1.927
 2089TIP3   OH2 6272   1.104   4.684   0.723
 2089TIP3    H1 6273   1.084   4.729   0.641
 2089TIP3    H2 6274   1.136   4.753   0.781
 2090TIP3   OH2 6275   3.830   5.253   2.636
 2090TIP3    H1 6276   3.820   5.286   2.725
 2090TIP3    H2 6277   3.742   5.226   2.609
 2091TIP3   OH2 6278   3.814   1.961   0.114
 2091TIP3    H1 6279   3.751   1.894   0.142
 2091TIP3    H2 6280   3.841   2.003   0.195
 2092TIP3   OH2 6281   0.409   2.558   0.355
 2092TIP3    H1 6282   0.462   2.529   0.281
 2092TIP3    H2 6283   0.470   2.605   0.412
 2093TIP3   OH2 6284   4.501   1.282   1.371
 2093TIP3    H1 6285   4.433   1.231   1.415
 2093TIP3    H2 6286   4.517   1.356   1.429
 2094TIP3   OH2 6287   3.346   1.825   2.729
 2094TIP3    H1 6288   3.411   1.851   2.794
 2094TIP3    H2 6289   3.387   1.752   2.682
 2095TIP3   OH2 6290   0.553   1.448   2.006
 2095TIP3    H1 6291   0.533   1.378   2.068
 2095TIP3    H2 6292   0.648   1.455   2.007
 2096TIP3   OH2 6293   1.503   1.568   3.969
 2096TIP3    H1 6294   1.543   1.518   4.040
 2096TIP3    H2 6295   1.451   1.635   4.013
 2097TIP3   OH2 6296   5.268   3.635   2.293
 2097TIP3    H1 6297   5.344   3.688   2.318
 2097TIP3    H2 6298   5.305   3.562   2.243
 2098TIP3   OH2 6299   1.784   4.827   5.059
 2098TIP3    H1 6300   1.874   4.817   5.030
 2098TIP3    H2 6301   1.731   4.793   4.987
 2099TIP3   OH2 6302   2.956   3.073   1.558
 2099TIP3    H1 6303   2.953   3.107   1.469
 2099TIP3    H2 6304   2.868   3.090   1.593
 2100TIP3   OH2 6305   5.345   0.586   0.510
 2100TIP3    H1 6306   5.260   0.574   0.466
 2100TIP3    H2 6307   5.349   0.513   0.572
 2101TIP3   OH2 6308   1.598   0.153   0.352
 2101TIP3    H1 6309   1.640   0.188   0.273
 2101TIP3    H2 6310   1.517   0.204   0.360
 2102TIP3   OH2 6311   4.752   0.518   4.546
 2102TIP3    H1 6312   4.706   0.546   4.626
 2102TIP3    H2 6313   4.689   0.532   4.476
 2103TIP3   OH2 6314   5.575   4.926   0.433
 2103TIP3    H1 6315   5.555   4.998   0.374
 2103TIP3    H2 6316   5.530   4.851   0.394
 2104TIP3   OH2 6317   4.091   3.692   1.473
 2104TIP3    H1 6318   4.168   3.638   1.491
 2104TIP3    H2 6319   4.082   3.690   1.377
 2105TIP3   OH2 6320   4.940   1.384   2.116
 2105TIP3    H1 6321   4.987   1.456   2.157
 2105TIP3    H2 6322   5.003   1.346   2.054
 2106TIP3   OH2 6323   3.076   0.808   4.118
 2106TIP3    H1 6324   3.130   0.823   4.195
 2106TIP3    H2 6325   3.101   0.722   4.087
 2107TIP3   OH2 6326   6.152   1.855   1.059
 2107TIP3    H1 6327   6.198   1.779   1.094
 2107TIP3    H2 6328   6.219   1.903   1.010
 2108TIP3   OH2 6329   1.552   1.270   3.376
 2108TIP3    H1 6330   1.519   1.245   3.462
 2108TIP3    H2 6331   1.643   1.295   3.391
 2109TIP3   OH2 6332   1.812   0.230   0.026
 2109TIP3    H1 6333   1.811   0.305   0.086
 2109TIP3    H2 6334   1.720   0.209   0.012
 2110TIP3   OH2 6335   2.606   4.956   1.314
 2110TIP3    H1 6336   2.643   5.006   1.241
 2110TIP3    H2 6337   2.524   4.920   1.279
 2111TIP3   OH2 6338   4.564   4.768   4.526
 2111TIP3    H1 6339   4.532   4.746   4.439
 2111TIP3    H2 6340   4.655   4.793   4.513
 2112TIP3   OH2 6341   0.070   5.346   1.724
 2112TIP3    H1 6342   0.157   5.333   1.685
 2112TIP3    H2 6343   0.036   5.425   1.681
 2113TIP3   OH2 6344   6.236   4.413   2.355
 2113TIP3    H1 6345   6.261   4.497   2.317
 2113TIP3    H2 6346   6.185   4.436   2.433
 2114TIP3   OH2 6347   6.178   0.540   2.840
 2114TIP3    H1 6348   6.109   0.568   2.901
 2114TIP3    H2 6349   6.230   0.619   2.824
 2115TIP3   OH2 6350   2.708   1.709   1.405
 2115TIP3    H1 6351   2.757   1.790   1.394
 2115TIP3    H2 6352   2.650   1.725   1.480
 2116TIP3   OH2 6353   4.401   2.054   3.551
 2116TIP3    H1 6354   4.357   2.107   3.618
 2116TIP3    H2 6355   4.491   2.087   3.549
 2117TIP3   OH2 6356   3.231   3.939   4.916
 2117TIP3    H1 6357   3.181   3.956   4.836
 2117TIP3    H2 6358   3.172   3.965   4.987
 2118TIP3   OH2 6359   4.044   5.715   2.045
 2118TIP3    H1 6360   4.023   5.631   2.086
 2118TIP3    H2 6361   4.068   5.772   2.119
 2119TIP3   OH2 6362   1.930   5.091   2.962
 2119TIP3    H1 6363   1.995   5.131   2.904
 2119TIP3    H2 6364   1.847   5.129   2.935
 2120TIP3   OH2 6365   3.913   0.912   2.204
 2120TIP3    H1 6366   3.874   0.958   2.278
 2120TIP3    H2 6367   4.005   0.939   2.204
 2121TIP3   OH2 6368   5.393   3.799   3.666
 2121TIP3    H1 6369   5.452   3.868   3.696
 2121TIP3    H2 6370   5.445   3.749   3.603
 2122TIP3   OH2 6371   2.413   4.833   0.825
 2122TIP3    H1 6372   2.356   4.910   0.828
 2122TIP3    H2 6373   2.381   4.782   0.750
 2123TIP3   OH2 6374   4.269   1.588   1.272
 2123TIP3    H1 6375   4.252   1.514   1.332
 2123TIP3    H2 6376   4.361   1.579   1.249
 2124TIP3   OH2 6377   5.620   4.483   0.886
 2124TIP3    H1 6378   5.566   4.538   0.941
 2124TIP3    H2 6379   5.684   4.543   0.847
 2125TIP3   OH2 6380   2.529   3.233   2.725
 2125TIP3    H1 6381   2.507   3.141   2.712
 2125TIP3    H2 6382   2.464   3.281   2.674
 2126TIP3   OH2 6383   4.203   2.816   4.149
 2126TIP3    H1 6384   4.202   2.721   4.161
 2126TIP3    H2 6385   4.231   2.851   4.233
 2127TIP3   OH2 6386   5.784   5.605   4.157
 2127TIP3    H1 6387   5.866   5.605   4.106
 2127TIP3    H2 6388   5.808   5.645   4.240
 2128TIP3   OH2 6389   1.649   5.113   2.626
 2128TIP3    H1 6390   1.621   5.028   2.660
 2128TIP3    H2 6391   1.672   5.164   2.703
 2129TIP3   OH2 6392   6.282   4.120   2.121
 2129TIP3    H1 6393   6.350   4.099   2.057
 2129TIP3    H2 6394   6.276   4.216   2.119
 2130TIP3   OH2 6395   2.443   2.158   2.504
 2130TIP3    H1 6396   2.375   2.207   2.549
 2130TIP3    H2 6397   2.487   2.222   2.448
 2131TIP3   OH2 6398   5.280   3.969   2.452
 2131TIP3    H1 6399   5.331   3.953   2.373
 2131TIP3    H2 6400   5.216   4.036   2.426
 2132TIP3   OH2 6401   3.733   2.889   0.454
 2132TIP3    H1 6402   3.641   2.914   0.455
 2132TIP3    H2 6403   3.780   2.970   0.433
 2133TIP3   OH2 6404   3.515   5.813   0.776
 2133TIP3    H1 6405   3.466   5.741   0.736
 2133TIP3    H2 6406   3.450   5.881   0.791
 2134TIP3   OH2 6407   0.027   5.832   4.140
 2134TIP3    H1 6408   0.088   5.902   4.115
 2134TIP3    H2 6409   0.083   5.755   4.154
 2135TIP3   OH2 6410   2.438   3.825   3.086
 2135TIP3    H1 6411   2.494   3.763   3.038
 2135TIP3    H2 6412   2.495   3.863   3.152
 2136TIP3   OH2 6413   3.753   2.806   1.378
 2136TIP3    H1 6414   3.769   2.810   1.473
 2136TIP3    H2 6415   3.814   2.869   1.341
 2137TIP3   OH2 6416   6.286   5.253   4.790
 2137TIP3    H1 6417   6.288   5.218   4.879
 2137TIP3    H2 6418   6.294   5.175   4.734
 2138TIP3   OH2 6419   3.808   0.464   0.418
 2138TIP3    H1 6420   3.776   0.381   0.385
 2138TIP3    H2 6421   3.851   0.442   0.501
 2139TIP3   OH2 6422   5.648   2.195   3.528
 2139TIP3    H1 6423   5.574   2.202   3.467
 2139TIP3    H2 6424   5.716   2.250   3.489
 2140TIP3   OH2 6425   1.109   1.625   0.642
 2140TIP3    H1 6426   1.161   1.611   0.721
 2140TIP3    H2 6427   1.027   1.577   0.659
 2141TIP3   OH2 6428   4.405   1.705   2.268
 2141TIP3    H1 6429   4.390   1.648   2.193
 2141TIP3    H2 6430   4.498   1.728   2.263
 2142TIP3   OH2 6431   4.978   2.531   2.413
 2142TIP3    H1 6432   5.048   2.530   2.478
 2142TIP3    H2 6433   4.928   2.451   2.430
 2143TIP3   OH2 6434   6.201   2.650   0.799
 2143TIP3    H1 6435   6.269   2.642   0.732
 2143TIP3    H2 6436   6.118   2.641   0.751
 2144TIP3   OH2 6437   3.303   5.592   4.479
 2144TIP3    H1 6438   3.315   5.512   4.428
 2144TIP3    H2 6439   3.218   5.581   4.521
 2145TIP3   OH2 6440   5.891   3.813   1.381
 2145TIP3    H1 6441   5.824   3.864   1.336
 2145TIP3    H2 6442   5.896   3.852   1.468
 2146TIP3   OH2 6443   4.681   0.268   0.310
 2146TIP3    H1 6444   4.745   0.217   0.259
 2146TIP3    H2 6445   4.596   0.230   0.288
 2147TIP3   OH2 6446   2.304   0.501   5.098
 2147TIP3    H1 6447   2.297   0.545   5.013
 2147TIP3    H2 6448   2.397   0.481   5.106
 2148TIP3   OH2 6449   2.881   0.195   1.070
 2148TIP3    H1 6450   2.793   0.231   1.061
 2148TIP3    H2 6451   2.868   0.101   1.078
 2149TIP3   OH2 6452   2.767   1.908   4.252
 2149TIP3    H1 6453   2.739   1.943   4.336
 2149TIP3    H2 6454   2.744   1.815   4.255
 2150TIP3   OH2 6455   2.885   4.107   3.809
 2150TIP3    H1 6456   2.887   4.199   3.834
 2150TIP3    H2 6457   2.821   4.102   3.738
 2151TIP3   OH2 6458   5.882   0.874   0.827
 2151TIP3    H1 6459   5.874   0.964   0.857
 2151TIP3    H2 6460   5.794   0.849   0.800
 2152TIP3   OH2 6461   3.792   4.546   3.225
 2152TIP3    H1 6462   3.880   4.558   3.260
 2152TIP3    H2 6463   3.738   4.609   3.273
 2153TIP3   OH2 6464   1.575   2.415   0.372
 2153TIP3    H1 6465   1.515   2.465   0.427
 2153TIP3    H2 6466   1.622   2.481   0.322
 2154TIP3   OH2 6467   4.688   1.070   2.647
 2154TIP3    H1 6468   4.724   1.080   2.559
 2154TIP3    H2 6469   4.596   1.050   2.633
 2155TIP3   OH2 6470   0.176   1.103   4.344
 2155TIP3    H1 6471   0.239   1.121   4.275
 2155TIP3    H2 6472   0.116   1.177   4.341
 2156TIP3   OH2 6473   4.568   0.507   0.800
 2156TIP3    H1 6474   4.603   0.489   0.713
 2156TIP3    H2 6475   4.621   0.580   0.832
 2157TIP3   OH2 6476   5.246   5.756   1.588
 2157TIP3    H1 6477   5.230   5.767   1.494
 2157TIP3    H2 6478   5.299   5.832   1.611
 2158TIP3   OH2 6479   0.606   5.508   4.575
 2158TIP3    H1 6480   0.620   5.422   4.616
 2158TIP3    H2 6481   0.549   5.489   4.500
 2159TIP3   OH2 6482   4.785   3.155   3.750
 2159TIP3    H1 6483   4.701   3.111   3.764
 2159TIP3    H2 6484   4.820   3.116   3.670
 2160TIP3   OH2 6485   0.686   3.770   4.543
 2160TIP3    H1 6486   0.758   3.780   4.481
 2160TIP3    H2 6487   0.700   3.684   4.583
 2161TIP3   OH2 6488   0.144   2.199   1.241
 2161TIP3    H1 6489   0.049   2.206   1.250
 2161TIP3    H2 6490   0.178   2.233   1.324
 2162TIP3   OH2 6491   3.641   2.825   0.724
 2162TIP3    H1 6492   3.694   2.889   0.677
 2162TIP3    H2 6493   3.610   2.764   0.657
 2163TIP3   OH2 6494   4.101   5.224   2.309
 2163TIP3    H1 6495   4.139   5.171   2.240
 2163TIP3    H2 6496   4.018   5.254   2.273
 2164TIP3   OH2 6497   1.968   3.324   2.507
 2164TIP3    H1 6498   1.926   3.356   2.587
 2164TIP3    H2 6499   1.957   3.229   2.511
 2165TIP3   OH2 6500   6.101   0.043   1.814
 2165TIP3    H1 6501   6.191   0.026   1.841
 2165TIP3    H2 6502   6.072  -0.039   1.774
 2166TIP3   OH2 6503   0.930   3.002   0.196
 2166TIP3    H1 6504   0.985   2.978   0.271
 2166TIP3    H2 6505   0.970   2.958   0.122
 2167TIP3   OH2 6506   3.274   5.164   5.116
 2167TIP3    H1 6507   3.293   5.114   5.036
 2167TIP3    H2 6508   3.321   5.116   5.185
 2168TIP3   OH2 6509   1.187   5.652   1.861
 2168TIP3    H1 6510   1.108   5.698   1.833
 2168TIP3    H2 6511   1.159   5.562   1.875
 2169TIP3   OH2 6512   5.630   0.355   1.760
 2169TIP3    H1 6513   5.696   0.411   1.801
 2169TIP3    H2 6514   5.595   0.302   1.831
 2170TIP3   OH2 6515   1.382   4.706   4.667
 2170TIP3    H1 6516   1.449   4.769   4.692
 2170TIP3    H2 6517   1.356   4.664   4.749
 2171TIP3   OH2 6518   0.157   3.548   4.651
 2171TIP3    H1 6519   0.190   3.467   4.690
 2171TIP3    H2 6520   0.187   3.617   4.711
 2172TIP3   OH2 6521   3.856   0.079   2.115
 2172TIP3    H1 6522   3.894   0.165   2.095
 2172TIP3    H2 6523   3.932   0.022   2.124
 2173TIP3   OH2 6524   3.490   4.921   0.445
 2173TIP3    H1 6525   3.492   4.903   0.539
 2173TIP3    H2 6526   3.413   4.876   0.413
 2174TIP3   OH2 6527   3.177   1.560   0.077
 2174TIP3    H1 6528   3.154   1.469   0.100
 2174TIP3    H2 6529   3.099   1.610   0.101
 2175TIP3   OH2 6530   4.108   3.372   0.438
 2175TIP3    H1 6531   4.019   3.383   0.470
 2175TIP3    H2 6532   4.101   3.378   0.343
 2176TIP3   OH2 6533   2.717   2.526   2.111
 2176TIP3    H1 6534   2.677   2.612   2.128
 2176TIP3    H2 6535   2.679   2.468   2.177
 2177TIP3   OH2 6536   2.426   2.328   2.083
 2177TIP3    H1 6537   2.361   2.272   2.127
 2177TIP3    H2 6538   2.475   2.368   2.154
 2178TIP3   OH2 6539   2.585   5.089   2.420
 2178TIP3    H1 6540   2.666   5.066   2.375
 2178TIP3    H2 6541   2.520   5.028   2.387
 2179TIP3   OH2 6542   3.232   2.549   3.086
 2179TIP3    H1 6543   3.253   2.504   3.004
 2179TIP3    H2 6544   3.191   2.482   3.141
 2180TIP3   OH2 6545   3.303   5.836   0.504
 2180TIP3    H1 6546   3.376   5.796   0.457
 2180TIP3    H2 6547   3.226   5.811   0.455
 2181TIP3   OH2 6548   0.336   5.679   3.885
 2181TIP3    H1 6549   0.373   5.594   3.862
 2181TIP3    H2 6550   0.386   5.742   3.833
 2182TIP3   OH2 6551   0.953   4.117   2.651
 2182TIP3    H1 6552   0.866   4.153   2.633
 2182TIP3    H2 6553   0.996   4.113   2.566
 2183TIP3   OH2 6554   0.436   4.725   3.912
 2183TIP3    H1 6555   0.406   4.800   3.860
 2183TIP3    H2 6556   0.357   4.692   3.955
 2184TIP3   OH2 6557   1.741   4.864   2.956
 2184TIP3    H1 6558   1.687   4.828   2.886
 2184TIP3    H2 6559   1.689   4.937   2.991
 2185TIP3   OH2 6560   4.465   3.784   3.806
 2185TIP3    H1 6561   4.472   3.833   3.725
 2185TIP3    H2 6562   4.372   3.765   3.816
 2186TIP3   OH2 6563   0.419   2.286   2.186
 2186TIP3    H1 6564   0.429   2.369   2.139
 2186TIP3    H2 6565   0.329   2.260   2.168
 2187TIP3   OH2 6566   5.388   4.225   0.104
 2187TIP3    H1 6567   5.435   4.150   0.140
 2187TIP3    H2 6568   5.364   4.198   0.015
 2188TIP3   OH2 6569   1.621   0.393   1.362
 2188TIP3    H1 6570   1.608   0.470   1.306
 2188TIP3    H2 6571   1.588   0.420   1.448
 2189TIP3   OH2 6572   5.959   5.624   5.044
 2189TIP3    H1 6573   5.900   5.670   4.984
 2189TIP3    H2 6574   6.046   5.640   5.008
 2190TIP3   OH2 6575   5.316   4.079   4.878
 2190TIP3    H1 6576   5.338   4.021   4.951
 2190TIP3    H2 6577   5.347   4.165   4.906
 2191TIP3   OH2 6578   2.779   2.836   2.539
 2191TIP3    H1 6579   2.772   2.912   2.597
 2191TIP3    H2 6580   2.738   2.765   2.588
 2192TIP3   OH2 6581   4.114   0.607   0.414
 2192TIP3    H1 6582   4.075   0.522   0.432
 2192TIP3    H2 6583   4.073   0.666   0.477
 2193TIP3   OH2 6584   2.410   2.724   4.656
 2193TIP3    H1 6585   2.336   2.757   4.707
 2193TIP3    H2 6586   2.381   2.639   4.623
 2194TIP3   OH2 6587   0.230   3.359   0.301
 2194TIP3    H1 6588   0.302   3.340   0.240
 2194TIP3    H2 6589   0.273   3.391   0.380
 2195TIP3   OH2 6590   3.600   5.891   2.886
 2195TIP3    H1 6591   3.558   5.827   2.828
 2195TIP3    H2 6592   3.666   5.841   2.934
 2196TIP3   OH2 6593   6.206   0.374   1.215
 2196TIP3    H1 6594   6.296   0.341   1.213
 2196TIP3    H2 6595   6.216   0.469   1.205
 2197TIP3   OH2 6596   0.871   5.022   0.262
 2197TIP3    H1 6597   0.901   5.014   0.352
 2197TIP3    H2 6598   0.779   5.047   0.270
 2198TIP3   OH2 6599   0.638   4.197   3.739
 2198TIP3    H1 6600   0.631   4.110   3.700
 2198TIP3    H2 6601   0.723   4.230   3.708
 2199TIP3   OH2 6602   5.803   4.413   3.461
 2199TIP3    H1 6603   5.869   4.482   3.452
 2199TIP3    H2 6604   5.788   4.407   3.556
 2200TIP3   OH2 6605   0.528   0.826   4.764
 2200TIP3    H1 6606   0.523   0.894   4.831
 2200TIP3    H2 6607   0.622   0.817   4.747
 2201TIP3   OH2 6608   1.620   2.401   4.050
 2201TIP3    H1 6609   1.682   2.403   4.123
 2201TIP3    H2 6610   1.569   2.481   4.060
 2202TIP3   OH2 6611   5.681   5.193   4.876
 2202TIP3    H1 6612   5.687   5.174   4.970
 2202TIP3    H2 6613   5.619   5.128   4.842
 2203TIP3   OH2 6614   5.909   4.165   3.850
 2203TIP3    H1 6615   5.964   4.169   3.772
 2203TIP3    H2 6616   5.858   4.085   3.840
 2204TIP3   OH2 6617   3.756   5.078   0.020
 2204TIP3    H1 6618   3.707   5.119  -0.051
 2204TIP3    H2 6619   3.754   5.142   0.091
 2205TIP3   OH2 6620   0.231   0.767   1.916
 2205TIP3    H1 6621   0.294   0.780   1.845
 2205TIP3    H2 6622   0.254   0.682   1.953
 2206TIP3   OH2 6623   5.964   1.132   4.989
 2206TIP3    H1 6624   6.026   1.199   5.017
 2206TIP3    H2 6625   6.004   1.050   5.014
 2207TIP3   OH2 6626   1.679   5.050   3.373
 2207TIP3    H1 6627   1.637   4.995   3.439
 2207TIP3    H2 6628   1.672   5.139   3.408
 2208TIP3   OH2 6629   0.328   2.583   4.994
 2208TIP3    H1 6630   0.351   2.623   4.910
 2208TIP3    H2 6631   0.233   2.597   5.002
 2209TIP3   OH2 6632   0.621   2.181   1.813
 2209TIP3    H1 6633   0.548   2.144   1.863
 2209TIP3    H2 6634   0.662   2.244   1.873
 2210TIP3   OH2 6635   3.502   5.245   0.176
 2210TIP3    H1 6636   3.530   5.272   0.089
 2210TIP3    H2 6637   3.492   5.150   0.170
 2211TIP3   OH2 6638   3.203   1.983   4.439
 2211TIP3    H1 6639   3.191   1.903   4.489
 2211TIP3    H2 6640   3.194   2.053   4.503
 2212TIP3   OH2 6641   2.138   0.431   0.575
 2212TIP3    H1 6642   2.164   0.393   0.491
 2212TIP3    H2 6643   2.117   0.355   0.630
 2213TIP3   OH2 6644   0.644   5.690   1.154
 2213TIP3    H1 6645   0.630   5.605   1.196
 2213TIP3    H2 6646   0.576   5.695   1.087
 2214TIP3   OH2 6647   3.013   1.621   1.235
 2214TIP3    H1 6648   3.072   1.658   1.300
 2214TIP3    H2 6649   2.965   1.695   1.199
 2215TIP3   OH2 6650   1.555   3.083   5.099
 2215TIP3    H1 6651   1.624   3.040   5.048
 2215TIP3    H2 6652   1.588   3.171   5.115
 2216TIP3   OH2 6653   2.083   2.688   2.053
 2216TIP3    H1 6654   2.026   2.755   2.015
 2216TIP3    H2 6655   2.171   2.721   2.039
 2217TIP3   OH2 6656   2.456   2.416   4.591
 2217TIP3    H1 6657   2.462   2.346   4.526
 2217TIP3    H2 6658   2.468   2.373   4.675
 2218TIP3   OH2 6659   1.268   0.963   1.726
 2218TIP3    H1 6660   1.330   0.892   1.740
 2218TIP3    H2 6661   1.274   1.016   1.805
 2219TIP3   OH2 6662   6.037   4.683   1.138
 2219TIP3    H1 6663   5.962   4.742   1.140
 2219TIP3    H2 6664   6.040   4.651   1.048
 2220TIP3   OH2 6665   3.296   3.812   2.856
 2220TIP3    H1 6666   3.351   3.789   2.781
 2220TIP3    H2 6667   3.293   3.733   2.910
 2221TIP3   OH2 6668   3.690   3.562   1.797
 2221TIP3    H1 6669   3.692   3.501   1.723
 2221TIP3    H2 6670   3.781   3.591   1.807
 2222TIP3   OH2 6671   2.939   1.612   4.741
 2222TIP3    H1 6672   2.996   1.574   4.673
 2222TIP3    H2 6673   2.998   1.668   4.792
 2223TIP3   OH2 6674   0.744   0.584   1.156
 2223TIP3    H1 6675   0.683   0.511   1.145
 2223TIP3    H2 6676   0.814   0.549   1.211
 2224TIP3   OH2 6677   1.675   2.968   2.138
 2224TIP3    H1 6678   1.664   3.052   2.183
 2224TIP3    H2 6679   1.765   2.943   2.158
 2225TIP3   OH2 6680   1.676   4.038   1.810
 2225TIP3    H1 6681   1.749   4.067   1.865
 2225TIP3    H2 6682   1.706   3.957   1.770
 2226TIP3   OH2 6683   3.975   4.005   1.486
 2226TIP3    H1 6684   4.062   3.979   1.515
 2226TIP3    H2 6685   3.977   3.998   1.391
 2227TIP3   OH2 6686   4.546   5.582   4.818
 2227TIP3    H1 6687   4.503   5.659   4.779
 2227TIP3    H2 6688   4.622   5.566   4.763
 2228TIP3   OH2 6689   1.069   4.762   4.014
 2228TIP3    H1 6690   1.004   4.741   3.948
 2228TIP3    H2 6691   1.097   4.851   3.993
 2229TIP3   OH2 6692   0.132   4.436   0.962
 2229TIP3    H1 6693   0.140   4.366   0.897
 2229TIP3    H2 6694   0.165   4.514   0.918
 2230TIP3   OH2 6695   1.778   1.578   1.838
 2230TIP3    H1 6696   1.692   1.615   1.818
 2230TIP3    H2 6697   1.763   1.484   1.844
 2231TIP3   OH2 6698   6.013   0.390   1.510
 2231TIP3    H1 6699   5.961   0.344   1.445
 2231TIP3    H2 6700   5.962   0.468   1.532
 2232TIP3   OH2 6701   1.722   3.542   1.951
 2232TIP3    H1 6702   1.814   3.539   1.976
 2232TIP3    H2 6703   1.702   3.453   1.922
 2233TIP3   OH2 6704   5.845   1.211   0.137
 2233TIP3    H1 6705   5.864   1.132   0.188
 2233TIP3    H2 6706   5.838   1.280   0.203
 2234TIP3   OH2 6707   2.364   1.869   0.574
 2234TIP3    H1 6708   2.430   1.807   0.542
 2234TIP3    H2 6709   2.360   1.854   0.668
 2235TIP3   OH2 6710   5.081   0.470   3.809
 2235TIP3    H1 6711   5.164   0.514   3.790
 2235TIP3    H2 6712   5.028   0.536   3.854
 2236TIP3   OH2 6713   0.730   3.066   4.301
 2236TIP3    H1 6714   0.642   3.063   4.265
 2236TIP3    H2 6715   0.719   3.047   4.394
 2237TIP3   OH2 6716   0.159   4.184   3.981
 2237TIP3    H1 6717   0.186   4.158   3.892
 2237TIP3    H2 6718   0.225   4.144   4.038
 2238TIP3   OH2 6719   0.205   3.671   4.119
 2238TIP3    H1 6720   0.189   3.693   4.027
 2238TIP3    H2 6721   0.160   3.739   4.169
 2239TIP3   OH2 6722   4.030   1.182   0.715
 2239TIP3    H1 6723   4.042   1.277   0.714
 2239TIP3    H2 6724   4.052   1.156   0.805
 2240TIP3   OH2 6725   5.732   2.685   3.261
 2240TIP3    H1 6726   5.802   2.632   3.224
 2240TIP3    H2 6727   5.720   2.757   3.199
 2241TIP3   OH2 6728   3.193   4.266   4.974
 2241TIP3    H1 6729   3.222   4.264   4.883
 2241TIP3    H2 6730   3.138   4.344   4.980
 2242TIP3   OH2 6731   4.367   1.472   0.062
 2242TIP3    H1 6732   4.349   1.420  -0.016
 2242TIP3    H2 6733   4.311   1.549   0.052
 2243TIP3   OH2 6734   2.294   3.247   4.095
 2243TIP3    H1 6735   2.361   3.285   4.038
 2243TIP3    H2 6736   2.238   3.321   4.118
 2244TIP3   OH2 6737   1.141   3.889   2.498
 2244TIP3    H1 6738   1.205   3.960   2.498
 2244TIP3    H2 6739   1.072   3.918   2.438
 2245TIP3   OH2 6740   2.824   3.874   1.492
 2245TIP3    H1 6741   2.864   3.871   1.579
 2245TIP3    H2 6742   2.874   3.811   1.440
 2246TIP3   OH2 6743   5.665   0.690   1.925
 2246TIP3    H1 6744   5.707   0.771   1.952
 2246TIP3    H2 6745   5.736   0.638   1.886
 2247TIP3   OH2 6746   4.142   3.740   4.535
 2247TIP3    H1 6747   4.227   3.757   4.576
 2247TIP3    H2 6748   4.098   3.680   4.595
 2248TIP3   OH2 6749   4.124   4.963   3.694
 2248TIP3    H1 6750   4.042   4.986   3.650
 2248TIP3    H2 6751   4.170   4.909   3.631
 2249TIP3   OH2 6752   1.607   3.340   4.004
 2249TIP3    H1 6753   1.646   3.288   4.075
 2249TIP3    H2 6754   1.519   3.304   3.994
 2250TIP3   OH2 6755   3.461   3.561   4.974
 2250TIP3    H1 6756   3.466   3.645   5.019
 2250TIP3    H2 6757   3.437   3.584   4.884
 2251TIP3   OH2 6758   0.440   3.849   2.595
 2251TIP3    H1 6759   0.427   3.759   2.563
 2251TIP3    H2 6760   0.535   3.859   2.602
 2252TIP3   OH2 6761   1.986   0.260   4.192
 2252TIP3    H1 6762   1.930   0.332   4.220
 2252TIP3    H2 6763   1.996   0.205   4.270
 2253TIP3   OH2 6764   2.291   3.070   2.498
 2253TIP3    H1 6765   2.273   2.977   2.487
 2253TIP3    H2 6766   2.379   3.082   2.463
 2254TIP3   OH2 6767   4.046   0.567   0.149
 2254TIP3    H1 6768   4.054   0.587   0.243
 2254TIP3    H2 6769   4.117   0.505   0.132
 2255TIP3   OH2 6770   2.516   1.220   0.669
 2255TIP3    H1 6771   2.432   1.266   0.658
 2255TIP3    H2 6772   2.560   1.230   0.585
 2256TIP3   OH2 6773   4.841   4.723   3.960
 2256TIP3    H1 6774   4.869   4.775   3.884
 2256TIP3    H2 6775   4.764   4.675   3.928
 2257TIP3   OH2 6776   0.184   0.877   4.068
 2257TIP3    H1 6777   0.197   0.786   4.096
 2257TIP3    H2 6778   0.264   0.922   4.095
 2258TIP3   OH2 6779   2.284   3.926   2.114
 2258TIP3    H1 6780   2.219   3.873   2.160
 2258TIP3    H2 6781   2.330   3.864   2.058
 2259TIP3   OH2 6782   2.047   0.878   1.884
 2259TIP3    H1 6783   2.134   0.872   1.845
 2259TIP3    H2 6784   2.050   0.958   1.936
 2260TIP3   OH2 6785   5.911   1.882   3.402
 2260TIP3    H1 6786   5.865   1.929   3.332
 2260TIP3    H2 6787   5.935   1.798   3.362
 2261TIP3   OH2 6788   5.291   0.697   4.701
 2261TIP3    H1 6789   5.197   0.682   4.692
 2261TIP3    H2 6790   5.323   0.622   4.751
 2262TIP3   OH2 6791   4.232   2.147   1.188
 2262TIP3    H1 6792   4.287   2.115   1.117
 2262TIP3    H2 6793   4.283   2.132   1.267
 2263TIP3   OH2 6794   2.450   0.345   2.679
 2263TIP3    H1 6795   2.401   0.326   2.758
 2263TIP3    H2 6796   2.540   0.357   2.709
 2264TIP3   OH2 6797   2.858   5.663   2.921
 2264TIP3    H1 6798   2.880   5.751   2.889
 2264TIP3    H2 6799   2.766   5.651   2.898
 2265TIP3   OH2 6800   3.820   2.222   3.171
 2265TIP3    H1 6801   3.827   2.256   3.082
 2265TIP3    H2 6802   3.726   2.223   3.190
 2266TIP3   OH2 6803   2.211   4.663   0.152
 2266TIP3    H1 6804   2.117   4.648   0.143
 2266TIP3    H2 6805   2.219   4.755   0.175
 2267TIP3   OH2 6806   0.095   4.706   2.851
 2267TIP3    H1 6807   0.012   4.750   2.835
 2267TIP3    H2 6808   0.119   4.731   2.940
 2268TIP3   OH2 6809   0.086   4.516   3.222
 2268TIP3    H1 6810   0.106   4.492   3.312
 2268TIP3    H2 6811   0.010   4.574   3.229
 2269TIP3   OH2 6812   0.194   4.753   1.534
 2269TIP3    H1 6813   0.179   4.815   1.463
 2269TIP3    H2 6814   0.195   4.667   1.491
 2270TIP3   OH2 6815   3.733   0.243   0.273
 2270TIP3    H1 6816   3.684   0.162   0.286
 2270TIP3    H2 6817   3.804   0.219   0.213
 2271TIP3   OH2 6818   2.740   4.185   3.149
 2271TIP3    H1 6819   2.831   4.216   3.149
 2271TIP3    H2 6820   2.732   4.134   3.069
 2272TIP3   OH2 6821   2.177   5.427   2.042
 2272TIP3    H1 6822   2.122   5.471   1.977
 2272TIP3    H2 6823   2.166   5.478   2.122
 2273TIP3   OH2 6824   2.701   0.076   2.647
 2273TIP3    H1 6825   2.625   0.059   2.591
 2273TIP3    H2 6826   2.685   0.163   2.683
 2274TIP3   OH2 6827   5.586   3.545   3.855
 2274TIP3    H1 6828   5.578   3.456   3.820
 2274TIP3    H2 6829   5.637   3.592   3.789
 2275TIP3   OH2 6830   5.901   3.111   4.350
 2275TIP3    H1 6831   5.926   3.077   4.436
 2275TIP3    H2 6832   5.867   3.199   4.368
 2276TIP3   OH2 6833   5.079   3.249   5.116
 2276TIP3    H1 6834   5.091   3.170   5.170
 2276TIP3    H2 6835   5.020   3.304   5.167
 2277TIP3   OH2 6836   3.520   0.666   1.619
 2277TIP3    H1 6837   3.589   0.663   1.685
 2277TIP3    H2 6838   3.523   0.755   1.585
 2278TIP3   OH2 6839   5.373   0.608   0.942
 2278TIP3    H1 6840   5.319   0.686   0.931
 2278TIP3    H2 6841   5.459   0.641   0.967
 2279TIP3   OH2 6842   2.425   2.890   5.156
 2279TIP3    H1 6843   2.336   2.861   5.178
 2279TIP3    H2 6844   2.449   2.838   5.079
 2280TIP3   OH2 6845   0.166   2.332   4.649
 2280TIP3    H1 6846   0.124   2.284   4.577
 2280TIP3    H2 6847   0.236   2.381   4.607
 2281TIP3   OH2 6848   4.648   4.468   4.339
 2281TIP3    H1 6849   4.602   4.551   4.351
 2281TIP3    H2 6850   4.698   4.458   4.420
 2282TIP3   OH2 6851   5.666   1.991   3.828
 2282TIP3    H1 6852   5.711   1.986   3.744
 2282TIP3    H2 6853   5.734   1.980   3.894
 2283TIP3   OH2 6854   2.894   4.705   2.232
 2283TIP3    H1 6855   2.945   4.730   2.155
 2283TIP3    H2 6856   2.914   4.612   2.244
 2284TIP3   OH2 6857   0.879   1.909   0.416
 2284TIP3    H1 6858   0.937   1.835   0.432
 2284TIP3    H2 6859   0.904   1.973   0.482
 2285TIP3   OH2 6860   5.732   1.932   0.831
 2285TIP3    H1 6861   5.796   1.960   0.896
 2285TIP3    H2 6862   5.678   2.009   0.815
 2286TIP3   OH2 6863   4.540   4.677   0.426
 2286TIP3    H1 6864   4.509   4.590   0.451
 2286TIP3    H2 6865   4.636   4.669   0.428
 2287TIP3   OH2 6866   1.578   1.397   0.903
 2287TIP3    H1 6867   1.502   1.431   0.856
 2287TIP3    H2 6868   1.543   1.365   0.986
 2288TIP3   OH2 6869   2.696   2.562   2.572
 2288TIP3    H1 6870   2.732   2.496   2.631
 2288TIP3    H2 6871   2.663   2.513   2.498
 2289TIP3   OH2 6872   0.720   3.225   3.744
 2289TIP3    H1 6873   0.805   3.268   3.736
 2289TIP3    H2 6874   0.668   3.284   3.799
 2290TIP3   OH2 6875   3.651   1.990   1.004
 2290TIP3    H1 6876   3.559   1.979   0.979
 2290TIP3    H2 6877   3.685   1.901   1.012
 2291TIP3   OH2 6878   5.691   2.852   4.371
 2291TIP3    H1 6879   5.643   2.883   4.448
 2291TIP3    H2 6880   5.671   2.917   4.304
 2292TIP3   OH2 6881   4.043   3.783   3.622
 2292TIP3    H1 6882   4.080   3.703   3.659
 2292TIP3    H2 6883   3.971   3.805   3.681
 2293TIP3   OH2 6884   4.421   0.940   2.676
 2293TIP3    H1 6885   4.396   1.032   2.667
 2293TIP3    H2 6886   4.363   0.907   2.745
 2294TIP3   OH2 6887   5.759   3.041   5.024
 2294TIP3    H1 6888   5.772   2.950   5.049
 2294TIP3    H2 6889   5.823   3.089   5.077
 2295TIP3   OH2 6890   3.990   3.517   2.235
 2295TIP3    H1 6891   3.958   3.601   2.267
 2295TIP3    H2 6892   3.921   3.484   2.179
 2296TIP3   OH2 6893   5.715   4.138   4.939
 2296TIP3    H1 6894   5.689   4.182   4.858
 2296TIP3    H2 6895   5.644   4.077   4.958
 2297TIP3   OH2 6896   5.718   3.858   0.523
 2297TIP3    H1 6897   5.802   3.814   0.536
 2297TIP3    H2 6898   5.666   3.834   0.600
 2298TIP3   OH2 6899   2.309   4.163   2.262
 2298TIP3    H1 6900   2.321   4.103   2.189
 2298TIP3    H2 6901   2.350   4.119   2.336
 2299TIP3   OH2 6902   6.205   0.025   3.679
 2299TIP3    H1 6903   6.149  -0.027   3.737
 2299TIP3    H2 6904   6.219   0.107   3.727
 2300TIP3   OH2 6905   1.663   3.813   3.970
 2300TIP3    H1 6906   1.704   3.848   4.050
 2300TIP3    H2 6907   1.690   3.873   3.901
 2301TIP3   OH2 6908   1.288   0.188   0.528
 2301TIP3    H1 6909   1.202   0.158   0.498
 2301TIP3    H2 6910   1.308   0.132   0.603
 2302TIP3   OH2 6911   2.342   4.590   3.472
 2302TIP3    H1 6912   2.321   4.546   3.389
 2302TIP3    H2 6913   2.306   4.533   3.539
 2303TIP3   OH2 6914   1.598   5.038   4.460
 2303TIP3    H1 6915   1.661   5.043   4.388
 2303TIP3    H2 6916   1.622   4.959   4.508
 2304TIP3   OH2 6917   5.042   3.013   4.567
 2304TIP3    H1 6918   5.083   2.946   4.621
 2304TIP3    H2 6919   4.949   3.008   4.588
 2305TIP3   OH2 6920   4.680   0.339   1.204
 2305TIP3    H1 6921   4.690   0.421   1.252
 2305TIP3    H2 6922   4.736   0.350   1.127
 2306TIP3   OH2 6923   0.071   4.292   4.331
 2306TIP3    H1 6924   0.036   4.237   4.401
 2306TIP3    H2 6925   0.166   4.282   4.336
 2307TIP3   OH2 6926   1.602   1.784   3.668
 2307TIP3    H1 6927   1.510   1.786   3.694
 2307TIP3    H2 6928   1.600   1.756   3.576
 2308TIP3   OH2 6929   3.250   1.845   0.389
 2308TIP3    H1 6930   3.216   1.760   0.361
 2308TIP3    H2 6931   3.180   1.883   0.441
 2309TIP3   OH2 6932   3.575   3.820   0.227
 2309TIP3    H1 6933   3.507   3.797   0.164
 2309TIP3    H2 6934   3.539   3.793   0.312
 2310TIP3   OH2 6935   1.632   4.443   3.318
 2310TIP3    H1 6936   1.613   4.438   3.224
 2310TIP3    H2 6937   1.658   4.534   3.332
 2311TIP3   OH2 6938   1.102   4.551   2.444
 2311TIP3    H1 6939   1.123   4.499   2.366
 2311TIP3    H2 6940   1.008   4.538   2.457
 2312TIP3   OH2 6941   3.880   5.204   3.664
 2312TIP3    H1 6942   3.913   5.195   3.753
 2312TIP3    H2 6943   3.842   5.292   3.661
 2313TIP3   OH2 6944   4.319   0.766   1.449
 2313TIP3    H1 6945   4.379   0.695   1.426
 2313TIP3    H2 6946   4.253   0.724   1.505
 2314TIP3   OH2 6947   3.287   4.670   1.652
 2314TIP3    H1 6948   3.256   4.594   1.702
 2314TIP3    H2 6949   3.325   4.633   1.573
 2315TIP3   OH2 6950   5.374   2.627   4.549
 2315TIP3    H1 6951   5.311   2.591   4.611
 2315TIP3    H2 6952   5.459   2.592   4.577
 2316TIP3   OH2 6953   3.293   5.087   2.644
 2316TIP3    H1 6954   3.230   5.049   2.583
 2316TIP3    H2 6955   3.241   5.147   2.698
 2317TIP3   OH2 6956   6.209   0.812   2.388
 2317TIP3    H1 6957   6.212   0.867   2.467
 2317TIP3    H2 6958   6.270   0.740   2.407
 2318TIP3   OH2 6959   0.626   2.575   4.256
 2318TIP3    H1 6960   0.675   2.625   4.191
 2318TIP3    H2 6961   0.539   2.565   4.218
 2319TIP3   OH2 6962   1.061   3.852   3.880
 2319TIP3    H1 6963   1.037   3.921   3.943
 2319TIP3    H2 6964   1.144   3.881   3.844
 2320TIP3   OH2 6965   4.403   5.865   2.354
 2320TIP3    H1 6966   4.359   5.864   2.269
 2320TIP3    H2 6967   4.342   5.910   2.412
 2321TIP3   OH2 6968   0.696   2.719   0.001
 2321TIP3    H1 6969   0.690   2.634   0.046
 2321TIP3    H2 6970   0.683   2.784   0.070
 2322TIP3   OH2 6971   5.748   3.872   3.523
 2322TIP3    H1 6972   5.687   3.927   3.572
 2322TIP3    H2 6973   5.826   3.866   3.578
 2323TIP3   OH2 6974   4.981   2.191   1.708
 2323TIP3    H1 6975   4.992   2.180   1.614
 2323TIP3    H2 6976   5.003   2.106   1.746
 2324TIP3   OH2 6977   4.587   0.885   1.194
 2324TIP3    H1 6978   4.611   0.858   1.283
 2324TIP3    H2 6979   4.645   0.959   1.176
 2325TIP3   OH2 6980   0.836   4.465   2.476
 2325TIP3    H1 6981   0.755   4.440   2.520
 2325TIP3    H2 6982   0.808   4.501   2.392
 2326TIP3   OH2 6983   3.049   0.254   1.535
 2326TIP3    H1 6984   2.980   0.263   1.469
 2326TIP3    H2 6985   3.092   0.340   1.535
 2327TIP3   OH2 6986   5.890   2.209   4.091
 2327TIP3    H1 6987   5.874   2.304   4.088
 2327TIP3    H2 6988   5.951   2.197   4.163
 2328TIP3   OH2 6989   3.858   3.071   3.865
 2328TIP3    H1 6990   3.804   3.033   3.795
 2328TIP3    H2 6991   3.910   2.998   3.898
 2329TIP3   OH2 6992   3.484   0.997   3.644
 2329TIP3    H1 6993   3.459   1.028   3.556
 2329TIP3    H2 6994   3.559   0.940   3.629
 2330TIP3   OH2 6995   4.393   5.475   0.029
 2330TIP3    H1 6996   4.361   5.517   0.109
 2330TIP3    H2 6997   4.451   5.406   0.060
 2331TIP3   OH2 6998   3.215   4.723   5.082
 2331TIP3    H1 6999   3.298   4.707   5.127
 2331TIP3    H2 7000   3.172   4.792   5.133
 2332TIP3   OH2 7001   1.134   5.142   0.315
 2332TIP3    H1 7002   1.057   5.133   0.258
 2332TIP3    H2 7003   1.099   5.178   0.396
 2333TIP3   OH2 7004   3.044   5.579   1.139
 2333TIP3    H1 7005   3.125   5.571   1.089
 2333TIP3    H2 7006   2.976   5.545   1.081
 2334TIP3   OH2 7007   0.444   5.479   0.074
 2334TIP3    H1 7008   0.411   5.488  -0.015
 2334TIP3    H2 7009   0.472   5.388   0.080
 2335TIP3   OH2 7010   2.770   5.785   3.249
 2335TIP3    H1 7011   2.744   5.809   3.160
 2335TIP3    H2 7012   2.809   5.864   3.286
 2336TIP3   OH2 7013   1.044   1.131   4.134
 2336TIP3    H1 7014   1.105   1.100   4.067
 2336TIP3    H2 7015   1.052   1.226   4.132
 2337TIP3   OH2 7016   3.334   2.090   5.022
 2337TIP3    H1 7017   3.371   2.083   4.933
 2337TIP3    H2 7018   3.333   2.184   5.040
 2338TIP3   OH2 7019   5.269   3.077   4.798
 2338TIP3    H1 7020   5.256   3.129   4.719
 2338TIP3    H2 7021   5.363   3.081   4.814
 2339TIP3   OH2 7022   3.472   1.370   4.922
 2339TIP3    H1 7023   3.470   1.294   4.863
 2339TIP3    H2 7024   3.383   1.374   4.957
 2340TIP3   OH2 7025   5.601   0.781   1.667
 2340TIP3    H1 7026   5.612   0.701   1.616
 2340TIP3    H2 7027   5.559   0.753   1.748
 2341TIP3   OH2 7028   4.529   0.558   4.383
 2341TIP3    H1 7029   4.514   0.508   4.303
 2341TIP3    H2 7030   4.448   0.548   4.433
 2342TIP3   OH2 7031   1.463   2.227   3.211
 2342TIP3    H1 7032   1.457   2.185   3.297
 2342TIP3    H2 7033   1.470   2.321   3.231
 2343TIP3   OH2 7034   4.650   1.905   4.184
 2343TIP3    H1 7035   4.707   1.864   4.119
 2343TIP3    H2 7036   4.676   1.997   4.185
 2344TIP3   OH2 7037   4.140   3.673   4.814
 2344TIP3    H1 7038   4.181   3.660   4.899
 2344TIP3    H2 7039   4.066   3.731   4.831
 2345TIP3   OH2 7040   2.317   3.082   3.629
 2345TIP3    H1 7041   2.355   3.068   3.716
 2345TIP3    H2 7042   2.303   2.994   3.595
 2346TIP3   OH2 7043   5.782   4.888   4.538
 2346TIP3    H1 7044   5.869   4.907   4.572
 2346TIP3    H2 7045   5.741   4.974   4.526
 2347TIP3   OH2 7046   5.900   3.816   0.734
 2347TIP3    H1 7047   5.956   3.877   0.684
 2347TIP3    H2 7048   5.929   3.729   0.706
 2348TIP3   OH2 7049   3.688   5.510   0.585
 2348TIP3    H1 7050   3.628   5.513   0.511
 2348TIP3    H2 7051   3.651   5.443   0.643
 2349TIP3   OH2 7052   1.023   5.843   1.162
 2349TIP3    H1 7053   1.052   5.808   1.246
 2349TIP3    H2 7054   0.965   5.775   1.127
 2350TIP3   OH2 7055   0.198   4.141   4.606
 2350TIP3    H1 7056   0.252   4.065   4.584
 2350TIP3    H2 7057   0.232   4.172   4.689
 2351TIP3   OH2 7058   4.850   2.474   3.473
 2351TIP3    H1 7059   4.914   2.545   3.484
 2351TIP3    H2 7060   4.797   2.477   3.553
 2352TIP3   OH2 7061   4.778   0.314   2.223
 2352TIP3    H1 7062   4.724   0.321   2.145
 2352TIP3    H2 7063   4.861   0.356   2.198
 2353TIP3   OH2 7064   2.525   0.666   1.272
 2353TIP3    H1 7065   2.566   0.592   1.226
 2353TIP3    H2 7066   2.596   0.706   1.322
 2354TIP3   OH2 7067   4.812   5.146   0.781
 2354TIP3    H1 7068   4.794   5.156   0.875
 2354TIP3    H2 7069   4.770   5.223   0.741
 2355TIP3   OH2 7070   5.165   2.493   2.604
 2355TIP3    H1 7071   5.162   2.420   2.666
 2355TIP3    H2 7072   5.255   2.492   2.572
 2356TIP3   OH2 7073   3.071   2.142   4.018
 2356TIP3    H1 7074   3.121   2.119   3.939
 2356TIP3    H2 7075   3.028   2.060   4.044
 2357TIP3   OH2 7076   3.733   5.038   3.314
 2357TIP3    H1 7077   3.639   5.022   3.311
 2357TIP3    H2 7078   3.772   4.962   3.271
 2358TIP3   OH2 7079   4.286   4.649   2.451
 2358TIP3    H1 7080   4.319   4.566   2.485
 2358TIP3    H2 7081   4.211   4.625   2.397
 2359TIP3   OH2 7082   0.000   1.095   0.839
 2359TIP3    H1 7083   0.092   1.119   0.841
 2359TIP3    H2 7084  -0.003   1.013   0.790
 2360TIP3   OH2 7085   0.730   5.920   4.891
 2360TIP3    H1 7086   0.708   5.846   4.947
 2360TIP3    H2 7087   0.688   5.901   4.808
 2361TIP3   OH2 7088   1.607   1.694   3.411
 2361TIP3    H1 7089   1.556   1.630   3.360
 2361TIP3    H2 7090   1.639   1.757   3.347
 2362TIP3   OH2 7091   5.574   4.129   4.080
 2362TIP3    H1 7092   5.490   4.083   4.077
 2362TIP3    H2 7093   5.595   4.132   4.174
 2363TIP3   OH2 7094   2.750   5.569   1.049
 2363TIP3    H1 7095   2.693   5.561   1.126
 2363TIP3    H2 7096   2.726   5.652   1.010
 2364TIP3   OH2 7097   5.739   4.674   3.293
 2364TIP3    H1 7098   5.813   4.678   3.354
 2364TIP3    H2 7099   5.665   4.645   3.346
 2365TIP3   OH2 7100   0.067   1.933   4.990
 2365TIP3    H1 7101   0.112   2.009   4.953
 2365TIP3    H2 7102   0.035   1.963   5.074
 2366TIP3   OH2 7103   0.789   0.648   4.455
 2366TIP3    H1 7104   0.883   0.661   4.440
 2366TIP3    H2 7105   0.775   0.554   4.443
 2367TIP3   OH2 7106   3.112   3.872   1.474
 2367TIP3    H1 7107   3.196   3.917   1.467
 2367TIP3    H2 7108   3.118   3.824   1.557
 2368TIP3   OH2 7109   1.192   1.534   2.119
 2368TIP3    H1 7110   1.158   1.562   2.204
 2368TIP3    H2 7111   1.147   1.451   2.101
 2369TIP3   OH2 7112   2.241   0.650   2.493
 2369TIP3    H1 7113   2.170   0.702   2.455
 2369TIP3    H2 7114   2.205   0.561   2.498
 2370TIP3   OH2 7115   2.209   4.415   1.481
 2370TIP3    H1 7116   2.137   4.359   1.511
 2370TIP3    H2 7117   2.258   4.360   1.420
 2371TIP3   OH2 7118   0.121   2.055   2.419
 2371TIP3    H1 7119   0.193   2.048   2.482
 2371TIP3    H2 7120   0.159   2.023   2.337
 2372TIP3   OH2 7121   5.343   1.640   3.007
 2372TIP3    H1 7122   5.264   1.650   3.060
 2372TIP3    H2 7123   5.311   1.626   2.918
 2373TIP3   OH2 7124   3.973   0.273   3.485
 2373TIP3    H1 7125   3.878   0.258   3.489
 2373TIP3    H2 7126   3.985   0.360   3.523
 2374TIP3   OH2 7127   2.050   5.190  -0.006
 2374TIP3    H1 7128   1.995   5.140   0.055
 2374TIP3    H2 7129   2.137   5.151   0.003
 2375TIP3   OH2 7130   1.783   1.392   2.976
 2375TIP3    H1 7131   1.818   1.472   3.016
 2375TIP3    H2 7132   1.689   1.398   2.992
 2376TIP3   OH2 7133   2.520   1.517   1.507
 2376TIP3    H1 7134   2.600   1.494   1.553
 2376TIP3    H2 7135   2.546   1.587   1.447
 2377TIP3   OH2 7136   2.786   5.258   2.016
 2377TIP3    H1 7137   2.867   5.304   1.996
 2377TIP3    H2 7138   2.718   5.325   2.014
 2378TIP3   OH2 7139   3.806   1.254   4.014
 2378TIP3    H1 7140   3.739   1.321   3.999
 2378TIP3    H2 7141   3.828   1.221   3.927
 2379TIP3   OH2 7142   4.762   2.521   3.232
 2379TIP3    H1 7143   4.826   2.518   3.303
 2379TIP3    H2 7144   4.745   2.429   3.211
 2380TIP3   OH2 7145   5.178   2.477   4.666
 2380TIP3    H1 7146   5.114   2.482   4.737
 2380TIP3    H2 7147   5.158   2.394   4.623
 2381TIP3   OH2 7148   0.493   1.210   5.109
 2381TIP3    H1 7149   0.443   1.291   5.099
 2381TIP3    H2 7150   0.569   1.234   5.162
 2382TIP3   OH2 7151   4.380   0.453   0.324
 2382TIP3    H1 7152   4.361   0.392   0.253
 2382TIP3    H2 7153   4.309   0.439   0.387
 2383TIP3   OH2 7154   2.177   4.339   1.002
 2383TIP3    H1 7155   2.108   4.381   1.053
 2383TIP3    H2 7156   2.218   4.411   0.954
 2384TIP3   OH2 7157   0.292   1.155   4.050
 2384TIP3    H1 7158   0.204   1.191   4.037
 2384TIP3    H2 7159   0.302   1.092   3.978
 2385TIP3   OH2 7160   5.155   5.654   4.065
 2385TIP3    H1 7161   5.120   5.590   4.002
 2385TIP3    H2 7162   5.187   5.726   4.011
 2386TIP3   OH2 7163   3.451   0.712   4.434
 2386TIP3    H1 7164   3.535   0.751   4.460
 2386TIP3    H2 7165   3.473   0.656   4.359
 2387TIP3   OH2 7166   4.632   1.822   3.261
 2387TIP3    H1 7167   4.538   1.835   3.251
 2387TIP3    H2 7168   4.646   1.730   3.237
 2388TIP3   OH2 7169   5.864   4.852   0.373
 2388TIP3    H1 7170   5.784   4.892   0.405
 2388TIP3    H2 7171   5.835   4.773   0.328
 2389TIP3   OH2 7172   2.141   1.061   3.484
 2389TIP3    H1 7173   2.196   1.113   3.543
 2389TIP3    H2 7174   2.199   1.034   3.413
 2390TIP3   OH2 7175   1.849   2.127   0.491
 2390TIP3    H1 7176   1.888   2.069   0.556
 2390TIP3    H2 7177   1.817   2.202   0.541
 2391TIP3   OH2 7178   3.369   5.424   3.008
 2391TIP3    H1 7179   3.347   5.501   3.061
 2391TIP3    H2 7180   3.423   5.458   2.937
 2392TIP3   OH2 7181   5.425   5.927   5.040
 2392TIP3    H1 7182   5.376   5.857   5.084
 2392TIP3    H2 7183   5.359   5.993   5.019
 2393TIP3   OH2 7184   4.403   1.134   5.113
 2393TIP3    H1 7185   4.490   1.122   5.150
 2393TIP3    H2 7186   4.408   1.216   5.064
 2394TIP3   OH2 7187   5.951   2.747   2.513
 2394TIP3    H1 7188   6.006   2.822   2.492
 2394TIP3    H2 7189   5.916   2.719   2.429
 2395TIP3   OH2 7190   0.699   0.390   3.070
 2395TIP3    H1 7191   0.667   0.300   3.063
 2395TIP3    H2 7192   0.778   0.384   3.124
 2396TIP3   OH2 7193   2.218   3.483   4.166
 2396TIP3    H1 7194   2.242   3.480   4.259
 2396TIP3    H2 7195   2.127   3.512   4.165
 2397TIP3   OH2 7196   1.266   3.422   0.985
 2397TIP3    H1 7197   1.237   3.455   1.070
 2397TIP3    H2 7198   1.277   3.328   0.998
 2398TIP3   OH2 7199   4.537   2.474   4.458
 2398TIP3    H1 7200   4.483   2.537   4.505
 2398TIP3    H2 7201   4.627   2.495   4.483
 2399TIP3   OH2 7202   0.463   3.934   0.187
 2399TIP3    H1 7203   0.405   3.863   0.158
 2399TIP3    H2 7204   0.468   3.993   0.112
 2400TIP3   OH2 7205   0.673   2.842   2.797
 2400TIP3    H1 7206   0.601   2.866   2.855
 2400TIP3    H2 7207   0.703   2.757   2.829
 2401TIP3   OH2 7208   5.618   0.456   0.707
 2401TIP3    H1 7209   5.667   0.382   0.742
 2401TIP3    H2 7210   5.536   0.456   0.757
 2402TIP3   OH2 7211   0.780   0.973   3.166
 2402TIP3    H1 7212   0.831   0.979   3.086
 2402TIP3    H2 7213   0.765   0.880   3.179
 2403TIP3   OH2 7214   3.055   5.027   4.189
 2403TIP3    H1 7215   3.079   5.027   4.097
 2403TIP3    H2 7216   3.052   4.934   4.214
 2404TIP3   OH2 7217   6.301   1.652   0.465
 2404TIP3    H1 7218   6.307   1.575   0.522
 2404TIP3    H2 7219   6.385   1.656   0.420
 2405TIP3   OH2 7220   3.461   2.860   1.360
 2405TIP3    H1 7221   3.557   2.861   1.350
 2405TIP3    H2 7222   3.446   2.806   1.438
 2406TIP3   OH2 7223   0.615   0.954   0.472
 2406TIP3    H1 7224   0.642   0.950   0.563
 2406TIP3    H2 7225   0.689   0.995   0.427
 2407TIP3   OH2 7226   3.949   4.012   4.263
 2407TIP3    H1 7227   3.991   4.073   4.323
 2407TIP3    H2 7228   4.016   3.946   4.245
 2408TIP3   OH2 7229   3.262   0.721   2.619
 2408TIP3    H1 7230   3.193   0.783   2.643
 2408TIP3    H2 7231   3.257   0.653   2.685
 2409TIP3   OH2 7232   6.221   5.753   4.757
 2409TIP3    H1 7233   6.249   5.662   4.752
 2409TIP3    H2 7234   6.294   5.798   4.800
 2410TIP3   OH2 7235   0.288   1.916   0.545
 2410TIP3    H1 7236   0.241   1.996   0.521
 2410TIP3    H2 7237   0.308   1.927   0.638
 2411TIP3   OH2 7238   5.584   3.205   2.731
 2411TIP3    H1 7239   5.596   3.287   2.683
 2411TIP3    H2 7240   5.623   3.138   2.674
 2412TIP3   OH2 7241   0.936   3.906   1.297
 2412TIP3    H1 7242   0.844   3.931   1.290
 2412TIP3    H2 7243   0.935   3.818   1.335
 2413TIP3   OH2 7244   1.293   3.976   3.740
 2413TIP3    H1 7245   1.345   3.903   3.708
 2413TIP3    H2 7246   1.229   3.992   3.671
 2414TIP3   OH2 7247   6.019   4.879   2.574
 2414TIP3    H1 7248   5.931   4.916   2.562
 2414TIP3    H2 7249   6.078   4.948   2.543
 2415TIP3   OH2 7250   2.689   3.136   1.609
 2415TIP3    H1 7251   2.707   3.225   1.640
 2415TIP3    H2 7252   2.616   3.146   1.549
 2416TIP3   OH2 7253   5.226   5.452   0.183
 2416TIP3    H1 7254   5.281   5.516   0.228
 2416TIP3    H2 7255   5.231   5.475   0.091
 2417TIP3   OH2 7256   1.733   3.572   4.108
 2417TIP3    H1 7257   1.678   3.494   4.096
 2417TIP3    H2 7258   1.696   3.636   4.048
 2418TIP3   OH2 7259   5.839   4.493   1.242
 2418TIP3    H1 7260   5.865   4.433   1.312
 2418TIP3    H2 7261   5.872   4.453   1.162
 2419TIP3   OH2 7262   5.056   2.123   1.427
 2419TIP3    H1 7263   5.148   2.137   1.406
 2419TIP3    H2 7264   5.008   2.174   1.362
 2420TIP3   OH2 7265   3.069  -0.012   5.169
 2420TIP3    H1 7266   3.070  -0.047   5.080
 2420TIP3    H2 7267   3.122   0.067   5.164
 2421TIP3   OH2 7268   3.668   0.556   1.017
 2421TIP3    H1 7269   3.637   0.641   1.050
 2421TIP3    H2 7270   3.589   0.502   1.012
 2422TIP3   OH2 7271   5.061   0.343   2.933
 2422TIP3    H1 7272   5.112   0.422   2.912
 2422TIP3    H2 7273   5.091   0.319   3.021
 2423TIP3   OH2 7274   1.752   3.527   2.939
 2423TIP3    H1 7275   1.836   3.569   2.955
 2423TIP3    H2 7276   1.687   3.593   2.964
 2424TIP3   OH2 7277   4.143   2.414   1.174
 2424TIP3    H1 7278   4.189   2.433   1.255
 2424TIP3    H2 7279   4.145   2.319   1.167
 2425TIP3   OH2 7280   3.575   0.224   2.712
 2425TIP3    H1 7281   3.670   0.230   2.706
 2425TIP3    H2 7282   3.556   0.130   2.714
 2426TIP3   OH2 7283   2.212   4.110   3.780
 2426TIP3    H1 7284   2.156   4.039   3.813
 2426TIP3    H2 7285   2.262   4.138   3.856
 2427TIP3   OH2 7286   5.286   4.878   1.589
 2427TIP3    H1 7287   5.249   4.816   1.651
 2427TIP3    H2 7288   5.284   4.833   1.505
 2428TIP3   OH2 7289   5.560   4.635   0.529
 2428TIP3    H1 7290   5.521   4.550   0.552
 2428TIP3    H2 7291   5.509   4.664   0.453
 2429TIP3   OH2 7292   3.543   2.876   4.005
 2429TIP3    H1 7293   3.629   2.886   4.047
 2429TIP3    H2 7294   3.550   2.795   3.956
 2430TIP3   OH2 7295   4.198   2.112   4.650
 2430TIP3    H1 7296   4.278   2.139   4.696
 2430TIP3    H2 7297   4.133   2.102   4.719
 2431TIP3   OH2 7298   1.066   3.051   3.776
 2431TIP3    H1 7299   1.028   3.139   3.784
 2431TIP3    H2 7300   1.090   3.043   3.684
 2432TIP3   OH2 7301   2.046   1.770   5.152
 2432TIP3    H1 7302   1.953   1.769   5.130
 2432TIP3    H2 7303   2.062   1.687   5.198
 2433TIP3   OH2 7304   1.071   5.195   2.295
 2433TIP3    H1 7305   1.094   5.102   2.287
 2433TIP3    H2 7306   0.981   5.200   2.265
 2434TIP3   OH2 7307   2.811   1.285   3.902
 2434TIP3    H1 7308   2.727   1.268   3.946
 2434TIP3    H2 7309   2.877   1.255   3.965
 2435TIP3   OH2 7310   1.567   2.686   1.939
 2435TIP3    H1 7311   1.517   2.765   1.958
 2435TIP3    H2 7312   1.632   2.681   2.010
 2436TIP3   OH2 7313   6.067   1.591   4.518
 2436TIP3    H1 7314   6.027   1.608   4.604
 2436TIP3    H2 7315   6.023   1.513   4.486
 2437TIP3   OH2 7316   5.146   0.901   4.291
 2437TIP3    H1 7317   5.051   0.901   4.277
 2437TIP3    H2 7318   5.158   0.947   4.375
 2438TIP3   OH2 7319   5.630   1.915   1.153
 2438TIP3    H1 7320   5.631   2.005   1.186
 2438TIP3    H2 7321   5.645   1.924   1.059
 2439TIP3   OH2 7322   3.868   3.455   4.826
 2439TIP3    H1 7323   3.862   3.533   4.882
 2439TIP3    H2 7324   3.816   3.476   4.749
 2440TIP3   OH2 7325   3.714   0.374   4.027
 2440TIP3    H1 7326   3.686   0.321   3.952
 2440TIP3    H2 7327   3.782   0.322   4.070
 2441TIP3   OH2 7328   1.121   3.917   2.045
 2441TIP3    H1 7329   1.151   3.942   1.957
 2441TIP3    H2 7330   1.170   3.973   2.104
 2442TIP3   OH2 7331   1.832   2.859   1.635
 2442TIP3    H1 7332   1.906   2.807   1.604
 2442TIP3    H2 7333   1.758   2.834   1.580
 2443TIP3   OH2 7334   0.639   1.916   2.198
 2443TIP3    H1 7335   0.716   1.954   2.241
 2443TIP3    H2 7336   0.667   1.903   2.107
 2444TIP3   OH2 7337   4.480   2.444   2.507
 2444TIP3    H1 7338   4.540   2.507   2.548
 2444TIP3    H2 7339   4.474   2.372   2.571
 2445TIP3   OH2 7340   0.491   0.945   1.177
 2445TIP3    H1 7341   0.524   0.888   1.246
 2445TIP3    H2 7342   0.410   0.982   1.212
 2446TIP3   OH2 7343   2.475   2.010   2.918
 2446TIP3    H1 7344   2.455   1.963   2.838
 2446TIP3    H2 7345   2.468   2.103   2.894
 2447TIP3   OH2 7346   6.159   0.733   4.718
 2447TIP3    H1 7347   6.155   0.829   4.711
 2447TIP3    H2 7348   6.139   0.715   4.810
 2448TIP3   OH2 7349   2.682   5.113   1.061
 2448TIP3    H1 7350   2.642   5.041   1.011
 2448TIP3    H2 7351   2.772   5.118   1.030
 2449TIP3   OH2 7352   0.466   5.183   0.069
 2449TIP3    H1 7353   0.497   5.096   0.042
 2449TIP3    H2 7354   0.433   5.170   0.157
 2450TIP3   OH2 7355   4.136   5.828   3.450
 2450TIP3    H1 7356   4.193   5.771   3.502
 2450TIP3    H2 7357   4.123   5.906   3.505
 2451TIP3   OH2 7358   5.966   3.046   0.642
 2451TIP3    H1 7359   5.895   3.092   0.596
 2451TIP3    H2 7360   5.929   3.026   0.728
 2452TIP3   OH2 7361   3.100   0.827   4.720
 2452TIP3    H1 7362   3.094   0.862   4.809
 2452TIP3    H2 7363   3.028   0.868   4.672
 2453TIP3   OH2 7364   1.687   5.527   4.314
 2453TIP3    H1 7365   1.779   5.530   4.290
 2453TIP3    H2 7366   1.648   5.601   4.267
 2454TIP3   OH2 7367   1.381   4.302   4.549
 2454TIP3    H1 7368   1.449   4.259   4.498
 2454TIP3    H2 7369   1.299   4.275   4.508
 2455TIP3   OH2 7370   1.423   3.186   2.314
 2455TIP3    H1 7371   1.356   3.156   2.376
 2455TIP3    H2 7372   1.500   3.202   2.367
 2456TIP3   OH2 7373   4.582   2.550   4.947
 2456TIP3    H1 7374   4.569   2.462   4.913
 2456TIP3    H2 7375   4.497   2.575   4.984
 2457TIP3   OH2 7376   0.333   4.568   2.840
 2457TIP3    H1 7377   0.371   4.614   2.765
 2457TIP3    H2 7378   0.249   4.612   2.855
 2458TIP3   OH2 7379   3.128   0.253   3.422
 2458TIP3    H1 7380   3.086   0.287   3.501
 2458TIP3    H2 7381   3.059   0.205   3.377
 2459TIP3   OH2 7382   2.093   1.559   1.760
 2459TIP3    H1 7383   2.021   1.551   1.697
 2459TIP3    H2 7384   2.093   1.476   1.808
 2460TIP3   OH2 7385   4.553   3.177   1.053
 2460TIP3    H1 7386   4.555   3.233   0.976
 2460TIP3    H2 7387   4.485   3.112   1.035
 2461TIP3   OH2 7388   3.343   5.351   4.331
 2461TIP3    H1 7389   3.328   5.324   4.241
 2461TIP3    H2 7390   3.400   5.283   4.367
 2462TIP3   OH2 7391   1.663   2.060   3.649
 2462TIP3    H1 7392   1.634   1.970   3.638
 2462TIP3    H2 7393   1.759   2.054   3.646
 2463TIP3   OH2 7394   1.695   0.132   3.584
 2463TIP3    H1 7395   1.720   0.084   3.506
 2463TIP3    H2 7396   1.704   0.069   3.655
 2464TIP3   OH2 7397   0.971   2.089   0.602
 2464TIP3    H1 7398   0.918   2.116   0.677
 2464TIP3    H2 7399   0.962   2.161   0.539
 2465TIP3   OH2 7400   3.787   5.296   0.272
 2465TIP3    H1 7401   3.860   5.258   0.321
 2465TIP3    H2 7402   3.708   5.266   0.318
 2466TIP3   OH2 7403   4.838   0.335   4.245
 2466TIP3    H1 7404   4.908   0.389   4.209
 2466TIP3    H2 7405   4.866   0.317   4.335
 2467TIP3   OH2 7406   4.487   1.745   0.436
 2467TIP3    H1 7407   4.458   1.831   0.407
 2467TIP3    H2 7408   4.468   1.744   0.530
 2468TIP3   OH2 7409   1.045   3.477   4.139
 2468TIP3    H1 7410   0.990   3.515   4.071
 2468TIP3    H2 7411   1.033   3.383   4.130
 2469TIP3   OH2 7412   2.557   3.457   3.212
 2469TIP3    H1 7413   2.623   3.476   3.279
 2469TIP3    H2 7414   2.599   3.393   3.154
 2470TIP3   OH2 7415   1.576   3.488   0.913
 2470TIP3    H1 7416   1.637   3.560   0.930
 2470TIP3    H2 7417   1.496   3.512   0.959
 2471TIP3   OH2 7418   2.885   1.545   3.941
 2471TIP3    H1 7419   2.838   1.461   3.941
 2471TIP3    H2 7420   2.816   1.611   3.938
 2472TIP3   OH2 7421   3.841   0.806   2.723
 2472TIP3    H1 7422   3.856   0.713   2.710
 2472TIP3    H2 7423   3.773   0.811   2.791
 2473TIP3   OH2 7424   3.078   3.876   0.626
 2473TIP3    H1 7425   3.125   3.909   0.704
 2473TIP3    H2 7426   3.005   3.937   0.616
 2474TIP3   OH2 7427   3.872   2.271   3.452
 2474TIP3    H1 7428   3.847   2.225   3.372
 2474TIP3    H2 7429   3.815   2.347   3.454
 2475TIP3   OH2 7430   5.852   4.018   2.390
 2475TIP3    H1 7431   5.766   4.060   2.392
 2475TIP3    H2 7432   5.914   4.091   2.391
 2476TIP3   OH2 7433   1.992   5.545   3.614
 2476TIP3    H1 7434   1.913   5.588   3.582
 2476TIP3    H2 7435   2.063   5.604   3.591
 2477TIP3   OH2 7436   4.866   2.894   2.573
 2477TIP3    H1 7437   4.787   2.940   2.602
 2477TIP3    H2 7438   4.892   2.840   2.648
 2478TIP3   OH2 7439   2.303   0.834   1.788
 2478TIP3    H1 7440   2.356   0.913   1.775
 2478TIP3    H2 7441   2.340   0.770   1.728
 2479TIP3   OH2 7442   5.695   0.597   2.767
 2479TIP3    H1 7443   5.771   0.642   2.729
 2479TIP3    H2 7444   5.694   0.511   2.725
 2480TIP3   OH2 7445   6.274   2.056   3.653
 2480TIP3    H1 7446   6.216   2.005   3.710
 2480TIP3    H2 7447   6.215   2.098   3.591
 2481TIP3   OH2 7448   0.070   1.002   0.129
 2481TIP3    H1 7449   0.086   1.011   0.223
 2481TIP3    H2 7450  -0.025   0.989   0.122
 2482TIP3   OH2 7451   4.577   2.937   2.638
 2482TIP3    H1 7452   4.548   3.016   2.592
 2482TIP3    H2 7453   4.515   2.927   2.710
 2483TIP3   OH2 7454   0.835   5.329   4.726
 2483TIP3    H1 7455   0.862   5.419   4.747
 2483TIP3    H2 7456   0.853   5.319   4.633
 2484TIP3   OH2 7457   1.027   2.904   4.217
 2484TIP3    H1 7458   1.041   2.905   4.311
 2484TIP3    H2 7459   1.071   2.824   4.187
 2485TIP3   OH2 7460   0.974   2.151   3.007
 2485TIP3    H1 7461   0.984   2.246   3.010
 2485TIP3    H2 7462   1.008   2.126   2.921
 2486TIP3   OH2 7463   2.109   3.082   2.262
 2486TIP3    H1 7464   2.175   3.112   2.198
 2486TIP3    H2 7465   2.123   3.138   2.338
 2487TIP3   OH2 7466   2.123   5.416   3.041
 2487TIP3    H1 7467   2.042   5.429   2.993
 2487TIP3    H2 7468   2.170   5.349   2.992
 2488TIP3   OH2 7469   3.574   5.280   3.130
 2488TIP3    H1 7470   3.509   5.344   3.102
 2488TIP3    H2 7471   3.613   5.318   3.209
 2489TIP3   OH2 7472   4.414   2.182   2.981
 2489TIP3    H1 7473   4.461   2.215   3.057
 2489TIP3    H2 7474   4.409   2.087   2.995
 2490TIP3   OH2 7475   6.273   2.429   5.065
 2490TIP3    H1 7476   6.265   2.425   4.970
 2490TIP3    H2 7477   6.280   2.338   5.093
 2491TIP3   OH2 7478   2.324   2.583   3.440
 2491TIP3    H1 7479   2.413   2.591   3.405
 2491TIP3    H2 7480   2.337   2.573   3.535
 2492TIP3   OH2 7481   5.176   1.951   3.049
 2492TIP3    H1 7482   5.221   1.970   3.131
 2492TIP3    H2 7483   5.149   1.860   3.056
 2493TIP3   OH2 7484   3.538   2.621   3.824
 2493TIP3    H1 7485   3.570   2.541   3.783
 2493TIP3    H2 7486   3.443   2.613   3.821
 2494TIP3   OH2 7487   1.976   4.044   2.222
 2494TIP3    H1 7488   1.930   4.048   2.138
 2494TIP3    H2 7489   2.069   4.044   2.198
 2495TIP3   OH2 7490   0.725   2.345   3.989
 2495TIP3    H1 7491   0.759   2.344   4.079
 2495TIP3    H2 7492   0.724   2.438   3.965
 2496TIP3   OH2 7493   5.857   2.282   0.721
 2496TIP3    H1 7494   5.830   2.199   0.681
 2496TIP3    H2 7495   5.915   2.257   0.792
 2497TIP3   OH2 7496   2.754   2.756   4.164
 2497TIP3    H1 7497   2.717   2.707   4.237
 2497TIP3    H2 7498   2.818   2.697   4.125
 2498TIP3   OH2 7499   1.518   2.099   1.853
 2498TIP3    H1 7500   1.462   2.042   1.801
 2498TIP3    H2 7501   1.537   2.173   1.796
 2499TIP3   OH2 7502   0.703   0.876   4.312
 2499TIP3    H1 7503   0.761   0.825   4.369
 2499TIP3    H2 7504   0.753   0.954   4.289
 2500TIP3   OH2 7505   1.204   4.378   3.239
 2500TIP3    H1 7506   1.145   4.370   3.164
 2500TIP3    H2 7507   1.204   4.471   3.259
 2501TIP3   OH2 7508   4.682   1.131   5.171
 2501TIP3    H1 7509   4.732   1.117   5.091
 2501TIP3    H2 7510   4.722   1.207   5.212
 2502TIP3   OH2 7511   6.296   0.354   0.164
 2502TIP3    H1 7512   6.308   0.378   0.256
 2502TIP3    H2 7513   6.357   0.411   0.116
 2503TIP3   OH2 7514   3.359   3.756   2.238
 2503TIP3    H1 7515   3.263   3.757   2.241
 2503TIP3    H2 7516   3.385   3.836   2.283
 2504TIP3   OH2 7517   6.063   1.010   2.731
 2504TIP3    H1 7518   6.003   1.085   2.728
 2504TIP3    H2 7519   6.128   1.029   2.663
 2505TIP3   OH2 7520   2.916   2.685   4.422
 2505TIP3    H1 7521   2.960   2.600   4.430
 2505TIP3    H2 7522   2.832   2.673   4.466
 2506TIP3   OH2 7523   1.604   3.299   3.024
 2506TIP3    H1 7524   1.676   3.362   3.016
 2506TIP3    H2 7525   1.536   3.334   2.966
 2507TIP3   OH2 7526   2.738   0.137   3.570
 2507TIP3    H1 7527   2.645   0.115   3.581
 2507TIP3    H2 7528   2.783   0.079   3.631
 2508TIP3   OH2 7529   4.995   4.508   2.068
 2508TIP3    H1 7530   4.976   4.493   1.975
 2508TIP3    H2 7531   4.911   4.500   2.112
 2509TIP3   OH2 7532   2.346   0.294   4.731
 2509TIP3    H1 7533   2.321   0.286   4.823
 2509TIP3    H2 7534   2.440   0.315   4.733
 2510TIP3   OH2 7535   3.308   5.638   1.012
 2510TIP3    H1 7536   3.374   5.641   1.081
 2510TIP3    H2 7537   3.359   5.639   0.931
 2511TIP3   OH2 7538   4.302   4.798   1.959
 2511TIP3    H1 7539   4.324   4.764   2.046
 2511TIP3    H2 7540   4.385   4.831   1.925
 2512TIP3   OH2 7541   2.375   4.876   3.707
 2512TIP3    H1 7542   2.391   4.845   3.796
 2512TIP3    H2 7543   2.447   4.937   3.689
 2513TIP3   OH2 7544   1.759   2.469   1.502
 2513TIP3    H1 7545   1.706   2.531   1.552
 2513TIP3    H2 7546   1.832   2.446   1.559
 2514TIP3   OH2 7547   1.888   1.920   0.990
 2514TIP3    H1 7548   1.809   1.925   0.936
 2514TIP3    H2 7549   1.867   1.971   1.068
 2515TIP3   OH2 7550   0.148   1.684   4.924
 2515TIP3    H1 7551   0.140   1.780   4.930
 2515TIP3    H2 7552   0.207   1.670   4.851
 2516TIP3   OH2 7553   5.332   4.446   3.309
 2516TIP3    H1 7554   5.381   4.454   3.227
 2516TIP3    H2 7555   5.334   4.534   3.346
 2517TIP3   OH2 7556   0.356   3.085   1.276
 2517TIP3    H1 7557   0.388   3.137   1.349
 2517TIP3    H2 7558   0.430   3.028   1.254
 2518TIP3   OH2 7559   0.405   1.334   1.102
 2518TIP3    H1 7560   0.436   1.381   1.179
 2518TIP3    H2 7561   0.485   1.308   1.056
 2519TIP3   OH2 7562   4.280   2.265   3.704
 2519TIP3    H1 7563   4.215   2.294   3.640
 2519TIP3    H2 7564   4.323   2.346   3.732
 2520TIP3   OH2 7565   4.086   2.179   2.097
 2520TIP3    H1 7566   4.001   2.223   2.094
 2520TIP3    H2 7567   4.087   2.134   2.182
 2521TIP3   OH2 7568   3.308   2.190   3.415
 2521TIP3    H1 7569   3.314   2.151   3.503
 2521TIP3    H2 7570   3.256   2.128   3.365
 2522TIP3   OH2 7571   2.897   1.018   0.978
 2522TIP3    H1 7572   2.821   0.994   1.030
 2522TIP3    H2 7573   2.961   0.949   0.995
 2523TIP3   OH2 7574   0.972   0.086   4.948
 2523TIP3    H1 7575   0.878   0.084   4.965
 2523TIP3    H2 7576   0.996   0.178   4.961
 2524TIP3   OH2 7577   5.057   1.901   3.953
 2524TIP3    H1 7578   5.112   1.928   3.879
 2524TIP3    H2 7579   5.110   1.923   4.030
 2525TIP3   OH2 7580   2.285   5.544   1.348
 2525TIP3    H1 7581   2.353   5.541   1.416
 2525TIP3    H2 7582   2.321   5.603   1.282
 2526TIP3   OH2 7583   5.777   4.422   1.816
 2526TIP3    H1 7584   5.791   4.470   1.898
 2526TIP3    H2 7585   5.803   4.483   1.747
 2527TIP3   OH2 7586   0.405   3.511   1.662
 2527TIP3    H1 7587   0.465   3.585   1.670
 2527TIP3    H2 7588   0.361   3.525   1.578
 2528TIP3   OH2 7589   3.820   5.409   2.856
 2528TIP3    H1 7590   3.829   5.452   2.941
 2528TIP3    H2 7591   3.904   5.366   2.841
 2529TIP3   OH2 7592   4.163   2.974   3.674
 2529TIP3    H1 7593   4.183   3.035   3.603
 2529TIP3    H2 7594   4.140   3.031   3.748
 2530TIP3   OH2 7595   3.176   2.048   2.039
 2530TIP3    H1 7596   3.228   2.053   2.119
 2530TIP3    H2 7597   3.089   2.019   2.069
 2531TIP3   OH2 7598   6.281   0.151   2.700
 2531TIP3    H1 7599   6.210   0.087   2.698
 2531TIP3    H2 7600   6.318   0.149   2.612
 2532TIP3   OH2 7601   2.159   0.290   1.255
 2532TIP3    H1 7602   2.090   0.346   1.289
 2532TIP3    H2 7603   2.183   0.233   1.328
 2533TIP3   OH2 7604   5.809   5.447   0.285
 2533TIP3    H1 7605   5.897   5.458   0.322
 2533TIP3    H2 7606   5.767   5.382   0.343
 2534TIP3   OH2 7607   4.940   4.445   4.463
 2534TIP3    H1 7608   5.022   4.490   4.442
 2534TIP3    H2 7609   4.929   4.380   4.394
 2535TIP3   OH2 7610   5.910   0.158   5.011
 2535TIP3    H1 7611   5.861   0.165   4.929
 2535TIP3    H2 7612   5.972   0.087   4.997
 2536TIP3   OH2 7613   0.662   5.200   0.372
 2536TIP3    H1 7614   0.689   5.187   0.463
 2536TIP3    H2 7615   0.664   5.295   0.361
 2537TIP3   OH2 7616   4.854   0.391   4.955
 2537TIP3    H1 7617   4.777   0.448   4.968
 2537TIP3    H2 7618   4.910   0.409   5.030
 2538TIP3   OH2 7619   5.173   5.023   1.186
 2538TIP3    H1 7620   5.131   5.106   1.167
 2538TIP3    H2 7621   5.242   5.044   1.249
 2539TIP3   OH2 7622   5.767   2.766   4.818
 2539TIP3    H1 7623   5.707   2.769   4.892
 2539TIP3    H2 7624   5.793   2.674   4.811
 2540TIP3   OH2 7625   3.428   1.568   4.514
 2540TIP3    H1 7626   3.460   1.481   4.540
 2540TIP3    H2 7627   3.507   1.616   4.489
 2541TIP3   OH2 7628   0.330   5.630   2.391
 2541TIP3    H1 7629   0.238   5.657   2.402
 2541TIP3    H2 7630   0.370   5.703   2.343
 2542TIP3   OH2 7631   0.260   4.156   4.885
 2542TIP3    H1 7632   0.254   4.062   4.902
 2542TIP3    H2 7633   0.326   4.187   4.947
 2543TIP3   OH2 7634   4.869   0.718   1.888
 2543TIP3    H1 7635   4.925   0.643   1.907
 2543TIP3    H2 7636   4.894   0.784   1.953
 2544TIP3   OH2 7637   5.074   1.724   4.711
 2544TIP3    H1 7638   5.010   1.658   4.686
 2544TIP3    H2 7639   5.079   1.783   4.635
 2545TIP3   OH2 7640   6.177   2.684   0.331
 2545TIP3    H1 7641   6.220   2.720   0.408
 2545TIP3    H2 7642   6.158   2.593   0.354
 2546TIP3   OH2 7643   2.556   0.108   0.058
 2546TIP3    H1 7644   2.584   0.199   0.066
 2546TIP3    H2 7645   2.533   0.098  -0.034
 2547TIP3   OH2 7646   0.877   3.447   1.132
 2547TIP3    H1 7647   0.953   3.421   1.185
 2547TIP3    H2 7648   0.915   3.493   1.057
 2548TIP3   OH2 7649   2.372   0.644   2.951
 2548TIP3    H1 7650   2.312   0.679   3.016
 2548TIP3    H2 7651   2.345   0.685   2.869
 2549TIP3   OH2 7652   6.144   5.191   2.171
 2549TIP3    H1 7653   6.098   5.118   2.130
 2549TIP3    H2 7654   6.080   5.232   2.229
 2550TIP3   OH2 7655   0.359   5.949   2.052
 2550TIP3    H1 7656   0.385   5.887   1.984
 2550TIP3    H2 7657   0.403   5.918   2.132
 2551TIP3   OH2 7658   2.022   1.805   3.515
 2551TIP3    H1 7659   1.976   1.803   3.599
 2551TIP3    H2 7660   2.104   1.850   3.534
 2552TIP3   OH2 7661   2.048   5.762   3.820
 2552TIP3    H1 7662   2.137   5.798   3.827
 2552TIP3    H2 7663   2.026   5.769   3.727
 2553TIP3   OH2 7664   2.264   0.138   3.235
 2553TIP3    H1 7665   2.209   0.205   3.276
 2553TIP3    H2 7666   2.239   0.140   3.143
 2554TIP3   OH2 7667   5.875   0.509   4.216
 2554TIP3    H1 7668   5.811   0.555   4.270
 2554TIP3    H2 7669   5.959   0.543   4.243
 2555TIP3   OH2 7670   2.308   4.948   2.758
 2555TIP3    H1 7671   2.275   4.858   2.755
 2555TIP3    H2 7672   2.398   4.939   2.787
 2556TIP3   OH2 7673   1.400   5.853   2.193
 2556TIP3    H1 7674   1.382   5.849   2.099
 2556TIP3    H2 7675   1.426   5.944   2.209
 2557TIP3   OH2 7676   3.957   4.386   5.166
 2557TIP3    H1 7677   3.987   4.394   5.075
 2557TIP3    H2 7678   4.012   4.447   5.215
 2558TIP3   OH2 7679   2.395   3.384   3.817
 2558TIP3    H1 7680   2.483   3.364   3.848
 2558TIP3    H2 7681   2.371   3.310   3.762
 2559TIP3   OH2 7682   0.862   3.818   0.467
 2559TIP3    H1 7683   0.867   3.779   0.380
 2559TIP3    H2 7684   0.880   3.911   0.453
 2560TIP3   OH2 7685   2.309   0.426   1.042
 2560TIP3    H1 7686   2.268   0.364   1.102
 2560TIP3    H2 7687   2.401   0.429   1.069
 2561TIP3   OH2 7688   4.083   2.461   2.911
 2561TIP3    H1 7689   4.119   2.494   2.828
 2561TIP3    H2 7690   4.155   2.468   2.973
 2562TIP3   OH2 7691   6.290   0.968   4.176
 2562TIP3    H1 7692   6.379   0.935   4.164
 2562TIP3    H2 7693   6.248   0.903   4.234
 2563TIP3   OH2 7694   1.478   1.811   0.847
 2563TIP3    H1 7695   1.417   1.755   0.799
 2563TIP3    H2 7696   1.483   1.891   0.794
 2564TIP3   OH2 7697   5.082   2.352   3.349
 2564TIP3    H1 7698   5.142   2.422   3.377
 2564TIP3    H2 7699   4.995   2.385   3.371
 2565TIP3   OH2 7700   5.675   0.299   3.097
 2565TIP3    H1 7701   5.673   0.391   3.125
 2565TIP3    H2 7702   5.712   0.252   3.171
 2566TIP3   OH2 7703   1.051   4.355   3.013
 2566TIP3    H1 7704   1.039   4.415   2.939
 2566TIP3    H2 7705   0.963   4.342   3.048
 2567TIP3   OH2 7706   3.399   5.357   3.638
 2567TIP3    H1 7707   3.356   5.277   3.606
 2567TIP3    H2 7708   3.430   5.333   3.725
 2568TIP3   OH2 7709   4.030   4.350   3.155
 2568TIP3    H1 7710   4.109   4.323   3.108
 2568TIP3    H2 7711   3.979   4.399   3.090
 2569TIP3   OH2 7712   0.758   0.591   2.228
 2569TIP3    H1 7713   0.826   0.535   2.266
 2569TIP3    H2 7714   0.797   0.628   2.149
 2570TIP3   OH2 7715   0.599   1.217   4.444
 2570TIP3    H1 7716   0.655   1.160   4.392
 2570TIP3    H2 7717   0.649   1.298   4.454
 2571TIP3   OH2 7718   6.142   4.332   0.131
 2571TIP3    H1 7719   6.058   4.318   0.175
 2571TIP3    H2 7720   6.171   4.244   0.108
 2572TIP3   OH2 7721   2.059   1.713   2.149
 2572TIP3    H1 7722   1.967   1.692   2.166
 2572TIP3    H2 7723   2.101   1.704   2.235
 2573TIP3   OH2 7724   6.203   4.428   4.218
 2573TIP3    H1 7725   6.288   4.412   4.258
 2573TIP3    H2 7726   6.141   4.379   4.274
 2574TIP3   OH2 7727   1.175   0.995   0.705
 2574TIP3    H1 7728   1.117   0.990   0.630
 2574TIP3    H2 7729   1.263   1.002   0.667
 2575TIP3   OH2 7730   0.236   0.039   4.894
 2575TIP3    H1 7731   0.309   0.101   4.893
 2575TIP3    H2 7732   0.159   0.093   4.880
 2576TIP3   OH2 7733   3.905   1.485   1.085
 2576TIP3    H1 7734   3.871   1.460   1.170
 2576TIP3    H2 7735   3.834   1.466   1.024
 2577TIP3   OH2 7736   0.244   4.397   0.560
 2577TIP3    H1 7737   0.323   4.419   0.610
 2577TIP3    H2 7738   0.240   4.463   0.491
 2578TIP3   OH2 7739   2.490   5.692   3.805
 2578TIP3    H1 7740   2.530   5.777   3.823
 2578TIP3    H2 7741   2.563   5.635   3.781
 2579TIP3   OH2 7742   0.791   5.954   1.388
 2579TIP3    H1 7743   0.710   5.907   1.403
 2579TIP3    H2 7744   0.766   6.047   1.392
 2580TIP3   OH2 7745   0.664   5.364   4.331
 2580TIP3    H1 7746   0.727   5.434   4.311
 2580TIP3    H2 7747   0.655   5.315   4.249
 2581TIP3   OH2 7748   3.385   2.525   1.356
 2581TIP3    H1 7749   3.424   2.490   1.436
 2581TIP3    H2 7750   3.460   2.537   1.297
 2582TIP3   OH2 7751   5.761   3.303   1.710
 2582TIP3    H1 7752   5.780   3.305   1.804
 2582TIP3    H2 7753   5.669   3.326   1.703
 2583TIP3   OH2 7754   4.433   0.936   3.718
 2583TIP3    H1 7755   4.528   0.945   3.722
 2583TIP3    H2 7756   4.401   1.026   3.705
 2584TIP3   OH2 7757   5.905   0.489   3.461
 2584TIP3    H1 7758   5.999   0.503   3.451
 2584TIP3    H2 7759   5.891   0.480   3.555
 2585TIP3   OH2 7760   0.140   2.666   3.931
 2585TIP3    H1 7761   0.075   2.724   3.971
 2585TIP3    H2 7762   0.091   2.586   3.910
 2586TIP3   OH2 7763   2.922   0.765   3.138
 2586TIP3    H1 7764   2.846   0.822   3.136
 2586TIP3    H2 7765   2.903   0.701   3.206
 2587TIP3   OH2 7766   0.593   1.557   3.431
 2587TIP3    H1 7767   0.544   1.637   3.450
 2587TIP3    H2 7768   0.632   1.532   3.515
 2588TIP3   OH2 7769   3.289   2.800   4.946
 2588TIP3    H1 7770   3.264   2.777   4.857
 2588TIP3    H2 7771   3.352   2.872   4.935
 2589TIP3   OH2 7772   2.321   5.081   0.077
 2589TIP3    H1 7773   2.401   5.108   0.121
 2589TIP3    H2 7774   2.296   4.999   0.119
 2590TIP3   OH2 7775   1.818   5.651   4.840
 2590TIP3    H1 7776   1.859   5.707   4.906
 2590TIP3    H2 7777   1.724   5.659   4.857
 2591TIP3   OH2 7778   0.656   4.137   2.644
 2591TIP3    H1 7779   0.604   4.073   2.596
 2591TIP3    H2 7780   0.627   4.222   2.610
 2592TIP3   OH2 7781   3.986   4.940   2.595
 2592TIP3    H1 7782   4.029   5.025   2.603
 2592TIP3    H2 7783   4.035   4.883   2.654
 2593TIP3   OH2 7784   5.926   0.253   1.723
 2593TIP3    H1 7785   5.968   0.285   1.643
 2593TIP3    H2 7786   5.982   0.182   1.752
 2594TIP3   OH2 7787   5.067   2.255   4.975
 2594TIP3    H1 7788   5.044   2.311   5.049
 2594TIP3    H2 7789   4.983   2.227   4.939
 2595TIP3   OH2 7790   5.722   1.192   1.823
 2595TIP3    H1 7791   5.802   1.233   1.791
 2595TIP3    H2 7792   5.751   1.117   1.873
 2596TIP3   OH2 7793   6.225   0.856   3.899
 2596TIP3    H1 7794   6.181   0.880   3.981
 2596TIP3    H2 7795   6.302   0.807   3.927
 2597TIP3   OH2 7796   4.596   5.653   3.482
 2597TIP3    H1 7797   4.676   5.704   3.466
 2597TIP3    H2 7798   4.603   5.577   3.424
 2598TIP3   OH2 7799   3.482   5.811   4.206
 2598TIP3    H1 7800   3.568   5.821   4.165
 2598TIP3    H2 7801   3.496   5.835   4.298
 2599TIP3   OH2 7802   2.824   3.786   4.227
 2599TIP3    H1 7803   2.919   3.779   4.238
 2599TIP3    H2 7804   2.791   3.701   4.258
 2600TIP3   OH2 7805   5.483   0.025   3.786
 2600TIP3    H1 7806   5.496   0.063   3.699
 2600TIP3    H2 7807   5.495  -0.069   3.773
 2601TIP3   OH2 7808   3.793   2.646   0.346
 2601TIP3    H1 7809   3.760   2.726   0.386
 2601TIP3    H2 7810   3.861   2.676   0.284
 2602TIP3   OH2 7811   0.796   2.592   3.901
 2602TIP3    H1 7812   0.799   2.669   3.845
 2602TIP3    H2 7813   0.799   2.627   3.990
 2603TIP3   OH2 7814   1.026   5.062   4.611
 2603TIP3    H1 7815   1.120   5.068   4.623
 2603TIP3    H2 7816   0.995   5.153   4.618
 2604TIP3   OH2 7817   0.746   5.136   2.877
 2604TIP3    H1 7818   0.838   5.152   2.857
 2604TIP3    H2 7819   0.732   5.045   2.852
 2605TIP3   OH2 7820   0.987   4.371   3.880
 2605TIP3    H1 7821   1.075   4.334   3.871
 2605TIP3    H2 7822   0.944   4.316   3.946
 2606TIP3   OH2 7823   2.236   4.592   2.477
 2606TIP3    H1 7824   2.326   4.624   2.476
 2606TIP3    H2 7825   2.190   4.653   2.536
 2607TIP3   OH2 7826   2.904   1.852   1.154
 2607TIP3    H1 7827   2.836   1.892   1.100
 2607TIP3    H2 7828   2.876   1.868   1.244
 2608TIP3   OH2 7829   4.726   4.457   3.161
 2608TIP3    H1 7830   4.756   4.456   3.070
 2608TIP3    H2 7831   4.634   4.435   3.157
 2609TIP3   OH2 7832   1.855   5.806   2.939
 2609TIP3    H1 7833   1.830   5.722   2.977
 2609TIP3    H2 7834   1.813   5.871   2.994
 2610TIP3   OH2 7835   5.096   5.055   1.690
 2610TIP3    H1 7836   5.123   5.068   1.780
 2610TIP3    H2 7837   5.158   4.991   1.655
 2611TIP3   OH2 7838   3.049   1.705   2.335
 2611TIP3    H1 7839   3.064   1.695   2.241
 2611TIP3    H2 7840   3.135   1.691   2.375
 2612TIP3   OH2 7841   2.515   2.711   2.698
 2612TIP3    H1 7842   2.587   2.650   2.683
 2612TIP3    H2 7843   2.464   2.673   2.769
 2613TIP3   OH2 7844   3.841   2.145   1.344
 2613TIP3    H1 7845   3.911   2.103   1.294
 2613TIP3    H2 7846   3.848   2.237   1.321
 2614TIP3   OH2 7847   5.223   5.545   3.736
 2614TIP3    H1 7848   5.280   5.572   3.664
 2614TIP3    H2 7849   5.283   5.530   3.809
 2615TIP3   OH2 7850   2.639   5.590   1.317
 2615TIP3    H1 7851   2.647   5.644   1.396
 2615TIP3    H2 7852   2.685   5.509   1.338
 2616TIP3   OH2 7853   6.060   4.372   3.250
 2616TIP3    H1 7854   6.004   4.317   3.195
 2616TIP3    H2 7855   6.009   4.387   3.329
 2617TIP3   OH2 7856   4.417   0.658   1.798
 2617TIP3    H1 7857   4.462   0.575   1.809
 2617TIP3    H2 7858   4.344   0.639   1.740
 2618TIP3   OH2 7859   0.664   5.901   1.909
 2618TIP3    H1 7860   0.732   5.834   1.902
 2618TIP3    H2 7861   0.710   5.978   1.943
 2619TIP3   OH2 7862   4.166   0.977   2.279
 2619TIP3    H1 7863   4.173   0.901   2.337
 2619TIP3    H2 7864   4.234   0.963   2.213
 2620TIP3   OH2 7865   0.504   5.151   1.459
 2620TIP3    H1 7866   0.582   5.107   1.492
 2620TIP3    H2 7867   0.472   5.093   1.389
 2621TIP3   OH2 7868   5.489   1.854   4.763
 2621TIP3    H1 7869   5.423   1.917   4.793
 2621TIP3    H2 7870   5.448   1.768   4.775
 2622TIP3   OH2 7871   1.797   3.460   0.322
 2622TIP3    H1 7872   1.822   3.441   0.412
 2622TIP3    H2 7873   1.703   3.440   0.319
 2623TIP3   OH2 7874   1.739   0.915   3.020
 2623TIP3    H1 7875   1.652   0.947   3.045
 2623TIP3    H2 7876   1.751   0.945   2.930
 2624TIP3   OH2 7877   1.600   5.280   3.499
 2624TIP3    H1 7878   1.652   5.360   3.500
 2624TIP3    H2 7879   1.536   5.292   3.570
 2625TIP3   OH2 7880   4.098   0.060   0.712
 2625TIP3    H1 7881   4.069   0.008   0.786
 2625TIP3    H2 7882   4.194   0.054   0.714
 2626TIP3   OH2 7883   1.578   5.713   4.979
 2626TIP3    H1 7884   1.521   5.783   5.009
 2626TIP3    H2 7885   1.528   5.633   4.994
 2627TIP3   OH2 7886   0.600   2.014   0.638
 2627TIP3    H1 7887   0.668   1.966   0.685
 2627TIP3    H2 7888   0.520   1.998   0.687
 2628TIP3   OH2 7889   4.876   5.729   4.491
 2628TIP3    H1 7890   4.912   5.662   4.432
 2628TIP3    H2 7891   4.849   5.800   4.434
 2629TIP3   OH2 7892   3.589   4.100   2.791
 2629TIP3    H1 7893   3.653   4.030   2.775
 2629TIP3    H2 7894   3.528   4.094   2.719
 2630TIP3   OH2 7895   4.643   1.207   4.168
 2630TIP3    H1 7896   4.606   1.289   4.134
 2630TIP3    H2 7897   4.736   1.214   4.149
 2631TIP3   OH2 7898   4.215   0.361   0.058
 2631TIP3    H1 7899   4.272   0.389  -0.013
 2631TIP3    H2 7900   4.248   0.275   0.083
 2632TIP3   OH2 7901   1.602   4.982   3.852
 2632TIP3    H1 7902   1.537   4.914   3.871
 2632TIP3    H2 7903   1.671   4.936   3.805
 2633TIP3   OH2 7904   5.543   2.892   0.163
 2633TIP3    H1 7905   5.567   2.983   0.181
 2633TIP3    H2 7906   5.464   2.877   0.215
 2634TIP3   OH2 7907   5.136   1.095   0.951
 2634TIP3    H1 7908   5.179   1.102   1.036
 2634TIP3    H2 7909   5.144   1.182   0.913
 2635TIP3   OH2 7910   6.233   4.786   4.352
 2635TIP3    H1 7911   6.185   4.746   4.279
 2635TIP3    H2 7912   6.194   4.873   4.361
 2636TIP3   OH2 7913   0.622   1.918   3.063
 2636TIP3    H1 7914   0.546   1.899   3.118
 2636TIP3    H2 7915   0.594   1.989   3.006
 2637TIP3   OH2 7916   1.388   1.853   4.811
 2637TIP3    H1 7917   1.371   1.926   4.752
 2637TIP3    H2 7918   1.404   1.779   4.753
 2638TIP3   OH2 7919   4.453   4.636   4.999
 2638TIP3    H1 7920   4.464   4.729   5.016
 2638TIP3    H2 7921   4.463   4.628   4.904
 2639TIP3   OH2 7922   0.158   0.135   1.223
 2639TIP3    H1 7923   0.097   0.109   1.292
 2639TIP3    H2 7924   0.183   0.225   1.246
 2640TIP3   OH2 7925   2.589   2.791   2.235
 2640TIP3    H1 7926   2.556   2.881   2.240
 2640TIP3    H2 7927   2.679   2.800   2.202
 2641TIP3   OH2 7928   1.526   5.290   3.207
 2641TIP3    H1 7929   1.568   5.372   3.182
 2641TIP3    H2 7930   1.507   5.301   3.301
 2642TIP3   OH2 7931   3.280   0.177   3.172
 2642TIP3    H1 7932   3.240   0.163   3.258
 2642TIP3    H2 7933   3.208   0.211   3.118
 2643TIP3   OH2 7934   5.341   5.461   5.105
 2643TIP3    H1 7935   5.433   5.440   5.120
 2643TIP3    H2 7936   5.335   5.555   5.117
 2644TIP3   OH2 7937   1.787   2.796   0.857
 2644TIP3    H1 7938   1.829   2.786   0.942
 2644TIP3    H2 7939   1.816   2.720   0.806
 2645TIP3   OH2 7940   3.574   0.180   0.832
 2645TIP3    H1 7941   3.628   0.259   0.834
 2645TIP3    H2 7942   3.610   0.128   0.760
 2646TIP3   OH2 7943   6.182   4.872   4.908
 2646TIP3    H1 7944   6.112   4.810   4.889
 2646TIP3    H2 7945   6.238   4.825   4.971
 2647TIP3   OH2 7946   3.138   4.482   3.880
 2647TIP3    H1 7947   3.224   4.470   3.840
 2647TIP3    H2 7948   3.156   4.532   3.960
 2648TIP3   OH2 7949   1.211   1.644   1.860
 2648TIP3    H1 7950   1.196   1.714   1.922
 2648TIP3    H2 7951   1.244   1.571   1.913
 2649TIP3   OH2 7952   6.167   4.957   3.294
 2649TIP3    H1 7953   6.088   4.957   3.348
 2649TIP3    H2 7954   6.237   4.936   3.356
 2650TIP3   OH2 7955   2.067   5.825   0.392
 2650TIP3    H1 7956   2.031   5.914   0.393
 2650TIP3    H2 7957   2.056   5.795   0.302
 2651TIP3   OH2 7958   3.879   2.438   4.112
 2651TIP3    H1 7959   3.943   2.429   4.042
 2651TIP3    H2 7960   3.819   2.506   4.081
 2652TIP3   OH2 7961   1.445   1.701   1.526
 2652TIP3    H1 7962   1.388   1.697   1.449
 2652TIP3    H2 7963   1.459   1.609   1.549
 2653TIP3   OH2 7964   5.005   0.620   3.205
 2653TIP3    H1 7965   5.094   0.641   3.176
 2653TIP3    H2 7966   4.986   0.685   3.272
 2654TIP3   OH2 7967   5.083   2.518   1.411
 2654TIP3    H1 7968   5.008   2.501   1.468
 2654TIP3    H2 7969   5.133   2.585   1.458
 2655TIP3   OH2 7970   4.981   5.719   1.708
 2655TIP3    H1 7971   5.047   5.764   1.656
 2655TIP3    H2 7972   4.988   5.759   1.795
 2656TIP3   OH2 7973   0.228   0.504   3.674
 2656TIP3    H1 7974   0.139   0.515   3.639
 2656TIP3    H2 7975   0.217   0.450   3.752
 2657TIP3   OH2 7976   5.749   3.570   2.924
 2657TIP3    H1 7977   5.777   3.485   2.956
 2657TIP3    H2 7978   5.672   3.552   2.870
 2658TIP3   OH2 7979   4.324   3.681   2.880
 2658TIP3    H1 7980   4.235   3.647   2.874
 2658TIP3    H2 7981   4.322   3.740   2.955
 2659TIP3   OH2 7982   2.828   2.559   3.354
 2659TIP3    H1 7983   2.857   2.471   3.380
 2659TIP3    H2 7984   2.859   2.568   3.263
 2660TIP3   OH2 7985   5.377   3.892   2.672
 2660TIP3    H1 7986   5.329   3.910   2.592
 2660TIP3    H2 7987   5.467   3.880   2.644
 2661TIP3   OH2 7988   1.569   5.222   2.301
 2661TIP3    H1 7989   1.588   5.283   2.230
 2661TIP3    H2 7990   1.642   5.161   2.302
 2662TIP3   OH2 7991   5.236   2.832   2.088
 2662TIP3    H1 7992   5.161   2.801   2.138
 2662TIP3    H2 7993   5.285   2.886   2.149
 2663TIP3   OH2 7994   3.180   0.679   2.281
 2663TIP3    H1 7995   3.123   0.743   2.321
 2663TIP3    H2 7996   3.172   0.695   2.187
 2664TIP3   OH2 7997   1.853   3.703   0.175
 2664TIP3    H1 7998   1.855   3.609   0.196
 2664TIP3    H2 7999   1.765   3.730   0.200
 2665TIP3   OH2 8000   1.689   4.528   3.062
 2665TIP3    H1 8001   1.751   4.598   3.081
 2665TIP3    H2 8002   1.699   4.512   2.968
 2666TIP3   OH2 8003   4.252   4.496   2.147
 2666TIP3    H1 8004   4.274   4.447   2.067
 2666TIP3    H2 8005   4.332   4.544   2.168
 2667TIP3   OH2 8006   1.412   1.354   1.141
 2667TIP3    H1 8007   1.419   1.446   1.163
 2667TIP3    H2 8008   1.456   1.308   1.213
 2668TIP3   OH2 8009   3.805   0.141   4.741
 2668TIP3    H1 8010   3.835   0.105   4.657
 2668TIP3    H2 8011   3.856   0.094   4.807
 2669TIP3   OH2 8012   2.988   2.357   0.743
 2669TIP3    H1 8013   2.959   2.271   0.772
 2669TIP3    H2 8014   2.981   2.354   0.647
 2670TIP3   OH2 8015   2.061   5.162   4.545
 2670TIP3    H1 8016   2.131   5.215   4.507
 2670TIP3    H2 8017   1.981   5.209   4.521
 2671TIP3   OH2 8018   2.294   3.183   2.007
 2671TIP3    H1 8019   2.291   3.268   1.963
 2671TIP3    H2 8020   2.382   3.150   1.989
 2672TIP3   OH2 8021   5.137   5.436   1.979
 2672TIP3    H1 8022   5.222   5.481   1.978
 2672TIP3    H2 8023   5.150   5.360   1.922
 2673TIP3   OH2 8024   4.182   2.497   2.648
 2673TIP3    H1 8025   4.265   2.539   2.673
 2673TIP3    H2 8026   4.142   2.558   2.586
 2674TIP3   OH2 8027   5.247   4.293   0.344
 2674TIP3    H1 8028   5.179   4.349   0.306
 2674TIP3    H2 8029   5.303   4.269   0.269
 2675TIP3   OH2 8030   2.210   2.199   0.020
 2675TIP3    H1 8031   2.294   2.204  -0.025
 2675TIP3    H2 8032   2.223   2.248   0.101
 2676TIP3   OH2 8033   2.622   4.222   4.571
 2676TIP3    H1 8034   2.565   4.170   4.514
 2676TIP3    H2 8035   2.662   4.287   4.512
 2677TIP3   OH2 8036   0.535   2.588   5.179
 2677TIP3    H1 8037   0.524   2.679   5.206
 2677TIP3    H2 8038   0.459   2.570   5.122
 2678TIP3   OH2 8039   0.122   0.389   1.321
 2678TIP3    H1 8040   0.166   0.474   1.315
 2678TIP3    H2 8041   0.129   0.364   1.413
 2679TIP3   OH2 8042   0.360   4.252   1.548
 2679TIP3    H1 8043   0.440   4.247   1.497
 2679TIP3    H2 8044   0.322   4.337   1.525
 2680TIP3   OH2 8045   2.230   3.997   3.194
 2680TIP3    H1 8046   2.266   4.080   3.164
 2680TIP3    H2 8047   2.281   3.931   3.147
 2681TIP3   OH2 8048   5.378   3.364   2.275
 2681TIP3    H1 8049   5.440   3.397   2.210
 2681TIP3    H2 8050   5.422   3.377   2.359
 2682TIP3   OH2 8051   2.920   0.990   3.998
 2682TIP3    H1 8052   2.936   1.072   4.045
 2682TIP3    H2 8053   2.983   0.928   4.034
 2683TIP3   OH2 8054   2.594   1.794   0.382
 2683TIP3    H1 8055   2.678   1.753   0.365
 2683TIP3    H2 8056   2.554   1.802   0.295
 2684TIP3   OH2 8057   1.651   1.415   4.429
 2684TIP3    H1 8058   1.729   1.461   4.459
 2684TIP3    H2 8059   1.624   1.461   4.349
 2685TIP3   OH2 8060   4.083   1.309   0.290
 2685TIP3    H1 8061   4.138   1.367   0.342
 2685TIP3    H2 8062   4.068   1.356   0.209
 2686TIP3   OH2 8063   6.045   1.709   2.293
 2686TIP3    H1 8064   6.095   1.789   2.277
 2686TIP3    H2 8065   6.088   1.668   2.368
 2687TIP3   OH2 8066   3.214   0.143   0.978
 2687TIP3    H1 8067   3.179   0.079   0.916
 2687TIP3    H2 8068   3.153   0.141   1.052
 2688TIP3   OH2 8069   0.158   3.201   0.779
 2688TIP3    H1 8070   0.252   3.221   0.773
 2688TIP3    H2 8071   0.146   3.165   0.866
 2689TIP3   OH2 8072   4.293   1.141   4.496
 2689TIP3    H1 8073   4.263   1.056   4.465
 2689TIP3    H2 8074   4.247   1.205   4.441
 2690TIP3   OH2 8075   2.256   4.406   3.646
 2690TIP3    H1 8076   2.281   4.329   3.696
 2690TIP3    H2 8077   2.178   4.379   3.598
 2691TIP3   OH2 8078   1.089   4.291   0.960
 2691TIP3    H1 8079   1.113   4.384   0.960
 2691TIP3    H2 8080   1.002   4.288   1.000
 2692TIP3   OH2 8081   2.400   5.660   0.761
 2692TIP3    H1 8082   2.478   5.693   0.806
 2692TIP3    H2 8083   2.426   5.655   0.669
 2693TIP3   OH2 8084   3.479   5.404   0.421
 2693TIP3    H1 8085   3.497   5.343   0.350
 2693TIP3    H2 8086   3.398   5.372   0.461
 2694TIP3   OH2 8087   5.155   4.530   0.910
 2694TIP3    H1 8088   5.232   4.581   0.936
 2694TIP3    H2 8089   5.145   4.464   0.978
 2695TIP3   OH2 8090   5.291   1.022   2.181
 2695TIP3    H1 8091   5.324   1.039   2.269
 2695TIP3    H2 8092   5.364   0.982   2.134
 2696TIP3   OH2 8093   2.041   2.643   1.579
 2696TIP3    H1 8094   2.014   2.586   1.651
 2696TIP3    H2 8095   2.135   2.630   1.572
 2697TIP3   OH2 8096   3.670   0.785   2.937
 2697TIP3    H1 8097   3.593   0.728   2.937
 2697TIP3    H2 8098   3.667   0.828   3.023
 2698TIP3   OH2 8099   4.187   5.028   2.076
 2698TIP3    H1 8100   4.201   4.988   2.162
 2698TIP3    H2 8101   4.205   4.958   2.014
 2699TIP3   OH2 8102   5.946   2.695   1.097
 2699TIP3    H1 8103   5.944   2.599   1.100
 2699TIP3    H2 8104   5.866   2.722   1.142
 2700TIP3   OH2 8105   1.859   4.508   0.333
 2700TIP3    H1 8106   1.919   4.549   0.270
 2700TIP3    H2 8107   1.861   4.566   0.409
 2701TIP3   OH2 8108   0.435   2.952   0.392
 2701TIP3    H1 8109   0.415   3.025   0.451
 2701TIP3    H2 8110   0.514   2.912   0.428
 2702TIP3   OH2 8111   6.315   4.176   1.652
 2702TIP3    H1 8112   6.297   4.251   1.596
 2702TIP3    H2 8113   6.247   4.180   1.719
 2703TIP3   OH2 8114   3.245   2.605   3.846
 2703TIP3    H1 8115   3.164   2.599   3.897
 2703TIP3    H2 8116   3.279   2.516   3.844
 2704TIP3   OH2 8117   0.298   0.555   2.381
 2704TIP3    H1 8118   0.390   0.577   2.367
 2704TIP3    H2 8119   0.294   0.527   2.473
 2705TIP3   OH2 8120   0.172   1.063   3.012
 2705TIP3    H1 8121   0.238   1.132   3.006
 2705TIP3    H2 8122   0.212   0.997   3.070
 2706TIP3   OH2 8123   2.201   1.524   0.012
 2706TIP3    H1 8124   2.267   1.537  -0.056
 2706TIP3    H2 8125   2.246   1.543   0.094
 2707TIP3   OH2 8126   5.502   5.378   0.165
 2707TIP3    H1 8127   5.424   5.367   0.221
 2707TIP3    H2 8128   5.541   5.460   0.194
 2708TIP3   OH2 8129   3.393   3.966   3.081
 2708TIP3    H1 8130   3.408   3.940   3.172
 2708TIP3    H2 8131   3.361   3.887   3.038
 2709TIP3   OH2 8132   1.946   3.486   4.569
 2709TIP3    H1 8133   1.879   3.532   4.619
 2709TIP3    H2 8134   1.905   3.403   4.543
 2710TIP3   OH2 8135   2.814   1.936   0.201
 2710TIP3    H1 8136   2.802   1.914   0.109
 2710TIP3    H2 8137   2.787   1.858   0.249
 2711TIP3   OH2 8138   2.951   4.312   2.864
 2711TIP3    H1 8139   2.858   4.333   2.868
 2711TIP3    H2 8140   2.965   4.285   2.773
 2712TIP3   OH2 8141   3.635   4.401   0.016
 2712TIP3    H1 8142   3.584   4.321   0.010
 2712TIP3    H2 8143   3.674   4.398   0.104
 2713TIP3   OH2 8144   5.137   0.349   2.601
 2713TIP3    H1 8145   5.144   0.397   2.683
 2713TIP3    H2 8146   5.217   0.297   2.596
 2714TIP3   OH2 8147   4.120   0.568   2.607
 2714TIP3    H1 8148   4.194   0.549   2.550
 2714TIP3    H2 8149   4.149   0.541   2.694
 2715TIP3   OH2 8150   0.127   5.936   2.551
 2715TIP3    H1 8151   0.113   5.931   2.457
 2715TIP3    H2 8152   0.183   5.861   2.572
 2716TIP3   OH2 8153   0.508   0.640   2.118
 2716TIP3    H1 8154   0.577   0.602   2.171
 2716TIP3    H2 8155   0.468   0.566   2.072
 2717TIP3   OH2 8156   4.698   2.090   2.881
 2717TIP3    H1 8157   4.722   2.054   2.796
 2717TIP3    H2 8158   4.648   2.169   2.861
 2718TIP3   OH2 8159   1.570   1.162   1.317
 2718TIP3    H1 8160   1.636   1.166   1.387
 2718TIP3    H2 8161   1.496   1.116   1.358
 2719TIP3   OH2 8162   5.028   3.218   0.398
 2719TIP3    H1 8163   4.947   3.176   0.426
 2719TIP3    H2 8164   5.093   3.192   0.463
 2720TIP3   OH2 8165   5.797   5.727   0.916
 2720TIP3    H1 8166   5.788   5.808   0.966
 2720TIP3    H2 8167   5.760   5.660   0.973
 2721TIP3   OH2 8168   3.039   4.658   1.540
 2721TIP3    H1 8169   3.035   4.733   1.482
 2721TIP3    H2 8170   3.132   4.635   1.544
 2722TIP3   OH2 8171   6.283   4.737   0.822
 2722TIP3    H1 8172   6.293   4.823   0.781
 2722TIP3    H2 8173   6.232   4.686   0.759
 2723TIP3   OH2 8174   3.981   0.773   5.021
 2723TIP3    H1 8175   3.965   0.868   5.015
 2723TIP3    H2 8176   4.045   0.764   5.091
 2724TIP3   OH2 8177   6.255   3.766   0.062
 2724TIP3    H1 8178   6.170   3.772   0.106
 2724TIP3    H2 8179   6.291   3.681   0.091
 2725TIP3   OH2 8180   3.106   1.690   1.845
 2725TIP3    H1 8181   3.034   1.634   1.876
 2725TIP3    H2 8182   3.159   1.706   1.922
 2726TIP3   OH2 8183   1.127   1.422   1.144
 2726TIP3    H1 8184   1.058   1.395   1.084
 2726TIP3    H2 8185   1.156   1.341   1.187
 2727TIP3   OH2 8186   4.428   2.922   2.383
 2727TIP3    H1 8187   4.382   2.972   2.316
 2727TIP3    H2 8188   4.401   2.831   2.368
 2728TIP3   OH2 8189   4.365   2.288   2.726
 2728TIP3    H1 8190   4.379   2.249   2.812
 2728TIP3    H2 8191   4.279   2.331   2.733
 2729TIP3   OH2 8192   3.824   3.374   0.413
 2729TIP3    H1 8193   3.788   3.398   0.328
 2729TIP3    H2 8194   3.766   3.416   0.477
 2730TIP3   OH2 8195   1.366   1.619   0.462
 2730TIP3    H1 8196   1.320   1.702   0.461
 2730TIP3    H2 8197   1.393   1.605   0.371
 2731TIP3   OH2 8198   2.727   5.285   0.129
 2731TIP3    H1 8199   2.695   5.367   0.092
 2731TIP3    H2 8200   2.651   5.248   0.174
 2732TIP3   OH2 8201   4.132   5.709   4.258
 2732TIP3    H1 8202   4.098   5.730   4.344
 2732TIP3    H2 8203   4.089   5.627   4.234
 2733TIP3   OH2 8204   4.574   4.809   3.849
 2733TIP3    H1 8205   4.522   4.857   3.913
 2733TIP3    H2 8206   4.648   4.867   3.829
 2734TIP3   OH2 8207   4.664   1.594   5.014
 2734TIP3    H1 8208   4.595   1.655   5.041
 2734TIP3    H2 8209   4.617   1.522   4.971
 2735TIP3   OH2 8210   4.549  -0.029   1.320
 2735TIP3    H1 8211   4.514   0.041   1.265
 2735TIP3    H2 8212   4.609   0.015   1.380
 2736TIP3   OH2 8213   1.910   1.313   4.688
 2736TIP3    H1 8214   1.904   1.232   4.638
 2736TIP3    H2 8215   1.910   1.382   4.622
 2737TIP3   OH2 8216   3.241   3.668   1.262
 2737TIP3    H1 8217   3.244   3.637   1.352
 2737TIP3    H2 8218   3.166   3.622   1.223
 2738TIP3   OH2 8219   0.497   4.791   5.183
 2738TIP3    H1 8220   0.531   4.879   5.174
 2738TIP3    H2 8221   0.507   4.752   5.096
 2739TIP3   OH2 8222   1.296   5.187   4.974
 2739TIP3    H1 8223   1.369   5.125   4.975
 2739TIP3    H2 8224   1.248   5.167   5.055
 2740TIP3   OH2 8225   0.856   4.307   3.608
 2740TIP3    H1 8226   0.935   4.341   3.650
 2740TIP3    H2 8227   0.888   4.255   3.534
 2741TIP3   OH2 8228   4.409   3.909   1.411
 2741TIP3    H1 8229   4.400   3.984   1.354
 2741TIP3    H2 8230   4.504   3.895   1.418
 2742TIP3   OH2 8231   5.795   1.947   3.159
 2742TIP3    H1 8232   5.706   1.918   3.177
 2742TIP3    H2 8233   5.818   1.905   3.077
 2743TIP3   OH2 8234   3.802   1.181   2.655
 2743TIP3    H1 8235   3.834   1.141   2.735
 2743TIP3    H2 8236   3.881   1.204   2.607
 2744TIP3   OH2 8237   1.122   1.919   0.172
 2744TIP3    H1 8238   1.046   1.977   0.180
 2744TIP3    H2 8239   1.093   1.836   0.209
 2745TIP3   OH2 8240   3.380   4.862   1.060
 2745TIP3    H1 8241   3.401   4.775   1.094
 2745TIP3    H2 8242   3.465   4.902   1.043
 2746TIP3   OH2 8243   2.624   3.285   2.244
 2746TIP3    H1 8244   2.671   3.353   2.292
 2746TIP3    H2 8245   2.553   3.331   2.199
 2747TIP3   OH2 8246   4.547   4.843   1.848
 2747TIP3    H1 8247   4.607   4.912   1.821
 2747TIP3    H2 8248   4.604   4.769   1.869
 2748TIP3   OH2 8249   1.338   0.746   3.466
 2748TIP3    H1 8250   1.290   0.675   3.507
 2748TIP3    H2 8251   1.321   0.822   3.522
 2749TIP3   OH2 8252   0.798   3.928   0.036
 2749TIP3    H1 8253   0.834   4.017   0.037
 2749TIP3    H2 8254   0.875   3.871   0.042
 2750TIP3   OH2 8255   0.025   2.830   3.405
 2750TIP3    H1 8256  -0.064   2.864   3.404
 2750TIP3    H2 8257   0.071   2.882   3.339
 2751TIP3   OH2 8258   1.451   0.422   0.195
 2751TIP3    H1 8259   1.510   0.464   0.133
 2751TIP3    H2 8260   1.457   0.476   0.274
 2752TIP3   OH2 8261   0.020   3.948   3.344
 2752TIP3    H1 8262  -0.029   4.029   3.331
 2752TIP3    H2 8263   0.112   3.975   3.351
 2753TIP3   OH2 8264   1.533   3.658   5.007
 2753TIP3    H1 8265   1.480   3.737   5.000
 2753TIP3    H2 8266   1.580   3.653   4.924
 2754TIP3   OH2 8267   1.573   2.779   3.339
 2754TIP3    H1 8268   1.628   2.852   3.369
 2754TIP3    H2 8269   1.492   2.821   3.310
 2755TIP3   OH2 8270   4.704   4.778   5.005
 2755TIP3    H1 8271   4.701   4.713   4.935
 2755TIP3    H2 8272   4.756   4.850   4.970
 2756TIP3   OH2 8273   0.945   2.636   4.486
 2756TIP3    H1 8274   0.911   2.569   4.545
 2756TIP3    H2 8275   0.932   2.600   4.398
 2757TIP3   OH2 8276   0.267   1.403   1.981
 2757TIP3    H1 8277   0.256   1.449   2.064
 2757TIP3    H2 8278   0.328   1.456   1.931
 2758TIP3   OH2 8279   6.090   2.124   0.375
 2758TIP3    H1 8280   6.144   2.050   0.400
 2758TIP3    H2 8281   6.002   2.101   0.405
 2759TIP3   OH2 8282   2.072   0.485   3.665
 2759TIP3    H1 8283   1.990   0.487   3.616
 2759TIP3    H2 8284   2.072   0.400   3.708
 2760TIP3   OH2 8285   5.485   2.723   1.392
 2760TIP3    H1 8286   5.406   2.678   1.423
 2760TIP3    H2 8287   5.452   2.789   1.331
 2761TIP3   OH2 8288   4.721   1.883   1.104
 2761TIP3    H1 8289   4.765   1.799   1.112
 2761TIP3    H2 8290   4.775   1.933   1.044
 2762TIP3   OH2 8291   0.674   0.970   0.972
 2762TIP3    H1 8292   0.635   0.957   1.058
 2762TIP3    H2 8293   0.654   1.062   0.951
 2763TIP3   OH2 8294   2.231   2.671   0.358
 2763TIP3    H1 8295   2.312   2.630   0.329
 2763TIP3    H2 8296   2.164   2.635   0.300
 2764TIP3   OH2 8297   0.106   5.829   5.017
 2764TIP3    H1 8298   0.112   5.859   4.927
 2764TIP3    H2 8299   0.102   5.909   5.069
 2765TIP3   OH2 8300   2.878   5.375   2.671
 2765TIP3    H1 8301   2.874   5.350   2.578
 2765TIP3    H2 8302   2.901   5.468   2.669
 2766TIP3   OH2 8303   1.644   1.843   1.283
 2766TIP3    H1 8304   1.572   1.798   1.327
 2766TIP3    H2 8305   1.705   1.773   1.260
 2767TIP3   OH2 8306   1.172   2.754   5.129
 2767TIP3    H1 8307   1.174   2.668   5.088
 2767TIP3    H2 8308   1.262   2.771   5.154
 2768TIP3   OH2 8309   4.036   2.793   1.835
 2768TIP3    H1 8310   4.069   2.828   1.917
 2768TIP3    H2 8311   4.106   2.735   1.803
 2769TIP3   OH2 8312   3.429   5.820   4.971
 2769TIP3    H1 8313   3.384   5.746   4.930
 2769TIP3    H2 8314   3.477   5.781   5.044
 2770TIP3   OH2 8315   3.897   0.211   2.958
 2770TIP3    H1 8316   3.981   0.193   3.000
 2770TIP3    H2 8317   3.907   0.298   2.920
 2771TIP3   OH2 8318   0.787   1.845   4.202
 2771TIP3    H1 8319   0.855   1.890   4.251
 2771TIP3    H2 8320   0.706   1.890   4.226
 2772TIP3   OH2 8321   0.083   2.921   3.729
 2772TIP3    H1 8322   0.115   2.853   3.670
 2772TIP3    H2 8323   0.132   3.000   3.705
 2773TIP3   OH2 8324   5.983   0.836   4.085
 2773TIP3    H1 8325   5.896   0.822   4.123
 2773TIP3    H2 8326   6.035   0.870   4.158
 2774TIP3   OH2 8327   1.518   5.697   1.651
 2774TIP3    H1 8328   1.482   5.700   1.562
 2774TIP3    H2 8329   1.554   5.784   1.666
 2775TIP3   OH2 8330   2.817   2.131   0.454
 2775TIP3    H1 8331   2.771   2.057   0.415
 2775TIP3    H2 8332   2.749   2.178   0.503
 2776TIP3   OH2 8333   2.936   3.192   1.339
 2776TIP3    H1 8334   2.912   3.283   1.354
 2776TIP3    H2 8335   2.918   3.177   1.246
 2777TIP3   OH2 8336   3.880   0.238   4.182
 2777TIP3    H1 8337   3.828   0.274   4.253
 2777TIP3    H2 8338   3.851   0.148   4.173
 2778TIP3   OH2 8339   5.100   0.023   0.563
 2778TIP3    H1 8340   5.063  -0.039   0.499
 2778TIP3    H2 8341   5.124   0.100   0.510
 2779TIP3   OH2 8342   3.449   4.265   5.132
 2779TIP3    H1 8343   3.441   4.259   5.037
 2779TIP3    H2 8344   3.359   4.264   5.164
 2780TIP3   OH2 8345   5.152   3.680   3.723
 2780TIP3    H1 8346   5.073   3.732   3.706
 2780TIP3    H2 8347   5.224   3.741   3.712
 2781TIP3   OH2 8348   3.958   1.041   2.841
 2781TIP3    H1 8349   3.906   0.972   2.801
 2781TIP3    H2 8350   4.034   0.995   2.878
 2782TIP3   OH2 8351   2.044   0.208   4.727
 2782TIP3    H1 8352   2.067   0.246   4.813
 2782TIP3    H2 8353   1.992   0.276   4.684
 2783TIP3   OH2 8354   5.416   5.339   2.509
 2783TIP3    H1 8355   5.441   5.377   2.593
 2783TIP3    H2 8356   5.453   5.399   2.444
 2784TIP3   OH2 8357   2.713   1.176   1.408
 2784TIP3    H1 8358   2.676   1.186   1.321
 2784TIP3    H2 8359   2.712   1.082   1.425
 2785TIP3   OH2 8360   3.103   0.037   4.866
 2785TIP3    H1 8361   3.092   0.122   4.907
 2785TIP3    H2 8362   3.014   0.003   4.855
 2786TIP3   OH2 8363   2.075   5.646   2.467
 2786TIP3    H1 8364   2.154   5.612   2.508
 2786TIP3    H2 8365   2.006   5.632   2.531
 2787TIP3   OH2 8366   5.240   4.755   1.348
 2787TIP3    H1 8367   5.235   4.833   1.292
 2787TIP3    H2 8368   5.181   4.692   1.306
 2788TIP3   OH2 8369   3.020   3.325   2.578
 2788TIP3    H1 8370   3.058   3.306   2.492
 2788TIP3    H2 8371   3.095   3.345   2.633
 2789TIP3   OH2 8372   3.880   4.943   1.890
 2789TIP3    H1 8373   3.928   4.862   1.908
 2789TIP3    H2 8374   3.879   4.989   1.974
 2790TIP3   OH2 8375   0.907   2.426   3.223
 2790TIP3    H1 8376   0.860   2.395   3.300
 2790TIP3    H2 8377   0.872   2.513   3.206
 2791TIP3   OH2 8378   4.451   5.548   2.696
 2791TIP3    H1 8379   4.517   5.539   2.765
 2791TIP3    H2 8380   4.369   5.558   2.743
 2792TIP3   OH2 8381   0.938   0.626   0.491
 2792TIP3    H1 8382   0.895   0.577   0.562
 2792TIP3    H2 8383   1.028   0.594   0.491
 2793TIP3   OH2 8384   1.901   0.931   3.426
 2793TIP3    H1 8385   1.976   0.985   3.448
 2793TIP3    H2 8386   1.900   0.929   3.330
 2794TIP3   OH2 8387   5.211   4.122   1.859
 2794TIP3    H1 8388   5.173   4.074   1.785
 2794TIP3    H2 8389   5.136   4.144   1.914
 2795TIP3   OH2 8390   2.727   3.840   5.133
 2795TIP3    H1 8391   2.682   3.919   5.164
 2795TIP3    H2 8392   2.783   3.814   5.206
 2796TIP3   OH2 8393   0.158   3.742   3.156
 2796TIP3    H1 8394   0.181   3.830   3.186
 2796TIP3    H2 8395   0.240   3.707   3.120
 2797TIP3   OH2 8396   5.959   2.488   3.191
 2797TIP3    H1 8397   5.942   2.401   3.156
 2797TIP3    H2 8398   6.017   2.528   3.126
 2798TIP3   OH2 8399   6.179   1.550   3.646
 2798TIP3    H1 8400   6.272   1.553   3.621
 2798TIP3    H2 8401   6.133   1.589   3.572
 2799TIP3   OH2 8402   2.063   4.176   2.565
 2799TIP3    H1 8403   2.134   4.211   2.512
 2799TIP3    H2 8404   2.075   4.081   2.560
 2800TIP3   OH2 8405   3.670   1.412   0.999
 2800TIP3    H1 8406   3.672   1.324   1.037
 2800TIP3    H2 8407   3.577   1.431   0.988
 2801TIP3   OH2 8408   2.901   4.627   1.791
 2801TIP3    H1 8409   2.885   4.720   1.802
 2801TIP3    H2 8410   2.938   4.618   1.703
 2802TIP3   OH2 8411   5.888   0.389   2.405
 2802TIP3    H1 8412   5.854   0.478   2.413
 2802TIP3    H2 8413   5.943   0.377   2.483
 2803TIP3   OH2 8414   0.373   5.153   0.604
 2803TIP3    H1 8415   0.366   5.060   0.582
 2803TIP3    H2 8416   0.311   5.165   0.676
 2804TIP3   OH2 8417   5.503   5.445   0.830
 2804TIP3    H1 8418   5.496   5.360   0.786
 2804TIP3    H2 8419   5.576   5.434   0.891
 2805TIP3   OH2 8420   0.727   2.793   4.831
 2805TIP3    H1 8421   0.734   2.722   4.895
 2805TIP3    H2 8422   0.806   2.785   4.777
 2806TIP3   OH2 8423   3.311   5.857   1.638
 2806TIP3    H1 8424   3.357   5.780   1.603
 2806TIP3    H2 8425   3.324   5.852   1.732
 2807TIP3   OH2 8426   2.314   5.090   1.338
 2807TIP3    H1 8427   2.375   5.098   1.264
 2807TIP3    H2 8428   2.346   5.154   1.401
 2808TIP3   OH2 8429   1.251   1.498   5.037
 2808TIP3    H1 8430   1.212   1.463   5.117
 2808TIP3    H2 8431   1.341   1.464   5.037
 2809TIP3   OH2 8432   2.318   0.978   2.966
 2809TIP3    H1 8433   2.334   0.899   3.018
 2809TIP3    H2 8434   2.384   0.975   2.897
 2810TIP3   OH2 8435   2.761   5.549   4.953
 2810TIP3    H1 8436   2.731   5.464   4.987
 2810TIP3    H2 8437   2.783   5.599   5.031
 2811TIP3   OH2 8438   2.800   4.996   0.301
 2811TIP3    H1 8439   2.858   4.929   0.336
 2811TIP3    H2 8440   2.782   4.968   0.212
 2812TIP3   OH2 8441   0.962   4.528   2.164
 2812TIP3    H1 8442   0.871   4.538   2.192
 2812TIP3    H2 8443   0.956   4.510   2.070
 2813TIP3   OH2 8444   4.600   2.644   2.722
 2813TIP3    H1 8445   4.612   2.729   2.681
 2813TIP3    H2 8446   4.680   2.596   2.701
 2814TIP3   OH2 8447   1.350   5.873   1.936
 2814TIP3    H1 8448   1.386   5.937   1.874
 2814TIP3    H2 8449   1.323   5.800   1.881
 2815TIP3   OH2 8450   0.796   5.611   2.097
 2815TIP3    H1 8451   0.833   5.543   2.042
 2815TIP3    H2 8452   0.705   5.621   2.066
 2816TIP3   OH2 8453   0.444   5.892   4.229
 2816TIP3    H1 8454   0.398   5.907   4.146
 2816TIP3    H2 8455   0.507   5.822   4.209
 2817TIP3   OH2 8456   3.857   1.909   2.614
 2817TIP3    H1 8457   3.952   1.920   2.616
 2817TIP3    H2 8458   3.838   1.845   2.682
 2818TIP3   OH2 8459   3.719   3.216   3.644
 2818TIP3    H1 8460   3.728   3.276   3.718
 2818TIP3    H2 8461   3.805   3.176   3.634
 2819TIP3   OH2 8462   5.164   1.022   4.571
 2819TIP3    H1 8463   5.210   1.057   4.647
 2819TIP3    H2 8464   5.085   0.983   4.606
 2820TIP3   OH2 8465   0.141   2.771   2.906
 2820TIP3    H1 8466   0.124   2.865   2.903
 2820TIP3    H2 8467   0.231   2.764   2.937
 2821TIP3   OH2 8468   0.356   0.164   3.412
 2821TIP3    H1 8469   0.307   0.209   3.343
 2821TIP3    H2 8470   0.294   0.099   3.447
 2822TIP3   OH2 8471   5.872   0.547   0.235
 2822TIP3    H1 8472   5.897   0.469   0.187
 2822TIP3    H2 8473   5.834   0.514   0.316
 2823TIP3   OH2 8474   0.880   5.322   5.047
 2823TIP3    H1 8475   0.858   5.253   5.109
 2823TIP3    H2 8476   0.828   5.302   4.970
 2824TIP3   OH2 8477   4.139   0.576   2.171
 2824TIP3    H1 8478   4.089   0.576   2.089
 2824TIP3    H2 8479   4.073   0.592   2.239
 2825TIP3   OH2 8480   2.304   2.509   0.972
 2825TIP3    H1 8481   2.340   2.431   1.015
 2825TIP3    H2 8482   2.290   2.571   1.044
 2826TIP3   OH2 8483   0.126   0.661   1.655
 2826TIP3    H1 8484   0.128   0.674   1.560
 2826TIP3    H2 8485   0.078   0.737   1.688
 2827TIP3   OH2 8486   4.305   5.601   1.782
 2827TIP3    H1 8487   4.354   5.519   1.771
 2827TIP3    H2 8488   4.297   5.611   1.876
 2828TIP3   OH2 8489   4.476   3.269   2.352
 2828TIP3    H1 8490   4.517   3.248   2.436
 2828TIP3    H2 8491   4.444   3.359   2.364
 2829TIP3   OH2 8492   4.457   4.377   3.162
 2829TIP3    H1 8493   4.396   4.404   3.231
 2829TIP3    H2 8494   4.433   4.431   3.087
 2830TIP3   OH2 8495   4.837   0.059   2.295
 2830TIP3    H1 8496   4.800   0.141   2.263
 2830TIP3    H2 8497   4.932   0.071   2.288
 2831TIP3   OH2 8498   4.935   3.411   3.467
 2831TIP3    H1 8499   5.016   3.435   3.513
 2831TIP3    H2 8500   4.929   3.316   3.477
 2832TIP3   OH2 8501   1.114   4.620   3.615
 2832TIP3    H1 8502   1.137   4.695   3.670
 2832TIP3    H2 8503   1.023   4.635   3.590
 2833TIP3   OH2 8504   5.739   1.095   4.729
 2833TIP3    H1 8505   5.809   1.048   4.774
 2833TIP3    H2 8506   5.714   1.165   4.789
 2834TIP3   OH2 8507   2.672   2.633   4.568
 2834TIP3    H1 8508   2.589   2.670   4.598
 2834TIP3    H2 8509   2.646   2.564   4.506
 2835TIP3   OH2 8510   6.307   3.279   1.240
 2835TIP3    H1 8511   6.334   3.215   1.306
 2835TIP3    H2 8512   6.284   3.227   1.163
 2836TIP3   OH2 8513   5.622   4.947   0.821
 2836TIP3    H1 8514   5.645   4.897   0.900
 2836TIP3    H2 8515   5.706   4.969   0.781
 2837TIP3   OH2 8516   1.180   5.705   0.265
 2837TIP3    H1 8517   1.146   5.681   0.179
 2837TIP3    H2 8518   1.110   5.755   0.307
 2838TIP3   OH2 8519   1.462   0.017   2.824
 2838TIP3    H1 8520   1.398   0.086   2.807
 2838TIP3    H2 8521   1.411  -0.064   2.823
 2839TIP3   OH2 8522   5.374   5.032   4.399
 2839TIP3    H1 8523   5.313   4.980   4.346
 2839TIP3    H2 8524   5.323   5.109   4.425
 2840TIP3   OH2 8525   1.566   0.570   4.589
 2840TIP3    H1 8526   1.608   0.516   4.522
 2840TIP3    H2 8527   1.475   0.540   4.590
 2841TIP3   OH2 8528   1.584   3.304   1.828
 2841TIP3    H1 8529   1.660   3.245   1.823
 2841TIP3    H2 8530   1.511   3.247   1.853
 2842TIP3   OH2 8531   4.969   2.227   0.587
 2842TIP3    H1 8532   4.938   2.316   0.572
 2842TIP3    H2 8533   4.892   2.180   0.618
 2843TIP3   OH2 8534   4.069   2.128   4.898
 2843TIP3    H1 8535   4.039   2.193   4.962
 2843TIP3    H2 8536   4.097   2.054   4.951
 2844TIP3   OH2 8537   0.227   4.479   4.147
 2844TIP3    H1 8538   0.307   4.453   4.192
 2844TIP3    H2 8539   0.159   4.423   4.184
 2845TIP3   OH2 8540   5.851   0.199   4.745
 2845TIP3    H1 8541   5.919   0.169   4.685
 2845TIP3    H2 8542   5.769   0.175   4.703
 2846TIP3   OH2 8543   0.852   5.400   1.920
 2846TIP3    H1 8544   0.872   5.431   1.831
 2846TIP3    H2 8545   0.777   5.342   1.909
 2847TIP3   OH2 8546   5.138   4.252   3.609
 2847TIP3    H1 8547   5.052   4.253   3.651
 2847TIP3    H2 8548   5.120   4.238   3.516
 2848TIP3   OH2 8549   2.818   0.970   0.064
 2848TIP3    H1 8550   2.798   0.877   0.081
 2848TIP3    H2 8551   2.874   0.968  -0.014
 2849TIP3   OH2 8552   5.490   1.473   0.802
 2849TIP3    H1 8553   5.523   1.419   0.731
 2849TIP3    H2 8554   5.568   1.495   0.854
 2850TIP3   OH2 8555   4.879   0.350   2.567
 2850TIP3    H1 8556   4.875   0.268   2.519
 2850TIP3    H2 8557   4.969   0.355   2.599
 2851TIP3   OH2 8558   5.409   5.355   2.032
 2851TIP3    H1 8559   5.440   5.286   1.974
 2851TIP3    H2 8560   5.415   5.318   2.119
 2852TIP3   OH2 8561   3.736   3.445   2.980
 2852TIP3    H1 8562   3.789   3.428   3.057
 2852TIP3    H2 8563   3.659   3.490   3.013
 2853TIP3   OH2 8564   3.083   3.973   1.941
 2853TIP3    H1 8565   3.068   4.041   2.007
 2853TIP3    H2 8566   3.163   4.001   1.896
 2854TIP3   OH2 8567   2.609   0.051   0.469
 2854TIP3    H1 8568   2.540   0.088   0.414
 2854TIP3    H2 8569   2.632   0.121   0.529
 2855TIP3   OH2 8570   5.104   1.177   2.763
 2855TIP3    H1 8571   5.075   1.213   2.679
 2855TIP3    H2 8572   5.038   1.111   2.784
 2856TIP3   OH2 8573   1.307   0.581   2.961
 2856TIP3    H1 8574   1.250   0.520   3.008
 2856TIP3    H2 8575   1.305   0.661   3.013
 2857TIP3   OH2 8576   0.785   2.261   1.595
 2857TIP3    H1 8577   0.820   2.188   1.543
 2857TIP3    H2 8578   0.741   2.218   1.669
 2858TIP3   OH2 8579   4.745   4.330   3.979
 2858TIP3    H1 8580   4.675   4.273   4.010
 2858TIP3    H2 8581   4.700   4.406   3.943
 2859TIP3   OH2 8582   0.209   5.791   0.612
 2859TIP3    H1 8583   0.115   5.805   0.597
 2859TIP3    H2 8584   0.213   5.751   0.699
 2860TIP3   OH2 8585   5.870   0.259   2.141
 2860TIP3    H1 8586   5.935   0.311   2.094
 2860TIP3    H2 8587   5.862   0.300   2.227
 2861TIP3   OH2 8588   4.224   2.856   4.436
 2861TIP3    H1 8589   4.257   2.848   4.525
 2861TIP3    H2 8590   4.153   2.793   4.430
 2862TIP3   OH2 8591   6.304   0.754   3.627
 2862TIP3    H1 8592   6.332   0.838   3.664
 2862TIP3    H2 8593   6.294   0.697   3.703
 2863TIP3   OH2 8594   6.003   5.100   4.868
 2863TIP3    H1 8595   5.943   5.117   4.941
 2863TIP3    H2 8596   6.054   5.025   4.895
 2864TIP3   OH2 8597   3.428   1.897   2.204
 2864TIP3    H1 8598   3.422   1.927   2.295
 2864TIP3    H2 8599   3.513   1.854   2.199
 2865TIP3   OH2 8600   0.184   0.286   4.623
 2865TIP3    H1 8601   0.147   0.367   4.590
 2865TIP3    H2 8602   0.278   0.293   4.604
 2866TIP3   OH2 8603   1.615   2.352   1.756
 2866TIP3    H1 8604   1.692   2.317   1.802
 2866TIP3    H2 8605   1.647   2.432   1.715
 2867TIP3   OH2 8606   5.863   4.266   0.112
 2867TIP3    H1 8607   5.819   4.323   0.049
 2867TIP3    H2 8608   5.829   4.179   0.095
 2868TIP3   OH2 8609   2.713   5.521   2.059
 2868TIP3    H1 8610   2.723   5.610   2.026
 2868TIP3    H2 8611   2.634   5.488   2.016
 2869TIP3   OH2 8612   0.282   5.235   1.591
 2869TIP3    H1 8613   0.341   5.215   1.518
 2869TIP3    H2 8614   0.245   5.150   1.616
 2870TIP3   OH2 8615   0.667   2.757   1.861
 2870TIP3    H1 8616   0.586   2.708   1.849
 2870TIP3    H2 8617   0.642   2.832   1.914
 2871TIP3   OH2 8618   0.259   2.310   0.241
 2871TIP3    H1 8619   0.311   2.360   0.303
 2871TIP3    H2 8620   0.177   2.359   0.233
 2872TIP3   OH2 8621   1.416   4.562   3.076
 2872TIP3    H1 8622   1.395   4.530   3.164
 2872TIP3    H2 8623   1.510   4.551   3.068
 2873TIP3   OH2 8624   5.007   0.347   1.625
 2873TIP3    H1 8625   4.984   0.255   1.612
 2873TIP3    H2 8626   5.043   0.375   1.540
 2874TIP3   OH2 8627   1.062   1.574   4.814
 2874TIP3    H1 8628   1.071   1.642   4.880
 2874TIP3    H2 8629   1.059   1.621   4.730
 2875TIP3   OH2 8630   2.305   0.527   3.558
 2875TIP3    H1 8631   2.310   0.620   3.578
 2875TIP3    H2 8632   2.226   0.497   3.602
 2876TIP3   OH2 8633   3.636   5.220   4.563
 2876TIP3    H1 8634   3.543   5.205   4.583
 2876TIP3    H2 8635   3.646   5.194   4.472
 2877TIP3   OH2 8636   3.850   4.466   2.952
 2877TIP3    H1 8637   3.792   4.390   2.946
 2877TIP3    H2 8638   3.831   4.503   3.039
 2878TIP3   OH2 8639   2.427   0.908   3.553
 2878TIP3    H1 8640   2.520   0.897   3.573
 2878TIP3    H2 8641   2.410   0.848   3.481
 2879TIP3   OH2 8642   0.726   0.164   1.816
 2879TIP3    H1 8643   0.711   0.106   1.891
 2879TIP3    H2 8644   0.818   0.188   1.823
 2880TIP3   OH2 8645   5.763   3.889   0.962
 2880TIP3    H1 8646   5.842   3.922   1.007
 2880TIP3    H2 8647   5.794   3.865   0.875
 2881TIP3   OH2 8648   3.659   3.836   4.795
 2881TIP3    H1 8649   3.587   3.831   4.857
 2881TIP3    H2 8650   3.661   3.928   4.768
 2882TIP3   OH2 8651   0.353   5.928   3.296
 2882TIP3    H1 8652   0.346   5.847   3.247
 2882TIP3    H2 8653   0.264   5.965   3.293
 2883TIP3   OH2 8654   5.589   3.739   0.292
 2883TIP3    H1 8655   5.638   3.736   0.209
 2883TIP3    H2 8656   5.643   3.794   0.349
 2884TIP3   OH2 8657   2.637   0.776   4.436
 2884TIP3    H1 8658   2.587   0.828   4.373
 2884TIP3    H2 8659   2.684   0.712   4.383
 2885TIP3   OH2 8660   2.592   0.454   4.614
 2885TIP3    H1 8661   2.547   0.460   4.530
 2885TIP3    H2 8662   2.612   0.362   4.625
 2886TIP3   OH2 8663   1.456   1.010   3.059
 2886TIP3    H1 8664   1.384   1.072   3.066
 2886TIP3    H2 8665   1.495   1.009   3.147
 2887TIP3   OH2 8666   6.092   1.966   2.052
 2887TIP3    H1 8667   6.012   2.012   2.077
 2887TIP3    H2 8668   6.139   1.951   2.134
 2888TIP3   OH2 8669   6.193   1.997   3.394
 2888TIP3    H1 8670   6.246   1.960   3.464
 2888TIP3    H2 8671   6.127   1.931   3.375
 2889TIP3   OH2 8672   1.121   5.710   5.000
 2889TIP3    H1 8673   1.204   5.757   4.999
 2889TIP3    H2 8674   1.065   5.757   4.939
 2890TIP3   OH2 8675   4.212   4.227   2.991
 2890TIP3    H1 8676   4.222   4.141   2.951
 2890TIP3    H2 8677   4.301   4.254   3.012
 2891TIP3   OH2 8678   0.752   1.914   1.674
 2891TIP3    H1 8679   0.657   1.910   1.666
 2891TIP3    H2 8680   0.780   1.976   1.606
 2892TIP3   OH2 8681   1.384   2.785   2.993
 2892TIP3    H1 8682   1.317   2.845   2.961
 2892TIP3    H2 8683   1.381   2.711   2.932
 2893TIP3   OH2 8684   4.077   3.372   3.379
 2893TIP3    H1 8685   4.150   3.411   3.426
 2893TIP3    H2 8686   4.000   3.421   3.408
 2894TIP3   OH2 8687   6.060  -0.026   4.632
 2894TIP3    H1 8688   6.134   0.030   4.657
 2894TIP3    H2 8689   6.025   0.014   4.553
 2895TIP3   OH2 8690   1.299   0.211   2.746
 2895TIP3    H1 8691   1.246   0.155   2.690
 2895TIP3    H2 8692   1.306   0.294   2.698
 2896TIP3   OH2 8693   4.366   2.887   0.462
 2896TIP3    H1 8694   4.329   2.813   0.510
 2896TIP3    H2 8695   4.313   2.962   0.487
 2897TIP3   OH2 8696   3.886   5.554   1.525
 2897TIP3    H1 8697   3.831   5.614   1.474
 2897TIP3    H2 8698   3.960   5.536   1.468
 2898TIP3   OH2 8699   0.355   4.800   4.897
 2898TIP3    H1 8700   0.301   4.874   4.924
 2898TIP3    H2 8701   0.432   4.840   4.855
 2899TIP3   OH2 8702   1.677   4.187   3.368
 2899TIP3    H1 8703   1.646   4.277   3.370
 2899TIP3    H2 8704   1.634   4.148   3.293
 2900TIP3   OH2 8705   4.587   0.296   0.021
 2900TIP3    H1 8706   4.681   0.293   0.035
 2900TIP3    H2 8707   4.569   0.219  -0.033
 2901TIP3   OH2 8708   1.009   5.661   3.190
 2901TIP3    H1 8709   0.992   5.677   3.097
 2901TIP3    H2 8710   1.102   5.639   3.194
 2902TIP3   OH2 8711   4.951   3.966   2.406
 2902TIP3    H1 8712   4.896   3.908   2.353
 2902TIP3    H2 8713   4.959   4.046   2.354
 2903TIP3   OH2 8714   4.877   3.058   3.216
 2903TIP3    H1 8715   4.907   3.133   3.164
 2903TIP3    H2 8716   4.783   3.053   3.198
 2904TIP3   OH2 8717   2.712   2.671   0.766
 2904TIP3    H1 8718   2.617   2.675   0.778
 2904TIP3    H2 8719   2.738   2.761   0.748
 2905TIP3   OH2 8720   1.297   4.452   0.557
 2905TIP3    H1 8721   1.284   4.442   0.652
 2905TIP3    H2 8722   1.370   4.394   0.536
 2906TIP3   OH2 8723   1.380   5.270   0.252
 2906TIP3    H1 8724   1.391   5.358   0.289
 2906TIP3    H2 8725   1.313   5.230   0.308
 2907TIP3   OH2 8726   5.002   4.004   1.193
 2907TIP3    H1 8727   4.940   4.008   1.265
 2907TIP3    H2 8728   5.037   4.093   1.186
 2908TIP3   OH2 8729   3.482   2.616   0.621
 2908TIP3    H1 8730   3.462   2.555   0.692
 2908TIP3    H2 8731   3.432   2.583   0.547
 2909TIP3   OH2 8732   3.723   1.242   1.431
 2909TIP3    H1 8733   3.654   1.202   1.484
 2909TIP3    H2 8734   3.744   1.323   1.477
 2910TIP3   OH2 8735   2.196   4.966   3.121
 2910TIP3    H1 8736   2.107   4.997   3.110
 2910TIP3    H2 8737   2.243   4.999   3.044
 2911TIP3   OH2 8738   1.250   5.007   4.774
 2911TIP3    H1 8739   1.275   4.923   4.812
 2911TIP3    H2 8740   1.252   5.068   4.849
 2912TIP3   OH2 8741   2.340   0.780   2.711
 2912TIP3    H1 8742   2.321   0.729   2.632
 2912TIP3    H2 8743   2.264   0.838   2.720
 2913TIP3   OH2 8744   1.846   5.714   4.022
 2913TIP3    H1 8745   1.918   5.751   3.971
 2913TIP3    H2 8746   1.809   5.646   3.966
 2914TIP3   OH2 8747   6.042   5.547   1.874
 2914TIP3    H1 8748   5.966   5.497   1.906
 2914TIP3    H2 8749   6.022   5.564   1.782
 2915TIP3   OH2 8750   2.506   4.740   4.733
 2915TIP3    H1 8751   2.525   4.646   4.734
 2915TIP3    H2 8752   2.512   4.767   4.824
 2916TIP3   OH2 8753   0.527   0.760   5.181
 2916TIP3    H1 8754   0.598   0.793   5.126
 2916TIP3    H2 8755   0.465   0.833   5.187
 2917TIP3   OH2 8756   1.425   0.117   2.358
 2917TIP3    H1 8757   1.401   0.135   2.267
 2917TIP3    H2 8758   1.521   0.116   2.358
 2918TIP3   OH2 8759   0.075   1.390   3.145
 2918TIP3    H1 8760   0.039   1.336   3.215
 2918TIP3    H2 8761  -0.001   1.418   3.094
 2919TIP3   OH2 8762   3.499   4.485   0.601
 2919TIP3    H1 8763   3.592   4.488   0.623
 2919TIP3    H2 8764   3.460   4.560   0.646
 2920TIP3   OH2 8765   4.411   3.399   3.254
 2920TIP3    H1 8766   4.475   3.468   3.235
 2920TIP3    H2 8767   4.437   3.326   3.198
 2921TIP3   OH2 8768   6.330   2.442   0.460
 2921TIP3    H1 8769   6.357   2.496   0.534
 2921TIP3    H2 8770   6.345   2.352   0.489
 2922TIP3   OH2 8771   4.051   2.957   2.345
 2922TIP3    H1 8772   3.967   2.985   2.381
 2922TIP3    H2 8773   4.062   3.007   2.265
 2923TIP3   OH2 8774   0.874   1.055   3.464
 2923TIP3    H1 8775   0.793   1.066   3.415
 2923TIP3    H2 8776   0.873   1.127   3.527
 2924TIP3   OH2 8777   0.647   1.239   1.011
 2924TIP3    H1 8778   0.700   1.314   0.985
 2924TIP3    H2 8779   0.693   1.201   1.086
 2925TIP3   OH2 8780   5.983   3.353   3.477
 2925TIP3    H1 8781   6.078   3.348   3.465
 2925TIP3    H2 8782   5.969   3.437   3.522
 2926TIP3   OH2 8783   0.239   4.758   2.010
 2926TIP3    H1 8784   0.204   4.821   2.072
 2926TIP3    H2 8785   0.316   4.802   1.973
 2927TIP3   OH2 8786   2.823   0.918   3.481
 2927TIP3    H1 8787   2.783   0.905   3.395
 2927TIP3    H2 8788   2.790   0.845   3.534
 2928TIP3   OH2 8789   1.940   4.526   2.542
 2928TIP3    H1 8790   2.022   4.501   2.585
 2928TIP3    H2 8791   1.944   4.483   2.456
 2929TIP3   OH2 8792   5.257   5.640   1.840
 2929TIP3    H1 8793   5.226   5.675   1.756
 2929TIP3    H2 8794   5.277   5.717   1.892
 2930TIP3   OH2 8795   3.404   1.460   1.033
 2930TIP3    H1 8796   3.379   1.398   1.101
 2930TIP3    H2 8797   3.409   1.545   1.078
 2931TIP3   OH2 8798   5.349   0.811   4.918
 2931TIP3    H1 8799   5.393   0.743   4.970
 2931TIP3    H2 8800   5.333   0.770   4.833
 2932TIP3   OH2 8801   2.416   4.200   0.795
 2932TIP3    H1 8802   2.424   4.295   0.802
 2932TIP3    H2 8803   2.378   4.186   0.708
 2933TIP3   OH2 8804   2.171   1.401   3.538
 2933TIP3    H1 8805   2.193   1.429   3.450
 2933TIP3    H2 8806   2.236   1.335   3.560
 2934TIP3   OH2 8807   2.381   4.240   0.201
 2934TIP3    H1 8808   2.327   4.295   0.145
 2934TIP3    H2 8809   2.326   4.164   0.220
 2935TIP3   OH2 8810   0.194   2.269   4.181
 2935TIP3    H1 8811   0.260   2.249   4.247
 2935TIP3    H2 8812   0.110   2.247   4.223
 2936TIP3   OH2 8813   0.397   4.665   3.622
 2936TIP3    H1 8814   0.469   4.605   3.606
 2936TIP3    H2 8815   0.413   4.739   3.563
 2937TIP3   OH2 8816   4.228   2.833   4.947
 2937TIP3    H1 8817   4.287   2.880   4.888
 2937TIP3    H2 8818   4.178   2.902   4.991
 2938TIP3   OH2 8819   5.566   1.986   1.813
 2938TIP3    H1 8820   5.651   1.987   1.770
 2938TIP3    H2 8821   5.581   2.027   1.898
 2939TIP3   OH2 8822   2.150   3.496   4.874
 2939TIP3    H1 8823   2.221   3.503   4.810
 2939TIP3    H2 8824   2.175   3.556   4.945
 2940TIP3   OH2 8825   1.052   1.847   4.428
 2940TIP3    H1 8826   1.001   1.919   4.390
 2940TIP3    H2 8827   1.141   1.861   4.398
 2941TIP3   OH2 8828   0.216   1.416   2.808
 2941TIP3    H1 8829   0.277   1.360   2.856
 2941TIP3    H2 8830   0.249   1.418   2.719
 2942TIP3   OH2 8831   1.922   5.831   0.132
 2942TIP3    H1 8832   1.970   5.823   0.050
 2942TIP3    H2 8833   1.867   5.752   0.135
 2943TIP3   OH2 8834   3.858   2.297   2.004
 2943TIP3    H1 8835   3.819   2.378   1.971
 2943TIP3    H2 8836   3.820   2.229   1.948
 2944TIP3   OH2 8837   6.173   3.583   1.034
 2944TIP3    H1 8838   6.166   3.640   0.957
 2944TIP3    H2 8839   6.224   3.508   1.003
 2945TIP3   OH2 8840   4.945   5.683   3.062
 2945TIP3    H1 8841   5.018   5.630   3.094
 2945TIP3    H2 8842   4.951   5.765   3.112
 2946TIP3   OH2 8843   0.553   1.539   3.969
 2946TIP3    H1 8844   0.490   1.589   3.917
 2946TIP3    H2 8845   0.523   1.548   4.059
 2947TIP3   OH2 8846   6.298   5.770   0.512
 2947TIP3    H1 8847   6.258   5.715   0.579
 2947TIP3    H2 8848   6.291   5.719   0.431
 2948TIP3   OH2 8849   2.735   4.874   2.799
 2948TIP3    H1 8850   2.742   4.787   2.839
 2948TIP3    H2 8851   2.825   4.907   2.799
 2949TIP3   OH2 8852   2.421   0.991   1.344
 2949TIP3    H1 8853   2.483   0.996   1.417
 2949TIP3    H2 8854   2.460   1.044   1.275
 2950TIP3   OH2 8855   5.070   1.386   1.575
 2950TIP3    H1 8856   5.073   1.471   1.620
 2950TIP3    H2 8857   5.147   1.387   1.518
 2951TIP3   OH2 8858   2.662   0.428   4.999
 2951TIP3    H1 8859   2.677   0.347   4.950
 2951TIP3    H2 8860   2.660   0.400   5.091
 2952TIP3   OH2 8861   0.346   5.442   1.263
 2952TIP3    H1 8862   0.314   5.514   1.318
 2952TIP3    H2 8863   0.436   5.429   1.291
 2953TIP3   OH2 8864   5.426   2.765   0.470
 2953TIP3    H1 8865   5.353   2.768   0.407
 2953TIP3    H2 8866   5.471   2.848   0.457
 2954TIP3   OH2 8867   1.182   0.457   0.487
 2954TIP3    H1 8868   1.267   0.498   0.470
 2954TIP3    H2 8869   1.203   0.369   0.519
 2955TIP3   OH2 8870   1.049   4.012   4.129
 2955TIP3    H1 8871   1.050   3.928   4.175
 2955TIP3    H2 8872   1.136   4.049   4.143
 2956TIP3   OH2 8873   0.099   3.299   2.931
 2956TIP3    H1 8874   0.109   3.321   2.839
 2956TIP3    H2 8875   0.173   3.341   2.974
 2957TIP3   OH2 8876   4.776   5.406   2.417
 2957TIP3    H1 8877   4.832   5.330   2.431
 2957TIP3    H2 8878   4.823   5.459   2.353
 2958TIP3   OH2 8879   4.434   5.816   0.308
 2958TIP3    H1 8880   4.489   5.785   0.380
 2958TIP3    H2 8881   4.456   5.909   0.300
 2959TIP3   OH2 8882  -0.011   1.783   2.055
 2959TIP3    H1 8883  -0.014   1.848   2.126
 2959TIP3    H2 8884   0.050   1.819   1.992
 2960TIP3   OH2 8885   0.628   5.462   2.502
 2960TIP3    H1 8886   0.593   5.491   2.418
 2960TIP3    H2 8887   0.721   5.446   2.486
 2961TIP3   OH2 8888   5.518   4.968   2.987
 2961TIP3    H1 8889   5.599   4.931   2.952
 2961TIP3    H2 8890   5.491   4.906   3.055
 2962TIP3   OH2 8891   0.009   3.585   2.024
 2962TIP3    H1 8892   0.092   3.582   1.976
 2962TIP3    H2 8893  -0.038   3.659   1.986
 2963TIP3   OH2 8894   3.749   4.063   0.416
 2963TIP3    H1 8895   3.839   4.030   0.404
 2963TIP3    H2 8896   3.694   3.985   0.411
 2964TIP3   OH2 8897   1.317   4.182   0.817
 2964TIP3    H1 8898   1.318   4.278   0.820
 2964TIP3    H2 8899   1.256   4.157   0.885
 2965TIP3   OH2 8900   2.917   1.928   2.294
 2965TIP3    H1 8901   2.948   1.849   2.340
 2965TIP3    H2 8902   2.924   1.906   2.201
 2966TIP3   OH2 8903   4.655   3.743   5.034
 2966TIP3    H1 8904   4.721   3.685   4.995
 2966TIP3    H2 8905   4.598   3.767   4.961
 2967TIP3   OH2 8906   4.363   4.774   0.598
 2967TIP3    H1 8907   4.430   4.755   0.534
 2967TIP3    H2 8908   4.329   4.860   0.573
 2968TIP3   OH2 8909   5.763   3.954   3.938
 2968TIP3    H1 8910   5.767   3.862   3.965
 2968TIP3    H2 8911   5.709   3.996   4.005
 2969TIP3   OH2 8912   2.616   0.924   3.993
 2969TIP3    H1 8913   2.593   0.875   4.072
 2969TIP3    H2 8914   2.711   0.928   3.994
 2970TIP3   OH2 8915   4.482   4.698   3.590
 2970TIP3    H1 8916   4.501   4.729   3.678
 2970TIP3    H2 8917   4.503   4.605   3.592
 2971TIP3   OH2 8918   1.287   0.358   2.525
 2971TIP3    H1 8919   1.340   0.300   2.470
 2971TIP3    H2 8920   1.333   0.442   2.523
 2972TIP3   OH2 8921   3.876   0.663   2.272
 2972TIP3    H1 8922   3.898   0.723   2.344
 2972TIP3    H2 8923   3.879   0.719   2.194
 2973TIP3   OH2 8924   0.304   0.592   0.676
 2973TIP3    H1 8925   0.360   0.593   0.754
 2973TIP3    H2 8926   0.319   0.676   0.634
 2974TIP3   OH2 8927   1.503   0.071   3.849
 2974TIP3    H1 8928   1.556   0.011   3.901
 2974TIP3    H2 8929   1.464   0.016   3.781
 2975TIP3   OH2 8930   2.441   3.838   0.441
 2975TIP3    H1 8931   2.428   3.747   0.469
 2975TIP3    H2 8932   2.410   3.890   0.515
 2976TIP3   OH2 8933   6.081   5.417   0.256
 2976TIP3    H1 8934   6.026   5.339   0.259
 2976TIP3    H2 8935   6.108   5.424   0.165
 2977TIP3   OH2 8936   2.793   4.070   0.956
 2977TIP3    H1 8937   2.856   4.132   0.993
 2977TIP3    H2 8938   2.708   4.107   0.979
 2978TIP3   OH2 8939   2.830   5.068   1.487
 2978TIP3    H1 8940   2.755   5.012   1.505
 2978TIP3    H2 8941   2.855   5.103   1.573
 2979TIP3   OH2 8942   3.035   0.633   0.640
 2979TIP3    H1 8943   3.080   0.704   0.594
 2979TIP3    H2 8944   2.945   0.636   0.606
 2980TIP3   OH2 8945   0.932   1.708   3.712
 2980TIP3    H1 8946   0.980   1.677   3.788
 2980TIP3    H2 8947   0.946   1.803   3.712
 2981TIP3   OH2 8948   5.207   5.032   2.206
 2981TIP3    H1 8949   5.225   4.938   2.208
 2981TIP3    H2 8950   5.160   5.049   2.288
 2982TIP3   OH2 8951   1.205   1.916   1.016
 2982TIP3    H1 8952   1.205   1.938   0.923
 2982TIP3    H2 8953   1.143   1.844   1.024
 2983TIP3   OH2 8954   4.504   5.065   0.667
 2983TIP3    H1 8955   4.557   5.141   0.692
 2983TIP3    H2 8956   4.429   5.103   0.622
 2984TIP3   OH2 8957   0.517   3.787   3.295
 2984TIP3    H1 8958   0.574   3.712   3.314
 2984TIP3    H2 8959   0.564   3.862   3.330
 2985TIP3   OH2 8960   4.623   6.001   4.131
 2985TIP3    H1 8961   4.637   5.922   4.182
 2985TIP3    H2 8962   4.564   5.974   4.060
 2986TIP3   OH2 8963   1.699   1.629   0.739
 2986TIP3    H1 8964   1.722   1.605   0.649
 2986TIP3    H2 8965   1.609   1.600   0.750
 2987TIP3   OH2 8966   3.154   4.746   3.608
 2987TIP3    H1 8967   3.132   4.796   3.529
 2987TIP3    H2 8968   3.103   4.665   3.600
 2988TIP3   OH2 8969   0.399   3.528   2.481
 2988TIP3    H1 8970   0.465   3.495   2.541
 2988TIP3    H2 8971   0.323   3.471   2.494
 2989TIP3   OH2 8972   2.408   1.995   1.986
 2989TIP3    H1 8973   2.443   2.050   2.057
 2989TIP3    H2 8974   2.475   1.928   1.973
 2990TIP3   OH2 8975   5.990   1.488   0.098
 2990TIP3    H1 8976   5.960   1.476   0.189
 2990TIP3    H2 8977   6.076   1.448   0.095
 2991TIP3   OH2 8978   0.017   2.571   1.527
 2991TIP3    H1 8979   0.058   2.642   1.576
 2991TIP3    H2 8980   0.071   2.563   1.448
 2992TIP3   OH2 8981   5.376   2.334   2.811
 2992TIP3    H1 8982   5.412   2.401   2.869
 2992TIP3    H2 8983   5.311   2.289   2.865
 2993TIP3   OH2 8984   1.728   1.198   3.899
 2993TIP3    H1 8985   1.813   1.233   3.925
 2993TIP3    H2 8986   1.711   1.237   3.813
 2994TIP3   OH2 8987   3.708   5.004   1.263
 2994TIP3    H1 8988   3.684   5.084   1.309
 2994TIP3    H2 8989   3.672   4.933   1.317
 2995TIP3   OH2 8990   6.120   0.693   0.260
 2995TIP3    H1 8991   6.065   0.620   0.286
 2995TIP3    H2 8992   6.058   0.757   0.224
 2996TIP3   OH2 8993   4.110   0.210   4.621
 2996TIP3    H1 8994   4.114   0.154   4.699
 2996TIP3    H2 8995   4.029   0.260   4.630
 2997TIP3   OH2 8996   1.764   1.553   3.866
 2997TIP3    H1 8997   1.821   1.630   3.870
 2997TIP3    H2 8998   1.677   1.587   3.886
 2998TIP3   OH2 8999   6.325   3.931   4.828
 2998TIP3    H1 9000   6.282   4.005   4.785
 2998TIP3    H2 9001   6.301   3.941   4.921
 2999TIP3   OH2 9002   4.688   0.645   1.015
 2999TIP3    H1 9003   4.780   0.626   1.031
 2999TIP3    H2 9004   4.669   0.722   1.070
 3000TIP3   OH2 9005   4.418   4.963   3.292
 3000TIP3    H1 9006   4.406   4.897   3.224
 3000TIP3    H2 9007   4.419   5.047   3.246
 3001TIP3   OH2 9008   5.094   3.720   2.505
 3001TIP3    H1 9009   5.065   3.811   2.491
 3001TIP3    H2 9010   5.137   3.696   2.423
 3002TIP3   OH2 9011   1.377   2.071   4.612
 3002TIP3    H1 9012   1.467   2.105   4.605
 3002TIP3    H2 9013   1.351   2.056   4.521
 3003TIP3   OH2 9014   3.240   2.096   0.712
 3003TIP3    H1 9015   3.323   2.083   0.666
 3003TIP3    H2 9016   3.259   2.165   0.776
 3004TIP3   OH2 9017   5.454   1.039   1.659
 3004TIP3    H1 9018   5.491   1.108   1.605
 3004TIP3    H2 9019   5.516   0.966   1.652
 3005TIP3   OH2 9020   4.680   3.516   3.464
 3005TIP3    H1 9021   4.657   3.518   3.371
 3005TIP3    H2 9022   4.764   3.470   3.466
 3006TIP3   OH2 9023   3.414   1.905   0.961
 3006TIP3    H1 9024   3.411   1.859   0.877
 3006TIP3    H2 9025   3.323   1.907   0.991
 3007TIP3   OH2 9026   4.923   3.683   4.236
 3007TIP3    H1 9027   4.951   3.595   4.210
 3007TIP3    H2 9028   4.998   3.739   4.214
 3008TIP3   OH2 9029   5.486   1.936   4.462
 3008TIP3    H1 9030   5.479   2.006   4.527
 3008TIP3    H2 9031   5.542   1.870   4.502
 3009TIP3   OH2 9032   0.598   1.040   4.919
 3009TIP3    H1 9033   0.659   1.101   4.878
 3009TIP3    H2 9034   0.540   1.095   4.971
 3010TIP3   OH2 9035   4.712   2.114   0.648
 3010TIP3    H1 9036   4.652   2.152   0.583
 3010TIP3    H2 9037   4.656   2.060   0.703
 3011TIP3   OH2 9038   0.598   4.924   0.262
 3011TIP3    H1 9039   0.629   4.878   0.340
 3011TIP3    H2 9040   0.551   5.000   0.297
 3012TIP3   OH2 9041   0.787   2.838   3.756
 3012TIP3    H1 9042   0.861   2.890   3.787
 3012TIP3    H2 9043   0.711   2.876   3.801
 3013TIP3   OH2 9044   0.685   5.014   3.118
 3013TIP3    H1 9045   0.590   5.014   3.124
 3013TIP3    H2 9046   0.703   5.000   3.025
 3014TIP3   OH2 9047   3.990   0.254   1.054
 3014TIP3    H1 9048   4.046   0.242   1.131
 3014TIP3    H2 9049   4.029   0.198   0.987
 3015TIP3   OH2 9050   0.995   5.677   2.910
 3015TIP3    H1 9051   1.011   5.736   2.837
 3015TIP3    H2 9052   0.943   5.606   2.873
 3016TIP3   OH2 9053   2.035   5.097   0.933
 3016TIP3    H1 9054   2.004   5.059   1.015
 3016TIP3    H2 9055   2.109   5.152   0.957
 3017TIP3   OH2 9056   2.755   5.282   5.184
 3017TIP3    H1 9057   2.694   5.228   5.133
 3017TIP3    H2 9058   2.841   5.261   5.147
 3018TIP3   OH2 9059   5.800   4.405   3.745
 3018TIP3    H1 9060   5.717   4.419   3.791
 3018TIP3    H2 9061   5.842   4.333   3.792
 3019TIP3   OH2 9062   0.194   0.371   2.642
 3019TIP3    H1 9063   0.114   0.372   2.590
 3019TIP3    H2 9064   0.260   0.334   2.583
 3020TIP3   OH2 9065   3.821   2.375   0.416
 3020TIP3    H1 9066   3.727   2.356   0.421
 3020TIP3    H2 9067   3.826   2.468   0.396
 3021TIP3   OH2 9068   1.878   3.219   0.509
 3021TIP3    H1 9069   1.825   3.148   0.546
 3021TIP3    H2 9070   1.838   3.299   0.544
 3022TIP3   OH2 9071   4.393   2.647   2.348
 3022TIP3    H1 9072   4.326   2.601   2.297
 3022TIP3    H2 9073   4.416   2.585   2.417
 3023TIP3   OH2 9074   2.654   0.150   5.138
 3023TIP3    H1 9075   2.629   0.067   5.180
 3023TIP3    H2 9076   2.739   0.171   5.174
 3024TIP3   OH2 9077   2.278   0.907   2.332
 3024TIP3    H1 9078   2.243   0.892   2.244
 3024TIP3    H2 9079   2.201   0.906   2.389
 3025TIP3   OH2 9080   0.345   3.152   3.460
 3025TIP3    H1 9081   0.379   3.151   3.550
 3025TIP3    H2 9082   0.256   3.188   3.468
 3026TIP3   OH2 9083   3.253   1.294   4.198
 3026TIP3    H1 9084   3.279   1.304   4.107
 3026TIP3    H2 9085   3.305   1.220   4.230
 3027TIP3   OH2 9086   0.810   3.652   0.692
 3027TIP3    H1 9087   0.848   3.693   0.615
 3027TIP3    H2 9088   0.886   3.623   0.744
 3028TIP3   OH2 9089   6.336   5.128   5.031
 3028TIP3    H1 9090   6.421   5.087   5.016
 3028TIP3    H2 9091   6.273   5.067   4.993
 3029TIP3   OH2 9092   3.796   0.041   3.799
 3029TIP3    H1 9093   3.889   0.056   3.781
 3029TIP3    H2 9094   3.753   0.124   3.777
 3030TIP3   OH2 9095   4.822   3.487   1.900
 3030TIP3    H1 9096   4.831   3.430   1.976
 3030TIP3    H2 9097   4.741   3.458   1.858
 3031TIP3   OH2 9098   3.621   2.449   3.486
 3031TIP3    H1 9099   3.540   2.469   3.533
 3031TIP3    H2 9100   3.625   2.514   3.416
 3032TIP3   OH2 9101   2.787   3.144   1.987
 3032TIP3    H1 9102   2.763   3.220   1.936
 3032TIP3    H2 9103   2.871   3.116   1.951
 3033TIP3   OH2 9104   5.317   1.315   3.097
 3033TIP3    H1 9105   5.271   1.246   3.143
 3033TIP3    H2 9106   5.252   1.350   3.035
 3034TIP3   OH2 9107   1.853   3.936   4.206
 3034TIP3    H1 9108   1.895   3.896   4.282
 3034TIP3    H2 9109   1.900   4.019   4.193
 3035TIP3   OH2 9110   5.058   0.825   4.890
 3035TIP3    H1 9111   5.154   0.833   4.892
 3035TIP3    H2 9112   5.039   0.792   4.802
 3036TIP3   OH2 9113   2.317   3.658   2.841
 3036TIP3    H1 9114   2.277   3.740   2.869
 3036TIP3    H2 9115   2.405   3.683   2.813
 3037TIP3   OH2 9116   5.974   3.498   2.749
 3037TIP3    H1 9117   6.036   3.538   2.810
 3037TIP3    H2 9118   5.888   3.512   2.789
 3038TIP3   OH2 9119   6.234   5.435   3.275
 3038TIP3    H1 9120   6.297   5.476   3.334
 3038TIP3    H2 9121   6.189   5.508   3.234
 3039TIP3   OH2 9122   1.351   2.315   0.191
 3039TIP3    H1 9123   1.408   2.310   0.267
 3039TIP3    H2 9124   1.344   2.224   0.160
 3040TIP3   OH2 9125   5.358   2.504   3.322
 3040TIP3    H1 9126   5.386   2.571   3.383
 3040TIP3    H2 9127   5.399   2.529   3.239
 3041TIP3   OH2 9128   5.947   0.723   2.370
 3041TIP3    H1 9129   6.040   0.739   2.356
 3041TIP3    H2 9130   5.915   0.692   2.285
 3042TIP3   OH2 9131   1.802   5.820   1.485
 3042TIP3    H1 9132   1.815   5.886   1.417
 3042TIP3    H2 9133   1.771   5.869   1.561
 3043TIP3   OH2 9134   2.048   4.214   0.674
 3043TIP3    H1 9135   2.048   4.119   0.666
 3043TIP3    H2 9136   2.085   4.245   0.591
 3044TIP3   OH2 9137   1.092   2.166   2.762
 3044TIP3    H1 9138   1.160   2.233   2.772
 3044TIP3    H2 9139   1.138   2.091   2.725
 3045TIP3   OH2 9140   5.491   0.921   3.273
 3045TIP3    H1 9141   5.514   0.965   3.191
 3045TIP3    H2 9142   5.558   0.949   3.335
 3046TIP3   OH2 9143   1.704   2.484   0.938
 3046TIP3    H1 9144   1.731   2.477   1.030
 3046TIP3    H2 9145   1.785   2.492   0.889
 3047TIP3   OH2 9146   3.115   1.192   1.739
 3047TIP3    H1 9147   3.045   1.212   1.677
 3047TIP3    H2 9148   3.129   1.274   1.786
 3048TIP3   OH2 9149   4.038   0.294   1.618
 3048TIP3    H1 9150   3.996   0.354   1.557
 3048TIP3    H2 9151   3.965   0.252   1.664
 3049TIP3   OH2 9152   0.914   4.187   0.112
 3049TIP3    H1 9153   0.867   4.224   0.187
 3049TIP3    H2 9154   0.899   4.250   0.041
 3050TIP3   OH2 9155   1.009   0.933   1.681
 3050TIP3    H1 9156   1.104   0.949   1.684
 3050TIP3    H2 9157   0.973   1.010   1.637
 3051TIP3   OH2 9158   0.930   4.049   2.923
 3051TIP3    H1 9159   0.834   4.044   2.919
 3051TIP3    H2 9160   0.955   4.102   2.848
 3052TIP3   OH2 9161   6.330   4.518   4.857
 3052TIP3    H1 9162   6.280   4.478   4.786
 3052TIP3    H2 9163   6.391   4.449   4.885
 3053TIP3   OH2 9164   1.455   0.298   3.512
 3053TIP3    H1 9165   1.421   0.214   3.544
 3053TIP3    H2 9166   1.549   0.283   3.498
 3054TIP3   OH2 9167   5.283   3.887   1.269
 3054TIP3    H1 9168   5.188   3.895   1.259
 3054TIP3    H2 9169   5.303   3.799   1.239
 3055TIP3   OH2 9170   4.030   5.704   4.520
 3055TIP3    H1 9171   3.976   5.782   4.528
 3055TIP3    H2 9172   3.996   5.644   4.587
 3056TIP3   OH2 9173   6.053   0.838   1.510
 3056TIP3    H1 9174   6.127   0.862   1.455
 3056TIP3    H2 9175   6.027   0.919   1.554
 3057TIP3   OH2 9176   0.794   1.145   0.388
 3057TIP3    H1 9177   0.871   1.089   0.381
 3057TIP3    H2 9178   0.797   1.200   0.310
 3058TIP3   OH2 9179   1.356   5.669   2.617
 3058TIP3    H1 9180   1.446   5.686   2.588
 3058TIP3    H2 9181   1.302   5.710   2.550
 3059TIP3   OH2 9182   4.071   3.007   5.076
 3059TIP3    H1 9183   4.006   2.972   5.015
 3059TIP3    H2 9184   4.022   3.072   5.127
 3060TIP3   OH2 9185   3.293   2.912   1.149
 3060TIP3    H1 9186   3.349   2.891   1.223
 3060TIP3    H2 9187   3.204   2.894   1.179
 3061TIP3   OH2 9188   3.987   2.689   0.150
 3061TIP3    H1 9189   4.003   2.777   0.115
 3061TIP3    H2 9190   3.962   2.637   0.074
 3062TIP3   OH2 9191   1.432   4.257  -0.021
 3062TIP3    H1 9192   1.341   4.276   0.003
 3062TIP3    H2 9193   1.456   4.182   0.033
 3063TIP3   OH2 9194   3.523   5.593   1.197
 3063TIP3    H1 9195   3.569   5.653   1.139
 3063TIP3    H2 9196   3.554   5.616   1.285
 3064TIP3   OH2 9197   5.435   2.311   0.562
 3064TIP3    H1 9198   5.491   2.386   0.582
 3064TIP3    H2 9199   5.355   2.349   0.526
 3065TIP3   OH2 9200   5.673   1.561   2.552
 3065TIP3    H1 9201   5.736   1.495   2.524
 3065TIP3    H2 9202   5.643   1.530   2.637
 3066TIP3   OH2 9203   1.376   1.197   5.107
 3066TIP3    H1 9204   1.386   1.145   5.186
 3066TIP3    H2 9205   1.281   1.211   5.099
 3067TIP3   OH2 9206   1.736   5.460   5.158
 3067TIP3    H1 9207   1.753   5.482   5.066
 3067TIP3    H2 9208   1.748   5.542   5.205
 3068TIP3   OH2 9209   5.558   4.067   1.049
 3068TIP3    H1 9210   5.607   4.119   1.113
 3068TIP3    H2 9211   5.624   4.012   1.008
 3069TIP3   OH2 9212   0.322   2.978   2.371
 3069TIP3    H1 9213   0.293   2.946   2.457
 3069TIP3    H2 9214   0.344   2.898   2.323
 3070TIP3   OH2 9215   3.877   5.792   3.376
 3070TIP3    H1 9216   3.972   5.790   3.382
 3070TIP3    H2 9217   3.858   5.771   3.284
 3071TIP3   OH2 9218   4.725   5.621   2.895
 3071TIP3    H1 9219   4.809   5.628   2.941
 3071TIP3    H2 9220   4.746   5.573   2.815
 3072TIP3   OH2 9221   5.928   1.999   1.009
 3072TIP3    H1 9222   5.977   2.057   0.952
 3072TIP3    H2 9223   5.995   1.945   1.051
 3073TIP3   OH2 9224   4.110   1.779   2.192
 3073TIP3    H1 9225   4.166   1.853   2.217
 3073TIP3    H2 9226   4.043   1.776   2.261
 3074TIP3   OH2 9227   1.746   3.006   1.196
 3074TIP3    H1 9228   1.650   3.005   1.189
 3074TIP3    H2 9229   1.775   3.055   1.119
 3075TIP3   OH2 9230   4.567   1.585   1.290
 3075TIP3    H1 9231   4.653   1.581   1.249
 3075TIP3    H2 9232   4.584   1.606   1.381
 3076TIP3   OH2 9233   0.512   0.213   2.246
 3076TIP3    H1 9234   0.603   0.185   2.256
 3076TIP3    H2 9235   0.511   0.262   2.163
 3077TIP3   OH2 9236   2.602   4.469   2.146
 3077TIP3    H1 9237   2.537   4.501   2.083
 3077TIP3    H2 9238   2.639   4.548   2.185
 3078TIP3   OH2 9239   4.275   3.775   3.407
 3078TIP3    H1 9240   4.343   3.799   3.470
 3078TIP3    H2 9241   4.208   3.842   3.419
 3079TIP3   OH2 9242   6.311   1.953   4.281
 3079TIP3    H1 9243   6.227   1.943   4.237
 3079TIP3    H2 9244   6.317   1.877   4.340
 3080TIP3   OH2 9245   1.117   4.737   5.216
 3080TIP3    H1 9246   1.187   4.682   5.180
 3080TIP3    H2 9247   1.076   4.776   5.140
 3081TIP3   OH2 9248   1.881   5.726   1.089
 3081TIP3    H1 9249   1.868   5.678   1.171
 3081TIP3    H2 9250   1.941   5.671   1.038
 3082TIP3   OH2 9251   1.602   2.461   4.431
 3082TIP3    H1 9252   1.654   2.491   4.506
 3082TIP3    H2 9253   1.656   2.481   4.355
 3083TIP3   OH2 9254   0.280   4.426   4.770
 3083TIP3    H1 9255   0.307   4.474   4.848
 3083TIP3    H2 9256   0.308   4.336   4.786
 3084TIP3   OH2 9257   0.603   2.483   4.701
 3084TIP3    H1 9258   0.594   2.427   4.778
 3084TIP3    H2 9259   0.685   2.530   4.716
 3085TIP3   OH2 9260   4.353   2.173   2.311
 3085TIP3    H1 9261   4.392   2.159   2.224
 3085TIP3    H2 9262   4.267   2.132   2.306
 3086TIP3   OH2 9263   1.725   3.864   3.410
 3086TIP3    H1 9264   1.810   3.861   3.366
 3086TIP3    H2 9265   1.735   3.932   3.476
 3087TIP3   OH2 9266   2.631   4.490   4.743
 3087TIP3    H1 9267   2.718   4.528   4.742
 3087TIP3    H2 9268   2.638   4.412   4.687
 3088TIP3   OH2 9269   5.311   4.500   0.129
 3088TIP3    H1 9270   5.326   4.550   0.049
 3088TIP3    H2 9271   5.348   4.414   0.110
 3089TIP3   OH2 9272   0.053   1.476   3.892
 3089TIP3    H1 9273   0.091   1.545   3.946
 3089TIP3    H2 9274   0.002   1.423   3.953
 3090TIP3   OH2 9275   2.655   4.928   0.866
 3090TIP3    H1 9276   2.681   4.977   0.788
 3090TIP3    H2 9277   2.566   4.900   0.849
 3091TIP3   OH2 9278   4.784   1.402   0.317
 3091TIP3    H1 9279   4.720   1.356   0.263
 3091TIP3    H2 9280   4.754   1.493   0.318
 3092TIP3   OH2 9281   1.469   1.603   0.199
 3092TIP3    H1 9282   1.460   1.635   0.109
 3092TIP3    H2 9283   1.506   1.515   0.190
 3093TIP3   OH2 9284   6.175   1.495   2.480
 3093TIP3    H1 9285   6.162   1.467   2.390
 3093TIP3    H2 9286   6.270   1.504   2.489
 3094TIP3   OH2 9287   3.531   1.954   1.640
 3094TIP3    H1 9288   3.586   1.924   1.567
 3094TIP3    H2 9289   3.546   2.048   1.644
 3095TIP3   OH2 9290   6.182   2.860   0.589
 3095TIP3    H1 9291   6.129   2.783   0.567
 3095TIP3    H2 9292   6.119   2.924   0.622
 3096TIP3   OH2 9293   3.078   2.285   1.936
 3096TIP3    H1 9294   3.125   2.229   1.997
 3096TIP3    H2 9295   3.026   2.342   1.992
 3097TIP3   OH2 9296   0.121   4.715   3.737
 3097TIP3    H1 9297   0.193   4.656   3.717
 3097TIP3    H2 9298   0.163   4.800   3.752
 3098TIP3   OH2 9299   2.240   4.648   2.923
 3098TIP3    H1 9300   2.147   4.670   2.931
 3098TIP3    H2 9301   2.249   4.612   2.834
 3099TIP3   OH2 9302   1.432   3.639   2.030
 3099TIP3    H1 9303   1.518   3.637   1.989
 3099TIP3    H2 9304   1.435   3.568   2.095
 3100TIP3   OH2 9305   4.220   1.312   2.780
 3100TIP3    H1 9306   4.239   1.295   2.687
 3100TIP3    H2 9307   4.301   1.350   2.814
 3101TIP3   OH2 9308   3.046   3.514   4.110
 3101TIP3    H1 9309   2.987   3.487   4.040
 3101TIP3    H2 9310   3.011   3.471   4.188
 3102TIP3   OH2 9311   4.992   1.731   2.065
 3102TIP3    H1 9312   5.013   1.665   1.998
 3102TIP3    H2 9313   5.077   1.767   2.090
 3103TIP3   OH2 9314   0.997   5.110   2.771
 3103TIP3    H1 9315   1.012   5.057   2.693
 3103TIP3    H2 9316   1.064   5.081   2.833
 3104TIP3   OH2 9317   5.042   2.952   2.347
 3104TIP3    H1 9318   5.113   3.006   2.384
 3104TIP3    H2 9319   4.968   2.967   2.406
 3105TIP3   OH2 9320   1.046   0.783   3.611
 3105TIP3    H1 9321   1.083   0.718   3.671
 3105TIP3    H2 9322   1.104   0.859   3.618
 3106TIP3   OH2 9323   4.884   4.084   2.715
 3106TIP3    H1 9324   4.891   4.082   2.619
 3106TIP3    H2 9325   4.973   4.066   2.745
 3107TIP3   OH2 9326   2.598   0.984   0.322
 3107TIP3    H1 9327   2.643   1.047   0.378
 3107TIP3    H2 9328   2.646   0.986   0.240
 3108TIP3   OH2 9329   1.370   2.931   3.215
 3108TIP3    H1 9330   1.425   3.005   3.189
 3108TIP3    H2 9331   1.363   2.878   3.136
 3109TIP3   OH2 9332   6.053   5.913   1.003
 3109TIP3    H1 9333   6.099   5.978   0.950
 3109TIP3    H2 9334   6.099   5.831   0.987
 3110TIP3   OH2 9335   2.928   4.916   4.451
 3110TIP3    H1 9336   2.840   4.911   4.488
 3110TIP3    H2 9337   2.938   4.834   4.403
 3111TIP3   OH2 9338   4.778   3.498   2.720
 3111TIP3    H1 9339   4.765   3.433   2.650
 3111TIP3    H2 9340   4.869   3.488   2.745
 3112TIP3   OH2 9341   3.600   5.838   3.796
 3112TIP3    H1 9342   3.615   5.831   3.890
 3112TIP3    H2 9343   3.626   5.928   3.774
 3113TIP3   OH2 9344   1.538   3.807   0.771
 3113TIP3    H1 9345   1.451   3.769   0.782
 3113TIP3    H2 9346   1.590   3.771   0.842
 3114TIP3   OH2 9347   2.941   4.172   4.112
 3114TIP3    H1 9348   2.984   4.152   4.195
 3114TIP3    H2 9349   2.937   4.087   4.066
 3115TIP3   OH2 9350   1.508   1.684   4.647
 3115TIP3    H1 9351   1.584   1.724   4.603
 3115TIP3    H2 9352   1.448   1.661   4.577
 3116TIP3   OH2 9353   3.122   5.138   1.526
 3116TIP3    H1 9354   3.081   5.112   1.608
 3116TIP3    H2 9355   3.166   5.059   1.494
 3117TIP3   OH2 9356   3.652   3.165   5.175
 3117TIP3    H1 9357   3.633   3.245   5.126
 3117TIP3    H2 9358   3.576   3.154   5.232
 3118TIP3   OH2 9359   5.533   2.763   2.189
 3118TIP3    H1 9360   5.523   2.858   2.184
 3118TIP3    H2 9361   5.561   2.747   2.279
 3119TIP3   OH2 9362   0.268   1.835   4.171
 3119TIP3    H1 9363   0.255   1.858   4.263
 3119TIP3    H2 9364   0.232   1.747   4.163
 3120TIP3   OH2 9365   5.671   3.032   1.733
 3120TIP3    H1 9366   5.625   3.009   1.814
 3120TIP3    H2 9367   5.689   3.125   1.741
 3121TIP3   OH2 9368   2.564   5.382   1.851
 3121TIP3    H1 9369   2.492   5.322   1.833
 3121TIP3    H2 9370   2.633   5.356   1.789
 3122TIP3   OH2 9371   5.305   1.942   0.787
 3122TIP3    H1 9372   5.246   1.921   0.714
 3122TIP3    H2 9373   5.386   1.971   0.745
 3123TIP3   OH2 9374   0.372   0.790   4.550
 3123TIP3    H1 9375   0.312   0.859   4.522
 3123TIP3    H2 9376   0.426   0.830   4.617
 3124TIP3   OH2 9377   3.155   3.114   3.709
 3124TIP3    H1 9378   3.190   3.160   3.785
 3124TIP3    H2 9379   3.173   3.022   3.726
 3125TIP3   OH2 9380   5.128   4.823   0.675
 3125TIP3    H1 9381   5.221   4.821   0.698
 3125TIP3    H2 9382   5.114   4.742   0.627
 3126TIP3   OH2 9383   4.887   2.342   1.962
 3126TIP3    H1 9384   4.957   2.290   1.921
 3126TIP3    H2 9385   4.922   2.431   1.962
 3127TIP3   OH2 9386   0.087   3.599   0.184
 3127TIP3    H1 9387   0.068   3.649   0.264
 3127TIP3    H2 9388   0.094   3.509   0.213
 3128TIP3   OH2 9389   5.728   5.355   3.463
 3128TIP3    H1 9390   5.690   5.421   3.521
 3128TIP3    H2 9391   5.767   5.406   3.392
 3129TIP3   OH2 9392   2.206   4.926   2.329
 3129TIP3    H1 9393   2.195   4.831   2.336
 3129TIP3    H2 9394   2.189   4.945   2.236
 3130TIP3   OH2 9395   4.248   3.466   1.488
 3130TIP3    H1 9396   4.210   3.446   1.402
 3130TIP3    H2 9397   4.216   3.396   1.545
 3131TIP3   OH2 9398   2.308   1.548   4.553
 3131TIP3    H1 9399   2.351   1.473   4.594
 3131TIP3    H2 9400   2.358   1.564   4.473
 3132TIP3   OH2 9401   2.867   0.573   4.319
 3132TIP3    H1 9402   2.910   0.495   4.282
 3132TIP3    H2 9403   2.911   0.586   4.403
 3133TIP3   OH2 9404   5.717   2.687   0.159
 3133TIP3    H1 9405   5.651   2.756   0.151
 3133TIP3    H2 9406   5.677   2.610   0.118
 3134TIP3   OH2 9407   3.554   3.582   3.122
 3134TIP3    H1 9408   3.572   3.549   3.210
 3134TIP3    H2 9409   3.463   3.612   3.125
 3135TIP3   OH2 9410   6.064   0.454   0.480
 3135TIP3    H1 9411   6.014   0.384   0.438
 3135TIP3    H2 9412   5.997   0.511   0.518
 3136TIP3   OH2 9413   6.054   4.018   4.897
 3136TIP3    H1 9414   6.024   4.106   4.921
 3136TIP3    H2 9415   6.101   3.987   4.975
 3137TIP3   OH2 9416   4.472   3.212   4.752
 3137TIP3    H1 9417   4.422   3.267   4.691
 3137TIP3    H2 9418   4.563   3.236   4.737
 3138TIP3   OH2 9419   1.490   5.016   0.121
 3138TIP3    H1 9420   1.400   4.982   0.124
 3138TIP3    H2 9421   1.481   5.109   0.145
 3139TIP3   OH2 9422   1.921   0.652   4.122
 3139TIP3    H1 9423   1.865   0.645   4.199
 3139TIP3    H2 9424   2.010   0.656   4.157
 3140TIP3   OH2 9425   5.578   4.468   4.932
 3140TIP3    H1 9426   5.508   4.533   4.943
 3140TIP3    H2 9427   5.537   4.385   4.953
 3141TIP3   OH2 9428   3.318   5.706   2.968
 3141TIP3    H1 9429   3.400   5.670   3.000
 3141TIP3    H2 9430   3.314   5.794   3.005
 3142TIP3   OH2 9431   3.490   3.160   3.886
 3142TIP3    H1 9432   3.524   3.076   3.918
 3142TIP3    H2 9433   3.564   3.202   3.844
 3143TIP3   OH2 9434   5.683   1.455   1.352
 3143TIP3    H1 9435   5.631   1.506   1.415
 3143TIP3    H2 9436   5.773   1.486   1.365
 3144TIP3   OH2 9437   2.156   0.505   4.251
 3144TIP3    H1 9438   2.140   0.423   4.205
 3144TIP3    H2 9439   2.183   0.478   4.339
 3145TIP3   OH2 9440   1.898   5.668   2.678
 3145TIP3    H1 9441   1.883   5.734   2.745
 3145TIP3    H2 9442   1.910   5.586   2.727
 3146TIP3   OH2 9443   3.182   2.078   1.450
 3146TIP3    H1 9444   3.136   2.162   1.451
 3146TIP3    H2 9445   3.139   2.026   1.518
 3147TIP3   OH2 9446   4.885   4.334   3.669
 3147TIP3    H1 9447   4.861   4.425   3.685
 3147TIP3    H2 9448   4.801   4.287   3.670
 3148TIP3   OH2 9449   5.099   0.403   1.366
 3148TIP3    H1 9450   5.097   0.309   1.349
 3148TIP3    H2 9451   5.118   0.442   1.281
 3149TIP3   OH2 9452   0.251   2.123   3.840
 3149TIP3    H1 9453   0.201   2.084   3.769
 3149TIP3    H2 9454   0.196   2.110   3.918
 3150TIP3   OH2 9455   1.183   4.020   1.791
 3150TIP3    H1 9456   1.240   4.095   1.770
 3150TIP3    H2 9457   1.195   3.960   1.717
 3151TIP3   OH2 9458   2.790   0.832   2.093
 3151TIP3    H1 9459   2.868   0.872   2.131
 3151TIP3    H2 9460   2.717   0.886   2.124
 3152TIP3   OH2 9461   0.234   3.494   1.439
 3152TIP3    H1 9462   0.256   3.546   1.362
 3152TIP3    H2 9463   0.139   3.485   1.436
 3153TIP3   OH2 9464   0.199   0.108   0.215
 3153TIP3    H1 9465   0.115   0.093   0.171
 3153TIP3    H2 9466   0.223   0.197   0.191
 3154TIP3   OH2 9467   3.382   5.563   0.720
 3154TIP3    H1 9468   3.455   5.507   0.748
 3154TIP3    H2 9469   3.327   5.505   0.667
 3155TIP3   OH2 9470   1.437   3.660   1.309
 3155TIP3    H1 9471   1.518   3.612   1.327
 3155TIP3    H2 9472   1.367   3.597   1.327
 3156TIP3   OH2 9473   3.919   1.626   4.568
 3156TIP3    H1 9474   3.998   1.667   4.532
 3156TIP3    H2 9475   3.937   1.532   4.565
 3157TIP3   OH2 9476   4.264   4.568   2.794
 3157TIP3    H1 9477   4.296   4.557   2.705
 3157TIP3    H2 9478   4.203   4.496   2.807
 3158TIP3   OH2 9479   3.559   1.337   2.293
 3158TIP3    H1 9480   3.644   1.338   2.336
 3158TIP3    H2 9481   3.540   1.245   2.279
 3159TIP3   OH2 9482   3.849   4.889   2.359
 3159TIP3    H1 9483   3.761   4.870   2.392
 3159TIP3    H2 9484   3.900   4.910   2.437
 3160TIP3   OH2 9485   0.575   2.312   1.440
 3160TIP3    H1 9486   0.531   2.378   1.494
 3160TIP3    H2 9487   0.668   2.322   1.460
 3161TIP3   OH2 9488   0.014   4.864   3.529
 3161TIP3    H1 9489   0.038   4.785   3.578
 3161TIP3    H2 9490  -0.029   4.919   3.594
 3162TIP3   OH2 9491   3.630   0.216   5.119
 3162TIP3    H1 9492   3.707   0.167   5.145
 3162TIP3    H2 9493   3.597   0.170   5.041
 3163TIP3   OH2 9494   3.078   1.077   0.654
 3163TIP3    H1 9495   3.082   1.098   0.747
 3163TIP3    H2 9496   3.140   1.137   0.613
 3164TIP3   OH2 9497   3.102   1.590   0.393
 3164TIP3    H1 9498   3.179   1.548   0.430
 3164TIP3    H2 9499   3.030   1.562   0.450
 3165TIP3   OH2 9500   4.371   4.026   2.164
 3165TIP3    H1 9501   4.288   4.041   2.209
 3165TIP3    H2 9502   4.393   3.935   2.183
 3166TIP3   OH2 9503   5.701   2.447   3.729
 3166TIP3    H1 9504   5.709   2.356   3.701
 3166TIP3    H2 9505   5.625   2.448   3.787
 3167TIP3   OH2 9506   5.316   5.828   2.064
 3167TIP3    H1 9507   5.313   5.923   2.052
 3167TIP3    H2 9508   5.404   5.811   2.099
 3168TIP3   OH2 9509   1.480   3.802   3.290
 3168TIP3    H1 9510   1.559   3.841   3.327
 3168TIP3    H2 9511   1.431   3.876   3.254
 3169TIP3   OH2 9512   2.497   0.232   4.369
 3169TIP3    H1 9513   2.476   0.254   4.278
 3169TIP3    H2 9514   2.412   0.213   4.409
 3170TIP3   OH2 9515   2.508   4.094   1.033
 3170TIP3    H1 9516   2.456   4.024   1.072
 3170TIP3    H2 9517   2.460   4.120   0.955
 3171TIP3   OH2 9518   1.334   1.861   3.711
 3171TIP3    H1 9519   1.287   1.777   3.711
 3171TIP3    H2 9520   1.274   1.922   3.668
 3172TIP3   OH2 9521   2.027   4.145   4.111
 3172TIP3    H1 9522   2.040   4.067   4.058
 3172TIP3    H2 9523   1.991   4.210   4.050
 3173TIP3   OH2 9524   1.129   4.925   2.295
 3173TIP3    H1 9525   1.150   4.882   2.212
 3173TIP3    H2 9526   1.205   4.911   2.351
 3174TIP3   OH2 9527   3.026   0.349   2.176
 3174TIP3    H1 9528   3.041   0.346   2.270
 3174TIP3    H2 9529   3.098   0.300   2.138
 3175TIP3   OH2 9530   0.353   2.164  -0.003
 3175TIP3    H1 9531   0.307   2.189   0.077
 3175TIP3    H2 9532   0.318   2.222  -0.070
 3176TIP3   OH2 9533   4.701   4.507   2.765
 3176TIP3    H1 9534   4.627   4.529   2.821
 3176TIP3    H2 9535   4.676   4.425   2.723
 3177TIP3   OH2 9536   5.642   0.329   4.951
 3177TIP3    H1 9537   5.708   0.384   4.993
 3177TIP3    H2 9538   5.651   0.348   4.858
 3178TIP3   OH2 9539   4.748   0.426   3.968
 3178TIP3    H1 9540   4.837   0.459   3.955
 3178TIP3    H2 9541   4.743   0.406   4.062
 3179TIP3   OH2 9542   5.640   5.699   1.231
 3179TIP3    H1 9543   5.731   5.730   1.232
 3179TIP3    H2 9544   5.588   5.779   1.223
 3180TIP3   OH2 9545   1.512   0.073   4.289
 3180TIP3    H1 9546   1.555   0.110   4.212
 3180TIP3    H2 9547   1.575   0.084   4.360
 3181TIP3   OH2 9548   0.323   0.306   1.560
 3181TIP3    H1 9549   0.314   0.217   1.594
 3181TIP3    H2 9550   0.285   0.362   1.628
 3182TIP3   OH2 9551   5.018   2.949   4.273
 3182TIP3    H1 9552   5.090   2.989   4.223
 3182TIP3    H2 9553   5.029   2.982   4.362
 3183TIP3   OH2 9554   0.462   3.785   5.026
 3183TIP3    H1 9555   0.540   3.788   5.081
 3183TIP3    H2 9556   0.490   3.821   4.942
 3184TIP3   OH2 9557   1.744   1.913   0.750
 3184TIP3    H1 9558   1.696   1.844   0.795
 3184TIP3    H2 9559   1.699   1.922   0.666
 3185TIP3   OH2 9560   6.374   1.188   4.031
 3185TIP3    H1 9561   6.294   1.208   3.983
 3185TIP3    H2 9562   6.350   1.117   4.091
 3186TIP3   OH2 9563   3.645   2.212   1.592
 3186TIP3    H1 9564   3.593   2.293   1.595
 3186TIP3    H2 9565   3.692   2.217   1.509
 3187TIP3   OH2 9566   3.381   3.185   5.029
 3187TIP3    H1 9567   3.297   3.213   4.992
 3187TIP3    H2 9568   3.360   3.155   5.117
 3188TIP3   OH2 9569   1.777   5.513   3.827
 3188TIP3    H1 9570   1.737   5.431   3.855
 3188TIP3    H2 9571   1.840   5.486   3.759
 3189TIP3   OH2 9572   1.217   2.761   0.464
 3189TIP3    H1 9573   1.195   2.852   0.484
 3189TIP3    H2 9574   1.299   2.766   0.416
 3190TIP3   OH2 9575   0.900   2.042   1.432
 3190TIP3    H1 9576   0.949   2.107   1.382
 3190TIP3    H2 9577   0.965   1.977   1.458
 3191TIP3   OH2 9578   5.865   1.230   4.461
 3191TIP3    H1 9579   5.856   1.146   4.416
 3191TIP3    H2 9580   5.809   1.222   4.538
 3192TIP3   OH2 9581   1.572   4.847   2.710
 3192TIP3    H1 9582   1.606   4.799   2.634
 3192TIP3    H2 9583   1.527   4.781   2.762
 3193TIP3   OH2 9584   2.106   1.821   0.455
 3193TIP3    H1 9585   2.199   1.814   0.475
 3193TIP3    H2 9586   2.062   1.785   0.532
 3194TIP3   OH2 9587   2.103   0.947   4.324
 3194TIP3    H1 9588   2.152   0.891   4.264
 3194TIP3    H2 9589   2.079   0.889   4.396
 3195TIP3   OH2 9590   0.935   3.465   1.615
 3195TIP3    H1 9591   1.021   3.428   1.596
 3195TIP3    H2 9592   0.940   3.554   1.581
 3196TIP3   OH2 9593   3.616   1.776   2.979
 3196TIP3    H1 9594   3.530   1.736   2.992
 3196TIP3    H2 9595   3.597   1.864   2.947
 3197TIP3   OH2 9596   3.994   4.023   0.313
 3197TIP3    H1 9597   4.082   4.001   0.283
 3197TIP3    H2 9598   3.938   4.008   0.238
 3198TIP3   OH2 9599   0.943   1.195   1.599
 3198TIP3    H1 9600   1.034   1.212   1.578
 3198TIP3    H2 9601   0.920   1.263   1.662
 3199TIP3   OH2 9602   2.821   0.380   0.125
 3199TIP3    H1 9603   2.878   0.360   0.199
 3199TIP3    H2 9604   2.732   0.360   0.157
 3200TIP3   OH2 9605   5.414   0.353   2.360
 3200TIP3    H1 9606   5.324   0.362   2.330
 3200TIP3    H2 9607   5.434   0.261   2.348
 3201TIP3   OH2 9608   5.976   4.994   2.106
 3201TIP3    H1 9609   5.973   4.939   2.028
 3201TIP3    H2 9610   5.929   4.943   2.172
 3202TIP3   OH2 9611   3.379   4.377   3.307
 3202TIP3    H1 9612   3.462   4.345   3.344
 3202TIP3    H2 9613   3.317   4.372   3.379
 3203TIP3   OH2 9614   6.092   0.605   4.468
 3203TIP3    H1 9615   6.093   0.639   4.557
 3203TIP3    H2 9616   6.055   0.517   4.476
 3204TIP3   OH2 9617   4.044   2.502   3.909
 3204TIP3    H1 9618   3.990   2.449   3.850
 3204TIP3    H2 9619   4.071   2.577   3.857
 3205TIP3   OH2 9620   6.020   3.493   0.694
 3205TIP3    H1 9621   5.956   3.488   0.764
 3205TIP3    H2 9622   6.060   3.406   0.691
 3206TIP3   OH2 9623   5.984   2.965   2.845
 3206TIP3    H1 9624   6.025   3.034   2.792
 3206TIP3    H2 9625   6.039   2.888   2.831
 3207TIP3   OH2 9626   3.474   4.295   1.462
 3207TIP3    H1 9627   3.551   4.281   1.516
 3207TIP3    H2 9628   3.503   4.275   1.373
 3208TIP3   OH2 9629   3.822   4.593   0.089
 3208TIP3    H1 9630   3.762   4.549   0.028
 3208TIP3    H2 9631   3.838   4.678   0.049
 3209TIP3   OH2 9632   5.216   0.252   3.169
 3209TIP3    H1 9633   5.293   0.215   3.213
 3209TIP3    H2 9634   5.166   0.293   3.240
 3210TIP3   OH2 9635   2.188   2.292   1.894
 3210TIP3    H1 9636   2.111   2.308   1.948
 3210TIP3    H2 9637   2.260   2.284   1.957
 3211TIP3   OH2 9638   2.598   5.899   0.112
 3211TIP3    H1 9639   2.544   5.967   0.154
 3211TIP3    H2 9640   2.673   5.890   0.170
 3212TIP3   OH2 9641   4.234   5.016   1.257
 3212TIP3    H1 9642   4.153   4.976   1.290
 3212TIP3    H2 9643   4.298   4.945   1.255
 3213TIP3   OH2 9644   4.663   4.476   3.447
 3213TIP3    H1 9645   4.680   4.441   3.360
 3213TIP3    H2 9646   4.646   4.399   3.501
 3214TIP3   OH2 9647   4.711   3.292   2.504
 3214TIP3    H1 9648   4.690   3.213   2.553
 3214TIP3    H2 9649   4.801   3.279   2.475
 3215TIP3   OH2 9650   0.990   0.832   5.158
 3215TIP3    H1 9651   0.937   0.868   5.087
 3215TIP3    H2 9652   0.937   0.843   5.237
 3216TIP3   OH2 9653   4.466   0.371   1.825
 3216TIP3    H1 9654   4.464   0.299   1.762
 3216TIP3    H2 9655   4.555   0.370   1.860
 3217TIP3   OH2 9656   0.816   3.192   0.692
 3217TIP3    H1 9657   0.828   3.100   0.716
 3217TIP3    H2 9658   0.902   3.219   0.659
 3218TIP3   OH2 9659   3.311   1.069   5.048
 3218TIP3    H1 9660   3.328   0.979   5.077
 3218TIP3    H2 9661   3.373   1.084   4.977
 3219TIP3   OH2 9662   1.227   5.318   1.061
 3219TIP3    H1 9663   1.305   5.273   1.028
 3219TIP3    H2 9664   1.227   5.403   1.018
 3220TIP3   OH2 9665   1.009   1.599   3.947
 3220TIP3    H1 9666   1.050   1.513   3.956
 3220TIP3    H2 9667   0.932   1.595   4.004
 3221TIP3   OH2 9668   4.999   3.878   4.469
 3221TIP3    H1 9669   4.912   3.858   4.433
 3221TIP3    H2 9670   5.059   3.823   4.418
 3222TIP3   OH2 9671   1.875   0.752   3.643
 3222TIP3    H1 9672   1.873   0.818   3.574
 3222TIP3    H2 9673   1.816   0.683   3.612
 3223TIP3   OH2 9674   4.467   4.082   3.781
 3223TIP3    H1 9675   4.396   4.032   3.741
 3223TIP3    H2 9676   4.423   4.146   3.837
 3224TIP3   OH2 9677   4.470   0.145   1.672
 3224TIP3    H1 9678   4.437   0.071   1.722
 3224TIP3    H2 9679   4.547   0.111   1.626
 3225TIP3   OH2 9680   0.866   4.876   2.421
 3225TIP3    H1 9681   0.805   4.895   2.349
 3225TIP3    H2 9682   0.950   4.863   2.377
 3226TIP3   OH2 9683   1.587   1.250   2.664
 3226TIP3    H1 9684   1.661   1.226   2.721
 3226TIP3    H2 9685   1.513   1.258   2.724
 3227TIP3   OH2 9686   2.616   4.079   0.254
 3227TIP3    H1 9687   2.584   4.084   0.164
 3227TIP3    H2 9688   2.546   4.036   0.302
 3228TIP3   OH2 9689   1.988   1.697   0.698
 3228TIP3    H1 9690   1.895   1.673   0.698
 3228TIP3    H2 9691   2.034   1.613   0.704
 3229TIP3   OH2 9692   0.191   2.307   1.550
 3229TIP3    H1 9693   0.112   2.361   1.549
 3229TIP3    H2 9694   0.262   2.370   1.562
 3230TIP3   OH2 9695   0.922   1.191   4.529
 3230TIP3    H1 9696   1.003   1.231   4.561
 3230TIP3    H2 9697   0.927   1.201   4.434
 3231TIP3   OH2 9698   2.652   0.082   3.977
 3231TIP3    H1 9699   2.738   0.058   3.943
 3231TIP3    H2 9700   2.662   0.173   4.004
 3232TIP3   OH2 9701   3.630   3.203   2.633
 3232TIP3    H1 9702   3.565   3.189   2.702
 3232TIP3    H2 9703   3.579   3.219   2.554
 3233TIP3   OH2 9704   5.834   4.891   1.051
 3233TIP3    H1 9705   5.762   4.936   1.095
 3233TIP3    H2 9706   5.893   4.961   1.022
 3234TIP3   OH2 9707   4.549   5.000   1.038
 3234TIP3    H1 9708   4.549   4.983   1.132
 3234TIP3    H2 9709   4.618   5.065   1.025
 3235TIP3   OH2 9710   2.226   4.541   0.425
 3235TIP3    H1 9711   2.176   4.563   0.503
 3235TIP3    H2 9712   2.180   4.585   0.353
 3236TIP3   OH2 9713   0.325   4.059   2.293
 3236TIP3    H1 9714   0.415   4.044   2.322
 3236TIP3    H2 9715   0.291   3.971   2.276
 3237TIP3   OH2 9716   5.105   1.622   5.149
 3237TIP3    H1 9717   5.113   1.588   5.238
 3237TIP3    H2 9718   5.147   1.708   5.152
 3238TIP3   OH2 9719   5.081   0.762   1.386
 3238TIP3    H1 9720   5.101   0.839   1.439
 3238TIP3    H2 9721   5.143   0.696   1.417
 3239TIP3   OH2 9722   1.979   4.024   4.502
 3239TIP3    H1 9723   1.972   4.055   4.592
 3239TIP3    H2 9724   2.001   3.931   4.511
 3240TIP3   OH2 9725   2.070   3.732   4.493
 3240TIP3    H1 9726   2.019   3.654   4.516
 3240TIP3    H2 9727   2.134   3.701   4.429
 3241TIP3   OH2 9728   2.080   3.777   2.222
 3241TIP3    H1 9729   2.022   3.845   2.256
 3241TIP3    H2 9730   2.044   3.755   2.136
 3242TIP3   OH2 9731   5.883   1.147   0.918
 3242TIP3    H1 9732   5.918   1.087   0.984
 3242TIP3    H2 9733   5.802   1.180   0.956
 3243TIP3   OH2 9734   1.922   3.931   0.870
 3243TIP3    H1 9735   1.865   3.985   0.815
 3243TIP3    H2 9736   2.003   3.981   0.876
 3244TIP3   OH2 9737   2.197   2.709   3.903
 3244TIP3    H1 9738   2.271   2.694   3.962
 3244TIP3    H2 9739   2.186   2.804   3.903
 3245TIP3   OH2 9740   2.267   2.841   3.053
 3245TIP3    H1 9741   2.207   2.852   3.127
 3245TIP3    H2 9742   2.210   2.839   2.976
 3246TIP3   OH2 9743   2.418   3.857   3.499
 3246TIP3    H1 9744   2.411   3.780   3.443
 3246TIP3    H2 9745   2.345   3.850   3.559
 3247TIP3   OH2 9746   4.234   0.030   2.017
 3247TIP3    H1 9747   4.304   0.041   2.081
 3247TIP3    H2 9748   4.186   0.113   2.019
 3248TIP3   OH2 9749   5.141   5.345   0.524
 3248TIP3    H1 9750   5.077   5.292   0.476
 3248TIP3    H2 9751   5.142   5.307   0.612
 3249TIP3   OH2 9752   4.475   2.180   4.684
 3249TIP3    H1 9753   4.540   2.119   4.719
 3249TIP3    H2 9754   4.504   2.196   4.594
 3250TIP3   OH2 9755   2.121   3.492   0.351
 3250TIP3    H1 9756   2.175   3.416   0.373
 3250TIP3    H2 9757   2.093   3.476   0.261
 3251TIP3   OH2 9758   5.039   4.040   4.991
 3251TIP3    H1 9759   5.113   4.054   4.932
 3251TIP3    H2 9760   5.003   4.127   5.005
 3252TIP3   OH2 9761   0.042   3.324   3.928
 3252TIP3    H1 9762   0.056   3.347   4.019
 3252TIP3    H2 9763  -0.047   3.290   3.924
 3253TIP3   OH2 9764   0.660   1.202   1.536
 3253TIP3    H1 9765   0.619   1.250   1.608
 3253TIP3    H2 9766   0.753   1.202   1.558
 3254TIP3   OH2 9767   5.973   3.306   1.192
 3254TIP3    H1 9768   5.895   3.290   1.246
 3254TIP3    H2 9769   5.967   3.398   1.168
 3255TIP3   OH2 9770   4.165   1.518   2.321
 3255TIP3    H1 9771   4.072   1.539   2.327
 3255TIP3    H2 9772   4.206   1.597   2.286
 3256TIP3   OH2 9773   0.024   4.660   4.533
 3256TIP3    H1 9774  -0.030   4.699   4.464
 3256TIP3    H2 9775   0.048   4.733   4.589
 3257TIP3   OH2 9776   2.236   1.749   3.747
 3257TIP3    H1 9777   2.158   1.695   3.734
 3257TIP3    H2 9778   2.251   1.791   3.662
 3258TIP3   OH2 9779   3.245   3.902   3.665
 3258TIP3    H1 9780   3.295   3.951   3.731
 3258TIP3    H2 9781   3.310   3.850   3.618
 3259TIP3   OH2 9782   3.772   4.435   0.602
 3259TIP3    H1 9783   3.811   4.389   0.676
 3259TIP3    H2 9784   3.829   4.414   0.527
 3260TIP3   OH2 9785   2.564   2.237   1.848
 3260TIP3    H1 9786   2.632   2.176   1.877
 3260TIP3    H2 9787   2.532   2.277   1.928
 3261TIP3   OH2 9788   5.513   3.026   4.904
 3261TIP3    H1 9789   5.597   3.053   4.941
 3261TIP3    H2 9790   5.458   3.010   4.980
 3262TIP3   OH2 9791   2.967   0.326   1.818
 3262TIP3    H1 9792   3.001   0.293   1.734
 3262TIP3    H2 9793   2.872   0.326   1.807
 3263TIP3   OH2 9794   2.041   2.836   4.242
 3263TIP3    H1 9795   2.038   2.914   4.187
 3263TIP3    H2 9796   1.995   2.769   4.193
 3264TIP3   OH2 9797   1.233   3.632   5.087
 3264TIP3    H1 9798   1.275   3.593   5.163
 3264TIP3    H2 9799   1.179   3.703   5.123
 3265TIP3   OH2 9800   5.132   3.841   0.740
 3265TIP3    H1 9801   5.175   3.926   0.749
 3265TIP3    H2 9802   5.043   3.861   0.710
 3266TIP3   OH2 9803   2.027   5.882   4.581
 3266TIP3    H1 9804   2.108   5.833   4.595
 3266TIP3    H2 9805   2.007   5.921   4.666
 3267TIP3   OH2 9806   4.484   1.051   3.428
 3267TIP3    H1 9807   4.484   1.095   3.343
 3267TIP3    H2 9808   4.391   1.039   3.448
 3268TIP3   OH2 9809   5.919   5.334   2.269
 3268TIP3    H1 9810   5.920   5.429   2.283
 3268TIP3    H2 9811   5.895   5.324   2.177
 3269TIP3   OH2 9812   3.007   5.906   1.691
 3269TIP3    H1 9813   3.101   5.896   1.675
 3269TIP3    H2 9814   3.001   5.975   1.758
 3270TIP3   OH2 9815   6.284   3.489   1.406
 3270TIP3    H1 9816   6.199   3.485   1.448
 3270TIP3    H2 9817   6.280   3.422   1.337
 3271TIP3   OH2 9818   5.724   0.827   5.047
 3271TIP3    H1 9819   5.658   0.896   5.048
 3271TIP3    H2 9820   5.693   0.765   4.982
 3272TIP3   OH2 9821   0.181   5.493   4.882
 3272TIP3    H1 9822   0.119   5.470   4.812
 3272TIP3    H2 9823   0.166   5.427   4.950
 3273TIP3   OH2 9824   5.035   2.543   1.031
 3273TIP3    H1 9825   5.001   2.478   0.970
 3273TIP3    H2 9826   4.965   2.608   1.038
 3274TIP3   OH2 9827   3.366   4.682   2.700
 3274TIP3    H1 9828   3.438   4.745   2.701
 3274TIP3    H2 9829   3.318   4.701   2.781
 3275TIP3   OH2 9830   4.197   0.268   3.273
 3275TIP3    H1 9831   4.156   0.293   3.355
 3275TIP3    H2 9832   4.278   0.224   3.298
 3276TIP3   OH2 9833   1.612   3.796   0.294
 3276TIP3    H1 9834   1.667   3.824   0.368
 3276TIP3    H2 9835   1.524   3.791   0.330
 3277TIP3   OH2 9836   4.968   1.837   1.424
 3277TIP3    H1 9837   5.001   1.832   1.334
 3277TIP3    H2 9838   4.999   1.921   1.457
 3278TIP3   OH2 9839   1.093   4.805   0.315
 3278TIP3    H1 9840   1.181   4.777   0.339
 3278TIP3    H2 9841   1.037   4.733   0.342
 3279TIP3   OH2 9842   4.674   1.646   0.240
 3279TIP3    H1 9843   4.623   1.694   0.306
 3279TIP3    H2 9844   4.672   1.703   0.163
 3280TIP3   OH2 9845   1.348   4.541   1.655
 3280TIP3    H1 9846   1.311   4.604   1.716
 3280TIP3    H2 9847   1.379   4.593   1.581
 3281TIP3   OH2 9848   4.604   0.167   4.266
 3281TIP3    H1 9849   4.605   0.152   4.360
 3281TIP3    H2 9850   4.686   0.212   4.247
 3282TIP3   OH2 9851   4.837   5.066   0.162
 3282TIP3    H1 9852   4.764   5.017   0.199
 3282TIP3    H2 9853   4.878   5.006   0.101
 3283TIP3   OH2 9854   1.934   5.838   1.911
 3283TIP3    H1 9855   1.939   5.888   1.830
 3283TIP3    H2 9856   2.003   5.875   1.967
 3284TIP3   OH2 9857   4.369   0.330   0.867
 3284TIP3    H1 9858   4.339   0.366   0.950
 3284TIP3    H2 9859   4.446   0.383   0.844
 3285TIP3   OH2 9860   3.868   3.654   1.050
 3285TIP3    H1 9861   3.919   3.602   0.988
 3285TIP3    H2 9862   3.779   3.620   1.042
 3286TIP3   OH2 9863   1.944   5.443   0.924
 3286TIP3    H1 9864   1.999   5.508   0.881
 3286TIP3    H2 9865   2.006   5.389   0.975
 3287TIP3   OH2 9866   1.379   5.355   4.095
 3287TIP3    H1 9867   1.417   5.330   4.179
 3287TIP3    H2 9868   1.421   5.297   4.032
 3288TIP3   OH2 9869   1.480   2.215   5.006
 3288TIP3    H1 9870   1.396   2.199   4.964
 3288TIP3    H2 9871   1.484   2.309   5.020
 3289TIP3   OH2 9872   3.366   0.478   1.446
 3289TIP3    H1 9873   3.431   0.410   1.432
 3289TIP3    H2 9874   3.407   0.539   1.508
 3290TIP3   OH2 9875   0.419   1.567   1.399
 3290TIP3    H1 9876   0.478   1.500   1.365
 3290TIP3    H2 9877   0.387   1.530   1.482
 3291TIP3   OH2 9878   2.149   0.019   1.162
 3291TIP3    H1 9879   2.089   0.083   1.123
 3291TIP3    H2 9880   2.202   0.071   1.222
 3292TIP3   OH2 9881   5.801   5.762   4.875
 3292TIP3    H1 9882   5.813   5.730   4.786
 3292TIP3    H2 9883   5.758   5.847   4.865
 3293TIP3   OH2 9884   2.054   2.313   2.377
 3293TIP3    H1 9885   2.145   2.283   2.369
 3293TIP3    H2 9886   2.059   2.407   2.363
 3294TIP3   OH2 9887   6.184   3.606   4.898
 3294TIP3    H1 9888   6.242   3.622   4.972
 3294TIP3    H2 9889   6.097   3.631   4.929
 3295TIP3   OH2 9890   0.832   1.222   1.224
 3295TIP3    H1 9891   0.907   1.281   1.217
 3295TIP3    H2 9892   0.858   1.159   1.292
 3296TIP3   OH2 9893   0.426   5.858   4.788
 3296TIP3    H1 9894   0.429   5.888   4.697
 3296TIP3    H2 9895   0.390   5.770   4.783
 3297TIP3   OH2 9896   1.046   5.680   2.177
 3297TIP3    H1 9897   1.065   5.747   2.111
 3297TIP3    H2 9898   0.951   5.669   2.173
 3298TIP3   OH2 9899   4.384   3.702   0.146
 3298TIP3    H1 9900   4.365   3.629   0.087
 3298TIP3    H2 9901   4.476   3.691   0.169
 3299TIP3   OH2 9902   2.726   0.717   1.440
 3299TIP3    H1 9903   2.729   0.691   1.532
 3299TIP3    H2 9904   2.774   0.800   1.438
 3300TIP3   OH2 9905   5.333   4.529   1.493
 3300TIP3    H1 9906   5.346   4.608   1.440
 3300TIP3    H2 9907   5.419   4.511   1.531
 3301TIP3   OH2 9908   2.792   0.401   2.497
 3301TIP3    H1 9909   2.766   0.492   2.481
 3301TIP3    H2 9910   2.888   0.401   2.488
 3302TIP3   OH2 9911   4.948   4.103   0.231
 3302TIP3    H1 9912   5.023   4.045   0.223
 3302TIP3    H2 9913   4.908   4.103   0.144
 3303TIP3   OH2 9914   3.626   1.783   0.207
 3303TIP3    H1 9915   3.658   1.693   0.213
 3303TIP3    H2 9916   3.584   1.799   0.292
 3304TIP3   OH2 9917   5.923   4.212   4.126
 3304TIP3    H1 9918   5.927   4.120   4.154
 3304TIP3    H2 9919   5.905   4.207   4.032
 3305TIP3   OH2 9920  -0.008   5.604   3.482
 3305TIP3    H1 9921  -0.003   5.676   3.545
 3305TIP3    H2 9922   0.083   5.587   3.458
 3306TIP3   OH2 9923   5.997   4.564   0.335
 3306TIP3    H1 9924   5.958   4.519   0.410
 3306TIP3    H2 9925   5.924   4.575   0.273
 3307TIP3   OH2 9926   4.031   4.141   2.028
 3307TIP3    H1 9927   4.070   4.055   2.036
 3307TIP3    H2 9928   4.022   4.154   1.933
 3308TIP3   OH2 9929   3.973   3.036   0.776
 3308TIP3    H1 9930   3.988   3.021   0.869
 3308TIP3    H2 9931   3.888   3.080   0.772
 3309TIP3   OH2 9932   5.240   2.232   4.012
 3309TIP3    H1 9933   5.281   2.202   4.093
 3309TIP3    H2 9934   5.313   2.247   3.952
 3310TIP3   OH2 9935   2.387   1.502   0.666
 3310TIP3    H1 9936   2.473   1.467   0.644
 3310TIP3    H2 9937   2.405   1.587   0.706
 3311TIP3   OH2 9938   0.120   3.041   2.914
 3311TIP3    H1 9939   0.091   3.028   2.824
 3311TIP3    H2 9940   0.120   3.136   2.925
 3312TIP3   OH2 9941   0.196   4.446   0.076
 3312TIP3    H1 9942   0.145   4.375   0.116
 3312TIP3    H2 9943   0.136   4.485   0.012
 3313TIP3   OH2 9944   4.798   3.067   0.989
 3313TIP3    H1 9945   4.791   3.145   0.933
 3313TIP3    H2 9946   4.715   3.065   1.037
 3314TIP3   OH2 9947   3.522   4.930   2.767
 3314TIP3    H1 9948   3.440   4.980   2.763
 3314TIP3    H2 9949   3.541   4.922   2.860
 3315TIP3   OH2 9950   3.072   2.840   1.686
 3315TIP3    H1 9951   3.083   2.933   1.668
 3315TIP3    H2 9952   3.057   2.800   1.600
 3316TIP3   OH2 9953   4.616   2.405   2.273
 3316TIP3    H1 9954   4.557   2.378   2.343
 3316TIP3    H2 9955   4.593   2.350   2.199
 3317TIP3   OH2 9956   1.576   2.968   0.353
 3317TIP3    H1 9957   1.571   2.917   0.272
 3317TIP3    H2 9958   1.602   2.906   0.420
 3318TIP3   OH2 9959   1.589   4.477   5.057
 3318TIP3    H1 9960   1.655   4.477   5.126
 3318TIP3    H2 9961   1.557   4.387   5.054
 3319TIP3   OH2 9962   3.232   3.143   4.480
 3319TIP3    H1 9963   3.170   3.166   4.410
 3319TIP3    H2 9964   3.252   3.051   4.464
 3320TIP3   OH2 9965   2.249   5.933   2.561
 3320TIP3    H1 9966   2.210   5.939   2.648
 3320TIP3    H2 9967   2.246   5.840   2.540
 3321TIP3   OH2 9968   4.365   1.946   4.421
 3321TIP3    H1 9969   4.355   2.039   4.400
 3321TIP3    H2 9970   4.351   1.901   4.338
 3322TIP3   OH2 9971   2.030   0.698   0.338
 3322TIP3    H1 9972   2.117   0.658   0.342
 3322TIP3    H2 9973   2.011   0.721   0.429
 3323TIP3   OH2 9974   2.488   4.724   1.812
 3323TIP3    H1 9975   2.576   4.748   1.841
 3323TIP3    H2 9976   2.499   4.698   1.721
 3324TIP3   OH2 9977   5.775   1.108   4.218
 3324TIP3    H1 9978   5.749   1.104   4.126
 3324TIP3    H2 9979   5.717   1.046   4.262
 3325TIP3   OH2 9980   4.413   0.111   3.275
 3325TIP3    H1 9981   4.467   0.148   3.345
 3325TIP3    H2 9982   4.463   0.126   3.195
 3326TIP3   OH2 9983   4.245   3.932   2.627
 3326TIP3    H1 9984   4.240   3.982   2.546
 3326TIP3    H2 9985   4.189   3.856   2.612
 3327TIP3   OH2 9986   3.839   1.184   2.188
 3327TIP3    H1 9987   3.760   1.143   2.224
 3327TIP3    H2 9988   3.813   1.273   2.168
 3328TIP3   OH2 9989   4.093   3.162   4.615
 3328TIP3    H1 9990   4.068   3.230   4.678
 3328TIP3    H2 9991   4.096   3.208   4.530
 3329TIP3   OH2 9992   2.472   5.260   0.525
 3329TIP3    H1 9993   2.564   5.261   0.551
 3329TIP3    H2 9994   2.445   5.352   0.529
 3330TIP3   OH2 9995   1.985   3.228   1.275
 3330TIP3    H1 9996   2.011   3.253   1.187
 3330TIP3    H2 9997   1.889   3.219   1.270
 3331TIP3   OH2 9998   2.315   0.929   0.379
 3331TIP3    H1 9999   2.298   0.974   0.462
 3331TIP3    H210000   2.403   0.955   0.354
 3332TIP3   OH210001   3.762   4.012   5.011
 3332TIP3    H110002   3.804   4.093   4.981
 3332TIP3    H210003   3.684   4.005   4.956
 3333TIP3   OH210004   2.468   3.201   4.990
 3333TIP3    H110005   2.482   3.234   4.902
 3333TIP3    H210006   2.374   3.185   4.995
 3334TIP3   OH210007   6.201   5.085   2.523
 3334TIP3    H110008   6.224   5.159   2.579
 3334TIP3    H210009   6.283   5.060   2.481
 3335TIP3   OH210010   4.577   2.152   0.094
 3335TIP3    H110011   4.629   2.072   0.086
 3335TIP3    H210012   4.613   2.197   0.171
 3336TIP3   OH210013   3.900   2.987   4.375
 3336TIP3    H110014   3.962   2.996   4.302
 3336TIP3    H210015   3.930   2.910   4.422
 3337TIP3   OH210016   1.116   0.297   4.229
 3337TIP3    H110017   1.106   0.280   4.136
 3337TIP3    H210018   1.066   0.228   4.272
 3338TIP3   OH210019   3.273   1.907   1.708
 3338TIP3    H110020   3.278   1.842   1.778
 3338TIP3    H210021   3.363   1.919   1.680
 3339TIP3   OH210022   2.717   1.510   1.218
 3339TIP3    H110023   2.787   1.447   1.229
 3339TIP3    H210024   2.737   1.580   1.281
 3340TIP3   OH210025   3.634   4.591   2.624
 3340TIP3    H110026   3.626   4.502   2.592
 3340TIP3    H210027   3.593   4.589   2.711
 3341TIP3   OH210028   2.115   1.404   2.539
 3341TIP3    H110029   2.136   1.391   2.631
 3341TIP3    H210030   2.032   1.452   2.540
 3342TIP3   OH210031   4.621   0.085   1.997
 3342TIP3    H110032   4.584   0.036   1.923
 3342TIP3    H210033   4.565   0.062   2.071
 3343TIP3   OH210034   3.912   2.275   0.663
 3343TIP3    H110035   3.857   2.205   0.697
 3343TIP3    H210036   3.866   2.307   0.586
 3344TIP3   OH210037   4.790   5.096   1.863
 3344TIP3    H110038   4.750   5.149   1.931
 3344TIP3    H210039   4.881   5.126   1.861
 3345TIP3   OH210040   4.594   3.415   1.768
 3345TIP3    H110041   4.569   3.483   1.705
 3345TIP3    H210042   4.622   3.341   1.714
 3346TIP3   OH210043   6.314   5.519   4.413
 3346TIP3    H110044   6.394   5.492   4.369
 3346TIP3    H210045   6.244   5.500   4.350
 3347TIP3   OH210046   3.738   5.590   0.252
 3347TIP3    H110047   3.727   5.497   0.273
 3347TIP3    H210048   3.759   5.591   0.158
 3348TIP3   OH210049   1.621   0.648   1.987
 3348TIP3    H110050   1.624   0.603   1.903
 3348TIP3    H210051   1.676   0.595   2.044
 3349TIP3   OH210052   3.675   2.152   0.735
 3349TIP3    H110053   3.707   2.062   0.745
 3349TIP3    H210054   3.652   2.180   0.824
 3350TIP3   OH210055   5.459   1.277   3.669
 3350TIP3    H110056   5.480   1.340   3.738
 3350TIP3    H210057   5.398   1.216   3.711
 3351TIP3   OH210058   2.700   3.425   2.891
 3351TIP3    H110059   2.788   3.403   2.921
 3351TIP3    H210060   2.647   3.348   2.913
 3352TIP3   OH210061   3.402   3.046   4.190
 3352TIP3    H110062   3.445   2.992   4.124
 3352TIP3    H210063   3.468   3.060   4.258
 3353TIP3   OH210064   0.354   3.757   3.741
 3353TIP3    H110065   0.307   3.680   3.772
 3353TIP3    H210066   0.356   3.816   3.817
 3354TIP3   OH210067   3.882   3.664   0.504
 3354TIP3    H110068   3.956   3.722   0.489
 3354TIP3    H210069   3.903   3.585   0.454
 3355TIP3   OH210070   0.546   5.626   2.972
 3355TIP3    H110071   0.547   5.542   2.927
 3355TIP3    H210072   0.567   5.690   2.904
 3356TIP3   OH210073   3.212   4.215   1.576
 3356TIP3    H110074   3.162   4.272   1.518
 3356TIP3    H210075   3.299   4.209   1.536
 3357TIP3   OH210076   1.493   2.625   4.019
 3357TIP3    H110077   1.434   2.616   3.944
 3357TIP3    H210078   1.487   2.717   4.043
 3358TIP3   OH210079   1.417   5.970   2.531
 3358TIP3    H110080   1.496   5.916   2.537
 3358TIP3    H210081   1.426   6.016   2.448
 3359TIP3   OH210082   3.001   1.896   1.648
 3359TIP3    H110083   3.045   1.833   1.705
 3359TIP3    H210084   2.975   1.967   1.707
 3360TIP3   OH210085   0.252   5.576   3.350
 3360TIP3    H110086   0.266   5.614   3.263
 3360TIP3    H210087   0.299   5.493   3.347
 3361TIP3   OH210088   0.261   0.807   3.090
 3361TIP3    H110089   0.324   0.853   3.147
 3361TIP3    H210090   0.279   0.714   3.105
 3362TIP3   OH210091   4.975   1.684   0.814
 3362TIP3    H110092   4.962   1.590   0.803
 3362TIP3    H210093   4.914   1.724   0.752
 3363TIP3   OH210094   3.903   1.618   4.849
 3363TIP3    H110095   3.908   1.602   4.755
 3363TIP3    H210096   3.893   1.531   4.888
 3364TIP3   OH210097   3.489   1.144   4.358
 3364TIP3    H110098   3.462   1.120   4.447
 3364TIP3    H210099   3.583   1.157   4.364
 3365TIP3   OH210100   6.282   1.476   1.653
 3365TIP3    H110101   6.199   1.485   1.606
 3365TIP3    H210102   6.320   1.395   1.620
 3366TIP3   OH210103   3.310   1.333   3.420
 3366TIP3    H110104   3.359   1.310   3.341
 3366TIP3    H210105   3.232   1.378   3.386
 3367TIP3   OH210106   5.291   4.727   3.420
 3367TIP3    H110107   5.203   4.693   3.430
 3367TIP3    H210108   5.290   4.810   3.467
 3368TIP3   OH210109   2.964   2.482   2.529
 3368TIP3    H110110   2.880   2.522   2.503
 3368TIP3    H210111   3.023   2.502   2.457
 3369TIP3   OH210112   5.737   3.056   2.899
 3369TIP3    H110113   5.679   3.010   2.838
 3369TIP3    H210114   5.825   3.044   2.863
 3370TIP3   OH210115   1.481   1.996   1.105
 3370TIP3    H110116   1.431   1.923   1.068
 3370TIP3    H210117   1.544   1.954   1.164
 3371TIP3   OH210118   1.140   2.608   4.827
 3371TIP3    H110119   1.203   2.679   4.827
 3371TIP3    H210120   1.162   2.556   4.904
 3372TIP3   OH210121   3.868   4.306   0.827
 3372TIP3    H110122   3.963   4.302   0.817
 3372TIP3    H210123   3.848   4.237   0.890
 3373TIP3   OH210124   5.417   2.961   3.695
 3373TIP3    H110125   5.509   2.939   3.709
 3373TIP3    H210126   5.412   2.988   3.604
 3374TIP3   OH210127   3.823   2.800   1.660
 3374TIP3    H110128   3.902   2.803   1.714
 3374TIP3    H210129   3.799   2.707   1.657
 3375TIP3   OH210130   0.877   4.849   3.256
 3375TIP3    H110131   0.947   4.911   3.277
 3375TIP3    H210132   0.815   4.899   3.203
 3376TIP3   OH210133   5.759   1.720   0.097
 3376TIP3    H110134   5.715   1.661   0.036
 3376TIP3    H210135   5.848   1.685   0.102
 3377TIP3   OH210136   3.024   2.843   4.238
 3377TIP3    H110137   2.978   2.812   4.316
 3377TIP3    H210138   3.081   2.770   4.213
 3378TIP3   OH210139   5.755   2.553   1.484
 3378TIP3    H110140   5.784   2.618   1.548
 3378TIP3    H210141   5.733   2.604   1.406
 3379TIP3   OH210142   1.253   3.774   0.843
 3379TIP3    H110143   1.203   3.855   0.831
 3379TIP3    H210144   1.245   3.755   0.937
 3380TIP3   OH210145   3.425   0.705   3.719
 3380TIP3    H110146   3.369   0.721   3.796
 3380TIP3    H210147   3.373   0.734   3.645
 3381TIP3   OH210148   5.086   2.562   3.884
 3381TIP3    H110149   5.040   2.482   3.909
 3381TIP3    H210150   5.133   2.538   3.804
 3382TIP3   OH210151   0.936   1.936   4.911
 3382TIP3    H110152   0.984   1.856   4.933
 3382TIP3    H210153   0.845   1.907   4.901
 3383TIP3   OH210154   1.733   0.069   4.997
 3383TIP3    H110155   1.764   0.056   4.908
 3383TIP3    H210156   1.640   0.047   4.994
 3384TIP3   OH210157   2.653   0.040   3.113
 3384TIP3    H110158   2.622  -0.013   3.040
 3384TIP3    H210159   2.601   0.011   3.188
 3385TIP3   OH210160   2.725   3.574   4.774
 3385TIP3    H110161   2.728   3.557   4.868
 3385TIP3    H210162   2.640   3.615   4.759
 3386TIP3   OH210163   1.905   0.642   0.909
 3386TIP3    H110164   1.912   0.568   0.970
 3386TIP3    H210165   1.814   0.640   0.880
 3387TIP3   OH210166   2.856   0.731   0.402
 3387TIP3    H110167   2.848   0.824   0.426
 3387TIP3    H210168   2.886   0.732   0.311
 3388TIP3   OH210169   0.904   3.476   0.450
 3388TIP3    H110170   0.983   3.529   0.438
 3388TIP3    H210171   0.923   3.394   0.405
 3389TIP3   OH210172   3.895   1.961   3.242
 3389TIP3    H110173   3.940   1.925   3.165
 3389TIP3    H210174   3.870   2.050   3.215
 3390TIP3   OH210175   2.716   3.564   5.039
 3390TIP3    H110176   2.756   3.536   5.121
 3390TIP3    H210177   2.712   3.660   5.046
 3391TIP3   OH210178   4.595   0.195   3.463
 3391TIP3    H110179   4.606   0.132   3.534
 3391TIP3    H210180   4.606   0.280   3.506
 3392TIP3   OH210181   0.604   4.491   3.559
 3392TIP3    H110182   0.657   4.416   3.583
 3392TIP3    H210183   0.620   4.504   3.466
 3393TIP3   OH210184   2.413   1.237   0.164
 3393TIP3    H110185   2.469   1.194   0.099
 3393TIP3    H210186   2.462   1.229   0.246
 3394TIP3   OH210187   4.975   3.016   4.854
 3394TIP3    H110188   5.041   2.957   4.892
 3394TIP3    H210189   5.026   3.073   4.796
 3395TIP3   OH210190   3.662   4.110   0.863
 3395TIP3    H110191   3.571   4.105   0.892
 3395TIP3    H210192   3.657   4.124   0.769
 3396TIP3   OH210193   0.937   4.547   1.888
 3396TIP3    H110194   0.924   4.606   1.813
 3396TIP3    H210195   0.865   4.484   1.881
 3397TIP3   OH210196   2.320   3.154   0.184
 3397TIP3    H110197   2.344   3.183   0.096
 3397TIP3    H210198   2.233   3.115   0.173
 3398TIP3   OH210199   4.644   2.747   1.887
 3398TIP3    H110200   4.561   2.710   1.915
 3398TIP3    H210201   4.664   2.813   1.953
 3399TIP3   OH210202   0.957   0.347   0.291
 3399TIP3    H110203   1.026   0.363   0.227
 3399TIP3    H210204   0.991   0.385   0.372
 3400TIP3   OH210205   4.103   1.178   3.265
 3400TIP3    H110206   4.026   1.141   3.222
 3400TIP3    H210207   4.153   1.219   3.193
 3401TIP3   OH210208   2.841   3.703   3.828
 3401TIP3    H110209   2.879   3.660   3.751
 3401TIP3    H210210   2.910   3.762   3.858
 3402TIP3   OH210211   4.064   0.459   3.065
 3402TIP3    H110212   4.041   0.436   3.155
 3402TIP3    H210213   3.989   0.508   3.032
 3403TIP3   OH210214   1.055   0.935   3.297
 3403TIP3    H110215   0.982   0.955   3.356
 3403TIP3    H210216   1.033   0.981   3.216
 3404TIP3   OH210217   0.853   2.190   0.830
 3404TIP3    H110218   0.787   2.258   0.831
 3404TIP3    H210219   0.830   2.132   0.903
 3405TIP3   OH210220   2.281   3.024   4.636
 3405TIP3    H110221   2.285   3.026   4.732
 3405TIP3    H210222   2.210   3.084   4.614
 3406TIP3   OH210223   2.721   1.154   3.666
 3406TIP3    H110224   2.741   1.185   3.755
 3406TIP3    H210225   2.790   1.091   3.647
 3407TIP3   OH210226   2.938   5.122   3.077
 3407TIP3    H110227   2.997   5.188   3.112
 3407TIP3    H210228   2.895   5.084   3.153
 3408TIP3   OH210229   5.489   3.581   0.513
 3408TIP3    H110230   5.467   3.642   0.442
 3408TIP3    H210231   5.507   3.637   0.588
 3409TIP3   OH210232   3.679   1.210   3.390
 3409TIP3    H110233   3.665   1.247   3.303
 3409TIP3    H210234   3.613   1.140   3.397
 3410TIP3   OH210235   1.153   0.251   3.924
 3410TIP3    H110236   1.066   0.232   3.888
 3410TIP3    H210237   1.179   0.170   3.968
 3411TIP3   OH210238   4.734   3.900   1.969
 3411TIP3    H110239   4.809   3.855   2.007
 3411TIP3    H210240   4.675   3.830   1.941
 3412TIP3   OH210241   3.338   5.219   4.634
 3412TIP3    H110242   3.277   5.279   4.677
 3412TIP3    H210243   3.287   5.179   4.563
 3413TIP3   OH210244   2.562   5.632   4.750
 3413TIP3    H110245   2.554   5.545   4.711
 3413TIP3    H210246   2.627   5.622   4.819
 3414TIP3   OH210247   4.657   3.312   0.345
 3414TIP3    H110248   4.688   3.248   0.409
 3414TIP3    H210249   4.561   3.307   0.351
 3415TIP3   OH210250   1.865   2.079   4.936
 3415TIP3    H110251   1.859   2.173   4.954
 3415TIP3    H210252   1.775   2.048   4.943
 3416TIP3   OH210253   3.506   5.880   0.199
 3416TIP3    H110254   3.519   5.961   0.249
 3416TIP3    H210255   3.493   5.812   0.264
 3417TIP3   OH210256   0.514   0.644   4.338
 3417TIP3    H110257   0.460   0.692   4.400
 3417TIP3    H210258   0.587   0.703   4.319
 3418TIP3   OH210259   0.206   2.728   0.426
 3418TIP3    H110260   0.265   2.757   0.357
 3418TIP3    H210261   0.195   2.634   0.411
 3419TIP3   OH210262   1.825   3.227   2.144
 3419TIP3    H110263   1.884   3.286   2.191
 3419TIP3    H210264   1.879   3.191   2.073
 3420TIP3   OH210265   6.070   2.142   2.829
 3420TIP3    H110266   6.153   2.134   2.781
 3420TIP3    H210267   6.002   2.129   2.762
 3421TIP3   OH210268   5.140   2.112   4.557
 3421TIP3    H110269   5.103   2.026   4.536
 3421TIP3    H210270   5.110   2.169   4.485
 3422TIP3   OH210271   4.379   0.839   4.561
 3422TIP3    H110272   4.319   0.779   4.515
 3422TIP3    H210273   4.442   0.866   4.494
 3423TIP3   OH210274   2.266   0.776   4.133
 3423TIP3    H110275   2.284   0.683   4.147
 3423TIP3    H210276   2.281   0.789   4.039
 3424TIP3   OH210277   3.207   0.495   2.779
 3424TIP3    H110278   3.141   0.490   2.849
 3424TIP3    H210279   3.261   0.417   2.792
 3425TIP3   OH210280   0.733   5.969   3.775
 3425TIP3    H110281   0.812   5.966   3.829
 3425TIP3    H210282   0.723   5.880   3.742
 3426TIP3   OH210283   3.699   2.522   1.914
 3426TIP3    H110284   3.629   2.506   1.977
 3426TIP3    H210285   3.743   2.601   1.946
 3427TIP3   OH210286   4.386   5.256   1.312
 3427TIP3    H110287   4.301   5.210   1.309
 3427TIP3    H210288   4.394   5.297   1.226
 3428TIP3   OH210289   4.342   4.746   1.213
 3428TIP3    H110290   4.410   4.686   1.183
 3428TIP3    H210291   4.304   4.703   1.290
 3429TIP3   OH210292   3.467   1.611   3.291
 3429TIP3    H110293   3.454   1.650   3.378
 3429TIP3    H210294   3.554   1.639   3.265
 3430TIP3   OH210295   1.887   5.196   3.228
 3430TIP3    H110296   1.923   5.154   3.149
 3430TIP3    H210297   1.823   5.132   3.261
 3431TIP3   OH210298   1.042   0.230   2.583
 3431TIP3    H110299   1.129   0.269   2.583
 3431TIP3    H210300   0.984   0.301   2.611
 3432TIP3   OH210301   0.774   5.173   2.246
 3432TIP3    H110302   0.703   5.232   2.221
 3432TIP3    H210303   0.757   5.152   2.338
 3433TIP3   OH210304   5.833   1.730   2.889
 3433TIP3    H110305   5.808   1.643   2.857
 3433TIP3    H210306   5.756   1.785   2.870
 3434TIP3   OH210307   6.098   3.235   2.669
 3434TIP3    H110308   6.124   3.246   2.577
 3434TIP3    H210309   6.044   3.311   2.688
 3435TIP3   OH210310   3.169  -0.037   2.032
 3435TIP3    H110311   3.237   0.026   2.054
 3435TIP3    H210312   3.087   0.013   2.035
 3436TIP3   OH210313   5.692   0.192   0.729
 3436TIP3    H110314   5.614   0.140   0.751
 3436TIP3    H210315   5.691   0.199   0.634
 3437TIP3   OH210316   4.166   2.261   0.304
 3437TIP3    H110317   4.157   2.346   0.348
 3437TIP3    H210318   4.186   2.282   0.213
 3438TIP3   OH210319   2.643   0.351   2.198
 3438TIP3    H110320   2.701   0.331   2.271
 3438TIP3    H210321   2.690   0.416   2.147
 3439TIP3   OH210322   0.322   1.968   0.814
 3439TIP3    H110323   0.352   1.935   0.899
 3439TIP3    H210324   0.249   2.026   0.836
 3440TIP3   OH210325   3.833   0.203   1.819
 3440TIP3    H110326   3.745   0.238   1.825
 3440TIP3    H210327   3.876   0.229   1.901
 3441TIP3   OH210328   5.619   5.025   3.351
 3441TIP3    H110329   5.565   5.039   3.429
 3441TIP3    H210330   5.661   4.940   3.365
 3442TIP3   OH210331   3.800   2.799   2.039
 3442TIP3    H110332   3.743   2.825   2.111
 3442TIP3    H210333   3.861   2.736   2.078
 3443TIP3   OH210334   2.990   0.413   5.076
 3443TIP3    H110335   2.976   0.368   4.992
 3443TIP3    H210336   3.006   0.342   5.138
 3444TIP3   OH210337   5.817   2.610   0.400
 3444TIP3    H110338   5.832   2.516   0.391
 3444TIP3    H210339   5.754   2.631   0.331
 3445TIP3   OH210340   2.098   2.008   5.063
 3445TIP3    H110341   2.086   1.935   5.123
 3445TIP3    H210342   2.011   2.024   5.026
 3446TIP3   OH210343   3.125   3.416   0.119
 3446TIP3    H110344   3.096   3.369   0.197
 3446TIP3    H210345   3.047   3.462   0.088
 3447TIP3   OH210346   5.375   2.880   1.180
 3447TIP3    H110347   5.324   2.945   1.133
 3447TIP3    H210348   5.327   2.798   1.166
 3448TIP3   OH210349   4.273   5.189   3.796
 3448TIP3    H110350   4.237   5.108   3.759
 3448TIP3    H210351   4.297   5.242   3.719
 3449TIP3   OH210352   3.048   1.456   2.554
 3449TIP3    H110353   3.039   1.550   2.542
 3449TIP3    H210354   3.143   1.441   2.556
 3450TIP3   OH210355   5.243   2.356   1.062
 3450TIP3    H110356   5.184   2.425   1.091
 3450TIP3    H210357   5.235   2.355   0.967
 3451TIP3   OH210358   6.040   1.919   4.551
 3451TIP3    H110359   6.104   1.940   4.619
 3451TIP3    H210360   5.980   1.857   4.593
 3452TIP3   OH210361   5.591   0.957   2.385
 3452TIP3    H110362   5.505   0.979   2.420
 3452TIP3    H210363   5.652   1.011   2.435
 3453TIP3   OH210364   3.450   3.787   0.466
 3453TIP3    H110365   3.436   3.848   0.539
 3453TIP3    H210366   3.362   3.757   0.444
 3454TIP3   OH210367   1.666   5.403   1.715
 3454TIP3    H110368   1.716   5.333   1.757
 3454TIP3    H210369   1.676   5.478   1.774
 3455TIP3   OH210370   4.430   3.700   2.629
 3455TIP3    H110371   4.429   3.791   2.601
 3455TIP3    H210372   4.391   3.701   2.716
 3456TIP3   OH210373   4.537   4.508   3.880
 3456TIP3    H110374   4.450   4.471   3.899
 3456TIP3    H210375   4.522   4.602   3.875
 3457TIP3   OH210376   3.507   3.374   4.027
 3457TIP3    H110377   3.478   3.286   4.002
 3457TIP3    H210378   3.600   3.365   4.046
 3458TIP3   OH210379   0.869   4.042   4.760
 3458TIP3    H110380   0.866   3.987   4.838
 3458TIP3    H210381   0.780   4.040   4.726
 3459TIP3   OH210382   3.129   5.800   3.320
 3459TIP3    H110383   3.054   5.855   3.297
 3459TIP3    H210384   3.114   5.718   3.274
 3460TIP3   OH210385   6.036   3.510   3.204
 3460TIP3    H110386   5.989   3.474   3.279
 3460TIP3    H210387   6.069   3.594   3.236
 3461TIP3   OH210388   5.939   5.482   0.030
 3461TIP3    H110389   5.956   5.562  -0.018
 3461TIP3    H210390   5.864   5.503   0.087
 3462TIP3   OH210391   4.239   3.257   1.188
 3462TIP3    H110392   4.312   3.310   1.219
 3462TIP3    H210393   4.246   3.258   1.093
 3463TIP3   OH210394   4.982   2.130   2.492
 3463TIP3    H110395   4.954   2.166   2.407
 3463TIP3    H210396   5.060   2.079   2.472
 3464TIP3   OH210397   2.286   1.071   3.217
 3464TIP3    H110398   2.281   1.079   3.122
 3464TIP3    H210399   2.323   0.984   3.232
 3465TIP3   OH210400   4.787   3.501   4.903
 3465TIP3    H110401   4.873   3.532   4.874
 3465TIP3    H210402   4.725   3.555   4.853
 3466TIP3   OH210403   0.369   0.468   3.447
 3466TIP3    H110404   0.331   0.483   3.533
 3466TIP3    H210405   0.368   0.373   3.437
 3467TIP3   OH210406   5.514   4.557   3.057
 3467TIP3    H110407   5.604   4.525   3.053
 3467TIP3    H210408   5.461   4.486   3.021
 3468TIP3   OH210409   1.708   2.520   0.073
 3468TIP3    H110410   1.704   2.587   0.141
 3468TIP3    H210411   1.675   2.562  -0.006
 3469TIP3   OH210412   2.313   4.779   4.551
 3469TIP3    H110413   2.352   4.855   4.506
 3469TIP3    H210414   2.383   4.747   4.608
 3470TIP3   OH210415   2.946   2.553   3.059
 3470TIP3    H110416   3.022   2.582   3.008
 3470TIP3    H210417   2.929   2.464   3.028
 3471TIP3   OH210418   0.942   1.386   0.952
 3471TIP3    H110419   0.944   1.326   0.877
 3471TIP3    H210420   0.890   1.461   0.922
 3472TIP3   OH210421   5.914   2.906   0.905
 3472TIP3    H110422   5.865   2.874   0.830
 3472TIP3    H210423   5.923   2.831   0.963
 3473TIP3   OH210424   5.665   1.224   0.598
 3473TIP3    H110425   5.706   1.277   0.667
 3473TIP3    H210426   5.577   1.260   0.589
 3474TIP3   OH210427   2.976   0.454   1.082
 3474TIP3    H110428   2.941   0.480   1.167
 3474TIP3    H210429   2.949   0.363   1.072
 3475TIP3   OH210430   3.242   1.459   0.706
 3475TIP3    H110431   3.202   1.494   0.786
 3475TIP3    H210432   3.308   1.523   0.682
 3476TIP3   OH210433   2.266   2.160   2.263
 3476TIP3    H110434   2.217   2.096   2.212
 3476TIP3    H210435   2.311   2.108   2.330
 3477TIP3   OH210436   3.608   5.402   3.406
 3477TIP3    H110437   3.701   5.383   3.418
 3477TIP3    H210438   3.568   5.384   3.491
 3478TIP3   OH210439   2.406   3.122   2.975
 3478TIP3    H110440   2.443   3.105   2.889
 3478TIP3    H210441   2.319   3.081   2.974
 3479TIP3   OH210442   0.693   5.122   2.515
 3479TIP3    H110443   0.718   5.043   2.563
 3479TIP3    H210444   0.764   5.184   2.532
 3480TIP3   OH210445   2.914   0.213   0.364
 3480TIP3    H110446   2.832   0.216   0.413
 3480TIP3    H210447   2.981   0.239   0.427
 3481TIP3   OH210448   0.461   4.436   0.072
 3481TIP3    H110449   0.476   4.525   0.040
 3481TIP3    H210450   0.366   4.428   0.078
 3482TIP3   OH210451   3.438   3.497   2.787
 3482TIP3    H110452   3.493   3.573   2.766
 3482TIP3    H210453   3.366   3.533   2.840
 3483TIP3   OH210454   4.231   1.616   0.675
 3483TIP3    H110455   4.265   1.626   0.764
 3483TIP3    H210456   4.252   1.699   0.632
 3484TIP3   OH210457   3.580   3.395   4.409
 3484TIP3    H110458   3.624   3.359   4.485
 3484TIP3    H210459   3.487   3.373   4.422
 3485TIP3   OH210460   3.694   0.214   3.460
 3485TIP3    H110461   3.655   0.134   3.496
 3485TIP3    H210462   3.640   0.235   3.384
 3486TIP3   OH210463   4.038   0.572   0.788
 3486TIP3    H110464   3.966   0.634   0.796
 3486TIP3    H210465   4.007   0.506   0.726
 3487TIP3   OH210466   1.229   1.546   0.880
 3487TIP3    H110467   1.225   1.597   0.961
 3487TIP3    H210468   1.195   1.460   0.904
 3488TIP3   OH210469   6.023   5.278   1.429
 3488TIP3    H110470   5.965   5.280   1.353
 3488TIP3    H210471   6.043   5.370   1.447
 3489TIP3   OH210472   3.821   3.103   4.941
 3489TIP3    H110473   3.894   3.155   4.908
 3489TIP3    H210474   3.762   3.168   4.980
 3490TIP3   OH210475   2.784   4.130   5.068
 3490TIP3    H110476   2.820   4.081   5.142
 3490TIP3    H210477   2.822   4.088   4.990
 3491TIP3   OH210478   0.131   1.384   4.219
 3491TIP3    H110479   0.062   1.377   4.284
 3491TIP3    H210480   0.095   1.345   4.140
 3492TIP3   OH210481   1.688   4.918   0.978
 3492TIP3    H110482   1.629   4.898   0.905
 3492TIP3    H210483   1.672   4.848   1.042
 3493TIP3   OH210484   2.467   3.028   3.878
 3493TIP3    H110485   2.538   3.057   3.821
 3493TIP3    H210486   2.509   3.015   3.963
 3494TIP3   OH210487   0.715   5.361   3.373
 3494TIP3    H110488   0.660   5.432   3.340
 3494TIP3    H210489   0.797   5.404   3.398
 3495TIP3   OH210490   1.645   2.861   2.709
 3495TIP3    H110491   1.560   2.862   2.751
 3495TIP3    H210492   1.641   2.931   2.644
 3496TIP3   OH210493   0.421   1.758   1.039
 3496TIP3    H110494   0.456   1.745   1.127
 3496TIP3    H210495   0.327   1.762   1.051
 3497TIP3   OH210496   2.988   1.319   4.452
 3497TIP3    H110497   2.972   1.398   4.401
 3497TIP3    H210498   3.034   1.349   4.530
 3498TIP3   OH210499   4.640   2.601   1.624
 3498TIP3    H110500   4.607   2.656   1.554
 3498TIP3    H210501   4.678   2.662   1.687
 3499TIP3   OH210502   4.190   3.094   0.527
 3499TIP3    H110503   4.158   3.184   0.522
 3499TIP3    H210504   4.146   3.057   0.604
 3500TIP3   OH210505   4.116   4.385   1.833
 3500TIP3    H110506   4.206   4.361   1.854
 3500TIP3    H210507   4.070   4.301   1.827
 3501TIP3   OH210508   3.120   2.536   2.740
 3501TIP3    H110509   3.121   2.630   2.725
 3501TIP3    H210510   3.069   2.500   2.667
 3502TIP3   OH210511   5.914   5.089   3.040
 3502TIP3    H110512   5.849   5.159   3.052
 3502TIP3    H210513   5.996   5.127   3.071
 3503TIP3   OH210514   4.341   5.274   0.867
 3503TIP3    H110515   4.306   5.283   0.956
 3503TIP3    H210516   4.266   5.289   0.810
 3504TIP3   OH210517   0.613   2.482   0.193
 3504TIP3    H110518   0.614   2.405   0.135
 3504TIP3    H210519   0.705   2.508   0.198
 3505TIP3   OH210520   5.500   3.211   0.676
 3505TIP3    H110521   5.462   3.283   0.726
 3505TIP3    H210522   5.517   3.143   0.741
 3506TIP3   OH210523   1.489   2.078   0.729
 3506TIP3    H110524   1.401   2.066   0.765
 3506TIP3    H210525   1.475   2.101   0.638
 3507TIP3   OH210526   2.846   4.626   5.125
 3507TIP3    H110527   2.865   4.626   5.219
 3507TIP3    H210528   2.792   4.549   5.112
 3508TIP3   OH210529   1.655   4.665   4.863
 3508TIP3    H110530   1.679   4.616   4.942
 3508TIP3    H210531   1.627   4.598   4.801
 3509TIP3   OH210532   3.851   3.816   1.657
 3509TIP3    H110533   3.921   3.769   1.703
 3509TIP3    H210534   3.896   3.859   1.584
 3510TIP3   OH210535   6.117   1.645   1.939
 3510TIP3    H110536   6.165   1.651   1.856
 3510TIP3    H210537   6.138   1.726   1.985
 3511TIP3   OH210538   2.164   1.128   3.822
 3511TIP3    H110539   2.227   1.058   3.840
 3511TIP3    H210540   2.112   1.135   3.903
 3512TIP3   OH210541   4.109   2.376   4.376
 3512TIP3    H110542   4.143   2.415   4.456
 3512TIP3    H210543   4.015   2.364   4.393
 3513TIP3   OH210544   1.647   3.721   2.336
 3513TIP3    H110545   1.673   3.641   2.291
 3513TIP3    H210546   1.610   3.691   2.419
 3514TIP3   OH210547   1.977   0.248   1.621
 3514TIP3    H110548   1.995   0.162   1.657
 3514TIP3    H210549   1.924   0.231   1.543
 3515TIP3   OH210550   1.453   4.688   1.452
 3515TIP3    H110551   1.542   4.710   1.480
 3515TIP3    H210552   1.423   4.766   1.406
 3516TIP3   OH210553   1.347   5.623   3.307
 3516TIP3    H110554   1.433   5.638   3.347
 3516TIP3    H210555   1.285   5.657   3.371
 3517TIP3   OH210556   3.918   5.205   3.945
 3517TIP3    H110557   3.826   5.187   3.962
 3517TIP3    H210558   3.923   5.300   3.937
 3518TIP3   OH210559   6.007   0.080   3.212
 3518TIP3    H110560   5.913   0.067   3.223
 3518TIP3    H210561   6.015   0.168   3.176
 3519TIP3   OH210562   5.386   3.434   0.756
 3519TIP3    H110563   5.390   3.471   0.667
 3519TIP3    H210564   5.349   3.505   0.809
 3520TIP3   OH210565   3.341   1.247   1.541
 3520TIP3    H110566   3.287   1.266   1.618
 3520TIP3    H210567   3.429   1.234   1.575
 3521TIP3   OH210568   4.169   5.779   2.591
 3521TIP3    H110569   4.101   5.833   2.632
 3521TIP3    H210570   4.172   5.699   2.644
 3522TIP3   OH210571   3.698   4.337   0.282
 3522TIP3    H110572   3.774   4.376   0.325
 3522TIP3    H210573   3.701   4.245   0.308
 3523TIP3   OH210574   5.821   1.907   2.078
 3523TIP3    H110575   5.805   1.857   1.998
 3523TIP3    H210576   5.777   1.858   2.147
 3524TIP3   OH210577   5.062   2.615   3.534
 3524TIP3    H110578   5.139   2.567   3.563
 3524TIP3    H210579   5.075   2.704   3.565
 3525TIP3   OH210580   4.538   2.162   3.246
 3525TIP3    H110581   4.556   2.170   3.340
 3525TIP3    H210582   4.590   2.087   3.217
 3526TIP3   OH210583   3.418   3.223   0.150
 3526TIP3    H110584   3.413   3.201   0.244
 3526TIP3    H210585   3.508   3.250   0.136
 3527TIP3   OH210586   0.398   3.134   2.037
 3527TIP3    H110587   0.359   3.071   2.098
 3527TIP3    H210588   0.447   3.081   1.975
 3528TIP3   OH210589   5.354   0.374   2.951
 3528TIP3    H110590   5.321   0.329   3.029
 3528TIP3    H210591   5.389   0.457   2.984
 3529TIP3   OH210592   4.862   1.325   2.684
 3529TIP3    H110593   4.890   1.274   2.608
 3529TIP3    H210594   4.827   1.260   2.745
 3530TIP3   OH210595   2.394   2.948   4.265
 3530TIP3    H110596   2.340   3.025   4.282
 3530TIP3    H210597   2.454   2.944   4.339
 3531TIP3   OH210598   5.524   0.795   2.690
 3531TIP3    H110599   5.560   0.726   2.745
 3531TIP3    H210600   5.564   0.875   2.723
 3532TIP3   OH210601   0.967   2.784   4.695
 3532TIP3    H110602   0.939   2.774   4.604
 3532TIP3    H210603   1.005   2.700   4.719
 3533TIP3   OH210604   5.530   5.845   2.238
 3533TIP3    H110605   5.594   5.774   2.245
 3533TIP3    H210606   5.582   5.924   2.223
 3534TIP3   OH210607   1.005   3.453   2.807
 3534TIP3    H110608   0.956   3.459   2.889
 3534TIP3    H210609   1.027   3.543   2.786
 3535TIP3   OH210610   2.221   3.554   2.307
 3535TIP3    H110611   2.269   3.594   2.379
 3535TIP3    H210612   2.176   3.627   2.264
 3536TIP3   OH210613   1.454   1.658   4.259
 3536TIP3    H110614   1.373   1.647   4.210
 3536TIP3    H210615   1.493   1.738   4.222
 3537TIP3   OH210616   0.355   4.316   2.233
 3537TIP3    H110617   0.328   4.318   2.141
 3537TIP3    H210618   0.347   4.224   2.258
 3538TIP3   OH210619   2.473   4.583   0.296
 3538TIP3    H110620   2.429   4.609   0.215
 3538TIP3    H210621   2.402   4.565   0.357
 3539TIP3   OH210622   2.751   1.202   4.421
 3539TIP3    H110623   2.746   1.159   4.507
 3539TIP3    H210624   2.841   1.233   4.415
 3540TIP3   OH210625   2.980   4.754   1.131
 3540TIP3    H110626   2.987   4.780   1.039
 3540TIP3    H210627   2.886   4.745   1.147
 3541TIP3   OH210628   2.172   1.589   3.039
 3541TIP3    H110629   2.092   1.608   3.088
 3541TIP3    H210630   2.188   1.668   2.987
 3542TIP3   OH210631   3.740   5.890   5.180
 3542TIP3    H110632   3.732   5.801   5.145
 3542TIP3    H210633   3.715   5.947   5.108
 3543TIP3   OH210634   4.045   3.641   2.834
 3543TIP3    H110635   3.972   3.701   2.828
 3543TIP3    H210636   4.066   3.620   2.742
 3544TIP3   OH210637   3.821   4.632   1.348
 3544TIP3    H110638   3.878   4.595   1.280
 3544TIP3    H210639   3.795   4.557   1.402
 3545TIP3   OH210640   5.512   5.476   4.153
 3545TIP3    H110641   5.589   5.508   4.106
 3545TIP3    H210642   5.467   5.420   4.090
 3546TIP3   OH210643   0.701   4.889   2.162
 3546TIP3    H110644   0.634   4.956   2.149
 3546TIP3    H210645   0.662   4.809   2.127
 3547TIP3   OH210646   0.331   5.347   4.576
 3547TIP3    H110647   0.337   5.443   4.573
 3547TIP3    H210648   0.268   5.326   4.507
 3548TIP3   OH210649   3.898   2.651   3.048
 3548TIP3    H110650   3.829   2.629   2.985
 3548TIP3    H210651   3.979   2.620   3.006
 3549TIP3   OH210652   4.949   4.554   3.300
 3549TIP3    H110653   5.025   4.529   3.248
 3549TIP3    H210654   4.878   4.500   3.267
 3550TIP3   OH210655   5.615   0.410   2.570
 3550TIP3    H110656   5.622   0.502   2.544
 3550TIP3    H210657   5.590   0.365   2.489
 3551TIP3   OH210658   4.198   3.908   0.152
 3551TIP3    H110659   4.151   3.881   0.073
 3551TIP3    H210660   4.268   3.843   0.161
 3552TIP3   OH210661   4.826   2.159   4.862
 3552TIP3    H110662   4.803   2.066   4.859
 3552TIP3    H210663   4.741   2.203   4.869
 3553TIP3   OH210664   6.147   3.352   1.843
 3553TIP3    H110665   6.179   3.440   1.821
 3553TIP3    H210666   6.079   3.334   1.778
 3554TIP3   OH210667   2.296   4.437   0.044
 3554TIP3    H110668   2.257   4.522   0.062
 3554TIP3    H210669   2.336   4.446  -0.043
 3555TIP3   OH210670   5.313   1.359   5.113
 3555TIP3    H110671   5.358   1.443   5.103
 3555TIP3    H210672   5.273   1.343   5.028
 3556TIP3   OH210673   1.815   0.345   0.852
 3556TIP3    H110674   1.722   0.334   0.831
 3556TIP3    H210675   1.815   0.398   0.932
 3557TIP3   OH210676   0.408   5.793   1.851
 3557TIP3    H110677   0.498   5.824   1.861
 3557TIP3    H210678   0.402   5.765   1.759
 3558TIP3   OH210679   1.834   5.005   3.632
 3558TIP3    H110680   1.907   4.974   3.686
 3558TIP3    H210681   1.853   5.097   3.615
 3559TIP3   OH210682   5.573   3.622   3.513
 3559TIP3    H110683   5.524   3.606   3.432
 3559TIP3    H210684   5.649   3.673   3.485
 3560TIP3   OH210685   2.911   0.037   0.107
 3560TIP3    H110686   2.963   0.086   0.171
 3560TIP3    H210687   2.821   0.066   0.123
 3561TIP3   OH210688   3.012   2.770   3.540
 3561TIP3    H110689   2.952   2.695   3.540
 3561TIP3    H210690   3.076   2.749   3.472
 3562TIP3   OH210691   1.994   4.004   4.778
 3562TIP3    H110692   2.047   4.010   4.858
 3562TIP3    H210693   1.923   4.067   4.792
 3563TIP3   OH210694   0.498   1.866   1.662
 3563TIP3    H110695   0.419   1.818   1.637
 3563TIP3    H210696   0.473   1.958   1.654
 3564TIP3   OH210697   4.040   1.656   0.934
 3564TIP3    H110698   4.001   1.744   0.937
 3564TIP3    H210699   3.985   1.604   0.992
 3565TIP3   OH210700   3.579   0.290   1.372
 3565TIP3    H110701   3.502   0.250   1.330
 3565TIP3    H210702   3.651   0.270   1.313
 3566TIP3   OH210703   0.461   2.993   1.746
 3566TIP3    H110704   0.376   3.007   1.706
 3566TIP3    H210705   0.479   2.900   1.735
 3567TIP3   OH210706   6.142   0.242   5.121
 3567TIP3    H110707   6.051   0.267   5.108
 3567TIP3    H210708   6.170   0.293   5.198
 3568TIP3   OH210709   1.083   1.095   5.101
 3568TIP3    H110710   1.090   1.073   5.008
 3568TIP3    H210711   1.070   1.011   5.145
 3569TIP3   OH210712   5.874   5.290   1.989
 3569TIP3    H110713   5.904   5.200   1.990
 3569TIP3    H210714   5.829   5.299   1.905
 3570TIP3   OH210715   1.200   5.792   2.413
 3570TIP3    H110716   1.271   5.855   2.398
 3570TIP3    H210717   1.166   5.773   2.326
 3571TIP3   OH210718   2.672   4.543   4.100
 3571TIP3    H110719   2.760   4.510   4.083
 3571TIP3    H210720   2.686   4.614   4.163
 3572TIP3   OH210721   3.467   2.509   2.104
 3572TIP3    H110722   3.425   2.568   2.167
 3572TIP3    H210723   3.472   2.425   2.149
 3573TIP3   OH210724   1.635   0.209   3.280
 3573TIP3    H110725   1.617   0.290   3.232
 3573TIP3    H210726   1.577   0.144   3.242
 3574TIP3   OH210727   3.288   3.180   0.726
 3574TIP3    H110728   3.260   3.203   0.815
 3574TIP3    H210729   3.207   3.156   0.681
 3575TIP3   OH210730   1.539   2.877   0.887
 3575TIP3    H110731   1.634   2.884   0.884
 3575TIP3    H210732   1.513   2.941   0.953
 3576TIP3   OH210733   1.104   0.117   2.059
 3576TIP3    H110734   1.191   0.157   2.057
 3576TIP3    H210735   1.049   0.175   2.006
 3577TIP3   OH210736   3.174   2.855   0.528
 3577TIP3    H110737   3.130   2.773   0.549
 3577TIP3    H210738   3.117   2.923   0.565
 3578TIP3   OH210739   3.655   5.852   4.738
 3578TIP3    H110740   3.599   5.779   4.713
 3578TIP3    H210741   3.743   5.824   4.712
 3579TIP3   OH210742   3.844   1.103   0.066
 3579TIP3    H110743   3.883   1.144  -0.011
 3579TIP3    H210744   3.839   1.010   0.044
 3580TIP3   OH210745   1.616   2.089   4.469
 3580TIP3    H110746   1.665   2.122   4.545
 3580TIP3    H210747   1.649   2.140   4.395
 3581TIP3   OH210748   5.577   0.944   4.301
 3581TIP3    H110749   5.509   0.960   4.236
 3581TIP3    H210750   5.529   0.917   4.379
 3582TIP3   OH210751   2.342   3.360   5.206
 3582TIP3    H110752   2.380   3.300   5.142
 3582TIP3    H210753   2.336   3.444   5.160
 3583TIP3   OH210754   4.422   2.736   2.068
 3583TIP3    H110755   4.440   2.713   2.159
 3583TIP3    H210756   4.344   2.686   2.045
 3584TIP3   OH210757   4.017   4.361   3.547
 3584TIP3    H110758   4.001   4.453   3.524
 3584TIP3    H210759   4.111   4.357   3.566
 3585TIP3   OH210760   2.636   0.802   3.714
 3585TIP3    H110761   2.616   0.713   3.744
 3585TIP3    H210762   2.667   0.847   3.793
 3586TIP3   OH210763   3.842   3.834   4.426
 3586TIP3    H110764   3.847   3.891   4.349
 3586TIP3    H210765   3.931   3.801   4.437
 3587TIP3   OH210766   0.917   3.754   1.853
 3587TIP3    H110767   0.892   3.666   1.882
 3587TIP3    H210768   0.953   3.796   1.930
 3588TIP3   OH210769  -0.005   3.426   0.869
 3588TIP3    H110770  -0.042   3.348   0.828
 3588TIP3    H210771   0.061   3.457   0.807
 3589TIP3   OH210772   5.050   1.702   3.126
 3589TIP3    H110773   5.033   1.619   3.171
 3589TIP3    H210774   4.990   1.764   3.168
 3590TIP3   OH210775   4.224   0.543   1.625
 3590TIP3    H110776   4.142   0.583   1.598
 3590TIP3    H210777   4.216   0.451   1.600
 3591TIP3   OH210778   4.132   4.279   4.271
 3591TIP3    H110779   4.215   4.315   4.302
 3591TIP3    H210780   4.066   4.314   4.331
 3592TIP3   OH210781   3.904   5.793   1.669
 3592TIP3    H110782   3.944   5.706   1.665
 3592TIP3    H210783   3.810   5.775   1.668
 3593TIP3   OH210784   5.389   3.455   1.506
 3593TIP3    H110785   5.391   3.403   1.586
 3593TIP3    H210786   5.477   3.490   1.497
 3594TIP3   OH210787   3.750   3.234   4.070
 3594TIP3    H110788   3.786   3.157   4.027
 3594TIP3    H210789   3.794   3.236   4.155
 3595TIP3   OH210790   2.291   2.961   0.437
 3595TIP3    H110791   2.251   2.982   0.352
 3595TIP3    H210792   2.219   2.923   0.487
 3596TIP3   OH210793   3.817   3.961   2.641
 3596TIP3    H110794   3.854   3.945   2.728
 3596TIP3    H210795   3.801   3.874   2.605
 3597TIP3   OH210796   4.980   4.190   2.980
 3597TIP3    H110797   5.057   4.148   3.019
 3597TIP3    H210798   4.993   4.182   2.885
 3598TIP3   OH210799   5.811   0.327   1.311
 3598TIP3    H110800   5.846   0.289   1.231
 3598TIP3    H210801   5.720   0.297   1.315
 3599TIP3   OH210802   0.174   4.823   0.568
 3599TIP3    H110803   0.153   4.800   0.478
 3599TIP3    H210804   0.094   4.865   0.601
 3600TIP3   OH210805   6.322   5.153   0.994
 3600TIP3    H110806   6.233   5.166   1.027
 3600TIP3    H210807   6.379   5.179   1.067
 3601TIP3   OH210808   0.274   5.020   2.134
 3601TIP3    H110809   0.271   4.999   2.227
 3601TIP3    H210810   0.286   5.115   2.132
 3602TIP3   OH210811   0.196   5.665   1.375
 3602TIP3    H110812   0.136   5.680   1.302
 3602TIP3    H210813   0.219   5.753   1.405
 3603TIP3   OH210814   4.000   2.858   0.565
 3603TIP3    H110815   3.907   2.850   0.541
 3603TIP3    H210816   3.999   2.887   0.656
 3604TIP3   OH210817   2.697   2.522   1.304
 3604TIP3    H110818   2.707   2.429   1.283
 3604TIP3    H210819   2.685   2.565   1.220
 3605TIP3   OH210820   1.968   4.916   1.984
 3605TIP3    H110821   1.986   4.998   2.029
 3605TIP3    H210822   1.940   4.942   1.896
 3606TIP3   OH210823   0.035   0.587   2.340
 3606TIP3    H110824   0.124   0.557   2.325
 3606TIP3    H210825   0.004   0.615   2.254
 3607TIP3   OH210826   3.395   2.957   0.907
 3607TIP3    H110827   3.339   2.989   0.836
 3607TIP3    H210828   3.347   2.980   0.987
 3608TIP3   OH210829   5.636   0.667   2.467
 3608TIP3    H110830   5.719   0.712   2.448
 3608TIP3    H210831   5.594   0.722   2.533
 3609TIP3   OH210832   0.100   5.998   1.879
 3609TIP3    H110833   0.163   6.003   1.952
 3609TIP3    H210834   0.067   5.908   1.883
 3610TIP3   OH210835   5.098   0.179   1.212
 3610TIP3    H110836   5.142   0.098   1.239
 3610TIP3    H210837   5.099   0.177   1.117
 3611TIP3   OH210838   1.781   0.928   1.753
 3611TIP3    H110839   1.791   0.885   1.667
 3611TIP3    H210840   1.866   0.914   1.796
 3612TIP3   OH210841   2.625   5.439   3.005
 3612TIP3    H110842   2.622   5.527   2.970
 3612TIP3    H210843   2.687   5.392   2.949
 3613TIP3   OH210844   5.264   3.412   1.278
 3613TIP3    H110845   5.305   3.328   1.258
 3613TIP3    H210846   5.286   3.428   1.370
 3614TIP3   OH210847   0.563   1.250   4.080
 3614TIP3    H110848   0.469   1.250   4.067
 3614TIP3    H210849   0.597   1.317   4.021
 3615TIP3   OH210850   2.904   3.226   4.979
 3615TIP3    H110851   2.859   3.297   5.024
 3615TIP3    H210852   2.961   3.270   4.917
 3616TIP3   OH210853   1.145   5.471   4.243
 3616TIP3    H110854   1.235   5.450   4.269
 3616TIP3    H210855   1.109   5.389   4.212
 3617TIP3   OH210856   3.206   4.943   3.311
 3617TIP3    H110857   3.129   4.889   3.331
 3617TIP3    H210858   3.181   5.031   3.339
 3618TIP3   OH210859   4.215   2.712   0.656
 3618TIP3    H110860   4.177   2.641   0.605
 3618TIP3    H210861   4.140   2.759   0.693
 3619TIP3   OH210862   3.457   5.458   2.100
 3619TIP3    H110863   3.504   5.510   2.035
 3619TIP3    H210864   3.449   5.372   2.059
 3620TIP3   OH210865   5.495   2.198   4.599
 3620TIP3    H110866   5.529   2.171   4.684
 3620TIP3    H210867   5.423   2.258   4.619
 3621TIP3   OH210868   3.508   1.539   2.123
 3621TIP3    H110869   3.522   1.464   2.182
 3621TIP3    H210870   3.568   1.606   2.156
 3622TIP3   OH210871   1.395   2.289   2.668
 3622TIP3    H110872   1.349   2.291   2.584
 3622TIP3    H210873   1.336   2.333   2.729
 3623TIP3   OH210874   4.324   4.510   3.352
 3623TIP3    H110875   4.341   4.601   3.376
 3623TIP3    H210876   4.289   4.471   3.432
 3624TIP3   OH210877   6.115   4.442   5.192
 3624TIP3    H110878   6.109   4.520   5.137
 3624TIP3    H210879   6.063   4.376   5.147
 3625TIP3   OH210880   0.461   5.040   2.361
 3625TIP3    H110881   0.536   5.031   2.420
 3625TIP3    H210882   0.387   5.007   2.410
 3626TIP3   OH210883   3.140   4.976   0.945
 3626TIP3    H110884   3.092   4.905   0.903
 3626TIP3    H210885   3.225   4.938   0.966
 3627TIP3   OH210886   1.179   5.033   3.960
 3627TIP3    H110887   1.190   5.050   4.053
 3627TIP3    H210888   1.136   5.111   3.925
 3628TIP3   OH210889   2.273   1.171   4.318
 3628TIP3    H110890   2.199   1.115   4.293
 3628TIP3    H210891   2.289   1.151   4.410
 3629TIP3   OH210892   1.457   1.622   2.025
 3629TIP3    H110893   1.468   1.714   2.002
 3629TIP3    H210894   1.375   1.619   2.074
 3630TIP3   OH210895   0.020   1.450   4.875
 3630TIP3    H110896  -0.054   1.466   4.933
 3630TIP3    H210897   0.083   1.519   4.897
 3631TIP3   OH210898   1.743   1.873   3.266
 3631TIP3    H110899   1.766   1.963   3.291
 3631TIP3    H210900   1.720   1.879   3.174
 3632TIP3   OH210901   2.705   3.862   4.006
 3632TIP3    H110902   2.717   3.780   3.958
 3632TIP3    H210903   2.748   3.847   4.090
 3633TIP3   OH210904   1.215   3.245   4.231
 3633TIP3    H110905   1.184   3.335   4.231
 3633TIP3    H210906   1.287   3.244   4.293
 3634TIP3   OH210907   4.937   2.032   1.950
 3634TIP3    H110908   4.996   1.972   1.904
 3634TIP3    H210909   4.985   2.058   2.028
 3635TIP3   OH210910   6.294   0.378   2.479
 3635TIP3    H110911   6.204   0.394   2.508
 3635TIP3    H210912   6.323   0.461   2.442
 3636TIP3   OH210913   0.056   0.597   1.095
 3636TIP3    H110914   0.113   0.670   1.073
 3636TIP3    H210915   0.103   0.520   1.064
 3637TIP3   OH210916   5.139   4.325   4.951
 3637TIP3    H110917   5.073   4.280   4.897
 3637TIP3    H210918   5.194   4.371   4.888
 3638TIP3   OH210919   0.085   3.885   3.636
 3638TIP3    H110920   0.053   3.934   3.559
 3638TIP3    H210921   0.178   3.873   3.619
 3639TIP3   OH210922   5.878   0.325   2.890
 3639TIP3    H110923   5.953   0.322   2.949
 3639TIP3    H210924   5.804   0.294   2.943
 3640TIP3   OH210925   5.357   1.067   2.472
 3640TIP3    H110926   5.275   1.022   2.489
 3640TIP3    H210927   5.369   1.126   2.547
 3641TIP3   OH210928   1.202   3.131   0.944
 3641TIP3    H110929   1.253   3.145   0.864
 3641TIP3    H210930   1.258   3.075   0.998
 3642TIP3   OH210931   4.432   1.453   4.659
 3642TIP3    H110932   4.520   1.490   4.661
 3642TIP3    H210933   4.404   1.461   4.567
 3643TIP3   OH210934   0.495   4.411   5.164
 3643TIP3    H110935   0.415   4.439   5.119
 3643TIP3    H210936   0.518   4.485   5.220
 3644TIP3   OH210937   1.397   2.929   2.615
 3644TIP3    H110938   1.328   2.898   2.673
 3644TIP3    H210939   1.361   3.009   2.576
 3645TIP3   OH210940   5.953   2.958   4.575
 3645TIP3    H110941   5.973   2.987   4.664
 3645TIP3    H210942   5.882   2.895   4.586
 3646TIP3   OH210943   3.446   2.879   3.302
 3646TIP3    H110944   3.525   2.896   3.251
 3646TIP3    H210945   3.436   2.957   3.357
 3647TIP3   OH210946   0.686   4.376   0.202
 3647TIP3    H110947   0.685   4.282   0.184
 3647TIP3    H210948   0.609   4.410   0.156
 3648TIP3   OH210949   4.106   3.245   3.968
 3648TIP3    H110950   4.028   3.277   3.922
 3648TIP3    H210951   4.178   3.291   3.926
 3649TIP3   OH210952   0.722   5.527   0.349
 3649TIP3    H110953   0.627   5.522   0.356
 3649TIP3    H210954   0.740   5.619   0.331
 3650TIP3   OH210955   5.164   4.617   0.397
 3650TIP3    H110956   5.133   4.556   0.330
 3650TIP3    H210957   5.187   4.561   0.472
 3651TIP3   OH210958   5.019   2.603   0.727
 3651TIP3    H110959   5.049   2.680   0.679
 3651TIP3    H210960   5.016   2.631   0.818
 3652TIP3   OH210961   2.201   2.134   4.827
 3652TIP3    H110962   2.139   2.130   4.900
 3652TIP3    H210963   2.286   2.119   4.867
 3653TIP3   OH210964   3.179   0.936   3.744
 3653TIP3    H110965   3.147   1.009   3.797
 3653TIP3    H210966   3.271   0.955   3.729
 3654TIP3   OH210967   1.484   1.102   4.021
 3654TIP3    H110968   1.472   1.184   3.974
 3654TIP3    H210969   1.564   1.065   3.985
 3655TIP3   OH210970   1.794   3.998   2.791
 3655TIP3    H110971   1.800   3.967   2.701
 3655TIP3    H210972   1.735   4.073   2.786
 3656TIP3   OH210973   6.283   2.172   1.951
 3656TIP3    H110974   6.225   2.111   1.997
 3656TIP3    H210975   6.227   2.246   1.929
 3657TIP3   OH210976   5.218   2.819   3.391
 3657TIP3    H110977   5.200   2.850   3.479
 3657TIP3    H210978   5.313   2.820   3.384
 3658TIP3   OH210979   2.436   3.895   3.973
 3658TIP3    H110980   2.422   3.988   3.993
 3658TIP3    H210981   2.529   3.888   3.951
 3659TIP3   OH210982   5.138   0.940   0.225
 3659TIP3    H110983   5.113   0.989   0.303
 3659TIP3    H210984   5.055   0.921   0.181
 3660TIP3   OH210985   3.561   0.684   4.793
 3660TIP3    H110986   3.552   0.591   4.810
 3660TIP3    H210987   3.609   0.689   4.711
 3661TIP3   OH210988   5.209   3.901   3.300
 3661TIP3    H110989   5.220   3.936   3.389
 3661TIP3    H210990   5.130   3.847   3.305
 3662TIP3   OH210991   1.225   2.494   5.060
 3662TIP3    H110992   1.148   2.440   5.074
 3662TIP3    H210993   1.284   2.473   5.132
 3663TIP3   OH210994   4.391   2.631   2.894
 3663TIP3    H110995   4.456   2.660   2.830
 3663TIP3    H210996   4.441   2.621   2.975
 3664TIP3   OH210997   3.547   4.092   3.484
 3664TIP3    H110998   3.615   4.059   3.543
 3664TIP3    H210999   3.587   4.167   3.441
 3665TIP3   OH211000   0.148   4.136   1.198
 3665TIP3    H111001   0.057   4.166   1.201
 3665TIP3    H211002   0.187   4.187   1.127
 3666TIP3   OH211003   4.113   5.752   0.576
 3666TIP3    H111004   4.097   5.753   0.482
 3666TIP3    H211005   4.070   5.832   0.608
 3667TIP3   OH211006   1.932   0.518   0.074
 3667TIP3    H111007   1.995   0.583   0.104
 3667TIP3    H211008   1.986   0.449   0.035
 3668TIP3   OH211009   4.584   2.577   0.269
 3668TIP3    H111010   4.650   2.646   0.272
 3668TIP3    H211011   4.634   2.497   0.252
 3669TIP3   OH211012   5.186   3.930   0.103
 3669TIP3    H111013   5.169   3.835   0.103
 3669TIP3    H211014   5.269   3.939   0.149
 3670TIP3   OH211015   4.487   4.554   2.955
 3670TIP3    H111016   4.418   4.564   2.889
 3670TIP3    H211017   4.536   4.636   2.950
 3671TIP3   OH211018   3.591   1.856   3.529
 3671TIP3    H111019   3.513   1.804   3.546
 3671TIP3    H211020   3.604   1.851   3.434
 3672TIP3   OH211021   1.969   2.553   3.588
 3672TIP3    H111022   1.970   2.647   3.570
 3672TIP3    H211023   1.898   2.542   3.652
 3673TIP3   OH211024   4.898   2.255   0.081
 3673TIP3    H111025   4.950   2.229   0.158
 3673TIP3    H211026   4.922   2.347   0.067
 3674TIP3   OH211027   3.170   3.155   2.138
 3674TIP3    H111028   3.105   3.089   2.113
 3674TIP3    H211029   3.120   3.236   2.147
 3675TIP3   OH211030   5.752   3.755   4.468
 3675TIP3    H111031   5.725   3.741   4.378
 3675TIP3    H211032   5.835   3.802   4.461
 3676TIP3   OH211033   6.208   2.779   3.062
 3676TIP3    H111034   6.165   2.762   2.978
 3676TIP3    H211035   6.301   2.765   3.043
 3677TIP3   OH211036   2.847   1.506   0.059
 3677TIP3    H111037   2.809   1.479  -0.024
 3677TIP3    H211038   2.878   1.596   0.043
 3678TIP3   OH211039   4.605   4.199   4.601
 3678TIP3    H111040   4.655   4.141   4.542
 3678TIP3    H211041   4.561   4.139   4.661
 3679TIP3   OH211042   5.489   2.603   3.596
 3679TIP3    H111043   5.493   2.683   3.544
 3679TIP3    H211044   5.572   2.558   3.578
 3680TIP3   OH211045   0.708   2.871   0.782
 3680TIP3    H111046   0.783   2.818   0.754
 3680TIP3    H211047   0.656   2.812   0.836
 3681TIP3   OH211048   1.547   2.250   2.950
 3681TIP3    H111049   1.523   2.259   3.042
 3681TIP3    H211050   1.468   2.218   2.907
 3682TIP3   OH211051   1.768   0.983   2.758
 3682TIP3    H111052   1.686   0.975   2.708
 3682TIP3    H211053   1.830   1.021   2.695
 3683TIP3   OH211054   4.798   5.146   3.241
 3683TIP3    H111055   4.843   5.193   3.311
 3683TIP3    H211056   4.738   5.087   3.287
 3684TIP3   OH211057   5.805   5.967   1.381
 3684TIP3    H111058   5.859   5.965   1.460
 3684TIP3    H211059   5.718   5.943   1.411
 3685TIP3   OH211060   5.487   0.582   4.233
 3685TIP3    H111061   5.422   0.538   4.288
 3685TIP3    H211062   5.436   0.640   4.176
 3686TIP3   OH211063   4.536   1.811   3.565
 3686TIP3    H111064   4.631   1.821   3.571
 3686TIP3    H211065   4.502   1.899   3.579
 3687TIP3   OH211066   0.410   3.338   4.005
 3687TIP3    H111067   0.333   3.349   4.060
 3687TIP3    H211068   0.426   3.244   4.004
 3688TIP3   OH211069   4.208   2.051   5.136
 3688TIP3    H111070   4.276   1.989   5.162
 3688TIP3    H211071   4.256   2.131   5.114
 3689TIP3   OH211072   2.101   5.576   0.530
 3689TIP3    H111073   2.029   5.540   0.581
 3689TIP3    H211074   2.074   5.666   0.510
 3690TIP3   OH211075   4.901   2.652   1.923
 3690TIP3    H111076   4.928   2.688   2.007
 3690TIP3    H211077   4.808   2.675   1.915
 3691TIP3   OH211078   3.762   4.202   2.513
 3691TIP3    H111079   3.849   4.241   2.506
 3691TIP3    H211080   3.776   4.121   2.563
 3692TIP3   OH211081   5.023   2.882   3.906
 3692TIP3    H111082   5.024   2.787   3.917
 3692TIP3    H211083   4.936   2.909   3.934
 3693TIP3   OH211084   4.684   3.684   4.701
 3693TIP3    H111085   4.727   3.768   4.685
 3693TIP3    H211086   4.706   3.631   4.624
 3694TIP3   OH211087   3.367   1.693   3.530
 3694TIP3    H111088   3.374   1.619   3.589
 3694TIP3    H211089   3.310   1.755   3.577
 3695TIP3   OH211090   0.108   1.970   4.027
 3695TIP3    H111091   0.065   1.983   4.111
 3695TIP3    H211092   0.186   1.918   4.048
 3696TIP3   OH211093   5.187   5.149   1.946
 3696TIP3    H111094   5.198   5.111   2.033
 3696TIP3    H211095   5.276   5.155   1.911
 3697TIP3   OH211096   3.033   3.637   2.434
 3697TIP3    H111097   3.112   3.584   2.439
 3697TIP3    H211098   3.060   3.716   2.386
 3698TIP3   OH211099   1.722   2.106   1.359
 3698TIP3    H111100   1.720   2.126   1.265
 3698TIP3    H211101   1.693   2.015   1.364
 3699TIP3   OH211102   3.379   3.601   3.930
 3699TIP3    H111103   3.420   3.675   3.974
 3699TIP3    H211104   3.395   3.526   3.988
 3700TIP3   OH211105   2.881   4.972   0.652
 3700TIP3    H111106   2.968   4.972   0.614
 3700TIP3    H211107   2.838   5.049   0.614
 3701TIP3   OH211108   1.422   5.372   3.729
 3701TIP3    H111109   1.442   5.300   3.788
 3701TIP3    H211110   1.362   5.428   3.780
 3702TIP3   OH211111   2.412   2.277   3.283
 3702TIP3    H111112   2.366   2.343   3.232
 3702TIP3    H211113   2.390   2.194   3.241
 3703TIP3   OH211114   5.394   1.042   4.740
 3703TIP3    H111115   5.487   1.063   4.733
 3703TIP3    H211116   5.387   0.986   4.817
 3704TIP3   OH211117   0.898   4.142   1.493
 3704TIP3    H111118   0.947   4.061   1.504
 3704TIP3    H211119   0.939   4.204   1.553
 3705TIP3   OH211120   3.269   2.180   2.694
 3705TIP3    H111121   3.187   2.180   2.644
 3705TIP3    H211122   3.257   2.112   2.760
 3706TIP3   OH211123   1.790   2.989   0.622
 3706TIP3    H111124   1.736   2.915   0.592
 3706TIP3    H211125   1.805   2.971   0.715
 3707TIP3   OH211126   4.948   5.810   0.203
 3707TIP3    H111127   4.903   5.725   0.207
 3707TIP3    H211128   4.878   5.875   0.212
 3708TIP3   OH211129   3.852   4.843   4.358
 3708TIP3    H111130   3.846   4.748   4.368
 3708TIP3    H211131   3.763   4.870   4.338
 3709TIP3   OH211132   3.603   1.355   4.623
 3709TIP3    H111133   3.676   1.405   4.659
 3709TIP3    H211134   3.644   1.284   4.573
 3710TIP3   OH211135   3.919   5.170   4.957
 3710TIP3    H111136   3.955   5.158   5.045
 3710TIP3    H211137   3.974   5.237   4.917
 3711TIP3   OH211138   3.421   2.120   1.194
 3711TIP3    H111139   3.470   2.053   1.241
 3711TIP3    H211140   3.355   2.151   1.257
 3712TIP3   OH211141   4.387   2.662   4.644
 3712TIP3    H111142   4.431   2.727   4.699
 3712TIP3    H211143   4.355   2.596   4.705
 3713TIP3   OH211144   5.570   3.146   3.219
 3713TIP3    H111145   5.651   3.196   3.220
 3713TIP3    H211146   5.505   3.207   3.185
 3714TIP3   OH211147   4.451   0.593   3.989
 3714TIP3    H111148   4.498   0.510   3.992
 3714TIP3    H211149   4.360   0.569   4.008
 3715TIP3   OH211150   5.464   3.027   2.140
 3715TIP3    H111151   5.520   3.101   2.119
 3715TIP3    H211152   5.375   3.063   2.137
 3716TIP3   OH211153   3.612   0.919   0.688
 3716TIP3    H111154   3.682   0.945   0.629
 3716TIP3    H211155   3.619   0.980   0.761
 3717TIP3   OH211156   1.499   2.615   1.119
 3717TIP3    H111157   1.496   2.563   1.199
 3717TIP3    H211158   1.458   2.698   1.143
 3718TIP3   OH211159   4.653   5.110   5.122
 3718TIP3    H111160   4.694   5.136   5.039
 3718TIP3    H211161   4.608   5.028   5.102
 3719TIP3   OH211162   0.488   1.149   2.020
 3719TIP3    H111163   0.395   1.166   2.030
 3719TIP3    H211164   0.506   1.077   2.080
 3720TIP3   OH211165   1.815   2.605   3.802
 3720TIP3    H111166   1.740   2.661   3.820
 3720TIP3    H211167   1.781   2.515   3.809
 3721TIP3   OH211168   0.253   2.008   2.192
 3721TIP3    H111169   0.334   2.052   2.215
 3721TIP3    H211170   0.271   1.915   2.205
 3722TIP3   OH211171   4.868   4.147   1.814
 3722TIP3    H111172   4.903   4.066   1.779
 3722TIP3    H211173   4.894   4.147   1.906
 3723TIP3   OH211174   2.799   2.666   1.030
 3723TIP3    H111175   2.712   2.690   1.061
 3723TIP3    H211176   2.783   2.622   0.946
 3724TIP3   OH211177   1.102   0.774   4.158
 3724TIP3    H111178   1.024   0.762   4.103
 3724TIP3    H211179   1.175   0.760   4.098
 3725TIP3   OH211180   2.061   3.677   1.095
 3725TIP3    H111181   2.038   3.756   1.046
 3725TIP3    H211182   1.990   3.665   1.158
 3726TIP3   OH211183   5.418   5.634   4.518
 3726TIP3    H111184   5.435   5.713   4.466
 3726TIP3    H211185   5.358   5.583   4.464
 3727TIP3   OH211186   1.352   2.951   0.687
 3727TIP3    H111187   1.290   2.888   0.724
 3727TIP3    H211188   1.437   2.924   0.721
 3728TIP3   OH211189   2.478   3.307   4.736
 3728TIP3    H111190   2.465   3.402   4.733
 3728TIP3    H211191   2.543   3.289   4.668
 3729TIP3   OH211192   1.835   2.615   0.531
 3729TIP3    H111193   1.862   2.545   0.472
 3729TIP3    H211194   1.846   2.695   0.480
 3730TIP3   OH211195   3.196   0.829   0.511
 3730TIP3    H111196   3.169   0.907   0.559
 3730TIP3    H211197   3.163   0.843   0.422
 3731TIP3   OH211198   5.301   0.411   4.359
 3731TIP3    H111199   5.300   0.321   4.326
 3731TIP3    H211200   5.228   0.415   4.420
 3732TIP3   OH211201   2.053   3.539   0.623
 3732TIP3    H111202   2.143   3.504   0.624
 3732TIP3    H211203   2.036   3.557   0.531
 3733TIP3   OH211204   2.414   3.017   0.855
 3733TIP3    H111205   2.463   3.068   0.790
 3733TIP3    H211206   2.329   3.002   0.814
 3734TIP3   OH211207   3.832   3.991   4.017
 3734TIP3    H111208   3.739   3.991   4.040
 3734TIP3    H211209   3.877   3.997   4.101
 3735TIP3   OH211210   5.695   0.358   1.032
 3735TIP3    H111211   5.709   0.444   0.992
 3735TIP3    H211212   5.665   0.303   0.960
 3736TIP3   OH211213   1.623   5.958   1.673
 3736TIP3    H111214   1.538   6.001   1.677
 3736TIP3    H211215   1.670   5.990   1.750
 3737TIP3   OH211216   4.069   5.955   4.163
 3737TIP3    H111217   3.985   5.943   4.119
 3737TIP3    H211218   4.085   5.872   4.207
 3738TIP3   OH211219   0.760   2.476   1.739
 3738TIP3    H111220   0.705   2.543   1.698
 3738TIP3    H211221   0.784   2.417   1.667
 3739TIP3   OH211222   2.115   4.036   3.530
 3739TIP3    H111223   2.171   4.081   3.592
 3739TIP3    H211224   2.026   4.063   3.553
 3740TIP3   OH211225   4.087   0.878   1.893
 3740TIP3    H111226   4.037   0.952   1.926
 3740TIP3    H211227   4.174   0.889   1.930
 3741TIP3   OH211228   3.652   1.467   5.133
 3741TIP3    H111229   3.630   1.556   5.160
 3741TIP3    H211230   3.582   1.443   5.072
 3742TIP3   OH211231   0.052   5.700   2.411
 3742TIP3    H111232   0.032   5.695   2.504
 3742TIP3    H211233  -0.030   5.677   2.368
 3743TIP3   OH211234   0.278   0.407   0.290
 3743TIP3    H111235   0.238   0.405   0.203
 3743TIP3    H211236   0.269   0.497   0.319
 3744TIP3   OH211237   1.083   3.932   0.329
 3744TIP3    H111238   1.085   3.911   0.235
 3744TIP3    H211239   1.095   3.848   0.373
 3745TIP3   OH211240   4.964   2.729   4.436
 3745TIP3    H111241   4.987   2.802   4.378
 3745TIP3    H211242   4.897   2.764   4.494
 3746TIP3   OH211243   0.413   3.238   4.314
 3746TIP3    H111244   0.418   3.266   4.223
 3746TIP3    H211245   0.415   3.142   4.310
 3747TIP3   OH211246   4.442   1.762   4.905
 3747TIP3    H111247   4.402   1.767   4.818
 3747TIP3    H211248   4.370   1.777   4.966
 3748TIP3   OH211249   0.435   3.734   1.405
 3748TIP3    H111250   0.422   3.681   1.326
 3748TIP3    H211251   0.396   3.819   1.384
 3749TIP3   OH211252   1.553   2.979   4.145
 3749TIP3    H111253   1.481   2.938   4.192
 3749TIP3    H211254   1.521   3.067   4.125
 3750TIP3   OH211255   1.486   4.358   4.141
 3750TIP3    H111256   1.567   4.376   4.188
 3750TIP3    H211257   1.444   4.444   4.132
 3751TIP3   OH211258   1.417   1.530   0.700
 3751TIP3    H111259   1.404   1.567   0.613
 3751TIP3    H211260   1.330   1.525   0.737
 3752TIP3   OH211261   1.746   5.303   0.118
 3752TIP3    H111262   1.787   5.357   0.186
 3752TIP3    H211263   1.807   5.230   0.106
 3753TIP3   OH211264   0.333   2.577   2.125
 3753TIP3    H111265   0.256   2.535   2.087
 3753TIP3    H211266   0.297   2.642   2.185
 3754TIP3   OH211267   2.918   3.130   4.657
 3754TIP3    H111268   2.901   3.063   4.591
 3754TIP3    H211269   2.913   3.083   4.741
 3755TIP3   OH211270   4.302   5.604   4.549
 3755TIP3    H111271   4.208   5.616   4.562
 3755TIP3    H211272   4.326   5.670   4.483
 3756TIP3   OH211273   2.943   0.044   2.472
 3756TIP3    H111274   2.870   0.074   2.526
 3756TIP3    H211275   3.018   0.094   2.504
 3757TIP3   OH211276   3.856   0.780   0.087
 3757TIP3    H111277   3.821   0.797   0.175
 3757TIP3    H211278   3.923   0.713   0.101
 3758TIP3   OH211279   6.270   5.181   1.329
 3758TIP3    H111280   6.187   5.223   1.351
 3758TIP3    H211281   6.274   5.105   1.387
 3759TIP3   OH211282   2.778   5.177   0.496
 3759TIP3    H111283   2.801   5.123   0.420
 3759TIP3    H211284   2.795   5.267   0.467
 3760TIP3   OH211285   4.512   4.258   2.169
 3760TIP3    H111286   4.579   4.228   2.107
 3760TIP3    H211287   4.444   4.190   2.166
 3761TIP3   OH211288   0.708   1.284   0.611
 3761TIP3    H111289   0.789   1.333   0.604
 3761TIP3    H211290   0.689   1.255   0.521
 3762TIP3   OH211291   4.608   0.801   3.434
 3762TIP3    H111292   4.578   0.892   3.438
 3762TIP3    H211293   4.558   0.756   3.502
 3763TIP3   OH211294   2.297   4.323   2.489
 3763TIP3    H111295   2.276   4.416   2.475
 3763TIP3    H211296   2.317   4.290   2.401
 3764TIP3   OH211297   5.366   4.632   5.022
 3764TIP3    H111298   5.392   4.724   5.021
 3764TIP3    H211299   5.331   4.618   5.110
 3765TIP3   OH211300   4.444   5.960   4.507
 3765TIP3    H111301   4.384   6.031   4.485
 3765TIP3    H211302   4.440   5.901   4.431
 3766TIP3   OH211303   5.641   1.543   2.038
 3766TIP3    H111304   5.586   1.488   1.982
 3766TIP3    H211305   5.667   1.616   1.982
 3767TIP3   OH211306   5.432   2.409   0.149
 3767TIP3    H111307   5.371   2.463   0.099
 3767TIP3    H211308   5.513   2.409   0.098
 3768TIP3   OH211309   1.524   1.004   3.331
 3768TIP3    H111310   1.478   0.977   3.410
 3768TIP3    H211311   1.524   1.100   3.335
 3769TIP3   OH211312   1.765   4.201   4.719
 3769TIP3    H111313   1.751   4.295   4.730
 3769TIP3    H211314   1.682   4.162   4.749
 3770TIP3   OH211315   0.256   4.566   0.335
 3770TIP3    H111316   0.210   4.648   0.319
 3770TIP3    H211317   0.292   4.542   0.250
 3771TIP3   OH211318   2.581   5.791   0.538
 3771TIP3    H111319   2.518   5.721   0.521
 3771TIP3    H211320   2.529   5.870   0.545
 3772TIP3   OH211321   2.653   1.255   5.051
 3772TIP3    H111322   2.584   1.309   5.014
 3772TIP3    H211323   2.732   1.309   5.045
 3773TIP3   OH211324   6.061   5.119   0.542
 3773TIP3    H111325   6.034   5.090   0.455
 3773TIP3    H211326   6.029   5.209   0.548
 3774TIP3   OH211327   1.995   3.622   4.191
 3774TIP3    H111328   1.912   3.618   4.144
 3774TIP3    H211329   2.043   3.693   4.149
 3775TIP3   OH211330   1.892   1.619   3.105
 3775TIP3    H111331   1.809   1.658   3.080
 3775TIP3    H211332   1.886   1.606   3.199
 3776TIP3   OH211333   1.829   5.805   2.247
 3776TIP3    H111334   1.757   5.812   2.184
 3776TIP3    H211335   1.824   5.716   2.280
 3777TIP3   OH211336   2.535   5.105   3.557
 3777TIP3    H111337   2.550   5.029   3.501
 3777TIP3    H211338   2.496   5.170   3.499
 3778TIP3   OH211339   4.621   4.248   2.672
 3778TIP3    H111340   4.634   4.162   2.712
 3778TIP3    H211341   4.562   4.232   2.599
 3779TIP3   OH211342   1.969   4.680   2.915
 3779TIP3    H111343   1.903   4.723   2.970
 3779TIP3    H211344   1.918   4.638   2.846
 3780TIP3   OH211345   0.232   4.633   0.787
 3780TIP3    H111346   0.186   4.696   0.732
 3780TIP3    H211347   0.322   4.635   0.757
 3781TIP3   OH211348   1.219   1.269   1.527
 3781TIP3    H111349   1.210   1.281   1.621
 3781TIP3    H211350   1.313   1.261   1.513
 3782TIP3   OH211351   5.576   3.902   1.696
 3782TIP3    H111352   5.579   3.993   1.726
 3782TIP3    H211353   5.624   3.903   1.613
 3783TIP3   OH211354   0.989   0.800   1.215
 3783TIP3    H111355   0.962   0.719   1.259
 3783TIP3    H211356   0.931   0.867   1.250
 3784TIP3   OH211357   4.068   4.492   0.101
 3784TIP3    H111358   4.057   4.423   0.166
 3784TIP3    H211359   3.980   4.526   0.087
 3785TIP3   OH211360   1.952   3.672   3.871
 3785TIP3    H111361   1.868   3.627   3.872
 3785TIP3    H211362   2.014   3.607   3.838
 3786TIP3   OH211363   4.253   1.735   5.108
 3786TIP3    H111364   4.214   1.661   5.062
 3786TIP3    H211365   4.214   1.732   5.195
 3787TIP3   OH211366   2.806   2.660   0.431
 3787TIP3    H111367   2.850   2.618   0.357
 3787TIP3    H211368   2.849   2.623   0.509
 3788TIP3   OH211369   3.746   5.846   0.444
 3788TIP3    H111370   3.662   5.803   0.429
 3788TIP3    H211371   3.773   5.816   0.531
 3789TIP3   OH211372   0.370   2.664   4.690
 3789TIP3    H111373   0.410   2.583   4.660
 3789TIP3    H211374   0.277   2.654   4.669
 3790TIP3   OH211375   4.622   5.826   4.674
 3790TIP3    H111376   4.560   5.891   4.640
 3790TIP3    H211377   4.700   5.837   4.619
 3791TIP3   OH211378   2.342   2.388   0.718
 3791TIP3    H111379   2.421   2.432   0.688
 3791TIP3    H211380   2.330   2.419   0.808
 3792TIP3   OH211381   5.113   5.288   5.013
 3792TIP3    H111382   5.159   5.369   5.037
 3792TIP3    H211383   5.038   5.285   5.072
 3793TIP3   OH211384   5.050   5.678   2.097
 3793TIP3    H111385   5.066   5.598   2.047
 3793TIP3    H211386   5.131   5.728   2.087
 3794TIP3   OH211387   0.787   4.880   1.792
 3794TIP3    H111388   0.817   4.969   1.770
 3794TIP3    H211389   0.859   4.823   1.765
 3795TIP3   OH211390   5.045   2.165   0.282
 3795TIP3    H111391   5.110   2.107   0.241
 3795TIP3    H211392   5.072   2.171   0.373
 3796TIP3   OH211393   1.451   1.912   3.177
 3796TIP3    H111394   1.424   1.944   3.263
 3796TIP3    H211395   1.404   1.968   3.115
 3797TIP3   OH211396   2.407   4.479   0.817
 3797TIP3    H111397   2.456   4.547   0.772
 3797TIP3    H211398   2.452   4.467   0.901
 3798TIP3   OH211399   1.051   5.259   0.560
 3798TIP3    H111400   1.025   5.351   0.554
 3798TIP3    H211401   1.138   5.262   0.601
 3799TIP3   OH211402   0.098   2.680   4.613
 3799TIP3    H111403   0.028   2.713   4.557
 3799TIP3    H211404   0.061   2.681   4.701
 3800TIP3   OH211405   4.959   0.948   3.854
 3800TIP3    H111406   4.951   0.968   3.761
 3800TIP3    H211407   4.923   1.025   3.898
 3801TIP3   OH211408   2.087   5.479   4.647
 3801TIP3    H111409   2.111   5.411   4.584
 3801TIP3    H211410   2.169   5.499   4.693
 3802TIP3   OH211411   2.248   5.911   3.956
 3802TIP3    H111412   2.267   5.966   3.881
 3802TIP3    H211413   2.333   5.893   3.995
 3803TIP3   OH211414   1.845   5.803   3.524
 3803TIP3    H111415   1.864   5.889   3.561
 3803TIP3    H211416   1.849   5.816   3.430
 3804TIP3   OH211417   2.487   2.365   4.125
 3804TIP3    H111418   2.448   2.298   4.069
 3804TIP3    H211419   2.413   2.403   4.173
 3805TIP3   OH211420   3.913   1.315   4.267
 3805TIP3    H111421   3.891   1.228   4.300
 3805TIP3    H211422   3.876   1.318   4.179
 3806TIP3   OH211423   5.413   1.995   1.490
 3806TIP3    H111424   5.344   2.027   1.547
 3806TIP3    H211425   5.452   2.074   1.453
 3807TIP3   OH211426   3.659   3.178   3.094
 3807TIP3    H111427   3.742   3.223   3.113
 3807TIP3    H211428   3.594   3.225   3.147
 3808TIP3   OH211429   1.487   3.913   2.027
 3808TIP3    H111430   1.487   3.819   2.011
 3808TIP3    H211431   1.527   3.951   1.948
 3809TIP3   OH211432   0.480   3.194   4.585
 3809TIP3    H111433   0.411   3.152   4.636
 3809TIP3    H211434   0.439   3.218   4.502
 3810TIP3   OH211435   5.985   0.505   5.150
 3810TIP3    H111436   5.891   0.504   5.168
 3810TIP3    H211437   5.992   0.534   5.059
 3811TIP3   OH211438   5.158   0.533   0.034
 3811TIP3    H111439   5.205   0.463   0.079
 3811TIP3    H211440   5.082   0.551   0.089
 3812TIP3   OH211441   2.147   2.238   1.064
 3812TIP3    H111442   2.119   2.242   0.972
 3812TIP3    H211443   2.086   2.296   1.110
 3813TIP3   OH211444   6.129   3.482   4.437
 3813TIP3    H111445   6.082   3.535   4.373
 3813TIP3    H211446   6.157   3.545   4.504
 3814TIP3   OH211447   2.151   1.358   2.122
 3814TIP3    H111448   2.235   1.383   2.161
 3814TIP3    H211449   2.164   1.368   2.028
 3815TIP3   OH211450   0.574   1.493   2.963
 3815TIP3    H111451   0.637   1.560   2.986
 3815TIP3    H211452   0.527   1.474   3.045
 3816TIP3   OH211453   0.626   2.586   2.157
 3816TIP3    H111454   0.641   2.621   2.245
 3816TIP3    H211455   0.530   2.583   2.149
 3817TIP3   OH211456   5.478   3.823   3.124
 3817TIP3    H111457   5.389   3.799   3.151
 3817TIP3    H211458   5.480   3.918   3.128
 3818TIP3   OH211459   3.978   2.753   0.895
 3818TIP3    H111460   3.911   2.806   0.939
 3818TIP3    H211461   4.036   2.726   0.966
 3819TIP3   OH211462   1.580   4.727   4.209
 3819TIP3    H111463   1.583   4.658   4.274
 3819TIP3    H211464   1.488   4.733   4.183
 3820TIP3   OH211465   0.296   4.325   2.664
 3820TIP3    H111466   0.303   4.232   2.682
 3820TIP3    H211467   0.282   4.365   2.750
 3821TIP3   OH211468   4.566   2.452   0.697
 3821TIP3    H111469   4.504   2.480   0.631
 3821TIP3    H211470   4.525   2.376   0.738
 3822TIP3   OH211471   3.377   0.745   3.209
 3822TIP3    H111472   3.316   0.752   3.137
 3822TIP3    H211473   3.450   0.693   3.175
 3823TIP3   OH211474   3.289   4.191   3.522
 3823TIP3    H111475   3.371   4.141   3.520
 3823TIP3    H211476   3.252   4.172   3.608
 3824TIP3   OH211477   6.109   4.617   2.538
 3824TIP3    H111478   6.065   4.701   2.549
 3824TIP3    H211479   6.198   4.640   2.512
 3825TIP3   OH211480   3.587   4.440   0.976
 3825TIP3    H111481   3.641   4.518   0.971
 3825TIP3    H211482   3.598   4.397   0.891
 3826TIP3   OH211483   4.839   4.991   2.121
 3826TIP3    H111484   4.761   5.026   2.077
 3826TIP3    H211485   4.896   5.066   2.132
 3827TIP3   OH211486   4.657   1.502   2.342
 3827TIP3    H111487   4.683   1.516   2.433
 3827TIP3    H211488   4.671   1.587   2.299
 3828TIP3   OH211489   5.401   1.738   1.184
 3828TIP3    H111490   5.463   1.811   1.177
 3828TIP3    H211491   5.315   1.780   1.173
 3829TIP3   OH211492   3.826  -0.006   3.081
 3829TIP3    H111493   3.734  -0.013   3.109
 3829TIP3    H211494   3.832   0.082   3.043
 3830TIP3   OH211495   1.116   0.935   2.746
 3830TIP3    H111496   1.074   0.878   2.681
 3830TIP3    H211497   1.086   0.901   2.830
 3831TIP3   OH211498   2.152   3.179   0.605
 3831TIP3    H111499   2.066   3.163   0.567
 3831TIP3    H211500   2.207   3.202   0.531
 3832TIP3   OH211501   0.427   0.573   4.771
 3832TIP3    H111502   0.475   0.654   4.759
 3832TIP3    H211503   0.417   0.537   4.683
 3833TIP3   OH211504   5.028   0.358   0.714
 3833TIP3    H111505   4.995   0.447   0.704
 3833TIP3    H211506   5.114   0.359   0.671
 3834TIP3   OH211507   3.582   5.332   3.851
 3834TIP3    H111508   3.526   5.402   3.884
 3834TIP3    H211509   3.634   5.373   3.782
 3835TIP3   OH211510   3.619   1.748   5.163
 3835TIP3    H111511   3.711   1.752   5.138
 3835TIP3    H211512   3.572   1.752   5.080
 3836TIP3   OH211513   1.333   1.617   2.572
 3836TIP3    H111514   1.344   1.522   2.569
 3836TIP3    H211515   1.345   1.640   2.664
 3837TIP3   OH211516   3.875   0.946   4.225
 3837TIP3    H111517   3.821   0.970   4.150
 3837TIP3    H211518   3.834   0.992   4.299
 3838TIP3   OH211519   3.381   2.887   2.140
 3838TIP3    H111520   3.391   2.917   2.230
 3838TIP3    H211521   3.289   2.862   2.133
 3839TIP3   OH211522   1.917   4.320   3.900
 3839TIP3    H111523   1.957   4.337   3.815
 3839TIP3    H211524   1.870   4.401   3.921
 3840TIP3   OH211525   1.602   4.073   4.166
 3840TIP3    H111526   1.620   4.095   4.074
 3840TIP3    H211527   1.674   4.016   4.191
 3841TIP3   OH211528   5.409   4.854   0.674
 3841TIP3    H111529   5.477   4.861   0.741
 3841TIP3    H211530   5.447   4.797   0.607
 3842TIP3   OH211531   5.406   5.684   3.531
 3842TIP3    H111532   5.365   5.743   3.468
 3842TIP3    H211533   5.415   5.737   3.610
 3843TIP3   OH211534   4.407   3.640   0.617
 3843TIP3    H111535   4.414   3.689   0.535
 3843TIP3    H211536   4.497   3.638   0.650
 3844TIP3   OH211537   2.839   1.950   4.004
 3844TIP3    H111538   2.800   1.925   4.087
 3844TIP3    H211539   2.835   2.045   4.002
 3845TIP3   OH211540   1.098   5.029   1.396
 3845TIP3    H111541   1.028   5.033   1.461
 3845TIP3    H211542   1.167   5.084   1.432
 3846TIP3   OH211543   2.259   5.343   3.644
 3846TIP3    H111544   2.193   5.358   3.712
 3846TIP3    H211545   2.274   5.429   3.605
 3847TIP3   OH211546   3.862   5.862   2.980
 3847TIP3    H111547   3.879   5.938   3.035
 3847TIP3    H211548   3.863   5.788   3.041
 3848TIP3   OH211549   1.970   5.461   0.286
 3848TIP3    H111550   2.032   5.396   0.317
 3848TIP3    H211551   1.988   5.539   0.338
 3849TIP3   OH211552   4.478   2.359   1.247
 3849TIP3    H111553   4.489   2.278   1.296
 3849TIP3    H211554   4.551   2.360   1.185
 3850TIP3   OH211555   6.176   5.939   3.441
 3850TIP3    H111556   6.252   5.984   3.403
 3850TIP3    H211557   6.212   5.890   3.515
 3851TIP3   OH211558   4.923   1.890   0.607
 3851TIP3    H111559   4.923   1.833   0.530
 3851TIP3    H211560   4.848   1.948   0.594
 3852TIP3   OH211561   6.258   0.915   1.364
 3852TIP3    H111562   6.329   0.860   1.396
 3852TIP3    H211563   6.290   0.949   1.280
 3853TIP3   OH211564   3.853   3.678   4.990
 3853TIP3    H111565   3.809   3.763   4.985
 3853TIP3    H211566   3.942   3.699   5.019
 3854TIP3   OH211567   1.927   4.653   0.099
 3854TIP3    H111568   1.915   4.625   0.008
 3854TIP3    H211569   1.859   4.718   0.114
 3855TIP3   OH211570   4.909   3.107   1.236
 3855TIP3    H111571   4.871   3.074   1.155
 3855TIP3    H211572   4.878   3.047   1.304
 3856TIP3   OH211573   1.809   1.272   1.050
 3856TIP3    H111574   1.750   1.333   1.005
 3856TIP3    H211575   1.761   1.247   1.129
 3857TIP3   OH211576   2.084   0.932   4.794
 3857TIP3    H111577   2.004   0.920   4.742
 3857TIP3    H211578   2.119   1.016   4.764
 3858TIP3   OH211579   3.152   4.941   2.450
 3858TIP3    H111580   3.121   4.859   2.488
 3858TIP3    H211581   3.197   4.914   2.370
 3859TIP3   OH211582   5.114   1.651   1.608
 3859TIP3    H111583   5.044   1.689   1.554
 3859TIP3    H211584   5.195   1.676   1.564
 3860TIP3   OH211585   4.368   2.978   2.827
 3860TIP3    H111586   4.390   2.931   2.908
 3860TIP3    H211587   4.281   3.013   2.842
 3861TIP3   OH211588   0.499  -0.023   0.290
 3861TIP3    H111589   0.428  -0.009   0.228
 3861TIP3    H211590   0.479   0.034   0.364
 3862TIP3   OH211591   4.953   1.603   3.832
 3862TIP3    H111592   4.960   1.649   3.916
 3862TIP3    H211593   5.030   1.546   3.830
 3863TIP3   OH211594   5.873   1.768   2.516
 3863TIP3    H111595   5.799   1.715   2.545
 3863TIP3    H211596   5.866   1.769   2.421
 3864TIP3   OH211597   4.501   5.391   1.799
 3864TIP3    H111598   4.431   5.326   1.806
 3864TIP3    H211599   4.538   5.379   1.712
 3865TIP3   OH211600   5.750   0.431   0.475
 3865TIP3    H111601   5.703   0.362   0.429
 3865TIP3    H211602   5.696   0.450   0.552
 3866TIP3   OH211603   3.789   0.326   4.434
 3866TIP3    H111604   3.696   0.340   4.447
 3866TIP3    H211605   3.830   0.359   4.514
 3867TIP3   OH211606   0.686   5.929   1.021
 3867TIP3    H111607   0.633   5.893   0.949
 3867TIP3    H211608   0.685   5.862   1.088
 3868TIP3   OH211609   1.806   1.347   3.433
 3868TIP3    H111610   1.832   1.439   3.440
 3868TIP3    H211611   1.834   1.307   3.516
 3869TIP3   OH211612   6.315   4.433   1.359
 3869TIP3    H111613   6.260   4.403   1.431
 3869TIP3    H211614   6.295   4.527   1.351
 3870TIP3   OH211615   4.863   4.956   4.897
 3870TIP3    H111616   4.854   5.019   4.826
 3870TIP3    H211617   4.928   4.995   4.956
 3871TIP3   OH211618   1.875   3.314   4.198
 3871TIP3    H111619   1.893   3.406   4.220
 3871TIP3    H211620   1.808   3.288   4.262
 3872TIP3   OH211621   1.266   1.226   0.372
 3872TIP3    H111622   1.273   1.239   0.467
 3872TIP3    H211623   1.350   1.189   0.347
 3873TIP3   OH211624   4.040   3.607   3.150
 3873TIP3    H111625   4.026   3.702   3.148
 3873TIP3    H211626   4.067   3.585   3.060
 3874TIP3   OH211627   6.100   3.266   2.993
 3874TIP3    H111628   6.047   3.344   3.011
 3874TIP3    H211629   6.133   3.280   2.904
 3875TIP3   OH211630   4.647   2.267   1.880
 3875TIP3    H111631   4.615   2.312   1.801
 3875TIP3    H211632   4.735   2.301   1.892
 3876TIP3   OH211633   4.434   5.116   0.275
 3876TIP3    H111634   4.423   5.178   0.348
 3876TIP3    H211635   4.371   5.145   0.209
 3877TIP3   OH211636   2.613   0.944   1.526
 3877TIP3    H111637   2.566   0.862   1.541
 3877TIP3    H211638   2.656   0.963   1.609
 3878TIP3   OH211639   4.086   5.100   3.285
 3878TIP3    H111640   4.083   5.005   3.284
 3878TIP3    H211641   4.014   5.128   3.230
 3879TIP3   OH211642   0.084   2.621   0.666
 3879TIP3    H111643   0.179   2.605   0.662
 3879TIP3    H211644   0.075   2.715   0.650
 3880TIP3   OH211645   3.645   0.264   3.751
 3880TIP3    H111646   3.657   0.227   3.664
 3880TIP3    H211647   3.554   0.291   3.754
 3881TIP3   OH211648   4.499   2.926   4.478
 3881TIP3    H111649   4.421   2.934   4.424
 3881TIP3    H211650   4.467   2.931   4.568
 3882TIP3   OH211651   5.313   1.354   4.797
 3882TIP3    H111652   5.341   1.265   4.776
 3882TIP3    H211653   5.224   1.345   4.829
 3883TIP3   OH211654   3.007   0.344   4.247
 3883TIP3    H111655   2.944   0.274   4.229
 3883TIP3    H211656   3.065   0.307   4.314
 3884TIP3   OH211657   0.324   3.409   3.031
 3884TIP3    H111658   0.376   3.484   3.002
 3884TIP3    H211659   0.350   3.396   3.122
 3885TIP3   OH211660   3.550   2.692   4.674
 3885TIP3    H111661   3.539   2.768   4.733
 3885TIP3    H211662   3.600   2.629   4.726
 3886TIP3   OH211663   3.647   2.503   0.178
 3886TIP3    H111664   3.705   2.555   0.234
 3886TIP3    H211665   3.562   2.506   0.222
 3887TIP3   OH211666   4.008   0.991   1.487
 3887TIP3    H111667   4.020   1.054   1.416
 3887TIP3    H211668   3.989   1.045   1.564
 3888TIP3   OH211669   3.516   3.122   0.611
 3888TIP3    H111670   3.504   3.040   0.563
 3888TIP3    H211671   3.436   3.131   0.663
 3889TIP3   OH211672   2.082   5.617   1.826
 3889TIP3    H111673   2.059   5.622   1.733
 3889TIP3    H211674   2.034   5.690   1.867
 3890TIP3   OH211675   0.615   0.352   2.520
 3890TIP3    H111676   0.591   0.294   2.591
 3890TIP3    H211677   0.619   0.296   2.443
 3891TIP3   OH211678   0.225   5.724   0.347
 3891TIP3    H111679   0.214   5.747   0.439
 3891TIP3    H211680   0.137   5.711   0.314
 3892TIP3   OH211681   0.884   1.290   3.889
 3892TIP3    H111682   0.917   1.270   3.802
 3892TIP3    H211683   0.859   1.205   3.925
 3893TIP3   OH211684   0.841   4.284   5.039
 3893TIP3    H111685   0.784   4.353   5.006
 3893TIP3    H211686   0.786   4.235   5.101
 3894TIP3   OH211687   4.627   2.901   0.540
 3894TIP3    H111688   4.564   2.848   0.492
 3894TIP3    H211689   4.589   2.911   0.627
 3895TIP3   OH211690   3.957   5.597   0.848
 3895TIP3    H111691   4.027   5.534   0.833
 3895TIP3    H211692   3.919   5.571   0.932
 3896TIP3   OH211693   2.281   4.894   4.914
 3896TIP3    H111694   2.278   4.815   4.968
 3896TIP3    H211695   2.294   4.861   4.825
 3897TIP3   OH211696   5.192   3.653   1.562
 3897TIP3    H111697   5.265   3.596   1.534
 3897TIP3    H211698   5.230   3.705   1.633
 3898TIP3   OH211699   1.338   1.162   2.084
 3898TIP3    H111700   1.291   1.134   2.163
 3898TIP3    H211701   1.271   1.196   2.026
 3899TIP3   OH211702   0.754   1.693   3.006
 3899TIP3    H111703   0.705   1.773   3.023
 3899TIP3    H211704   0.812   1.715   2.933
 3900TIP3   OH211705   0.940   2.660   1.999
 3900TIP3    H111706   0.850   2.628   2.004
 3900TIP3    H211707   0.977   2.616   1.923
 3901TIP3   OH211708   1.779   2.423   1.199
 3901TIP3    H111709   1.777   2.328   1.207
 3901TIP3    H211710   1.795   2.455   1.287
 3902TIP3   OH211711   4.305   1.721   2.929
 3902TIP3    H111712   4.331   1.786   2.994
 3902TIP3    H211713   4.332   1.758   2.845
 3903TIP3   OH211714   1.291   5.399   2.425
 3903TIP3    H111715   1.199   5.372   2.417
 3903TIP3    H211716   1.298   5.474   2.366
 3904TIP3   OH211717   4.672   5.899   2.009
 3904TIP3    H111718   4.631   5.829   1.959
 3904TIP3    H211719   4.763   5.900   1.980
 3905TIP3   OH211720   2.675   4.345   2.858
 3905TIP3    H111721   2.631   4.278   2.806
 3905TIP3    H211722   2.605   4.405   2.884
 3906TIP3   OH211723   2.866   1.885   5.063
 3906TIP3    H111724   2.914   1.917   5.139
 3906TIP3    H211725   2.934   1.857   5.002
 3907TIP3   OH211726   0.495   2.428   3.317
 3907TIP3    H111727   0.402   2.448   3.320
 3907TIP3    H211728   0.539   2.508   3.346
 3908TIP3   OH211729   0.550   5.665   4.193
 3908TIP3    H111730   0.635   5.658   4.150
 3908TIP3    H211731   0.506   5.583   4.172
 3909TIP3   OH211732   6.210   0.180   0.877
 3909TIP3    H111733   6.151   0.255   0.866
 3909TIP3    H211734   6.263   0.202   0.954
 3910TIP3   OH211735   2.724   1.417   2.226
 3910TIP3    H111736   2.785   1.360   2.273
 3910TIP3    H211737   2.728   1.500   2.273
 3911TIP3   OH211738   2.330   3.487   3.531
 3911TIP3    H111739   2.357   3.543   3.459
 3911TIP3    H211740   2.392   3.506   3.601
 3912TIP3   OH211741   2.018   1.875   2.661
 3912TIP3    H111742   1.954   1.853   2.730
 3912TIP3    H211743   1.991   1.961   2.630
 3913TIP3   OH211744   0.474   5.414   4.858
 3913TIP3    H111745   0.438   5.432   4.945
 3913TIP3    H211746   0.398   5.417   4.800
 3914TIP3   OH211747   1.116   0.999   4.371
 3914TIP3    H111748   1.099   0.955   4.288
 3914TIP3    H211749   1.106   1.092   4.352
 3915TIP3   OH211750   6.225   4.297   2.866
 3915TIP3    H111751   6.280   4.349   2.807
 3915TIP3    H211752   6.184   4.361   2.924
 3916TIP3   OH211753   1.392   5.337   4.386
 3916TIP3    H111754   1.429   5.296   4.464
 3916TIP3    H211755   1.449   5.412   4.368
 3917TIP3   OH211756   2.257   0.713   2.075
 3917TIP3    H111757   2.352   0.706   2.085
 3917TIP3    H211758   2.245   0.741   1.984
 3918TIP3   OH211759   0.965   0.336   1.885
 3918TIP3    H111760   1.023   0.375   1.950
 3918TIP3    H211761   0.916   0.410   1.849
 3919TIP3   OH211762   0.376   0.241   3.828
 3919TIP3    H111763   0.299   0.185   3.820
 3919TIP3    H211764   0.444   0.197   3.777
 3920TIP3   OH211765   1.803   5.685   3.239
 3920TIP3    H111766   1.778   5.596   3.215
 3920TIP3    H211767   1.725   5.737   3.219
 3921TIP3   OH211768   6.133   2.585   1.986
 3921TIP3    H111769   6.218   2.600   1.944
 3921TIP3    H211770   6.125   2.656   2.049
 3922TIP3   OH211771   1.336   0.655   1.111
 3922TIP3    H111772   1.317   0.702   1.030
 3922TIP3    H211773   1.273   0.583   1.113
 3923TIP3   OH211774   2.009   1.399   2.812
 3923TIP3    H111775   2.063   1.452   2.871
 3923TIP3    H211776   1.928   1.384   2.861
 3924TIP3   OH211777   3.343   2.525   3.533
 3924TIP3    H111778   3.283   2.524   3.458
 3924TIP3    H211779   3.287   2.549   3.608
 3925TIP3   OH211780   5.146   4.070   2.767
 3925TIP3    H111781   5.223   4.019   2.742
 3925TIP3    H211782   5.163   4.158   2.733
 3926TIP3   OH211783   1.585   4.538   4.473
 3926TIP3    H111784   1.641   4.565   4.546
 3926TIP3    H211785   1.506   4.503   4.515
 3927TIP3   OH211786   1.849   0.105   3.097
 3927TIP3    H111787   1.798   0.120   3.017
 3927TIP3    H211788   1.787   0.125   3.168
 3928TIP3   OH211789   2.302   0.594   3.901
 3928TIP3    H111790   2.274   0.506   3.873
 3928TIP3    H211791   2.396   0.595   3.885
 3929TIP3   OH211792   5.019   1.452   1.021
 3929TIP3    H111793   5.101   1.415   0.988
 3929TIP3    H211794   5.003   1.407   1.104
 3930TIP3   OH211795   2.101   2.660   3.288
 3930TIP3    H111796   2.065   2.739   3.328
 3930TIP3    H211797   2.172   2.634   3.346
 3931TIP3   OH211798   5.319   3.251   2.636
 3931TIP3    H111799   5.407   3.283   2.617
 3931TIP3    H211800   5.304   3.273   2.727
 3932TIP3   OH211801   0.645   1.362   2.536
 3932TIP3    H111802   0.681   1.383   2.449
 3932TIP3    H211803   0.689   1.281   2.561
 3933TIP3   OH211804   5.636   5.524   1.436
 3933TIP3    H111805   5.557   5.469   1.436
 3933TIP3    H211806   5.617   5.593   1.373
 3934TIP3   OH211807   0.288   3.980   3.225
 3934TIP3    H111808   0.379   4.006   3.241
 3934TIP3    H211809   0.266   4.019   3.141
 3935TIP3   OH211810   4.070   5.396   4.284
 3935TIP3    H111811   3.998   5.337   4.307
 3935TIP3    H211812   4.064   5.405   4.189
 3936TIP3   OH211813   1.218   2.736   4.478
 3936TIP3    H111814   1.126   2.710   4.487
 3936TIP3    H211815   1.265   2.654   4.464
 3937TIP3   OH211816   4.008   0.797   3.489
 3937TIP3    H111817   3.968   0.812   3.574
 3937TIP3    H211818   4.096   0.835   3.497
 3938TIP3   OH211819   4.710   4.006   0.866
 3938TIP3    H111820   4.633   3.949   0.866
 3938TIP3    H211821   4.772   3.962   0.924
 3939TIP3   OH211822   6.132   0.897   2.987
 3939TIP3    H111823   6.043   0.917   3.017
 3939TIP3    H211824   6.124   0.882   2.893
 3940TIP3   OH211825   5.974   5.784   0.695
 3940TIP3    H111826   5.985   5.876   0.669
 3940TIP3    H211827   5.887   5.782   0.734
 3941TIP3   OH211828   0.360   5.266   3.286
 3941TIP3    H111829   0.306   5.201   3.332
 3941TIP3    H211830   0.449   5.247   3.316
 3942TIP3   OH211831   4.521   2.199   0.468
 3942TIP3    H111832   4.433   2.182   0.503
 3942TIP3    H211833   4.511   2.278   0.415
 3943TIP3   OH211834   5.459   3.359   3.556
 3943TIP3    H111835   5.539   3.310   3.574
 3943TIP3    H211836   5.482   3.450   3.575
 3944TIP3   OH211837   2.238   1.758   2.781
 3944TIP3    H111838   2.265   1.825   2.845
 3944TIP3    H211839   2.172   1.802   2.727
 3945TIP3   OH211840   4.739   2.949   2.070
 3945TIP3    H111841   4.714   2.936   2.162
 3945TIP3    H211842   4.810   3.012   2.073
 3946TIP3   OH211843   1.278   3.646   3.398
 3946TIP3    H111844   1.335   3.717   3.371
 3946TIP3    H211845   1.336   3.585   3.445
 3947TIP3   OH211846   2.104   2.129   4.575
 3947TIP3    H111847   2.136   2.134   4.665
 3947TIP3    H211848   2.014   2.098   4.583
 3948TIP3   OH211849   2.289   2.800   2.537
 3948TIP3    H111850   2.285   2.720   2.483
 3948TIP3    H211851   2.373   2.794   2.582
 3949TIP3   OH211852   6.163   4.427   0.918
 3949TIP3    H111853   6.258   4.423   0.921
 3949TIP3    H211854   6.143   4.479   0.840
 3950TIP3   OH211855   1.609   1.537   1.243
 3950TIP3    H111856   1.615   1.504   1.333
 3950TIP3    H211857   1.694   1.518   1.205
 3951TIP3   OH211858   1.779   0.724   5.147
 3951TIP3    H111859   1.811   0.679   5.225
 3951TIP3    H211860   1.854   0.775   5.117
 3952TIP3   OH211861   3.128   0.204   4.464
 3952TIP3    H111862   3.203   0.195   4.523
 3952TIP3    H211863   3.098   0.114   4.450
 3953TIP3   OH211864   4.185   4.716   4.700
 3953TIP3    H111865   4.099   4.755   4.684
 3953TIP3    H211866   4.195   4.652   4.629
 3954TIP3   OH211867   5.096   4.876   0.353
 3954TIP3    H111868   5.143   4.935   0.411
 3954TIP3    H211869   5.123   4.788   0.381
 3955TIP3   OH211870   0.669   0.159   4.535
 3955TIP3    H111871   0.711   0.096   4.595
 3955TIP3    H211872   0.646   0.107   4.458
 3956TIP3   OH211873   4.638   3.352   5.104
 3956TIP3    H111874   4.701   3.392   5.044
 3956TIP3    H211875   4.636   3.410   5.180
 3957TIP3   OH211876   2.728   4.380   5.159
 3957TIP3    H111877   2.643   4.348   5.188
 3957TIP3    H211878   2.758   4.314   5.096
 3958TIP3   OH211879   2.385   1.621   0.355
 3958TIP3    H111880   2.366   1.690   0.292
 3958TIP3    H211881   2.476   1.636   0.381
 3959TIP3   OH211882   1.817   5.579   1.346
 3959TIP3    H111883   1.802   5.667   1.379
 3959TIP3    H211884   1.737   5.531   1.371
 3960TIP3   OH211885   1.311   3.512   0.726
 3960TIP3    H111886   1.307   3.548   0.814
 3960TIP3    H211887   1.335   3.420   0.739
 3961TIP3   OH211888   3.464   2.323   5.084
 3961TIP3    H111889   3.471   2.418   5.083
 3961TIP3    H211890   3.415   2.303   5.164
 3962TIP3   OH211891   2.138   5.277   3.301
 3962TIP3    H111892   2.056   5.229   3.290
 3962TIP3    H211893   2.205   5.208   3.313
 3963TIP3   OH211894   0.760   2.788   4.100
 3963TIP3    H111895   0.816   2.827   4.167
 3963TIP3    H211896   0.720   2.863   4.056
 3964TIP3   OH211897   0.954   5.047   4.884
 3964TIP3    H111898   0.961   5.009   4.797
 3964TIP3    H211899   1.003   5.129   4.879
 3965TIP3   OH211900   0.427   0.802   0.900
 3965TIP3    H111901   0.396   0.846   0.821
 3965TIP3    H211902   0.483   0.867   0.943
 3966TIP3   OH211903   2.165   2.018   4.312
 3966TIP3    H111904   2.229   1.947   4.317
 3966TIP3    H211905   2.181   2.069   4.392
 3967TIP3   OH211906   1.502   0.786   2.265
 3967TIP3    H111907   1.590   0.749   2.264
 3967TIP3    H211908   1.505   0.857   2.200
 3968TIP3   OH211909   2.688   4.613   3.101
 3968TIP3    H111910   2.674   4.608   3.006
 3968TIP3    H211911   2.640   4.692   3.128
 3969TIP3   OH211912   4.788   3.872   3.259
 3969TIP3    H111913   4.756   3.910   3.177
 3969TIP3    H211914   4.788   3.945   3.321
 3970TIP3   OH211915   2.125   5.079   3.548
 3970TIP3    H111916   2.178   5.000   3.552
 3970TIP3    H211917   2.188   5.151   3.561
 3971TIP3   OH211918   1.232   0.987   3.989
 3971TIP3    H111919   1.312   1.040   3.991
 3971TIP3    H211920   1.263   0.898   4.006
 3972TIP3   OH211921   5.989   3.633   4.258
 3972TIP3    H111922   6.038   3.626   4.176
 3972TIP3    H211923   5.897   3.636   4.231
 3973TIP3   OH211924   5.257   5.645   3.097
 3973TIP3    H111925   5.215   5.561   3.079
 3973TIP3    H211926   5.327   5.624   3.158
 3974TIP3   OH211927   4.355   4.355   4.461
 3974TIP3    H111928   4.322   4.281   4.511
 3974TIP3    H211929   4.449   4.357   4.480
 3975TIP3   OH211930   2.584   1.520   3.282
 3975TIP3    H111931   2.566   1.450   3.346
 3975TIP3    H211932   2.520   1.504   3.212
 3976TIP3   OH211933   6.244   1.806   2.935
 3976TIP3    H111934   6.180   1.831   2.868
 3976TIP3    H211935   6.191   1.786   3.012
 3977TIP3   OH211936   5.091   4.486   1.586
 3977TIP3    H111937   5.173   4.529   1.561
 3977TIP3    H211938   5.092   4.402   1.539
 3978TIP3   OH211939   1.310   4.987   4.490
 3978TIP3    H111940   1.280   5.014   4.576
 3978TIP3    H211941   1.402   5.016   4.486
 3979TIP3   OH211942   2.467   1.607   3.794
 3979TIP3    H111943   2.428   1.520   3.801
 3979TIP3    H211944   2.393   1.664   3.774
 3980TIP3   OH211945   1.544   4.500   2.585
 3980TIP3    H111946   1.487   4.557   2.637
 3980TIP3    H211947   1.491   4.477   2.509
 3981TIP3   OH211948   1.653   5.900   1.081
 3981TIP3    H111949   1.641   5.971   1.144
 3981TIP3    H211950   1.734   5.857   1.107
 3982TIP3   OH211951   3.637   1.378   0.686
 3982TIP3    H111952   3.600   1.465   0.700
 3982TIP3    H211953   3.686   1.386   0.604
 3983TIP3   OH211954   0.667   3.405   3.957
 3983TIP3    H111955   0.574   3.415   3.979
 3983TIP3    H211956   0.696   3.494   3.936
 3984TIP3   OH211957   5.600   3.203   1.130
 3984TIP3    H111958   5.642   3.287   1.147
 3984TIP3    H211959   5.673   3.141   1.120
 3985TIP3   OH211960   6.187   5.007   3.710
 3985TIP3    H111961   6.208   5.100   3.723
 3985TIP3    H211962   6.151   4.979   3.794
 3986TIP3   OH211963   5.301   2.808   2.561
 3986TIP3    H111964   5.323   2.829   2.652
 3986TIP3    H211965   5.207   2.792   2.561
 3987TIP3   OH211966   4.972   3.668   2.124
 3987TIP3    H111967   4.948   3.624   2.043
 3987TIP3    H211968   5.014   3.600   2.177
 3988TIP3   OH211969   4.501   2.117   2.570
 3988TIP3    H111970   4.463   2.170   2.641
 3988TIP3    H211971   4.446   2.136   2.494
 3989TIP3   OH211972   4.226   0.977   0.897
 3989TIP3    H111973   4.241   0.905   0.836
 3989TIP3    H211974   4.142   0.956   0.939
 3990TIP3   OH211975   3.139   2.163   3.683
 3990TIP3    H111976   3.074   2.094   3.671
 3990TIP3    H211977   3.089   2.244   3.676
 3991TIP3   OH211978   5.015   5.494   1.553
 3991TIP3    H111979   5.031   5.519   1.644
 3991TIP3    H211980   4.980   5.574   1.512
 3992TIP3   OH211981   4.660   5.068   2.875
 3992TIP3    H111982   4.658   5.103   2.786
 3992TIP3    H211983   4.754   5.058   2.895
 3993TIP3   OH211984   0.366   1.633   3.770
 3993TIP3    H111985   0.280   1.673   3.780
 3993TIP3    H211986   0.409   1.684   3.702
 3994TIP3   OH211987   0.842   5.597   4.870
 3994TIP3    H111988   0.782   5.658   4.911
 3994TIP3    H211989   0.844   5.522   4.930
 3995TIP3   OH211990   5.402   1.933   3.823
 3995TIP3    H111991   5.494   1.938   3.846
 3995TIP3    H211992   5.361   1.884   3.894
 3996TIP3   OH211993   5.853   0.643   1.256
 3996TIP3    H111994   5.853   0.547   1.262
 3996TIP3    H211995   5.936   0.664   1.214
 3997TIP3   OH211996   2.575   2.107   0.230
 3997TIP3    H111997   2.657   2.057   0.224
 3997TIP3    H211998   2.542   2.111   0.141
 3998TIP3   OH211999   0.775   2.725   3.145
 3998TIP3    H112000   0.783   2.820   3.130
 3998TIP3    H212001   0.685   2.713   3.174
 3999TIP3   OH212002   3.012   0.866   1.632
 3999TIP3    H112003   3.072   0.870   1.706
 3999TIP3    H212004   2.926   0.881   1.670
 4000TIP3   OH212005   3.921   4.654   2.789
 4000TIP3    H112006   3.841   4.677   2.743
 4000TIP3    H212007   3.899   4.575   2.838
 4001TIP3   OH212008   3.227   0.232   0.436
 4001TIP3    H112009   3.167   0.286   0.489
 4001TIP3    H212010   3.297   0.209   0.497
 4002TIP3   OH212011   4.440   1.586   3.481
 4002TIP3    H112012   4.510   1.525   3.458
 4002TIP3    H212013   4.483   1.655   3.531
 4003TIP3   OH212014   4.916   3.583   0.919
 4003TIP3    H112015   4.891   3.648   0.984
 4003TIP3    H212016   4.972   3.521   0.967
 4004TIP3   OH212017   5.803   1.611   3.599
 4004TIP3    H112018   5.711   1.606   3.575
 4004TIP3    H212019   5.816   1.703   3.623
 4005TIP3   OH212020   4.625  -0.031   3.058
 4005TIP3    H112021   4.678   0.046   3.078
 4005TIP3    H212022   4.583  -0.010   2.975
 4006TIP3   OH212023   5.599   0.274   2.044
 4006TIP3    H112024   5.559   0.361   2.053
 4006TIP3    H212025   5.684   0.283   2.088
 4007TIP3   OH212026   0.383   3.914   1.697
 4007TIP3    H112027   0.474   3.921   1.669
 4007TIP3    H212028   0.332   3.929   1.617
 4008TIP3   OH212029   2.792   3.246   0.628
 4008TIP3    H112030   2.744   3.310   0.577
 4008TIP3    H212031   2.727   3.178   0.649
 4009TIP3   OH212032   2.143   1.287   0.246
 4009TIP3    H112033   2.064   1.269   0.196
 4009TIP3    H212034   2.214   1.249   0.194
 4010TIP3   OH212035   1.879   5.644   4.546
 4010TIP3    H112036   1.897   5.738   4.553
 4010TIP3    H212037   1.936   5.614   4.475
 4011TIP3   OH212038   5.969   4.636   3.443
 4011TIP3    H112039   5.968   4.693   3.520
 4011TIP3    H212040   6.059   4.641   3.411
 4012TIP3   OH212041   4.466   1.184   3.175
 4012TIP3    H112042   4.484   1.111   3.117
 4012TIP3    H212043   4.409   1.242   3.124
 4013TIP3   OH212044   1.180   2.269   3.738
 4013TIP3    H112045   1.186   2.185   3.692
 4013TIP3    H212046   1.091   2.300   3.720
 4014TIP3   OH212047   4.922   1.543   4.965
 4014TIP3    H112048   4.979   1.583   5.031
 4014TIP3    H212049   4.834   1.568   4.991
 4015TIP3   OH212050   2.617   4.745   2.206
 4015TIP3    H112051   2.578   4.832   2.193
 4015TIP3    H212052   2.705   4.763   2.240
 4016TIP3   OH212053   0.174   1.510   1.285
 4016TIP3    H112054   0.163   1.567   1.209
 4016TIP3    H212055   0.232   1.559   1.343
 4017TIP3   OH212056   2.517   3.532   4.094
 4017TIP3    H112057   2.423   3.518   4.083
 4017TIP3    H212058   2.551   3.538   4.004
 4018TIP3   OH212059   3.766   0.381   4.918
 4018TIP3    H112060   3.686   0.396   4.867
 4018TIP3    H212061   3.737   0.332   4.995
 4019TIP3   OH212062   4.429   3.892   0.921
 4019TIP3    H112063   4.390   3.972   0.884
 4019TIP3    H212064   4.363   3.825   0.907
 4020TIP3   OH212065   5.284   3.149   3.043
 4020TIP3    H112066   5.373   3.169   3.014
 4020TIP3    H212067   5.287   3.057   3.068
 4021TIP3   OH212068   4.611   2.383   0.996
 4021TIP3    H112069   4.575   2.471   0.990
 4021TIP3    H212070   4.551   2.329   0.943
 4022TIP3   OH212071   0.685   2.997   3.146
 4022TIP3    H112072   0.684   3.079   3.097
 4022TIP3    H212073   0.634   3.016   3.225
 4023TIP3   OH212074   5.253   0.855   2.724
 4023TIP3    H112075   5.205   0.867   2.642
 4023TIP3    H212076   5.345   0.860   2.699
 4024TIP3   OH212077   1.024   0.068   4.392
 4024TIP3    H112078   1.041   0.091   4.484
 4024TIP3    H212079   0.970  -0.011   4.397
 4025TIP3   OH212080   2.793   5.815   1.970
 4025TIP3    H112081   2.839   5.772   2.042
 4025TIP3    H212082   2.822   5.906   1.974
 4026TIP3   OH212083   5.974   5.510   0.890
 4026TIP3    H112084   5.890   5.464   0.892
 4026TIP3    H212085   5.952   5.597   0.857
 4027TIP3   OH212086   4.577   5.519   4.415
 4027TIP3    H112087   4.619   5.504   4.500
 4027TIP3    H212088   4.524   5.597   4.428
 4028TIP3   OH212089   0.367   2.726   3.051
 4028TIP3    H112090   0.450   2.736   3.097
 4028TIP3    H212091   0.339   2.636   3.072
 4029TIP3   OH212092   5.404   3.914   0.879
 4029TIP3    H112093   5.437   3.960   0.956
 4029TIP3    H212094   5.339   3.973   0.841
 4030TIP3   OH212095   0.886   4.582   1.105
 4030TIP3    H112096   0.978   4.576   1.131
 4030TIP3    H212097   0.883   4.652   1.041
 4031TIP3   OH212098   2.094   0.935   2.723
 4031TIP3    H112099   2.148   1.014   2.723
 4031TIP3    H212100   2.031   0.949   2.793
 4032TIP3   OH212101   2.513   5.724   3.216
 4032TIP3    H112102   2.490   5.806   3.172
 4032TIP3    H212103   2.607   5.732   3.232
 4033TIP3   OH212104   2.155   1.859   1.801
 4033TIP3    H112105   2.245   1.863   1.769
 4033TIP3    H212106   2.125   1.771   1.775
 4034TIP3   OH212107   3.119   5.826   5.184
 4034TIP3    H112108   3.119   5.733   5.161
 4034TIP3    H212109   3.046   5.863   5.133
 4035TIP3   OH212110   0.508   5.396   1.725
 4035TIP3    H112111   0.530   5.476   1.678
 4035TIP3    H212112   0.445   5.351   1.667
 4036TIP3   OH212113   5.449   4.794   4.722
 4036TIP3    H112114   5.533   4.788   4.767
 4036TIP3    H212115   5.437   4.888   4.707
 4037TIP3   OH212116   3.543   5.468   2.789
 4037TIP3    H112117   3.636   5.463   2.810
 4037TIP3    H212118   3.527   5.394   2.730
 4038TIP3   OH212119   0.847   1.034   0.070
 4038TIP3    H112120   0.891   1.051   0.153
 4038TIP3    H212121   0.884   0.951   0.039
 4039TIP3   OH212122   1.979   4.926   4.421
 4039TIP3    H112123   2.020   5.012   4.432
 4039TIP3    H212124   1.962   4.896   4.510
 4040TIP3   OH212125   2.498   1.742   3.440
 4040TIP3    H112126   2.567   1.805   3.418
 4040TIP3    H212127   2.512   1.669   3.380
 4041TIP3   OH212128   3.651   5.693   2.407
 4041TIP3    H112129   3.650   5.700   2.502
 4041TIP3    H212130   3.705   5.767   2.378
 4042TIP3   OH212131   1.787   1.671   2.186
 4042TIP3    H112132   1.733   1.747   2.164
 4042TIP3    H212133   1.726   1.609   2.225
 4043TIP3   OH212134   5.535   4.388   3.887
 4043TIP3    H112135   5.477   4.319   3.857
 4043TIP3    H212136   5.533   4.381   3.983
 4044TIP3   OH212137   4.211   3.102   2.527
 4044TIP3    H112138   4.165   3.102   2.611
 4044TIP3    H212139   4.190   3.017   2.488
 4045TIP3   OH212140   5.174   2.691   1.848
 4045TIP3    H112141   5.082   2.671   1.867
 4045TIP3    H212142   5.195   2.761   1.910
 4046TIP3   OH212143   1.161   1.184   3.387
 4046TIP3    H112144   1.066   1.182   3.372
 4046TIP3    H212145   1.180   1.101   3.430
 4047TIP3   OH212146   1.017   5.247   4.183
 4047TIP3    H112147   0.970   5.241   4.100
 4047TIP3    H212148   1.039   5.157   4.205
 4048TIP3   OH212149   2.596   1.300   3.458
 4048TIP3    H112150   2.643   1.232   3.505
 4048TIP3    H212151   2.614   1.380   3.507
 4049TIP3   OH212152   3.196   5.399   0.282
 4049TIP3    H112153   3.103   5.424   0.288
 4049TIP3    H212154   3.227   5.441   0.202
 4050TIP3   OH212155   4.040   0.981   4.592
 4050TIP3    H112156   4.061   1.026   4.674
 4050TIP3    H212157   3.964   1.028   4.558
 4051TIP3   OH212158   5.170   3.781   4.233
 4051TIP3    H112159   5.251   3.754   4.189
 4051TIP3    H212160   5.171   3.877   4.229
 4052TIP3   OH212161   0.273   1.679   1.742
 4052TIP3    H112162   0.339   1.681   1.811
 4052TIP3    H212163   0.285   1.593   1.701
 4053TIP3   OH212164   2.165   4.658   3.221
 4053TIP3    H112165   2.179   4.750   3.199
 4053TIP3    H212166   2.126   4.620   3.143
 4054TIP3   OH212167   2.431   4.464   3.047
 4054TIP3    H112168   2.509   4.518   3.040
 4054TIP3    H212169   2.359   4.521   3.019
 4055TIP3   OH212170   5.873   2.562   2.083
 4055TIP3    H112171   5.805   2.496   2.071
 4055TIP3    H212172   5.941   2.538   2.020
 4056TIP3   OH212173   2.166   1.176   4.721
 4056TIP3    H112174   2.106   1.239   4.680
 4056TIP3    H212175   2.251   1.220   4.720
 4057TIP3   OH212176   6.140   2.762   3.676
 4057TIP3    H112177   6.160   2.841   3.625
 4057TIP3    H212178   6.082   2.792   3.745
 4058TIP3   OH212179   3.170   1.924   1.060
 4058TIP3    H112180   3.169   2.019   1.071
 4058TIP3    H212181   3.080   1.897   1.077
 4059TIP3   OH212182   1.329   2.392   4.180
 4059TIP3    H112183   1.316   2.428   4.092
 4059TIP3    H212184   1.411   2.343   4.175
 4060TIP3   OH212185   1.990   3.706   2.975
 4060TIP3    H112186   1.918   3.760   3.009
 4060TIP3    H212187   2.049   3.769   2.934
 4061TIP3   OH212188   0.016   4.064   2.888
 4061TIP3    H112189  -0.029   4.146   2.911
 4061TIP3    H212190   0.097   4.067   2.939
 4062TIP3   OH212191   2.371   5.332   4.955
 4062TIP3    H112192   2.342   5.369   4.872
 4062TIP3    H212193   2.440   5.391   4.986
 4063TIP3   OH212194   2.482   3.182   1.407
 4063TIP3    H112195   2.408   3.200   1.348
 4063TIP3    H212196   2.559   3.182   1.350
 4064TIP3   OH212197   6.054   4.763   4.137
 4064TIP3    H112198   5.979   4.704   4.145
 4064TIP3    H212199   6.112   4.720   4.074
 4065TIP3   OH212200   1.913   5.730   5.101
 4065TIP3    H112201   1.858   5.716   5.178
 4065TIP3    H212202   1.942   5.821   5.108
 4066TIP3   OH212203   0.855   3.165   5.151
 4066TIP3    H112204   0.948   3.152   5.171
 4066TIP3    H212205   0.854   3.197   5.061
 4067TIP3   OH212206   2.648   5.082   4.109
 4067TIP3    H112207   2.718   5.030   4.068
 4067TIP3    H212208   2.692   5.161   4.140
 4068TIP3   OH212209   0.254   3.693   2.316
 4068TIP3    H112210   0.331   3.661   2.363
 4068TIP3    H212211   0.259   3.651   2.230
 4069TIP3   OH212212   4.067   4.490   1.585
 4069TIP3    H112213   4.082   4.471   1.677
 4069TIP3    H212214   4.152   4.474   1.543
 4070TIP3   OH212215   2.406   1.324   2.848
 4070TIP3    H112216   2.497   1.299   2.837
 4070TIP3    H212217   2.399   1.410   2.807
 4071TIP3   OH212218   3.560   3.974   4.011
 4071TIP3    H112219   3.467   3.997   4.011
 4071TIP3    H212220   3.567   3.906   4.078
 4072TIP3   OH212221   5.565   5.021   3.852
 4072TIP3    H112222   5.586   5.062   3.936
 4072TIP3    H212223   5.504   4.951   3.874
 4073TIP3   OH212224   3.170   3.200   2.877
 4073TIP3    H112225   3.161   3.147   2.956
 4073TIP3    H212226   3.264   3.217   2.870
 4074TIP3   OH212227   5.079   0.146   2.244
 4074TIP3    H112228   5.105   0.238   2.251
 4074TIP3    H212229   5.161   0.100   2.224
 4075TIP3   OH212230   1.317   0.616   4.494
 4075TIP3    H112231   1.309   0.580   4.406
 4075TIP3    H212232   1.237   0.668   4.506
 4076TIP3   OH212233   4.733   1.931   5.177
 4076TIP3    H112234   4.781   1.908   5.098
 4076TIP3    H212235   4.793   1.910   5.249
 4077TIP3   OH212236   3.883   3.446   0.677
 4077TIP3    H112237   3.796   3.473   0.706
 4077TIP3    H212238   3.878   3.350   0.670
 4078TIP3   OH212239   5.514   1.640   3.528
 4078TIP3    H112240   5.530   1.621   3.436
 4078TIP3    H212241   5.498   1.735   3.531
 4079TIP3   OH212242   3.191   0.252   0.158
 4079TIP3    H112243   3.280   0.233   0.129
 4079TIP3    H212244   3.196   0.248   0.254
 4080TIP3   OH212245   1.753   3.003   3.410
 4080TIP3    H112246   1.743   3.073   3.474
 4080TIP3    H212247   1.776   3.047   3.329
 4081TIP3   OH212248   3.455   0.946   1.461
 4081TIP3    H112249   3.545   0.935   1.430
 4081TIP3    H212250   3.418   1.011   1.402
 4082TIP3   OH212251   3.342   2.085   3.889
 4082TIP3    H112252   3.369   1.993   3.889
 4082TIP3    H212253   3.387   2.123   3.964
 4083TIP3   OH212254   0.872   2.705   1.016
 4083TIP3    H112255   0.876   2.797   1.042
 4083TIP3    H212256   0.961   2.672   1.027
 4084TIP3   OH212257   3.363   1.016   4.565
 4084TIP3    H112258   3.366   0.921   4.571
 4084TIP3    H212259   3.269   1.037   4.561
 4085TIP3   OH212260   5.098   0.462   4.541
 4085TIP3    H112261   5.111   0.457   4.636
 4085TIP3    H212262   5.011   0.425   4.526
 4086TIP3   OH212263   3.017   2.148   0.217
 4086TIP3    H112264   2.953   2.168   0.148
 4086TIP3    H212265   2.964   2.123   0.292
 4087TIP3   OH212266   3.539   4.273   1.203
 4087TIP3    H112267   3.584   4.193   1.176
 4087TIP3    H212268   3.551   4.333   1.130
 4088TIP3   OH212269   1.102   1.527   1.527
 4088TIP3    H112270   1.044   1.520   1.603
 4088TIP3    H212271   1.177   1.471   1.548
 4089TIP3   OH212272   4.553   4.109   3.212
 4089TIP3    H112273   4.534   4.108   3.306
 4089TIP3    H212274   4.566   4.202   3.192
 4090TIP3   OH212275   5.610   2.055   2.485
 4090TIP3    H112276   5.569   1.983   2.532
 4090TIP3    H212277   5.580   2.134   2.530
 4091TIP3   OH212278   3.787   5.909   2.321
 4091TIP3    H112279   3.758   5.986   2.369
 4091TIP3    H212280   3.745   5.918   2.235
 4092TIP3   OH212281   4.510   2.833   4.825
 4092TIP3    H112282   4.520   2.928   4.822
 4092TIP3    H212283   4.562   2.806   4.901
 4093TIP3   OH212284   4.372   3.946   5.120
 4093TIP3    H112285   4.316   3.924   5.195
 4093TIP3    H212286   4.373   4.041   5.117
 4094TIP3   OH212287   2.182   1.953   3.896
 4094TIP3    H112288   2.100   1.912   3.924
 4094TIP3    H212289   2.232   1.881   3.858
 4095TIP3   OH212290   0.481   1.584   4.257
 4095TIP3    H112291   0.448   1.665   4.295
 4095TIP3    H212292   0.464   1.517   4.323
 4096TIP3   OH212293   4.626   3.548   3.718
 4096TIP3    H112294   4.567   3.621   3.734
 4096TIP3    H212295   4.643   3.550   3.623
 4097TIP3   OH212296   1.223   2.377   3.384
 4097TIP3    H112297   1.303   2.344   3.423
 4097TIP3    H212298   1.161   2.304   3.388
 4098TIP3   OH212299   0.181   3.085   1.035
 4098TIP3    H112300   0.230   3.033   0.972
 4098TIP3    H212301   0.248   3.127   1.090
 4099TIP3   OH212302   4.724   3.718   2.200
 4099TIP3    H112303   4.809   3.714   2.156
 4099TIP3    H212304   4.731   3.653   2.270
 4100TIP3   OH212305   4.404   3.288   0.437
 4100TIP3    H112306   4.312   3.311   0.428
 4100TIP3    H212307   4.424   3.305   0.529
 4101TIP3   OH212308   2.777   2.440   0.197
 4101TIP3    H112309   2.872   2.448   0.199
 4101TIP3    H212310   2.748   2.506   0.135
 4102TIP3   OH212311   5.567   2.231   1.392
 4102TIP3    H112312   5.599   2.292   1.458
 4102TIP3    H212313   5.636   2.228   1.326
 4103TIP3   OH212314   5.410   0.524   4.887
 4103TIP3    H112315   5.498   0.561   4.891
 4103TIP3    H212316   5.393   0.492   4.975
 4104TIP3   OH212317   3.029   3.421   3.431
 4104TIP3    H112318   2.994   3.397   3.517
 4104TIP3    H212319   3.102   3.360   3.416
 4105TIP3   OH212320   5.521   1.576   5.039
 4105TIP3    H112321   5.480   1.599   4.956
 4105TIP3    H212322   5.577   1.651   5.060
 4106TIP3   OH212323   0.133   1.914   0.206
 4106TIP3    H112324   0.073   1.966   0.153
 4106TIP3    H212325   0.212   1.907   0.152
 4107TIP3   OH212326   0.327   1.437   4.683
 4107TIP3    H112327   0.280   1.415   4.603
 4107TIP3    H212328   0.392   1.368   4.692
 4108TIP3   OH212329   1.007   3.937   3.165
 4108TIP3    H112330   1.044   3.870   3.108
 4108TIP3    H212331   0.974   4.004   3.105
 4109TIP3   OH212332   0.845   5.525   1.680
 4109TIP3    H112333   0.881   5.611   1.703
 4109TIP3    H212334   0.768   5.545   1.627
 4110TIP3   OH212335   2.178   1.412   5.118
 4110TIP3    H112336   2.088   1.379   5.112
 4110TIP3    H212337   2.179   1.463   5.199
 4111TIP3   OH212338   0.064   0.230   3.970
 4111TIP3    H112339   0.141   0.257   4.021
 4111TIP3    H212340   0.081   0.138   3.950
 4112TIP3   OH212341   3.664   4.662   4.521
 4112TIP3    H112342   3.669   4.645   4.427
 4112TIP3    H212343   3.579   4.625   4.547
 4113TIP3   OH212344   0.233   0.020   2.687
 4113TIP3    H112345   0.168   0.090   2.676
 4113TIP3    H212346   0.258  -0.004   2.598
 4114TIP3   OH212347   2.810   4.957   3.917
 4114TIP3    H112348   2.772   4.953   3.830
 4114TIP3    H212349   2.855   4.873   3.928
 4115TIP3   OH212350   0.294   2.908   0.852
 4115TIP3    H112351   0.247   2.893   0.770
 4115TIP3    H212352   0.274   2.831   0.905
 4116TIP3   OH212353   2.307   3.169   3.275
 4116TIP3    H112354   2.354   3.158   3.193
 4116TIP3    H212355   2.281   3.081   3.301
 4117TIP3   OH212356   4.154   2.741   2.485
 4117TIP3    H112357   4.137   2.822   2.437
 4117TIP3    H212358   4.241   2.714   2.456
 4118TIP3   OH212359   2.435   1.584   2.707
 4118TIP3    H112360   2.471   1.606   2.622
 4118TIP3    H212361   2.361   1.644   2.718
 4119TIP3   OH212362   5.116   4.099   0.498
 4119TIP3    H112363   5.147   4.154   0.426
 4119TIP3    H212364   5.048   4.151   0.541
 4120TIP3   OH212365   3.704   1.859   0.707
 4120TIP3    H112366   3.625   1.827   0.664
 4120TIP3    H212367   3.708   1.810   0.789
 4121TIP3   OH212368   4.926   1.348   4.163
 4121TIP3    H112369   5.000   1.290   4.180
 4121TIP3    H212370   4.957   1.435   4.189
 4122TIP3   OH212371   3.496   2.975   2.862
 4122TIP3    H112372   3.424   2.913   2.873
 4122TIP3    H212373   3.461   3.058   2.894
 4123TIP3   OH212374   3.612   2.627   4.398
 4123TIP3    H112375   3.702   2.637   4.366
 4123TIP3    H212376   3.618   2.646   4.492
 4124TIP3   OH212377   2.816   4.350   0.900
 4124TIP3    H112378   2.793   4.336   0.808
 4124TIP3    H212379   2.808   4.444   0.913
 4125TIP3   OH212380   3.630   5.059   4.320
 4125TIP3    H112381   3.549   5.008   4.316
 4125TIP3    H212382   3.644   5.088   4.230
 4126TIP3   OH212383   4.995   3.723   1.405
 4126TIP3    H112384   5.078   3.689   1.438
 4126TIP3    H212385   4.935   3.717   1.479
 4127TIP3   OH212386   3.694   5.430   4.843
 4127TIP3    H112387   3.645   5.350   4.860
 4127TIP3    H212388   3.648   5.472   4.771
 4128TIP3   OH212389   5.057   4.541   3.540
 4128TIP3    H112390   5.079   4.452   3.568
 4128TIP3    H212391   5.039   4.533   3.447
 4129TIP3   OH212392   1.512   2.148   0.465
 4129TIP3    H112393   1.569   2.083   0.424
 4129TIP3    H212394   1.521   2.226   0.411
 4130TIP3   OH212395   6.237   4.743   3.140
 4130TIP3    H112396   6.181   4.813   3.175
 4130TIP3    H212397   6.326   4.779   3.145
 4131TIP3   OH212398   2.806   1.954   1.436
 4131TIP3    H112399   2.771   2.042   1.447
 4131TIP3    H212400   2.881   1.950   1.496
 4132TIP3   OH212401   0.450   1.676   1.949
 4132TIP3    H112402   0.402   1.702   2.028
 4132TIP3    H212403   0.486   1.590   1.970
 4133TIP3   OH212404   2.552   5.295   0.852
 4133TIP3    H112405   2.622   5.285   0.917
 4133TIP3    H212406   2.507   5.375   0.878
 4134TIP3   OH212407   4.928   4.556   0.748
 4134TIP3    H112408   4.923   4.652   0.741
 4134TIP3    H212409   4.981   4.540   0.825
 4135TIP3   OH212410   5.360   1.848   4.075
 4135TIP3    H112411   5.418   1.787   4.121
 4135TIP3    H212412   5.387   1.934   4.106
 4136TIP3   OH212413   6.029   1.863   4.267
 4136TIP3    H112414   5.939   1.898   4.270
 4136TIP3    H212415   6.055   1.857   4.359
 4137TIP3   OH212416   2.832   2.401   2.812
 4137TIP3    H112417   2.799   2.330   2.757
 4137TIP3    H212418   2.917   2.422   2.775
 4138TIP3   OH212419   5.090   5.227   3.833
 4138TIP3    H112420   5.112   5.163   3.766
 4138TIP3    H212421   5.010   5.269   3.800
 4139TIP3   OH212422   4.330   3.492   3.492
 4139TIP3    H112423   4.366   3.463   3.409
 4139TIP3    H212424   4.287   3.575   3.472
 4140TIP3   OH212425   5.856   3.186   0.959
 4140TIP3    H112426   5.863   3.090   0.955
 4140TIP3    H212427   5.933   3.214   1.008
 4141TIP3   OH212428   2.221   0.726   4.635
 4141TIP3    H112429   2.151   0.680   4.588
 4141TIP3    H212430   2.178   0.803   4.672
 4142TIP3   OH212431   3.433   0.216   0.063
 4142TIP3    H112432   3.487   0.282   0.018
 4142TIP3    H212433   3.496   0.152   0.095
 4143TIP3   OH212434   2.753   1.663   2.394
 4143TIP3    H112435   2.765   1.673   2.489
 4143TIP3    H212436   2.842   1.666   2.359
 4144TIP3   OH212437   3.510   3.293   3.291
 4144TIP3    H112438   3.548   3.367   3.339
 4144TIP3    H212439   3.525   3.218   3.349
 4145TIP3   OH212440   4.197   2.093   3.877
 4145TIP3    H112441   4.224   2.173   3.832
 4145TIP3    H212442   4.242   2.023   3.829
 4146TIP3   OH212443   5.419   0.855   4.516
 4146TIP3    H112444   5.362   0.784   4.547
 4146TIP3    H212445   5.378   0.935   4.550
 4147TIP3   OH212446   0.054   2.493   2.924
 4147TIP3    H112447   0.054   2.429   2.853
 4147TIP3    H212448   0.043   2.577   2.880
 4148TIP3   OH212449   0.133   0.943   3.760
 4148TIP3    H112450   0.205   1.005   3.755
 4148TIP3    H212451   0.125   0.922   3.853
 4149TIP3   OH212452   3.532   0.252   3.255
 4149TIP3    H112453   3.567   0.280   3.171
 4149TIP3    H212454   3.441   0.227   3.236
 4150TIP3   OH212455   3.292   1.210   0.557
 4150TIP3    H112456   3.296   1.296   0.601
 4150TIP3    H212457   3.370   1.207   0.502
 4151TIP3   OH212458   0.500   0.182   2.707
 4151TIP3    H112459   0.411   0.157   2.734
 4151TIP3    H212460   0.548   0.099   2.705
 4152TIP3   OH212461   5.058   4.613   2.400
 4152TIP3    H112462   5.100   4.527   2.393
 4152TIP3    H212463   5.005   4.608   2.480
 4153TIP3   OH212464   2.304   3.476   1.373
 4153TIP3    H112465   2.260   3.484   1.288
 4153TIP3    H212466   2.389   3.519   1.360
 4154TIP3   OH212467   3.095   2.540   2.307
 4154TIP3    H112468   3.176   2.539   2.357
 4154TIP3    H212469   3.115   2.591   2.229
 4155TIP3   OH212470   4.058   4.666   1.934
 4155TIP3    H112471   4.079   4.575   1.913
 4155TIP3    H212472   4.143   4.711   1.936
 4156TIP3   OH212473   3.414   2.670   4.195
 4156TIP3    H112474   3.448   2.688   4.283
 4156TIP3    H212475   3.448   2.741   4.141
 4157TIP3   OH212476   1.265   0.995   3.630
 4157TIP3    H112477   1.351   1.035   3.647
 4157TIP3    H212478   1.218   1.002   3.714
 4158TIP3   OH212479   5.132   4.051   4.283
 4158TIP3    H112480   5.073   4.029   4.355
 4158TIP3    H212481   5.140   4.146   4.286
 4159TIP3   OH212482   4.363   1.122   4.185
 4159TIP3    H112483   4.332   1.207   4.215
 4159TIP3    H212484   4.456   1.134   4.168
 4160TIP3   OH212485   1.791   4.906   4.077
 4160TIP3    H112486   1.722   4.859   4.123
 4160TIP3    H212487   1.781   4.879   3.986
 4161TIP3   OH212488   4.968   2.307   3.975
 4161TIP3    H112489   5.059   2.277   3.978
 4161TIP3    H212490   4.919   2.239   4.022
 4162TIP3   OH212491   1.878   0.042   3.828
 4162TIP3    H112492   1.855   0.034   3.921
 4162TIP3    H212493   1.958  -0.010   3.818
 4163TIP3   OH212494   0.027   4.697   2.484
 4163TIP3    H112495   0.058   4.783   2.512
 4163TIP3    H212496   0.015   4.706   2.389
 4164TIP3   OH212497   3.271   4.285   2.155
 4164TIP3    H112498   3.181   4.253   2.146
 4164TIP3    H212499   3.261   4.374   2.189
 4165TIP3   OH212500   0.076   5.336   2.021
 4165TIP3    H112501   0.062   5.321   2.114
 4165TIP3    H212502   0.123   5.419   2.017
 4166TIP3   OH212503   2.636   4.467   3.327
 4166TIP3    H112504   2.676   4.531   3.269
 4166TIP3    H212505   2.630   4.387   3.275
 4167TIP3   OH212506   3.980   3.327   0.995
 4167TIP3    H112507   3.886   3.331   1.012
 4167TIP3    H212508   4.002   3.413   0.960
 4168TIP3   OH212509   4.437   3.323   2.879
 4168TIP3    H112510   4.404   3.307   2.791
 4168TIP3    H212511   4.430   3.418   2.891
 4169TIP3   OH212512   0.663   3.549   4.743
 4169TIP3    H112513   0.578   3.530   4.782
 4169TIP3    H212514   0.718   3.575   4.817
 4170TIP3   OH212515   0.741   1.385   2.269
 4170TIP3    H112516   0.816   1.344   2.225
 4170TIP3    H212517   0.717   1.459   2.213
 4171TIP3   OH212518   3.064   3.053   2.661
 4171TIP3    H112519   3.071   3.114   2.734
 4171TIP3    H212520   2.995   3.089   2.606
 4172TIP3   OH212521   5.523   0.754   3.741
 4172TIP3    H112522   5.565   0.769   3.826
 4172TIP3    H212523   5.576   0.685   3.701
 4173TIP3   OH212524   5.696   1.857   1.582
 4173TIP3    H112525   5.744   1.936   1.608
 4173TIP3    H212526   5.619   1.890   1.536
 4174TIP3   OH212527   4.619   1.372   3.357
 4174TIP3    H112528   4.668   1.422   3.291
 4174TIP3    H212529   4.573   1.305   3.306
 4175TIP3   OH212530   6.275   6.007   0.366
 4175TIP3    H112531   6.281   5.975   0.276
 4175TIP3    H212532   6.261   5.928   0.418
 4176TIP3   OH212533   1.851   2.539   4.865
 4176TIP3    H112534   1.887   2.618   4.904
 4176TIP3    H212535   1.925   2.480   4.855
 4177TIP3   OH212536   5.634   0.857   4.679
 4177TIP3    H112537   5.555   0.868   4.626
 4177TIP3    H212538   5.677   0.942   4.676
 4178TIP3   OH212539   4.593   0.465   3.027
 4178TIP3    H112540   4.507   0.463   3.067
 4178TIP3    H212541   4.597   0.550   2.983
 4179TIP3   OH212542   5.248   1.802   3.356
 4179TIP3    H112543   5.249   1.714   3.319
 4179TIP3    H212544   5.207   1.791   3.442
 4180TIP3   OH212545   1.041   5.196   0.850
 4180TIP3    H112546   0.979   5.258   0.811
 4180TIP3    H212547   1.088   5.247   0.917
 4181TIP3   OH212548   1.571   1.520   2.257
 4181TIP3    H112549   1.529   1.520   2.171
 4181TIP3    H212550   1.545   1.437   2.295
 4182TIP3   OH212551   3.957   0.814   1.153
 4182TIP3    H112552   4.031   0.849   1.203
 4182TIP3    H212553   3.959   0.863   1.071
 4183TIP3   OH212554   5.400   2.881   1.831
 4183TIP3    H112555   5.374   2.943   1.763
 4183TIP3    H212556   5.377   2.924   1.913
 4184TIP3   OH212557   4.871   5.749   3.986
 4184TIP3    H112558   4.818   5.704   4.052
 4184TIP3    H212559   4.908   5.679   3.933
 4185TIP3   OH212560   2.783   5.084   3.308
 4185TIP3    H112561   2.703   5.032   3.299
 4185TIP3    H212562   2.755   5.174   3.289
 4186TIP3   OH212563   5.272   3.395   2.875
 4186TIP3    H112564   5.178   3.388   2.890
 4186TIP3    H212565   5.312   3.371   2.959
 4187TIP3   OH212566   6.016   2.214   0.112
 4187TIP3    H112567   5.977   2.200   0.199
 4187TIP3    H212568   6.010   2.308   0.098
 4188TIP3   OH212569   6.113   3.596   2.946
 4188TIP3    H112570   6.106   3.582   3.040
 4188TIP3    H212571   6.194   3.646   2.935
 4189TIP3   OH212572   2.071   2.655   5.038
 4189TIP3    H112573   2.118   2.684   5.116
 4189TIP3    H212574   2.115   2.573   5.013
 4190TIP3   OH212575   3.279   0.864   1.149
 4190TIP3    H112576   3.274   0.818   1.065
 4190TIP3    H212577   3.269   0.795   1.215
 4191TIP3   OH212578   5.846   4.563   2.041
 4191TIP3    H112579   5.897   4.589   2.117
 4191TIP3    H212580   5.756   4.559   2.073
 4192TIP3   OH212581   3.440   1.996   2.462
 4192TIP3    H112582   3.386   2.075   2.464
 4192TIP3    H212583   3.424   1.954   2.547
 4193TIP3   OH212584   3.672   0.423   2.135
 4193TIP3    H112585   3.661   0.514   2.106
 4193TIP3    H212586   3.732   0.429   2.210
 4194TIP3   OH212587   4.770   1.572   2.618
 4194TIP3    H112588   4.809   1.485   2.607
 4194TIP3    H212589   4.845   1.631   2.628
 4195TIP3   OH212590   3.877   3.879   2.904
 4195TIP3    H112591   3.953   3.868   2.962
 4195TIP3    H212592   3.808   3.913   2.961
 4196TIP3   OH212593   2.405   5.104   4.008
 4196TIP3    H112594   2.492   5.107   4.047
 4196TIP3    H212595   2.417   5.138   3.919
 4197TIP3   OH212596   4.772   0.061   0.879
 4197TIP3    H112597   4.782   0.090   0.788
 4197TIP3    H212598   4.808   0.133   0.931
 4198TIP3   OH212599   0.759   4.843   2.907
 4198TIP3    H112600   0.757   4.869   2.814
 4198TIP3    H212601   0.836   4.787   2.914
 4199TIP3   OH212602   2.463   5.241   1.158
 4199TIP3    H112603   2.549   5.200   1.147
 4199TIP3    H212604   2.458   5.306   1.087
 4200TIP3   OH212605   3.217   2.708   3.341
 4200TIP3    H112606   3.299   2.754   3.327
 4200TIP3    H212607   3.212   2.645   3.268
 4201TIP3   OH212608   5.821   1.103   1.386
 4201TIP3    H112609   5.866   1.114   1.470
 4201TIP3    H212610   5.884   1.058   1.330
 4202TIP3   OH212611   0.699   0.537   4.914
 4202TIP3    H112612   0.612   0.533   4.875
 4202TIP3    H212613   0.755   0.487   4.853
 4203TIP3   OH212614   0.348   1.839   3.142
 4203TIP3    H112615   0.321   1.791   3.221
 4203TIP3    H212616   0.311   1.789   3.070
 4204TIP3   OH212617   3.687   4.331   1.646
 4204TIP3    H112618   3.734   4.338   1.563
 4204TIP3    H212619   3.697   4.418   1.686
 4205TIP3   OH212620   4.669   4.513   0.858
 4205TIP3    H112621   4.627   4.597   0.841
 4205TIP3    H212622   4.756   4.521   0.818
 4206TIP3   OH212623   0.084   4.705   1.088
 4206TIP3    H112624   0.157   4.692   1.027
 4206TIP3    H212625   0.006   4.704   1.033
 4207TIP3   OH212626   4.412   0.540   2.065
 4207TIP3    H112627   4.406   0.481   1.989
 4207TIP3    H212628   4.327   0.532   2.108
 4208TIP3   OH212629   4.250   1.482   0.432
 4208TIP3    H112630   4.244   1.536   0.512
 4208TIP3    H212631   4.344   1.469   0.419
 4209TIP3   OH212632   5.830   5.470   0.648
 4209TIP3    H112633   5.762   5.505   0.705
 4209TIP3    H212634   5.784   5.421   0.580
 4210TIP3   OH212635   2.327   1.616   4.058
 4210TIP3    H112636   2.365   1.609   3.970
 4210TIP3    H212637   2.338   1.530   4.097
 4211TIP3   OH212638   3.809   1.158   1.054
 4211TIP3    H112639   3.899   1.185   1.075
 4211TIP3    H212640   3.782   1.106   1.130
 4212TIP3   OH212641   6.088   1.201   0.770
 4212TIP3    H112642   6.014   1.184   0.828
 4212TIP3    H212643   6.164   1.166   0.816
 4213TIP3   OH212644   2.352   5.873   4.294
 4213TIP3    H112645   2.404   5.841   4.220
 4213TIP3    H212646   2.361   5.968   4.291
 4214TIP3   OH212647   4.855   1.708   1.775
 4214TIP3    H112648   4.774   1.729   1.823
 4214TIP3    H212649   4.925   1.740   1.832
 4215TIP3   OH212650   3.680   2.904   3.127
 4215TIP3    H112651   3.667   2.999   3.132
 4215TIP3    H212652   3.712   2.889   3.038
 4216TIP3   OH212653   3.434   5.350   5.034
 4216TIP3    H112654   3.502   5.283   5.026
 4216TIP3    H212655   3.354   5.301   5.053
 4217TIP3   OH212656   0.545   1.554   2.670
 4217TIP3    H112657   0.576   1.530   2.758
 4217TIP3    H212658   0.576   1.484   2.614
 4218TIP3   OH212659   2.060   2.391   4.786
 4218TIP3    H112660   2.082   2.299   4.800
 4218TIP3    H212661   2.141   2.438   4.807
 4219TIP3   OH212662   1.452   3.723   3.729
 4219TIP3    H112663   1.443   3.720   3.825
 4219TIP3    H212664   1.493   3.639   3.707
 4220TIP3   OH212665   3.043   2.146   4.984
 4220TIP3    H112666   2.989   2.130   5.062
 4220TIP3    H212667   3.109   2.076   4.986
 4221TIP3   OH212668   6.330   0.073   1.455
 4221TIP3    H112669   6.245   0.031   1.442
 4221TIP3    H212670   6.377   0.013   1.512
 4222TIP3   OH212671   4.085   3.654   2.544
 4222TIP3    H112672   4.051   3.704   2.471
 4222TIP3    H212673   4.093   3.565   2.510
 4223TIP3   OH212674   0.442   0.310   1.983
 4223TIP3    H112675   0.462   0.339   1.894
 4223TIP3    H212676   0.372   0.246   1.973
 4224TIP3   OH212677   2.010   5.239   0.619
 4224TIP3    H112678   1.956   5.178   0.669
 4224TIP3    H212679   1.986   5.326   0.653
 4225TIP3   OH212680   5.694   1.038   0.407
 4225TIP3    H112681   5.629   0.990   0.458
 4225TIP3    H212682   5.699   1.124   0.449
 4226TIP3   OH212683   2.122   4.771   2.621
 4226TIP3    H112684   2.128   4.856   2.576
 4226TIP3    H212685   2.033   4.770   2.656
 4227TIP3   OH212686   4.857   5.762   3.445
 4227TIP3    H112687   4.890   5.672   3.456
 4227TIP3    H212688   4.935   5.817   3.455
 4228TIP3   OH212689   4.038   5.250   1.481
 4228TIP3    H112690   3.996   5.234   1.566
 4228TIP3    H212691   4.120   5.201   1.486
 4229TIP3   OH212692   3.543   5.579   4.649
 4229TIP3    H112693   3.470   5.566   4.589
 4229TIP3    H212694   3.621   5.562   4.596
 4230TIP3   OH212695   4.915   4.277   0.601
 4230TIP3    H112696   4.821   4.279   0.583
 4230TIP3    H212697   4.932   4.358   0.650
 4231TIP3   OH212698   5.893   1.908   3.674
 4231TIP3    H112699   5.887   1.910   3.578
 4231TIP3    H212700   5.983   1.882   3.692
 4232TIP3   OH212701   4.666   3.553   2.411
 4232TIP3    H112702   4.627   3.587   2.491
 4232TIP3    H212703   4.666   3.458   2.423
 4233TIP3   OH212704   1.514   3.467   3.625
 4233TIP3    H112705   1.459   3.443   3.551
 4233TIP3    H212706   1.582   3.523   3.588
 4234TIP3   OH212707   4.156   0.294   2.269
 4234TIP3    H112708   4.160   0.370   2.211
 4234TIP3    H212709   4.092   0.319   2.336
 4235TIP3   OH212710   1.424   0.742   1.510
 4235TIP3    H112711   1.369   0.754   1.432
 4235TIP3    H212712   1.513   0.738   1.476
 4236TIP3   OH212713   4.702   0.056   3.705
 4236TIP3    H112714   4.772  -0.008   3.690
 4236TIP3    H212715   4.717   0.088   3.794
 4237TIP3   OH212716   1.274   3.950   4.502
 4237TIP3    H112717   1.355   3.899   4.506
 4237TIP3    H212718   1.273   3.987   4.414
 4238TIP3   OH212719   3.852   0.473   3.237
 4238TIP3    H112720   3.788   0.490   3.167
 4238TIP3    H212721   3.807   0.414   3.297
 4239TIP3   OH212722   5.481   0.075   2.364
 4239TIP3    H112723   5.427   0.010   2.409
 4239TIP3    H212724   5.566   0.071   2.409
 4240TIP3   OH212725   2.743   2.689   3.610
 4240TIP3    H112726   2.695   2.612   3.581
 4240TIP3    H212727   2.720   2.757   3.547
 4241TIP3   OH212728   3.076   4.002   3.481
 4241TIP3    H112729   3.118   3.973   3.562
 4241TIP3    H212730   3.128   4.077   3.453
 4242TIP3   OH212731   4.424   0.027   4.954
 4242TIP3    H112732   4.414   0.082   5.032
 4242TIP3    H212733   4.364   0.067   4.890
 4243TIP3   OH212734   1.297   5.237   0.670
 4243TIP3    H112735   1.363   5.202   0.609
 4243TIP3    H212736   1.348   5.263   0.747
 4244TIP3   OH212737   5.340   4.228   3.813
 4244TIP3    H112738   5.272   4.263   3.756
 4244TIP3    H212739   5.291   4.182   3.882
 4245TIP3   OH212740   4.537   3.671   1.859
 4245TIP3    H112741   4.507   3.679   1.768
 4245TIP3    H212742   4.538   3.577   1.876
 4246TIP3   OH212743   3.841   1.650   3.926
 4246TIP3    H112744   3.801   1.736   3.916
 4246TIP3    H212745   3.926   1.668   3.966
 4247TIP3   OH212746   4.331   3.873   4.078
 4247TIP3    H112747   4.272   3.948   4.072
 4247TIP3    H212748   4.369   3.865   3.991
 4248TIP3   OH212749   2.326   0.188   1.707
 4248TIP3    H112750   2.277   0.133   1.768
 4248TIP3    H212751   2.365   0.256   1.763
 4249TIP3   OH212752   6.202   4.391   2.034
 4249TIP3    H112753   6.272   4.456   2.031
 4249TIP3    H212754   6.126   4.441   2.065
 4250TIP3   OH212755   1.475   2.923   1.678
 4250TIP3    H112756   1.498   2.914   1.770
 4250TIP3    H212757   1.403   2.862   1.665
 4251TIP3   OH212758   4.069   0.623   4.793
 4251TIP3    H112759   4.058   0.684   4.865
 4251TIP3    H212760   4.158   0.591   4.801
 4252TIP3   OH212761   4.523   4.229   4.129
 4252TIP3    H112762   4.523   4.325   4.135
 4252TIP3    H212763   4.441   4.208   4.083
 4253TIP3   OH212764   6.007   2.544   2.675
 4253TIP3    H112765   6.011   2.461   2.627
 4253TIP3    H212766   5.991   2.610   2.607
 4254TIP3   OH212767   5.438   4.759   4.407
 4254TIP3    H112768   5.520   4.792   4.446
 4254TIP3    H212769   5.379   4.834   4.408
 4255TIP3   OH212770   3.307   4.510   1.426
 4255TIP3    H112771   3.372   4.443   1.443
 4255TIP3    H212772   3.232   4.463   1.389
 4256TIP3   OH212773   0.964   3.820   4.389
 4256TIP3    H112774   1.020   3.779   4.322
 4256TIP3    H212775   0.998   3.787   4.472
 4257TIP3   OH212776   0.631   0.158   3.351
 4257TIP3    H112777   0.655   0.241   3.392
 4257TIP3    H212778   0.536   0.154   3.359
 4258TIP3   OH212779   2.017   2.105   3.064
 4258TIP3    H112780   2.067   2.030   3.032
 4258TIP3    H212781   1.927   2.087   3.038
 4259TIP3   OH212782   5.940   1.709   4.746
 4259TIP3    H112783   5.958   1.728   4.838
 4259TIP3    H212784   5.848   1.684   4.744
 4260TIP3   OH212785   5.989   1.228   0.513
 4260TIP3    H112786   5.898   1.202   0.524
 4260TIP3    H212787   6.029   1.209   0.598
 4261TIP3   OH212788   1.722   1.934   2.416
 4261TIP3    H112789   1.709   1.997   2.487
 4261TIP3    H212790   1.683   1.853   2.448
 4262TIP3   OH212791   2.519   5.418   2.348
 4262TIP3    H112792   2.591   5.354   2.349
 4262TIP3    H212793   2.482   5.414   2.436
 4263TIP3   OH212794   4.532   2.062   3.859
 4263TIP3    H112795   4.494   2.139   3.900
 4263TIP3    H212796   4.626   2.072   3.870
 4264TIP3   OH212797   4.244   3.230   0.900
 4264TIP3    H112798   4.277   3.305   0.850
 4264TIP3    H212799   4.149   3.241   0.902
 4265TIP3   OH212800   6.244   0.720   0.920
 4265TIP3    H112801   6.278   0.638   0.957
 4265TIP3    H212802   6.321   0.759   0.877
 4266TIP3   OH212803   2.682   4.355   3.569
 4266TIP3    H112804   2.677   4.438   3.521
 4266TIP3    H212805   2.752   4.307   3.526
 4267TIP3   OH212806   5.965   2.160   4.378
 4267TIP3    H112807   5.991   2.084   4.431
 4267TIP3    H212808   5.874   2.176   4.404
 4268TIP3   OH212809   2.269   4.186   4.242
 4268TIP3    H112810   2.179   4.169   4.215
 4268TIP3    H212811   2.302   4.101   4.271
 4269TIP3   OH212812   0.297   2.508   4.434
 4269TIP3    H112813   0.353   2.463   4.372
 4269TIP3    H212814   0.218   2.529   4.384
 4270TIP3   OH212815   4.844   0.754   3.608
 4270TIP3    H112816   4.755   0.767   3.575
 4270TIP3    H212817   4.894   0.827   3.569
 4271TIP3   OH212818   3.174   5.758   2.723
 4271TIP3    H112819   3.206   5.729   2.808
 4271TIP3    H212820   3.093   5.708   2.710
 4272TIP3   OH212821   2.421   4.592   1.239
 4272TIP3    H112822   2.471   4.568   1.317
 4272TIP3    H212823   2.367   4.515   1.221
 4273TIP3   OH212824   1.206   5.911   3.059
 4273TIP3    H112825   1.133   5.889   3.000
 4273TIP3    H212826   1.179   5.993   3.101
 4274TIP3   OH212827   4.136   4.513   4.498
 4274TIP3    H112828   4.229   4.496   4.484
 4274TIP3    H212829   4.110   4.566   4.422
 4275TIP3   OH212830   2.075   5.321   4.169
 4275TIP3    H112831   2.091   5.230   4.143
 4275TIP3    H212832   2.101   5.373   4.093
 4276TIP3   OH212833   1.735   2.213   0.778
 4276TIP3    H112834   1.673   2.141   0.769
 4276TIP3    H212835   1.691   2.288   0.738
 4277TIP3   OH212836   0.082   5.237   0.298
 4277TIP3    H112837   0.050   5.270   0.382
 4277TIP3    H212838   0.102   5.316   0.247
 4278TIP3   OH212839   0.105   3.190   2.334
 4278TIP3    H112840   0.169   3.124   2.359
 4278TIP3    H212841   0.158   3.268   2.315
 4279TIP3   OH212842   2.090   4.407   4.352
 4279TIP3    H112843   2.020   4.345   4.370
 4279TIP3    H212844   2.045   4.489   4.332
 4280TIP3   OH212845   2.357   5.150   1.759
 4280TIP3    H112846   2.343   5.057   1.737
 4280TIP3    H212847   2.283   5.172   1.816
 4281TIP3   OH212848   2.119   5.912   2.855
 4281TIP3    H112849   2.132   5.985   2.916
 4281TIP3    H212850   2.047   5.862   2.892
 4282TIP3   OH212851   0.264   5.028   5.024
 4282TIP3    H112852   0.308   5.082   5.089
 4282TIP3    H212853   0.275   5.076   4.942
 4283TIP3   OH212854   4.941   3.141   3.490
 4283TIP3    H112855   4.919   3.118   3.400
 4283TIP3    H212856   5.036   3.137   3.494
 4284TIP3   OH212857   6.089   5.515   2.701
 4284TIP3    H112858   6.144   5.470   2.765
 4284TIP3    H212859   6.146   5.583   2.664
 4285TIP3   OH212860   3.124   4.982   2.933
 4285TIP3    H112861   3.206   5.030   2.939
 4285TIP3    H212862   3.062   5.036   2.983
 4286TIP3   OH212863   0.584   1.274   3.765
 4286TIP3    H112864   0.633   1.194   3.784
 4286TIP3    H212865   0.651   1.341   3.753
 4287TIP3   OH212866   6.193   2.745   2.223
 4287TIP3    H112867   6.187   2.696   2.305
 4287TIP3    H212868   6.171   2.835   2.247
 4288TIP3   OH212869   2.800   2.249   1.512
 4288TIP3    H112870   2.742   2.317   1.545
 4288TIP3    H212871   2.888   2.283   1.527
 4289TIP3   OH212872   3.307   4.900   0.651
 4289TIP3    H112873   3.344   4.987   0.659
 4289TIP3    H212874   3.230   4.912   0.595
 4290TIP3   OH212875   2.031   3.078   4.136
 4290TIP3    H112876   1.974   3.154   4.151
 4290TIP3    H212877   2.103   3.113   4.083
 4291TIP3   OH212878   1.027   3.768   0.108
 4291TIP3    H112879   0.943   3.727   0.128
 4291TIP3    H212880   1.080   3.699   0.069
 4292TIP3   OH212881   1.424   2.881   4.612
 4292TIP3    H112882   1.356   2.817   4.592
 4292TIP3    H212883   1.381   2.966   4.605
 4293TIP3   OH212884   5.828   1.679   1.883
 4293TIP3    H112885   5.912   1.679   1.927
 4293TIP3    H212886   5.847   1.707   1.794
 4294TIP3   OH212887   4.621   1.740   1.969
 4294TIP3    H112888   4.663   1.754   2.054
 4294TIP3    H212889   4.627   1.825   1.925
 4295TIP3   OH212890   5.633   1.202   3.460
 4295TIP3    H112891   5.668   1.113   3.461
 4295TIP3    H212892   5.590   1.212   3.545
 4296TIP3   OH212893   1.158   1.302   4.693
 4296TIP3    H112894   1.251   1.313   4.674
 4296TIP3    H212895   1.130   1.388   4.726
 4297TIP3   OH212896   4.394   5.336   0.428
 4297TIP3    H112897   4.375   5.390   0.505
 4297TIP3    H212898   4.341   5.373   0.358
 4298TIP3   OH212899   2.560   4.433   1.035
 4298TIP3    H112900   2.624   4.363   1.022
 4298TIP3    H212901   2.567   4.456   1.127
 4299TIP3   OH212902   1.420   0.532   3.693
 4299TIP3    H112903   1.371   0.496   3.766
 4299TIP3    H212904   1.430   0.459   3.632
 4300TIP3   OH212905   5.731   2.454   2.698
 4300TIP3    H112906   5.685   2.521   2.749
 4300TIP3    H212907   5.822   2.458   2.730
 4301TIP3   OH212908   0.247   3.068   4.939
 4301TIP3    H112909   0.323   3.032   4.892
 4301TIP3    H212910   0.201   3.120   4.874
 4302TIP3   OH212911   3.317   4.111   3.859
 4302TIP3    H112912   3.307   4.205   3.871
 4302TIP3    H212913   3.277   4.072   3.937
 4303TIP3   OH212914   1.815   0.207   1.416
 4303TIP3    H112915   1.751   0.276   1.400
 4303TIP3    H212916   1.765   0.126   1.410
 4304TIP3   OH212917   0.643   3.683   2.003
 4304TIP3    H112918   0.688   3.611   1.958
 4304TIP3    H212919   0.585   3.639   2.066
 4305TIP3   OH212920   0.455   3.080   4.039
 4305TIP3    H112921   0.427   3.009   4.097
 4305TIP3    H212922   0.550   3.070   4.034
 4306TIP3   OH212923   0.829   3.446   4.450
 4306TIP3    H112924   0.786   3.363   4.473
 4306TIP3    H212925   0.826   3.449   4.354
 4307TIP3   OH212926   1.429   0.052   3.203
 4307TIP3    H112927   1.374   0.109   3.150
 4307TIP3    H212928   1.402  -0.037   3.181
 4308TIP3   OH212929   3.091   0.913   0.266
 4308TIP3    H112930   3.091   1.009   0.265
 4308TIP3    H212931   3.098   0.888   0.174
 4309TIP3   OH212932   0.645   3.328   1.325
 4309TIP3    H112933   0.661   3.248   1.374
 4309TIP3    H212934   0.578   3.374   1.375
 4310TIP3   OH212935   6.025   3.965   4.245
 4310TIP3    H112936   6.120   3.962   4.234
 4310TIP3    H212937   6.005   3.889   4.299
 4311TIP3   OH212938   1.919   1.443   4.208
 4311TIP3    H112939   1.961   1.528   4.193
 4311TIP3    H212940   1.950   1.417   4.295
 4312TIP3   OH212941   3.711   0.876   2.007
 4312TIP3    H112942   3.757   0.922   1.937
 4312TIP3    H212943   3.761   0.896   2.086
 4313TIP3   OH212944   5.263   1.534   3.296
 4313TIP3    H112945   5.313   1.518   3.215
 4313TIP3    H212946   5.300   1.471   3.359
 4314TIP3   OH212947   1.357   3.666   4.526
 4314TIP3    H112948   1.293   3.608   4.567
 4314TIP3    H212949   1.425   3.678   4.593
 4315TIP3   OH212950   1.059   0.721   4.434
 4315TIP3    H112951   1.043   0.802   4.481
 4315TIP3    H212952   1.115   0.746   4.361
 4316TIP3   OH212953   3.174   1.123   1.288
 4316TIP3    H112954   3.172   1.168   1.373
 4316TIP3    H212955   3.091   1.145   1.247
 4317TIP3   OH212956   3.394   3.545   1.919
 4317TIP3    H112957   3.445   3.512   1.845
 4317TIP3    H212958   3.309   3.502   1.910
 4318TIP3   OH212959   3.177   4.518   2.289
 4318TIP3    H112960   3.226   4.522   2.372
 4318TIP3    H212961   3.094   4.476   2.313
 4319TIP3   OH212962   4.813   3.153   4.266
 4319TIP3    H112963   4.839   3.177   4.177
 4319TIP3    H212964   4.841   3.061   4.274
 4320TIP3   OH212965   4.604   2.870   3.655
 4320TIP3    H112966   4.557   2.905   3.730
 4320TIP3    H212967   4.536   2.835   3.597
 4321TIP3   OH212968   1.249   4.829   0.986
 4321TIP3    H112969   1.214   4.786   1.064
 4321TIP3    H212970   1.249   4.922   1.009
 4322TIP3   OH212971   0.074   3.973   2.441
 4322TIP3    H112972   0.110   4.058   2.416
 4322TIP3    H212973  -0.001   3.995   2.496
 4323TIP3   OH212974   2.662   3.344   3.906
 4323TIP3    H112975   2.723   3.300   3.846
 4323TIP3    H212976   2.692   3.318   3.993
 4324TIP3   OH212977   2.075   5.614   3.239
 4324TIP3    H112978   1.981   5.623   3.252
 4324TIP3    H212979   2.105   5.703   3.220
 4325TIP3   OH212980   1.874   2.960   4.437
 4325TIP3    H112981   1.809   2.908   4.390
 4325TIP3    H212982   1.956   2.944   4.391
 4326TIP3   OH212983   5.275   3.648   0.870
 4326TIP3    H112984   5.209   3.687   0.812
 4326TIP3    H212985   5.335   3.720   0.890
 4327TIP3   OH212986   2.125   2.943   0.769
 4327TIP3    H112987   2.103   2.866   0.718
 4327TIP3    H212988   2.126   3.015   0.706
 4328TIP3   OH212989   2.889   1.244   2.591
 4328TIP3    H112990   2.924   1.327   2.559
 4328TIP3    H212991   2.880   1.257   2.686
 4329TIP3   OH212992   0.780   1.914   3.949
 4329TIP3    H112993   0.684   1.921   3.951
 4329TIP3    H212994   0.800   1.853   4.020
 4330TIP3   OH212995   5.215   5.811   0.167
 4330TIP3    H112996   5.123   5.795   0.185
 4330TIP3    H212997   5.262   5.750   0.223
 4331TIP3   OH212998   2.692   0.896   1.144
 4331TIP3    H112999   2.619   0.840   1.169
 4331TIP3    H213000   2.770   0.843   1.160
 4332TIP3   OH213001   0.162   2.660   3.605
 4332TIP3    H113002   0.218   2.653   3.682
 4332TIP3    H213003   0.082   2.614   3.630
 4333TIP3   OH213004   5.916   0.060   4.408
 4333TIP3    H113005   5.836   0.052   4.460
 4333TIP3    H213006   5.886   0.060   4.318
 4334TIP3   OH213007   4.641   5.776   2.251
 4334TIP3    H113008   4.569   5.808   2.306
 4334TIP3    H213009   4.645   5.838   2.178
 4335TIP3   OH213010   3.761   3.602   2.501
 4335TIP3    H113011   3.736   3.631   2.589
 4335TIP3    H213012   3.800   3.516   2.514
 4336TIP3   OH213013   3.033   3.373   1.604
 4336TIP3    H113014   3.021   3.281   1.581
 4336TIP3    H213015   2.954   3.396   1.654
 4337TIP3   OH213016   3.085   1.261   4.707
 4337TIP3    H113017   3.108   1.176   4.669
 4337TIP3    H213018   2.991   1.256   4.722
 4338TIP3   OH213019   3.781   4.609   4.754
 4338TIP3    H113020   3.861   4.559   4.737
 4338TIP3    H213021   3.741   4.621   4.668
 4339TIP3   OH213022   4.973   3.087   2.107
 4339TIP3    H113023   5.046   3.143   2.080
 4339TIP3    H213024   5.009   3.034   2.178
 4340TIP3   OH213025   3.634   1.503   1.887
 4340TIP3    H113026   3.588   1.495   1.971
 4340TIP3    H213027   3.598   1.582   1.848
 4341TIP3   OH213028   5.738   1.424   4.032
 4341TIP3    H113029   5.829   1.416   4.003
 4341TIP3    H213030   5.691   1.460   3.956
 4342TIP3   OH213031   0.337   5.714   3.128
 4342TIP3    H113032   0.402   5.685   3.063
 4342TIP3    H213033   0.255   5.718   3.079
 4343TIP3   OH213034   1.486   2.172   1.497
 4343TIP3    H113035   1.451   2.088   1.526
 4343TIP3    H213036   1.578   2.155   1.477
 4344TIP3   OH213037   3.862   4.198   3.699
 4344TIP3    H113038   3.909   4.252   3.635
 4344TIP3    H213039   3.879   4.240   3.783
 4345TIP3   OH213040   0.162   0.161   2.174
 4345TIP3    H113041   0.229   0.117   2.122
 4345TIP3    H213042   0.096   0.188   2.110
 4346TIP3   OH213043   5.218   4.487   2.859
 4346TIP3    H113044   5.282   4.445   2.917
 4346TIP3    H213045   5.272   4.537   2.798
 4347TIP3   OH213046   2.503   4.641   2.430
 4347TIP3    H113047   2.530   4.667   2.342
 4347TIP3    H213048   2.524   4.716   2.486
 4348TIP3   OH213049   0.918   1.772   2.756
 4348TIP3    H113050   0.997   1.825   2.771
 4348TIP3    H213051   0.947   1.702   2.698
 4349TIP3   OH213052   0.679   2.065   1.009
 4349TIP3    H113053   0.598   2.093   1.050
 4349TIP3    H213054   0.732   2.030   1.080
 4350TIP3   OH213055   0.178   0.379   0.965
 4350TIP3    H113056   0.146   0.303   0.917
 4350TIP3    H213057   0.225   0.342   1.041
 4351TIP3   OH213058   1.986   1.993   4.099
 4351TIP3    H113059   2.051   2.019   4.164
 4351TIP3    H213060   1.995   1.897   4.093
 4352TIP3   OH213061   1.761   4.076   0.688
 4352TIP3    H113062   1.699   4.076   0.761
 4352TIP3    H213063   1.748   4.161   0.646
 4353TIP3   OH213064   4.698   3.812   0.403
 4353TIP3    H113065   4.741   3.749   0.346
 4353TIP3    H213066   4.744   3.894   0.388
 4354TIP3   OH213067   2.484   4.979   2.121
 4354TIP3    H113068   2.459   5.072   2.116
 4354TIP3    H213069   2.407   4.932   2.087
 4355TIP3   OH213070   3.658   2.454   4.889
 4355TIP3    H113071   3.627   2.498   4.968
 4355TIP3    H213072   3.594   2.384   4.875
 4356TIP3   OH213073   0.987   2.992   0.792
 4356TIP3    H113074   1.071   3.037   0.798
 4356TIP3    H213075   0.948   3.003   0.879
 4357TIP3   OH213076   6.176   1.616   1.401
 4357TIP3    H113077   6.179   1.616   1.305
 4357TIP3    H213078   6.249   1.671   1.428
 4358TIP3   OH213079   2.082   4.314   4.953
 4358TIP3    H113080   1.995   4.275   4.968
 4358TIP3    H213081   2.065   4.409   4.952
 4359TIP3   OH213082   6.033   0.871   4.358
 4359TIP3    H113083   6.041   0.795   4.416
 4359TIP3    H213084   6.096   0.934   4.393
 4360TIP3   OH213085   6.137   5.067   4.011
 4360TIP3    H113086   6.133   4.971   4.008
 4360TIP3    H213087   6.083   5.090   4.086
 4361TIP3   OH213088   1.523   0.863   1.839
 4361TIP3    H113089   1.549   0.795   1.901
 4361TIP3    H213090   1.596   0.867   1.777
 4362TIP3   OH213091   0.440   5.895   2.310
 4362TIP3    H113092   0.432   5.961   2.378
 4362TIP3    H213093   0.521   5.848   2.332
 4363TIP3   OH213094   5.511   2.796   3.394
 4363TIP3    H113095   5.577   2.764   3.332
 4363TIP3    H213096   5.528   2.890   3.401
 4364TIP3   OH213097   4.136   1.864   2.601
 4364TIP3    H113098   4.156   1.772   2.586
 4364TIP3    H213099   4.213   1.899   2.645
 4365TIP3   OH213100   5.355   3.648   4.044
 4365TIP3    H113101   5.426   3.647   3.979
 4365TIP3    H213102   5.284   3.600   4.002
 4366TIP3   OH213103   1.023   2.774   2.221
 4366TIP3    H113104   1.114   2.794   2.200
 4366TIP3    H213105   0.987   2.735   2.141
 4367TIP3   OH213106   1.830   0.385   3.468
 4367TIP3    H113107   1.840   0.376   3.373
 4367TIP3    H213108   1.797   0.301   3.498
 4368TIP3   OH213109   4.273   1.623   2.600
 4368TIP3    H113110   4.285   1.529   2.583
 4368TIP3    H213111   4.361   1.659   2.597
 4369TIP3   OH213112   4.728   5.094   4.699
 4369TIP3    H113113   4.651   5.057   4.657
 4369TIP3    H213114   4.694   5.164   4.755
 4370TIP3   OH213115   1.023   4.963   3.616
 4370TIP3    H113116   1.074   4.913   3.680
 4370TIP3    H213117   1.088   5.020   3.574
 4371TIP3   OH213118   0.863   2.527   0.236
 4371TIP3    H113119   0.938   2.479   0.199
 4371TIP3    H213120   0.902   2.594   0.291
 4372TIP3   OH213121   4.374   0.107   3.728
 4372TIP3    H113122   4.461   0.146   3.719
 4372TIP3    H213123   4.314   0.177   3.704
 4373TIP3   OH213124   5.554   3.001   0.473
 4373TIP3    H113125   5.479   3.055   0.495
 4373TIP3    H213126   5.609   3.057   0.419
 4374TIP3   OH213127   5.529   3.118   4.355
 4374TIP3    H113128   5.448   3.170   4.355
 4374TIP3    H213129   5.572   3.141   4.437
 4375TIP3   OH213130   4.842   4.183   1.367
 4375TIP3    H113131   4.763   4.140   1.401
 4375TIP3    H213132   4.831   4.275   1.392
 4376TIP3   OH213133   5.070   5.692   2.746
 4376TIP3    H113134   5.058   5.653   2.660
 4376TIP3    H213135   5.033   5.629   2.807
 4377TIP3   OH213136   0.654   3.208   1.831
 4377TIP3    H113137   0.585   3.256   1.878
 4377TIP3    H213138   0.619   3.120   1.820
 4378TIP3   OH213139   0.192   3.843   0.746
 4378TIP3    H113140   0.225   3.855   0.835
 4378TIP3    H213141   0.249   3.896   0.691
 4379TIP3   OH213142   6.150   0.943   0.082
 4379TIP3    H113143   6.084   0.939   0.152
 4379TIP3    H213144   6.101   0.975   0.006
 4380TIP3   OH213145   5.710   5.418   2.960
 4380TIP3    H113146   5.730   5.373   2.878
 4380TIP3    H213147   5.708   5.349   3.026
 4381TIP3   OH213148   4.467   1.111   0.100
 4381TIP3    H113149   4.386   1.094   0.148
 4381TIP3    H213150   4.450   1.077   0.013
 4382TIP3   OH213151   4.165   1.418   4.083
 4382TIP3    H113152   4.148   1.376   3.999
 4382TIP3    H213153   4.155   1.512   4.066
 4383TIP3   OH213154   5.422   5.199   2.247
 4383TIP3    H113155   5.454   5.160   2.329
 4383TIP3    H213156   5.351   5.142   2.220
 4384TIP3   OH213157   1.452   4.834   3.422
 4384TIP3    H113158   1.387   4.855   3.356
 4384TIP3    H213159   1.418   4.873   3.503
 4385TIP3   OH213160   4.323   1.556   3.233
 4385TIP3    H113161   4.233   1.587   3.242
 4385TIP3    H213162   4.362   1.572   3.318
 4386TIP3   OH213163   1.944   4.976   4.691
 4386TIP3    H113164   1.967   4.997   4.782
 4386TIP3    H213165   1.992   5.039   4.638
 4387TIP3   OH213166   0.703   0.677   2.631
 4387TIP3    H113167   0.652   0.681   2.551
 4387TIP3    H213168   0.644   0.640   2.696
 4388TIP3   OH213169   2.917   5.556   1.405
 4388TIP3    H113170   2.975   5.497   1.453
 4388TIP3    H213171   2.952   5.557   1.316
 4389TIP3   OH213172   1.481   5.486   1.125
 4389TIP3    H113173   1.416   5.421   1.154
 4389TIP3    H213174   1.560   5.435   1.108
 4390TIP3   OH213175   3.067   4.927   0.459
 4390TIP3    H113176   3.050   4.856   0.397
 4390TIP3    H213177   3.099   4.999   0.405
 4391TIP3   OH213178   5.111   3.127   1.741
 4391TIP3    H113179   5.088   3.220   1.739
 4391TIP3    H213180   5.172   3.117   1.667
 4392TIP3   OH213181   1.551   1.220   4.884
 4392TIP3    H113182   1.559   1.314   4.866
 4392TIP3    H213183   1.494   1.215   4.961
 4393TIP3   OH213184   1.046   4.491   0.379
 4393TIP3    H113185   1.106   4.482   0.304
 4393TIP3    H213186   1.071   4.419   0.438
 4394TIP3   OH213187   4.911   5.560   4.932
 4394TIP3    H113188   4.996   5.566   4.890
 4394TIP3    H213189   4.872   5.480   4.897
 4395TIP3   OH213190   0.470   4.974   1.258
 4395TIP3    H113191   0.378   4.953   1.275
 4395TIP3    H213192   0.467   5.032   1.182
 4396TIP3   OH213193   4.700   4.627   1.895
 4396TIP3    H113194   4.705   4.607   1.989
 4396TIP3    H213195   4.783   4.596   1.859
 4397TIP3   OH213196   0.205   1.979   1.400
 4397TIP3    H113197   0.194   2.050   1.336
 4397TIP3    H213198   0.282   2.005   1.450
 4398TIP3   OH213199   5.784   2.701   4.017
 4398TIP3    H113200   5.726   2.771   4.046
 4398TIP3    H213201   5.726   2.633   3.984
 4399TIP3   OH213202   0.738   5.038   3.584
 4399TIP3    H113203   0.702   5.034   3.673
 4399TIP3    H213204   0.833   5.037   3.597
 4400TIP3   OH213205   0.213   5.239   0.857
 4400TIP3    H113206   0.165   5.156   0.853
 4400TIP3    H213207   0.184   5.279   0.939
 4401TIP3   OH213208   0.787   2.598   2.922
 4401TIP3    H113209   0.811   2.629   3.009
 4401TIP3    H213210   0.750   2.511   2.936
 4402TIP3   OH213211   3.947   5.531   1.177
 4402TIP3    H113212   4.011   5.516   1.247
 4402TIP3    H213213   3.882   5.462   1.188
 4403TIP3   OH213214   1.968   2.594   0.862
 4403TIP3    H113215   2.032   2.522   0.866
 4403TIP3    H213216   1.997   2.655   0.930
 4404TIP3   OH213217   0.784   1.141   4.232
 4404TIP3    H113218   0.872   1.126   4.199
 4404TIP3    H213219   0.740   1.188   4.161
 4405TIP3   OH213220   5.100   5.111   0.712
 4405TIP3    H113221   5.088   5.023   0.676
 4405TIP3    H213222   5.011   5.146   0.718
 4406TIP3   OH213223   0.490   2.254   3.552
 4406TIP3    H113224   0.419   2.195   3.524
 4406TIP3    H213225   0.491   2.323   3.486
 4407TIP3   OH213226   1.698   1.267   2.146
 4407TIP3    H113227   1.777   1.260   2.199
 4407TIP3    H213228   1.626   1.270   2.209
 4408TIP3   OH213229   3.379   2.845   4.539
 4408TIP3    H113230   3.441   2.905   4.499
 4408TIP3    H213231   3.434   2.778   4.580
 4409TIP3   OH213232   0.698   0.070   2.413
 4409TIP3    H113233   0.644   0.077   2.492
 4409TIP3    H213234   0.737  -0.017   2.419
 4410TIP3   OH213235   2.605   5.851   1.773
 4410TIP3    H113236   2.526   5.807   1.803
 4410TIP3    H213237   2.672   5.827   1.838
 4411TIP3   OH213238   1.962   2.612   4.055
 4411TIP3    H113239   1.884   2.667   4.062
 4411TIP3    H213240   1.994   2.628   3.966
 4412TIP3   OH213241   0.894   4.078   0.453
 4412TIP3    H113242   0.954   4.062   0.380
 4412TIP3    H213243   0.944   4.130   0.516
 4413TIP3   OH213244   0.776   5.385   3.968
 4413TIP3    H113245   0.824   5.463   3.995
 4413TIP3    H213246   0.762   5.397   3.874
 4414TIP3   OH213247   1.441   1.674   1.066
 4414TIP3    H113248   1.457   1.740   0.999
 4414TIP3    H213249   1.527   1.653   1.101
 4415TIP3   OH213250   4.902   2.320   0.944
 4415TIP3    H113251   4.807   2.328   0.933
 4415TIP3    H213252   4.924   2.237   0.901
 4416TIP3   OH213253   3.660   1.756   2.212
 4416TIP3    H113254   3.661   1.784   2.120
 4416TIP3    H213255   3.724   1.812   2.255
 4417TIP3   OH213256   5.590   1.260   1.578
 4417TIP3    H113257   5.615   1.265   1.670
 4417TIP3    H213258   5.654   1.315   1.532
 4418TIP3   OH213259   6.086   2.172   0.869
 4418TIP3    H113260   6.091   2.257   0.911
 4418TIP3    H213261   6.158   2.171   0.806
 4419TIP3   OH213262   4.848   1.599   4.421
 4419TIP3    H113263   4.934   1.567   4.394
 4419TIP3    H213264   4.839   1.571   4.512
 4420TIP3   OH213265   5.055   4.749   5.177
 4420TIP3    H113266   5.111   4.825   5.195
 4420TIP3    H213267   5.060   4.738   5.082
 4421TIP3   OH213268   5.494   5.564   3.268
 4421TIP3    H113269   5.484   5.572   3.363
 4421TIP3    H213270   5.574   5.613   3.247
 4422TIP3   OH213271   1.335   2.750   2.220
 4422TIP3    H113272   1.382   2.770   2.301
 4422TIP3    H213273   1.340   2.831   2.169
 4423TIP3   OH213274   5.658   3.618   3.202
 4423TIP3    H113275   5.673   3.588   3.112
 4423TIP3    H213276   5.610   3.701   3.192
 4424TIP3   OH213277   2.969   3.456   3.712
 4424TIP3    H113278   3.056   3.438   3.748
 4424TIP3    H213279   2.920   3.494   3.785
 4425TIP3   OH213280   6.133   2.340   4.520
 4425TIP3    H113281   6.218   2.301   4.502
 4425TIP3    H213282   6.073   2.296   4.459
 4426TIP3   OH213283   4.075   1.669   1.975
 4426TIP3    H113284   4.155   1.619   1.963
 4426TIP3    H213285   4.085   1.711   2.060
 4427TIP3   OH213286   6.058   4.565   3.770
 4427TIP3    H113287   5.989   4.507   3.738
 4427TIP3    H213288   6.137   4.511   3.768
 4428TIP3   OH213289   4.250   5.522   0.613
 4428TIP3    H113290   4.329   5.574   0.624
 4428TIP3    H213291   4.180   5.587   0.607
 4429TIP3   OH213292   1.464   3.410   5.120
 4429TIP3    H113293   1.495   3.476   5.058
 4429TIP3    H213294   1.406   3.354   5.068
 4430TIP3   OH213295   4.239   5.628   5.129
 4430TIP3    H113296   4.321   5.578   5.128
 4430TIP3    H213297   4.198   5.606   5.212
 4431TIP3   OH213298   1.580   1.354   0.107
 4431TIP3    H113299   1.515   1.312   0.050
 4431TIP3    H213300   1.653   1.373   0.049
 4432TIP3   OH213301   1.772   2.970   3.954
 4432TIP3    H113302   1.687   2.983   3.996
 4432TIP3    H213303   1.821   3.050   3.973
 4433TIP3   OH213304   5.199   3.475   2.004
 4433TIP3    H113305   5.145   3.433   2.070
 4433TIP3    H213306   5.289   3.452   2.028
 4434TIP3   OH213307   4.392   1.563   4.417
 4434TIP3    H113308   4.474   1.572   4.368
 4434TIP3    H213309   4.333   1.628   4.377
 4435TIP3   OH213310   1.696   5.220   2.898
 4435TIP3    H113311   1.631   5.198   2.965
 4435TIP3    H213312   1.688   5.315   2.888
 4436TIP3   OH213313   1.048   2.368   0.826
 4436TIP3    H113314   1.119   2.303   0.816
 4436TIP3    H213315   0.968   2.315   0.828
 4437TIP3   OH213316   5.982   3.653   3.541
 4437TIP3    H113317   6.013   3.727   3.593
 4437TIP3    H213318   5.935   3.693   3.468
 4438TIP3   OH213319   2.938   4.430   2.425
 4438TIP3    H113320   3.002   4.379   2.475
 4438TIP3    H213321   2.869   4.368   2.403
 4439TIP3   OH213322   5.717   2.530   0.763
 4439TIP3    H113323   5.747   2.440   0.750
 4439TIP3    H213324   5.679   2.530   0.851
 4440TIP3   OH213325   1.229   3.162   2.508
 4440TIP3    H113326   1.225   3.237   2.567
 4440TIP3    H213327   1.139   3.151   2.478
 4441TIP3   OH213328   2.790   3.747   2.616
 4441TIP3    H113329   2.768   3.655   2.630
 4441TIP3    H213330   2.872   3.760   2.663
 4442TIP3   OH213331   3.301   0.397   2.317
 4442TIP3    H113332   3.282   0.491   2.315
 4442TIP3    H213333   3.376   0.389   2.376
 4443TIP3   OH213334   6.302   4.084   4.147
 4443TIP3    H113335   6.274   4.158   4.200
 4443TIP3    H213336   6.364   4.121   4.084
 4444TIP3   OH213337   4.010   2.860   3.945
 4444TIP3    H113338   4.079   2.869   4.009
 4444TIP3    H213339   4.054   2.827   3.866
 4445TIP3   OH213340   0.349   2.498  -0.003
 4445TIP3    H113341   0.282   2.546   0.046
 4445TIP3    H213342   0.378   2.430   0.058
 4446TIP3   OH213343   2.136   4.614   4.697
 4446TIP3    H113344   2.185   4.678   4.646
 4446TIP3    H213345   2.174   4.530   4.673
 4447TIP3   OH213346   4.230   0.563   2.869
 4447TIP3    H113347   4.291   0.495   2.840
 4447TIP3    H213348   4.200   0.533   2.954
 4448TIP3   OH213349   1.417   3.601   2.433
 4448TIP3    H113350   1.328   3.569   2.445
 4448TIP3    H213351   1.436   3.584   2.341
 4449TIP3   OH213352   2.925   5.272   3.803
 4449TIP3    H113353   2.955   5.341   3.743
 4449TIP3    H213354   2.866   5.218   3.751
 4450TIP3   OH213355   5.290   2.910   3.946
 4450TIP3    H113356   5.338   2.937   3.867
 4450TIP3    H213357   5.199   2.933   3.927
 4451TIP3   OH213358   1.126   4.044   3.539
 4451TIP3    H113359   1.187   4.096   3.487
 4451TIP3    H213360   1.044   4.046   3.488
 4452TIP3   OH213361   3.008   4.150   4.370
 4452TIP3    H113362   2.993   4.124   4.461
 4452TIP3    H213363   3.103   4.162   4.364
 4453TIP3   OH213364   4.338   4.112   0.575
 4453TIP3    H113365   4.312   4.048   0.641
 4453TIP3    H213366   4.256   4.153   0.548
 4454TIP3   OH213367   5.316   4.975   3.502
 4454TIP3    H113368   5.302   5.032   3.426
 4454TIP3    H213369   5.373   5.025   3.560
 4455TIP3   OH213370   4.884   0.739   5.129
 4455TIP3    H113371   4.934   0.738   5.048
 4455TIP3    H213372   4.910   0.821   5.172
 4456TIP3   OH213373   0.527   5.788   0.621
 4456TIP3    H113374   0.542   5.720   0.557
 4456TIP3    H213375   0.525   5.869   0.570
 4457TIP3   OH213376   6.076   1.634   0.828
 4457TIP3    H113377   6.009   1.659   0.891
 4457TIP3    H213378   6.030   1.622   0.746
 4458TIP3   OH213379   1.409   4.973   1.910
 4458TIP3    H113380   1.458   4.921   1.974
 4458TIP3    H213381   1.413   5.062   1.944
 4459TIP3   OH213382   5.699   0.018   1.866
 4459TIP3    H113383   5.649   0.098   1.878
 4459TIP3    H213384   5.763   0.018   1.937
 4460TIP3   OH213385   5.901   1.044   3.102
 4460TIP3    H113386   5.966   1.113   3.093
 4460TIP3    H213387   5.937   0.985   3.169
 4461TIP3   OH213388   2.651   4.748   4.989
 4461TIP3    H113389   2.735   4.713   5.019
 4461TIP3    H213390   2.636   4.825   5.045
 4462TIP3   OH213391   3.776   2.036   4.359
 4462TIP3    H113392   3.792   2.109   4.418
 4462TIP3    H213393   3.688   2.006   4.380
 4463TIP3   OH213394   0.235   5.572   1.951
 4463TIP3    H113395   0.286   5.537   1.878
 4463TIP3    H213396   0.256   5.665   1.952
 4464TIP3   OH213397   3.675   3.977   3.066
 4464TIP3    H113398   3.590   4.018   3.046
 4464TIP3    H213399   3.657   3.920   3.140
 4465TIP3   OH213400   0.378   0.268   4.874
 4465TIP3    H113401   0.375   0.309   4.787
 4465TIP3    H213402   0.319   0.322   4.927
 4466TIP3   OH213403   5.556   0.104   4.039
 4466TIP3    H113404   5.649   0.085   4.054
 4466TIP3    H213405   5.545   0.094   3.944
 4467TIP3   OH213406   1.575   0.202   4.715
 4467TIP3    H113407   1.485   0.176   4.696
 4467TIP3    H213408   1.622   0.119   4.727
 4468TIP3   OH213409   4.495   2.628   1.265
 4468TIP3    H113410   4.490   2.649   1.358
 4468TIP3    H213411   4.467   2.536   1.259
 4469TIP3   OH213412   5.856   5.374   2.620
 4469TIP3    H113413   5.817   5.443   2.567
 4469TIP3    H213414   5.939   5.410   2.650
 4470TIP3   OH213415   1.384   5.882   5.036
 4470TIP3    H113416   1.358   5.904   5.126
 4470TIP3    H213417   1.414   5.964   4.999
 4471TIP3   OH213418   1.718   4.123   3.932
 4471TIP3    H113419   1.788   4.187   3.921
 4471TIP3    H213420   1.665   4.132   3.852
 4472TIP3   OH213421   0.600   4.009   2.318
 4472TIP3    H113422   0.619   3.996   2.225
 4472TIP3    H213423   0.621   3.925   2.359
 4473TIP3   OH213424   2.638   3.589   0.675
 4473TIP3    H113425   2.716   3.642   0.691
 4473TIP3    H213426   2.642   3.568   0.581
 4474TIP3   OH213427   2.545   3.836   2.636
 4474TIP3    H113428   2.640   3.826   2.646
 4474TIP3    H213429   2.518   3.890   2.711
 4475TIP3   OH213430   3.937   1.429   3.034
 4475TIP3    H113431   3.997   1.503   3.043
 4475TIP3    H213432   3.989   1.361   2.992
 4476TIP3   OH213433   3.631   3.367   1.434
 4476TIP3    H113434   3.580   3.395   1.510
 4476TIP3    H213435   3.566   3.350   1.366
 4477TIP3   OH213436   6.205   4.987   0.725
 4477TIP3    H113437   6.152   5.054   0.680
 4477TIP3    H213438   6.246   5.034   0.798
 4478TIP3   OH213439   2.676   2.354   1.095
 4478TIP3    H113440   2.715   2.353   1.008
 4478TIP3    H213441   2.603   2.292   1.090
 4479TIP3   OH213442   2.528   5.857   4.989
 4479TIP3    H113443   2.445   5.903   4.989
 4479TIP3    H213444   2.505   5.765   4.971
 4480TIP3   OH213445   0.259   1.970   4.415
 4480TIP3    H113446   0.190   1.981   4.480
 4480TIP3    H213447   0.285   2.059   4.392
 4481TIP3   OH213448   2.383   1.375   4.164
 4481TIP3    H113449   2.348   1.298   4.209
 4481TIP3    H213450   2.477   1.373   4.183
 4482TIP3   OH213451   2.324   1.640   1.634
 4482TIP3    H113452   2.236   1.603   1.633
 4482TIP3    H213453   2.378   1.575   1.590
 4483TIP3   OH213454   5.198   2.663   1.185
 4483TIP3    H113455   5.172   2.630   1.271
 4483TIP3    H213456   5.136   2.625   1.124
 4484TIP3   OH213457   1.886   5.103   0.415
 4484TIP3    H113458   1.943   5.160   0.467
 4484TIP3    H213459   1.890   5.019   0.459
 4485TIP3   OH213460   4.741   4.749   2.233
 4485TIP3    H113461   4.773   4.755   2.323
 4485TIP3    H213462   4.784   4.821   2.187
 4486TIP3   OH213463   4.408   3.964   4.353
 4486TIP3    H113464   4.410   3.932   4.263
 4486TIP3    H213465   4.359   3.897   4.401
 4487TIP3   OH213466   4.521   1.707   2.547
 4487TIP3    H113467   4.541   1.701   2.454
 4487TIP3    H213468   4.600   1.677   2.592
 4488TIP3   OH213469   4.696   5.391   4.021
 4488TIP3    H113470   4.611   5.422   4.053
 4488TIP3    H213471   4.682   5.298   4.004
 4489TIP3   OH213472   4.625   1.651   4.664
 4489TIP3    H113473   4.551   1.691   4.711
 4489TIP3    H213474   4.636   1.707   4.587
 4490TIP3   OH213475   0.089   2.029   4.646
 4490TIP3    H113476   0.119   2.022   4.737
 4490TIP3    H213477  -0.006   2.037   4.652
 4491TIP3   OH213478   3.688   3.268   0.064
 4491TIP3    H113479   3.682   3.331  -0.007
 4491TIP3    H213480   3.712   3.186   0.022
 4492TIP3   OH213481   3.237   4.715   4.394
 4492TIP3    H113482   3.269   4.627   4.415
 4492TIP3    H213483   3.142   4.704   4.385
 4493TIP3   OH213484   2.755   1.228   3.068
 4493TIP3    H113485   2.794   1.274   3.142
 4493TIP3    H213486   2.672   1.194   3.101
 4494TIP3   OH213487   5.046   4.393   0.201
 4494TIP3    H113488   5.004   4.309   0.219
 4494TIP3    H213489   5.062   4.391   0.107
 4495TIP3   OH213490   4.395   0.133   2.196
 4495TIP3    H113491   4.457   0.143   2.268
 4495TIP3    H213492   4.320   0.188   2.220
 4496TIP3   OH213493   3.619   1.066   1.246
 4496TIP3    H113494   3.549   1.104   1.193
 4496TIP3    H213495   3.648   1.138   1.303
 4497TIP3   OH213496   2.402   5.248   2.089
 4497TIP3    H113497   2.461   5.317   2.120
 4497TIP3    H213498   2.330   5.295   2.047
 4498TIP3   OH213499   6.209   3.906   1.651
 4498TIP3    H113500   6.266   3.981   1.667
 4498TIP3    H213501   6.202   3.902   1.555
 4499TIP3   OH213502   5.580   0.877   0.105
 4499TIP3    H113503   5.518   0.810   0.131
 4499TIP3    H213504   5.664   0.849   0.143
 4500TIP3   OH213505   0.398   1.125   1.504
 4500TIP3    H113506   0.360   1.124   1.416
 4500TIP3    H213507   0.484   1.164   1.493
 4501TIP3   OH213508   2.504   2.804   0.513
 4501TIP3    H113509   2.488   2.717   0.477
 4501TIP3    H213510   2.426   2.854   0.490
 4502TIP3   OH213511   4.224   5.594   4.853
 4502TIP3    H113512   4.266   5.673   4.818
 4502TIP3    H213513   4.216   5.610   4.947
 4503TIP3   OH213514   5.317   2.076   1.747
 4503TIP3    H113515   5.324   2.167   1.717
 4503TIP3    H213516   5.407   2.044   1.746
 4504TIP3   OH213517   4.503   1.113   0.407
 4504TIP3    H113518   4.514   1.205   0.385
 4504TIP3    H213519   4.450   1.113   0.487
 4505TIP3   OH213520   1.586   5.029   3.119
 4505TIP3    H113521   1.537   5.111   3.121
 4505TIP3    H213522   1.611   5.014   3.211
 4506TIP3   OH213523   3.658   1.687   4.457
 4506TIP3    H113524   3.744   1.655   4.482
 4506TIP3    H213525   3.675   1.745   4.382
 4507TIP3   OH213526   5.553   4.652   3.780
 4507TIP3    H113527   5.551   4.561   3.808
 4507TIP3    H213528   5.644   4.679   3.792
 4508TIP3   OH213529   4.224   0.663   4.324
 4508TIP3    H113530   4.197   0.595   4.385
 4508TIP3    H213531   4.222   0.621   4.238
 4509TIP3   OH213532   4.146   0.000   1.681
 4509TIP3    H113533   4.147   0.094   1.695
 4509TIP3    H213534   4.144  -0.011   1.586
 4510TIP3   OH213535   2.165   4.790   3.557
 4510TIP3    H113536   2.214   4.824   3.632
 4510TIP3    H213537   2.232   4.756   3.498
 4511TIP3   OH213538   1.718   5.627   0.159
 4511TIP3    H113539   1.744   5.599   0.072
 4511TIP3    H213540   1.758   5.563   0.218
 4512TIP3   OH213541   5.495   5.144   3.622
 4512TIP3    H113542   5.516   5.116   3.711
 4512TIP3    H213543   5.504   5.239   3.624
 4513TIP3   OH213544   1.692   3.493   1.336
 4513TIP3    H113545   1.646   3.431   1.279
 4513TIP3    H213546   1.695   3.449   1.421
 4514TIP3   OH213547   0.481   5.535   3.577
 4514TIP3    H113548   0.387   5.551   3.572
 4514TIP3    H213549   0.514   5.558   3.490
 4515TIP3   OH213550   0.567   1.644   2.298
 4515TIP3    H113551   0.572   1.723   2.244
 4515TIP3    H213552   0.627   1.660   2.370
 4516TIP3   OH213553   4.064   3.486   1.258
 4516TIP3    H113554   3.989   3.502   1.201
 4516TIP3    H213555   4.091   3.396   1.238
 4517TIP3   OH213556   3.904   3.136   2.857
 4517TIP3    H113557   3.868   3.205   2.913
 4517TIP3    H213558   3.829   3.082   2.834
 4518TIP3   OH213559   4.392   5.167   4.865
 4518TIP3    H113560   4.301   5.192   4.880
 4518TIP3    H213561   4.389   5.072   4.853
 4519TIP3   OH213562   4.381   5.361   4.595
 4519TIP3    H113563   4.414   5.358   4.685
 4519TIP3    H213564   4.374   5.454   4.575
 4520TIP3   OH213565   3.648   5.749   0.985
 4520TIP3    H113566   3.586   5.775   0.916
 4520TIP3    H213567   3.708   5.823   0.992
 4521TIP3   OH213568   4.552   1.007   0.905
 4521TIP3    H113569   4.589   0.992   0.818
 4521TIP3    H213570   4.616   1.061   0.950
 4522TIP3   OH213571   1.428   4.771   3.915
 4522TIP3    H113572   1.506   4.717   3.906
 4522TIP3    H213573   1.401   4.760   4.006
 4523TIP3   OH213574   5.430   2.050   0.469
 4523TIP3    H113575   5.445   2.136   0.508
 4523TIP3    H213576   5.335   2.038   0.472
 4524TIP3   OH213577   3.614   3.397   0.598
 4524TIP3    H113578   3.549   3.467   0.588
 4524TIP3    H213579   3.563   3.319   0.619
 4525TIP3   OH213580   2.400   0.647   0.062
 4525TIP3    H113581   2.462   0.628   0.133
 4525TIP3    H213582   2.456   0.667  -0.013
 4526TIP3   OH213583   0.674   2.933   0.219
 4526TIP3    H113584   0.682   2.912   0.312
 4526TIP3    H213585   0.760   2.969   0.196
 4527TIP3   OH213586   1.862   1.720   4.892
 4527TIP3    H113587   1.929   1.777   4.855
 4527TIP3    H213588   1.883   1.633   4.858
 4528TIP3   OH213589   5.272   3.854   5.184
 4528TIP3    H113590   5.341   3.843   5.118
 4528TIP3    H213591   5.222   3.773   5.179
 4529TIP3   OH213592   3.815   0.539   1.722
 4529TIP3    H113593   3.807   0.536   1.627
 4529TIP3    H213594   3.831   0.448   1.748
 4530TIP3   OH213595   4.617   4.351   0.150
 4530TIP3    H113596   4.581   4.409   0.083
 4530TIP3    H213597   4.664   4.409   0.210
 4531TIP3   OH213598   3.675   0.821   4.563
 4531TIP3    H113599   3.696   0.908   4.529
 4531TIP3    H213600   3.756   0.771   4.552
 4532TIP3   OH213601   5.644   4.187   1.761
 4532TIP3    H113602   5.692   4.267   1.779
 4532TIP3    H213603   5.578   4.212   1.697
 4533TIP3   OH213604   1.667   1.375   4.131
 4533TIP3    H113605   1.690   1.290   4.095
 4533TIP3    H213606   1.751   1.419   4.145
 4534TIP3   OH213607   2.685   2.159   3.596
 4534TIP3    H113608   2.653   2.106   3.523
 4534TIP3    H213609   2.642   2.122   3.673
 4535TIP3   OH213610   3.470   2.208   3.066
 4535TIP3    H113611   3.392   2.260   3.046
 4535TIP3    H213612   3.479   2.214   3.161
 4536TIP3   OH213613   2.376   1.124   2.521
 4536TIP3    H113614   2.344   1.074   2.446
 4536TIP3    H213615   2.297   1.160   2.561
 4537TIP3   OH213616   5.410   5.303   1.110
 4537TIP3    H113617   5.361   5.233   1.067
 4537TIP3    H213618   5.496   5.302   1.068
 4538TIP3   OH213619   2.942   5.472   0.341
 4538TIP3    H113620   2.849   5.471   0.318
 4538TIP3    H213621   2.945   5.515   0.427
 4539TIP3   OH213622   3.622   1.987   1.334
 4539TIP3    H113623   3.698   2.042   1.353
 4539TIP3    H213624   3.659   1.908   1.295
 4540TIP3   OH213625   1.037   5.324   1.268
 4540TIP3    H113626   1.073   5.344   1.354
 4540TIP3    H213627   1.113   5.306   1.213
 4541TIP3   OH213628   4.406   1.980   0.308
 4541TIP3    H113629   4.453   2.061   0.293
 4541TIP3    H213630   4.398   1.940   0.222
 4542TIP3   OH213631   0.735   4.989   4.189
 4542TIP3    H113632   0.665   5.054   4.200
 4542TIP3    H213633   0.694   4.918   4.139
 4543TIP3   OH213634   2.761   3.542   3.357
 4543TIP3    H113635   2.802   3.628   3.369
 4543TIP3    H213636   2.827   3.480   3.387
 4544TIP3   OH213637   5.171   0.408   2.236
 4544TIP3    H113638   5.238   0.435   2.174
 4544TIP3    H213639   5.099   0.469   2.223
 4545TIP3   OH213640   3.816   5.043   2.126
 4545TIP3    H113641   3.814   4.990   2.205
 4545TIP3    H213642   3.843   5.130   2.155
 4546TIP3   OH213643   1.419   0.417   4.262
 4546TIP3    H113644   1.418   0.379   4.174
 4546TIP3    H213645   1.506   0.399   4.296
 4547TIP3   OH213646   2.804   1.205   4.732
 4547TIP3    H113647   2.730   1.222   4.789
 4547TIP3    H213648   2.818   1.110   4.738
 4548TIP3   OH213649   5.113   1.283   3.783
 4548TIP3    H113650   5.187   1.275   3.844
 4548TIP3    H213651   5.045   1.226   3.821
 4549TIP3   OH213652   2.821   3.798   2.109
 4549TIP3    H113653   2.758   3.833   2.047
 4549TIP3    H213654   2.767   3.756   2.177
 4550TIP3   OH213655   3.920   2.607   3.356
 4550TIP3    H113656   3.861   2.656   3.299
 4550TIP3    H213657   4.005   2.609   3.311
 4551TIP3   OH213658   0.282   0.045   1.659
 4551TIP3    H113659   0.374   0.020   1.648
 4551TIP3    H213660   0.234  -0.020   1.607
 4552TIP3   OH213661   0.144   1.438   0.260
 4552TIP3    H113662   0.231   1.476   0.257
 4552TIP3    H213663   0.088   1.502   0.216
 4553TIP3   OH213664   4.672   2.026   2.276
 4553TIP3    H113665   4.748   2.083   2.262
 4553TIP3    H213666   4.618   2.073   2.339
 4554TIP3   OH213667   5.772   4.687   1.679
 4554TIP3    H113668   5.693   4.641   1.707
 4554TIP3    H213669   5.760   4.699   1.584
 4555TIP3   OH213670   5.037   2.607   0.341
 4555TIP3    H113671   4.973   2.572   0.402
 4555TIP3    H213672   5.016   2.700   0.335
 4556TIP3   OH213673   4.672   1.923   4.829
 4556TIP3    H113674   4.717   1.850   4.787
 4556TIP3    H213675   4.616   1.883   4.895
 4557TIP3   OH213676   4.567   5.716   0.532
 4557TIP3    H113677   4.528   5.711   0.619
 4557TIP3    H213678   4.657   5.742   0.548
 4558TIP3   OH213679   5.474   3.296   1.734
 4558TIP3    H113680   5.508   3.286   1.823
 4558TIP3    H213681   5.418   3.220   1.721
 4559TIP3   OH213682   1.547   5.394   2.097
 4559TIP3    H113683   1.553   5.481   2.138
 4559TIP3    H213684   1.502   5.410   2.014
 4560TIP3   OH213685   4.412   0.800   2.435
 4560TIP3    H113686   4.371   0.718   2.460
 4560TIP3    H213687   4.434   0.843   2.518
 4561TIP3   OH213688   0.497   1.400   3.212
 4561TIP3    H113689   0.528   1.310   3.215
 4561TIP3    H213690   0.535   1.442   3.289
 4562TIP3   OH213691   3.936   0.306   2.495
 4562TIP3    H113692   3.865   0.369   2.480
 4562TIP3    H213693   3.932   0.286   2.588
 4563TIP3   OH213694   1.847   4.751   3.165
 4563TIP3    H113695   1.867   4.811   3.237
 4563TIP3    H213696   1.803   4.805   3.099
 4564TIP3   OH213697   3.687   4.346   1.992
 4564TIP3    H113698   3.669   4.440   1.987
 4564TIP3    H213699   3.751   4.338   2.063
 4565TIP3   OH213700   4.753   1.688   1.507
 4565TIP3    H113701   4.758   1.699   1.602
 4565TIP3    H213702   4.838   1.719   1.475
 4566TIP3   OH213703   0.844   2.322   3.465
 4566TIP3    H113704   0.771   2.304   3.526
 4566TIP3    H213705   0.915   2.351   3.522
 4567TIP3   OH213706   4.291   2.687   1.691
 4567TIP3    H113707   4.355   2.716   1.626
 4567TIP3    H213708   4.208   2.683   1.642
 4568TIP3   OH213709   5.982   0.985   1.122
 4568TIP3    H113710   5.982   0.890   1.113
 4568TIP3    H213711   6.067   1.006   1.161
 4569TIP3   OH213712   1.280   0.284   4.911
 4569TIP3    H113713   1.260   0.246   4.826
 4569TIP3    H213714   1.200   0.270   4.963
 4570TIP3   OH213715   0.663   5.770   4.640
 4570TIP3    H113716   0.648   5.675   4.635
 4570TIP3    H213717   0.724   5.788   4.569
 4571TIP3   OH213718   2.497   0.747   2.353
 4571TIP3    H113719   2.416   0.795   2.368
 4571TIP3    H213720   2.468   0.659   2.330
 4572TIP3   OH213721   4.884   5.502   2.697
 4572TIP3    H113722   4.909   5.411   2.710
 4572TIP3    H213723   4.878   5.513   2.602
 4573TIP3   OH213724   5.553   2.867   4.042
 4573TIP3    H113725   5.512   2.864   4.129
 4573TIP3    H213726   5.480   2.859   3.981
 4574TIP3   OH213727   6.202   4.069   2.628
 4574TIP3    H113728   6.249   4.149   2.607
 4574TIP3    H213729   6.202   4.066   2.724
 4575TIP3   OH213730   2.403   5.388   2.879
 4575TIP3    H113731   2.360   5.473   2.881
 4575TIP3    H213732   2.489   5.404   2.918
 4576TIP3   OH213733   3.360   5.619   1.812
 4576TIP3    H113734   3.305   5.541   1.803
 4576TIP3    H213735   3.308   5.678   1.867
 4577TIP3   OH213736   4.342   2.409   4.796
 4577TIP3    H113737   4.325   2.382   4.886
 4577TIP3    H213738   4.402   2.342   4.762
 4578TIP3   OH213739   1.017   4.768   2.632
 4578TIP3    H113740   1.062   4.735   2.554
 4578TIP3    H213741   0.932   4.797   2.599
 4579TIP3   OH213742   1.730   5.245   3.881
 4579TIP3    H113743   1.812   5.235   3.833
 4579TIP3    H213744   1.688   5.159   3.875
 4580TIP3   OH213745   3.208   1.797   4.641
 4580TIP3    H113746   3.196   1.706   4.612
 4580TIP3    H213747   3.303   1.805   4.650
 4581TIP3   OH213748   0.706   1.703   4.473
 4581TIP3    H113749   0.703   1.617   4.430
 4581TIP3    H213750   0.619   1.739   4.461
 4582TIP3   OH213751   0.217   4.872   1.265
 4582TIP3    H113752   0.138   4.927   1.268
 4582TIP3    H213753   0.204   4.816   1.189
 4583TIP3   OH213754   1.116   4.438   4.201
 4583TIP3    H113755   1.202   4.479   4.213
 4583TIP3    H213756   1.056   4.512   4.192
 4584TIP3   OH213757   1.191   1.359   1.779
 4584TIP3    H113758   1.281   1.360   1.813
 4584TIP3    H213759   1.136   1.370   1.857
 4585TIP3   OH213760   3.874   2.425   1.508
 4585TIP3    H113761   3.908   2.360   1.569
 4585TIP3    H213762   3.795   2.459   1.551
 4586TIP3   OH213763   1.701   3.984   5.073
 4586TIP3    H113764   1.738   3.913   5.020
 4586TIP3    H213765   1.606   3.974   5.061
 4587TIP3   OH213766   5.271   2.302   1.595
 4587TIP3    H113767   5.341   2.361   1.623
 4587TIP3    H213768   5.239   2.341   1.513
 4588TIP3   OH213769   5.790   3.683   0.070
 4588TIP3    H113770   5.812   3.592   0.051
 4588TIP3    H213771   5.874   3.729   0.068
 4589TIP3   OH213772   4.847   2.173   3.327
 4589TIP3    H113773   4.932   2.201   3.361
 4589TIP3    H213774   4.841   2.216   3.241
 4590TIP3   OH213775   6.192   3.822   1.956
 4590TIP3    H113776   6.227   3.852   2.040
 4590TIP3    H213777   6.225   3.886   1.892
 4591TIP3   OH213778   1.696   0.332   3.830
 4591TIP3    H113779   1.602   0.330   3.847
 4591TIP3    H213780   1.715   0.250   3.784
 4592TIP3   OH213781   0.499   5.173   4.195
 4592TIP3    H113782   0.462   5.255   4.162
 4592TIP3    H213783   0.425   5.112   4.196
 4593TIP3   OH213784   3.671   0.760   3.896
 4593TIP3    H113785   3.594   0.742   3.842
 4593TIP3    H213786   3.665   0.853   3.915
 4594TIP3   OH213787   4.133   5.494   1.380
 4594TIP3    H113788   4.226   5.513   1.389
 4594TIP3    H213789   4.122   5.407   1.419
 4595TIP3   OH213790   1.041   5.339   3.632
 4595TIP3    H113791   1.005   5.421   3.667
 4595TIP3    H213792   1.049   5.355   3.538
 4596TIP3   OH213793   0.543   5.429   0.961
 4596TIP3    H113794   0.575   5.451   0.874
 4596TIP3    H213795   0.619   5.390   1.005
 4597TIP3   OH213796   4.066   2.097   3.013
 4597TIP3    H113797   4.019   2.143   2.943
 4597TIP3    H213798   4.075   2.161   3.083
 4598TIP3   OH213799   4.390   5.119   2.600
 4598TIP3    H113800   4.326   5.185   2.572
 4598TIP3    H213801   4.474   5.164   2.596
 4599TIP3   OH213802   2.396   5.550   1.596
 4599TIP3    H113803   2.357   5.635   1.575
 4599TIP3    H213804   2.463   5.570   1.661
 4600TIP3   OH213805   3.177   1.935   0.126
 4600TIP3    H113806   3.200   1.911   0.216
 4600TIP3    H213807   3.139   2.022   0.134
 4601TIP3   OH213808   3.258   0.623   4.622
 4601TIP3    H113809   3.213   0.706   4.633
 4601TIP3    H213810   3.342   0.646   4.582
 4602TIP3   OH213811   5.297   5.406   3.971
 4602TIP3    H113812   5.375   5.375   3.925
 4602TIP3    H213813   5.231   5.340   3.952
 4603TIP3   OH213814   1.540   5.016   1.650
 4603TIP3    H113815   1.495   4.945   1.696
 4603TIP3    H213816   1.519   5.095   1.700
 4604TIP3   OH213817   4.353   0.325   1.464
 4604TIP3    H113818   4.416   0.387   1.427
 4604TIP3    H213819   4.404   0.272   1.524
 4605TIP3   OH213820   2.977   2.358   0.473
 4605TIP3    H113821   3.014   2.395   0.393
 4605TIP3    H213822   2.923   2.285   0.444
 4606TIP3   OH213823   5.503   5.832   3.112
 4606TIP3    H113824   5.434   5.853   3.049
 4606TIP3    H213825   5.562   5.774   3.065
 4607TIP3   OH213826   5.318   3.811   1.737
 4607TIP3    H113827   5.403   3.853   1.726
 4607TIP3    H213828   5.315   3.786   1.830
 4608TIP3   OH213829   1.116   1.072   4.835
 4608TIP3    H113830   1.170   1.003   4.795
 4608TIP3    H213831   1.131   1.149   4.780
 4609TIP3   OH213832   0.828   0.496   3.815
 4609TIP3    H113833   0.748   0.480   3.766
 4609TIP3    H213834   0.809   0.466   3.904
 4610TIP3   OH213835   4.843   4.503   4.941
 4610TIP3    H113836   4.916   4.555   4.906
 4610TIP3    H213837   4.815   4.449   4.867
 4611TIP3   OH213838   1.115   1.908   2.409
 4611TIP3    H113839   1.119   1.955   2.326
 4611TIP3    H213840   1.119   1.816   2.386
 4612TIP3   OH213841   1.620   5.606   0.478
 4612TIP3    H113842   1.596   5.648   0.560
 4612TIP3    H213843   1.538   5.603   0.428
 4613TIP3   OH213844   3.241   0.577   5.079
 4613TIP3    H113845   3.256   0.519   5.004
 4613TIP3    H213846   3.157   0.550   5.115
 4614TIP3   OH213847   2.046   4.778   4.182
 4614TIP3    H113848   2.067   4.788   4.275
 4614TIP3    H213849   1.959   4.816   4.173
 4615TIP3   OH213850   2.084   3.423   1.992
 4615TIP3    H113851   2.028   3.441   2.067
 4615TIP3    H213852   2.062   3.333   1.966
 4616TIP3   OH213853   1.071   1.253   0.053
 4616TIP3    H113854   0.986   1.222   0.085
 4616TIP3    H213855   1.059   1.265  -0.041
 4617TIP3   OH213856   3.707   1.772   4.167
 4617TIP3    H113857   3.762   1.838   4.124
 4617TIP3    H213858   3.624   1.816   4.183
 4618TIP3   OH213859   4.154   4.315   0.888
 4618TIP3    H113860   4.177   4.327   0.980
 4618TIP3    H213861   4.177   4.398   0.846
 4619TIP3   OH213862   2.342   1.154   2.022
 4619TIP3    H113863   2.420   1.166   2.076
 4619TIP3    H213864   2.272   1.138   2.085
 4620TIP3   OH213865   0.449   3.515   4.902
 4620TIP3    H113866   0.483   3.471   4.980
 4620TIP3    H213867   0.411   3.596   4.935
 4621TIP3   OH213868   1.800   3.163   4.864
 4621TIP3    H113869   1.810   3.257   4.848
 4621TIP3    H213870   1.879   3.138   4.913
 4622TIP3   OH213871   3.261   0.431   4.844
 4622TIP3    H113872   3.260   0.503   4.781
 4622TIP3    H213873   3.177   0.386   4.831
 4623TIP3   OH213874   4.247   4.844   3.922
 4623TIP3    H113875   4.218   4.881   4.006
 4623TIP3    H213876   4.199   4.893   3.856
 4624TIP3   OH213877   5.018   4.822   1.950
 4624TIP3    H113878   4.974   4.904   1.973
 4624TIP3    H213879   5.018   4.771   2.032
 4625TIP3   OH213880   2.990   5.591   2.573
 4625TIP3    H113881   3.052   5.525   2.542
 4625TIP3    H213882   2.966   5.639   2.494
 4626TIP3   OH213883   0.592   4.520   2.259
 4626TIP3    H113884   0.506   4.508   2.301
 4626TIP3    H213885   0.625   4.431   2.247
 4627TIP3   OH213886   5.697   2.884   1.481
 4627TIP3    H113887   5.621   2.830   1.460
 4627TIP3    H213888   5.668   2.939   1.554
 4628TIP3   OH213889   3.711   0.853   1.434
 4628TIP3    H113890   3.737   0.903   1.357
 4628TIP3    H213891   3.735   0.762   1.413
 4629TIP3   OH213892   1.965   4.628   1.436
 4629TIP3    H113893   2.048   4.627   1.484
 4629TIP3    H213894   1.920   4.549   1.464
 4630TIP3   OH213895   5.970   3.063   0.303
 4630TIP3    H113896   5.924   3.078   0.385
 4630TIP3    H213897   5.999   3.150   0.275
 4631TIP3   OH213898   2.314   0.147   5.104
 4631TIP3    H113899   2.283   0.171   5.191
 4631TIP3    H213900   2.409   0.141   5.113
 4632TIP3   OH213901   5.318   1.690   0.551
 4632TIP3    H113902   5.303   1.721   0.462
 4632TIP3    H213903   5.410   1.707   0.568
 4633TIP3   OH213904   1.631   0.516   0.393
 4633TIP3    H113905   1.569   0.474   0.452
 4633TIP3    H213906   1.717   0.502   0.435
 4634TIP3   OH213907   3.170   4.572   0.728
 4634TIP3    H113908   3.120   4.650   0.752
 4634TIP3    H213909   3.261   4.596   0.745
 4635TIP3   OH213910   1.731   5.968   4.945
 4635TIP3    H113911   1.727   5.959   5.040
 4635TIP3    H213912   1.691   5.887   4.912
 4636TIP3   OH213913   4.712   5.492   3.171
 4636TIP3    H113914   4.660   5.531   3.101
 4636TIP3    H213915   4.803   5.497   3.139
 4637TIP3   OH213916   4.149   0.557   3.765
 4637TIP3    H113917   4.159   0.536   3.858
 4637TIP3    H213918   4.055   0.547   3.748
 4638TIP3   OH213919   0.245   4.931   2.717
 4638TIP3    H113920   0.202   4.969   2.641
 4638TIP3    H213921   0.179   4.873   2.756
 4639TIP3   OH213922   3.144   4.137   0.760
 4639TIP3    H113923   3.054   4.155   0.733
 4639TIP3    H213924   3.181   4.223   0.781
 4640TIP3   OH213925   6.307   2.580   3.265
 4640TIP3    H113926   6.349   2.653   3.310
 4640TIP3    H213927   6.252   2.621   3.199
 4641TIP3   OH213928   1.412   0.917   2.480
 4641TIP3    H113929   1.495   0.953   2.511
 4641TIP3    H213930   1.435   0.871   2.399
 4642TIP3   OH213931   5.055   3.351   4.862
 4642TIP3    H113932   5.073   3.310   4.946
 4642TIP3    H213933   5.107   3.432   4.864
 4643TIP3   OH213934   0.095   3.310   2.040
 4643TIP3    H113935   0.042   3.389   2.040
 4643TIP3    H213936   0.170   3.332   2.096
 4644TIP3   OH213937   3.671   0.762   3.572
 4644TIP3    H113938   3.728   0.761   3.649
 4644TIP3    H213939   3.605   0.695   3.590
 4645TIP3   OH213940   1.780   2.632   2.654
 4645TIP3    H113941   1.717   2.563   2.635
 4645TIP3    H213942   1.726   2.709   2.673
 4646TIP3   OH213943   3.756   1.836   1.968
 4646TIP3    H113944   3.724   1.924   1.945
 4646TIP3    H213945   3.851   1.842   1.959
 4647TIP3   OH213946   3.065   2.613   0.580
 4647TIP3    H113947   3.055   2.620   0.675
 4647TIP3    H213948   3.065   2.518   0.564
 4648TIP3   OH213949   1.534   4.069   3.143
 4648TIP3    H113950   1.548   4.112   3.059
 4648TIP3    H213951   1.441   4.051   3.146
 4649TIP3   OH213952   6.104   1.282   3.687
 4649TIP3    H113953   6.014   1.276   3.656
 4649TIP3    H213954   6.132   1.371   3.667
 4650TIP3   OH213955   4.904   1.077   4.919
 4650TIP3    H113956   4.815   1.049   4.898
 4650TIP3    H213957   4.959   1.003   4.895
 4651TIP3   OH213958   0.050   5.252   3.468
 4651TIP3    H113959   0.104   5.182   3.431
 4651TIP3    H213960  -0.004   5.281   3.395
 4652TIP3   OH213961   6.028   2.028   1.398
 4652TIP3    H113962   6.123   2.013   1.395
 4652TIP3    H213963   5.989   1.948   1.364
 4653TIP3   OH213964   6.321   3.905   1.070
 4653TIP3    H113965   6.366   3.984   1.101
 4653TIP3    H213966   6.341   3.840   1.137
 4654TIP3   OH213967   4.294   1.950   3.064
 4654TIP3    H113968   4.223   2.006   3.031
 4654TIP3    H213969   4.289   1.959   3.159
 4655TIP3   OH213970   6.076   2.434   0.303
 4655TIP3    H113971   6.004   2.380   0.336
 4655TIP3    H213972   6.151   2.373   0.301
 4656TIP3   OH213973   2.502   0.340   3.161
 4656TIP3    H113974   2.494   0.314   3.070
 4656TIP3    H213975   2.436   0.288   3.207
 4657TIP3   OH213976   3.427   0.644   2.934
 4657TIP3    H113977   3.342   0.685   2.944
 4657TIP3    H213978   3.413   0.572   2.873
 4658TIP3   OH213979   4.769   4.051   3.459
 4658TIP3    H113980   4.796   4.053   3.550
 4658TIP3    H213981   4.800   4.134   3.423
 4659TIP3   OH213982   1.211   5.534   0.886
 4659TIP3    H113983   1.247   5.613   0.928
 4659TIP3    H213984   1.220   5.550   0.792
 4660TIP3   OH213985   1.614   5.776   2.530
 4660TIP3    H113986   1.663   5.792   2.610
 4660TIP3    H213987   1.677   5.794   2.460
 4661TIP3   OH213988   4.127   5.077   2.957
 4661TIP3    H113989   4.037   5.069   2.990
 4661TIP3    H213990   4.146   4.991   2.920
 4662TIP3   OH213991   2.598   5.379   4.028
 4662TIP3    H113992   2.579   5.339   3.943
 4662TIP3    H213993   2.693   5.381   4.033
 4663TIP3   OH213994   1.430   5.125   1.077
 4663TIP3    H113995   1.501   5.142   1.140
 4663TIP3    H213996   1.475   5.112   0.994
 4664TIP3   OH213997   1.050   4.655   4.562
 4664TIP3    H113998   1.120   4.670   4.499
 4664TIP3    H213999   0.998   4.735   4.560
 4665TIP3   OH214000   5.051   1.528   1.870
 4665TIP3    H114001   5.137   1.541   1.829
 4665TIP3    H214002   4.988   1.553   1.803
 4666TIP3   OH214003   1.468   3.715   4.287
 4666TIP3    H114004   1.530   3.642   4.285
 4666TIP3    H214005   1.420   3.704   4.369
 4667TIP3   OH214006   1.842   4.580   2.267
 4667TIP3    H114007   1.865   4.489   2.244
 4667TIP3    H214008   1.893   4.633   2.205
 4668TIP3   OH214009   5.712   1.503   4.323
 4668TIP3    H114010   5.737   1.507   4.231
 4668TIP3    H214011   5.763   1.430   4.359
 4669TIP3   OH214012   0.527   5.502   2.255
 4669TIP3    H114013   0.555   5.537   2.171
 4669TIP3    H214014   0.457   5.561   2.284
 4670TIP3   OH214015   0.491   1.687   0.285
 4670TIP3    H114016   0.468   1.780   0.288
 4670TIP3    H214017   0.416   1.645   0.242
 4671TIP3   OH214018   3.979   2.750   4.536
 4671TIP3    H114019   3.943   2.807   4.604
 4671TIP3    H214020   3.952   2.662   4.562
 4672TIP3   OH214021   4.926   5.172   4.525
 4672TIP3    H114022   4.881   5.161   4.442
 4672TIP3    H214023   4.857   5.167   4.591
 4673TIP3   OH214024   3.918   3.003   1.324
 4673TIP3    H114025   3.903   3.094   1.353
 4673TIP3    H214026   4.013   2.993   1.328
 4674TIP3   OH214027   4.740   4.778   3.005
 4674TIP3    H114028   4.691   4.859   2.995
 4674TIP3    H214029   4.724   4.751   3.095
 4675TIP3   OH214030   1.034   2.338   1.342
 4675TIP3    H114031   1.080   2.327   1.425
 4675TIP3    H214032   1.080   2.280   1.281
 4676TIP3   OH214033   2.571   2.784   1.172
 4676TIP3    H114034   2.576   2.879   1.167
 4676TIP3    H214035   2.483   2.762   1.143
 4677TIP3   OH214036   1.301   4.103   4.221
 4677TIP3    H114037   1.297   4.190   4.261
 4677TIP3    H214038   1.388   4.099   4.182
 4678TIP3   OH214039   3.839   5.809   0.695
 4678TIP3    H114040   3.894   5.738   0.728
 4678TIP3    H214041   3.773   5.822   0.763
 4679TIP3   OH214042   2.650   1.543   3.598
 4679TIP3    H114043   2.646   1.630   3.558
 4679TIP3    H214044   2.596   1.551   3.677
 4680TIP3   OH214045   0.947   0.061   3.286
 4680TIP3    H114046   0.933   0.145   3.243
 4680TIP3    H214047   0.862   0.017   3.281
 4681TIP3   OH214048   5.775   2.508   4.745
 4681TIP3    H114049   5.689   2.465   4.750
 4681TIP3    H214050   5.838   2.439   4.764
 4682TIP3   OH214051   5.161   4.321   4.253
 4682TIP3    H114052   5.069   4.345   4.249
 4682TIP3    H214053   5.203   4.395   4.297
 4683TIP3   OH214054   5.444   2.036   2.196
 4683TIP3    H114055   5.504   2.028   2.270
 4683TIP3    H214056   5.481   2.106   2.143
 4684TIP3   OH214057   0.877   5.319   2.570
 4684TIP3    H114058   0.929   5.371   2.510
 4684TIP3    H214059   0.921   5.328   2.655
 4685TIP3   OH214060   6.102   0.293   3.055
 4685TIP3    H114061   6.177   0.255   3.007
 4685TIP3    H214062   6.141   0.363   3.107
 4686TIP3   OH214063   5.608   4.092   2.505
 4686TIP3    H114064   5.595   4.010   2.552
 4686TIP3    H214065   5.588   4.071   2.413
 4687TIP3   OH214066   2.840   2.218   4.734
 4687TIP3    H114067   2.856   2.311   4.745
 4687TIP3    H214068   2.876   2.197   4.648
 4688TIP3   OH214069   6.172   2.607   4.594
 4688TIP3    H114070   6.219   2.660   4.529
 4688TIP3    H214071   6.151   2.525   4.548
 4689TIP3   OH214072   5.296   2.144   3.649
 4689TIP3    H114073   5.322   2.088   3.722
 4689TIP3    H214074   5.201   2.136   3.646
 4690TIP3   OH214075   0.611   1.384   1.323
 4690TIP3    H114076   0.620   1.296   1.360
 4690TIP3    H214077   0.697   1.404   1.285
 4691TIP3   OH214078   1.698   4.735   1.892
 4691TIP3    H114079   1.651   4.652   1.883
 4691TIP3    H214080   1.722   4.759   1.803
 4692TIP3   OH214081   1.536   5.390   2.552
 4692TIP3    H114082   1.448   5.406   2.518
 4692TIP3    H214083   1.560   5.305   2.516
 4693TIP3   OH214084   5.234   1.353   0.834
 4693TIP3    H114085   5.181   1.392   0.765
 4693TIP3    H214086   5.320   1.396   0.827
 4694TIP3   OH214087   4.515   3.077   3.818
 4694TIP3    H114088   4.450   3.069   3.887
 4694TIP3    H214089   4.470   3.124   3.748
 4695TIP3   OH214090   2.338   5.668   2.579
 4695TIP3    H114091   2.366   5.577   2.573
 4695TIP3    H214092   2.418   5.719   2.565
 4696TIP3   OH214093   1.778   2.669   5.185
 4696TIP3    H114094   1.866   2.633   5.196
 4696TIP3    H214095   1.788   2.741   5.124
 4697TIP3   OH214096   2.816   0.664   4.978
 4697TIP3    H114097   2.771   0.582   4.997
 4697TIP3    H214098   2.821   0.667   4.883
 4698TIP3   OH214099   4.706   4.035   4.158
 4698TIP3    H114100   4.672   3.968   4.099
 4698TIP3    H214101   4.637   4.101   4.163
 4699TIP3   OH214102   3.180   0.751   2.007
 4699TIP3    H114103   3.230   0.714   1.935
 4699TIP3    H214104   3.092   0.763   1.972
 4700TIP3   OH214105   5.366   3.410   5.076
 4700TIP3    H114106   5.309   3.342   5.111
 4700TIP3    H214107   5.430   3.426   5.145
 4701TIP3   OH214108   5.393   0.119   0.054
 4701TIP3    H114109   5.451   0.057   0.098
 4701TIP3    H214110   5.434   0.135  -0.030
 4702TIP3   OH214111   6.275   2.801   4.393
 4702TIP3    H114112   6.258   2.888   4.430
 4702TIP3    H214113   6.233   2.803   4.307
 4703TIP3   OH214114   5.254   1.839   2.124
 4703TIP3    H114115   5.332   1.885   2.154
 4703TIP3    H214116   5.287   1.777   2.058
 4704TIP3   OH214117   0.804   3.551   4.972
 4704TIP3    H114118   0.871   3.539   5.040
 4704TIP3    H214119   0.747   3.475   4.982
 4705TIP3   OH214120   5.706   1.166   2.492
 4705TIP3    H114121   5.628   1.193   2.442
 4705TIP3    H214122   5.776   1.222   2.458
 4706TIP3   OH214123   5.635   1.489   3.318
 4706TIP3    H114124   5.622   1.397   3.341
 4706TIP3    H214125   5.636   1.490   3.222
 4707TIP3   OH214126   2.470   0.108   2.510
 4707TIP3    H114127   2.456   0.197   2.544
 4707TIP3    H214128   2.385   0.065   2.518
 4708TIP3   OH214129   0.336   0.230   2.435
 4708TIP3    H114130   0.264   0.189   2.388
 4708TIP3    H214131   0.405   0.239   2.370
 4709TIP3   OH214132   1.919   0.850   4.585
 4709TIP3    H114133   1.827   0.858   4.611
 4709TIP3    H214134   1.922   0.774   4.528
 4710TIP3   OH214135   4.370   5.769   3.166
 4710TIP3    H114136   4.445   5.803   3.214
 4710TIP3    H214137   4.378   5.674   3.171
 4711TIP3   OH214138   1.565   5.699   4.155
 4711TIP3    H114139   1.542   5.655   4.072
 4711TIP3    H214140   1.507   5.775   4.158
 4712TIP3   OH214141   6.013   3.875   4.498
 4712TIP3    H114142   6.060   3.820   4.561
 4712TIP3    H214143   6.022   3.964   4.533
 4713TIP3   OH214144   2.523   5.165   0.252
 4713TIP3    H114145   2.500   5.190   0.341
 4713TIP3    H214146   2.577   5.087   0.262
 4714TIP3   OH214147   0.098   5.733   2.995
 4714TIP3    H114148   0.007   5.736   2.967
 4714TIP3    H214149   0.145   5.696   2.920
 4715TIP3   OH214150   1.384  -0.019   1.922
 4715TIP3    H114151   1.366   0.039   1.996
 4715TIP3    H214152   1.437   0.034   1.863
 4716TIP3   OH214153   0.896   4.895   0.003
 4716TIP3    H114154   0.866   4.893   0.094
 4716TIP3    H214155   0.951   4.973  -0.002
 4717TIP3   OH214156   6.300   3.313   3.165
 4717TIP3    H114157   6.365   3.311   3.095
 4717TIP3    H214158   6.217   3.296   3.121
 4718TIP3   OH214159   6.051   2.123   1.640
 4718TIP3    H114160   6.085   2.042   1.678
 4718TIP3    H214161   6.041   2.103   1.547
 4719TIP3   OH214162   2.531   3.586   1.221
 4719TIP3    H114163   2.608   3.633   1.187
 4719TIP3    H214164   2.544   3.496   1.193
 4720TIP3   OH214165   5.881   3.360   4.878
 4720TIP3    H114166   5.792   3.346   4.847
 4720TIP3    H214167   5.932   3.377   4.799
 4721TIP3   OH214168   3.026   0.526   2.996
 4721TIP3    H114169   2.935   0.544   2.971
 4721TIP3    H214170   3.063   0.613   3.013
 4722TIP3   OH214171   4.605   0.601   4.765
 4722TIP3    H114172   4.647   0.612   4.850
 4722TIP3    H214173   4.565   0.686   4.747
 4723TIP3   OH214174   3.772   5.412   1.735
 4723TIP3    H114175   3.794   5.474   1.804
 4723TIP3    H214176   3.826   5.439   1.661
 4724TIP3   OH214177   1.129   3.725   4.196
 4724TIP3    H114178   1.099   3.635   4.197
 4724TIP3    H214179   1.207   3.724   4.140
 4725TIP3   OH214180   5.265   3.801   2.938
 4725TIP3    H114181   5.181   3.840   2.962
 4725TIP3    H214182   5.275   3.820   2.845
 4726TIP3   OH214183   3.789   4.294   4.881
 4726TIP3    H114184   3.843   4.351   4.826
 4726TIP3    H214185   3.752   4.353   4.948
 4727TIP3   OH214186   5.085   5.019   3.634
 4727TIP3    H114187   5.111   4.990   3.721
 4727TIP3    H214188   5.156   4.989   3.577
 4728TIP3   OH214189   0.333   5.383   3.805
 4728TIP3    H114190   0.245   5.420   3.803
 4728TIP3    H214191   0.337   5.325   3.730
 4729TIP3   OH214192   2.193   1.080   0.946
 4729TIP3    H114193   2.143   1.003   0.976
 4729TIP3    H214194   2.284   1.055   0.957
 4730TIP3   OH214195   1.033   0.144   4.667
 4730TIP3    H114196   1.010   0.237   4.666
 4730TIP3    H214197   0.996   0.111   4.749
 4731TIP3   OH214198   4.408   1.462   2.908
 4731TIP3    H114199   4.378   1.551   2.921
 4731TIP3    H214200   4.499   1.471   2.878
 4732TIP3   OH214201   1.826   4.427   1.718
 4732TIP3    H114202   1.857   4.349   1.671
 4732TIP3    H214203   1.903   4.457   1.766
 4733TIP3   OH214204   5.676   0.735   0.691
 4733TIP3    H114205   5.667   0.643   0.716
 4733TIP3    H214206   5.587   0.763   0.670
 4734TIP3   OH214207   0.448   3.543   4.385
 4734TIP3    H114208   0.464   3.449   4.392
 4734TIP3    H214209   0.477   3.578   4.469
 4735TIP3   OH214210   2.142   3.276   3.608
 4735TIP3    H114211   2.176   3.189   3.627
 4735TIP3    H214212   2.208   3.316   3.551
 4736TIP3   OH214213   0.874   3.451   2.551
 4736TIP3    H114214   0.892   3.529   2.498
 4736TIP3    H214215   0.915   3.470   2.636
 4737TIP3   OH214216   4.370   2.657   0.129
 4737TIP3    H114217   4.434   2.627   0.193
 4737TIP3    H214218   4.384   2.751   0.123
 4738TIP3   OH214219   4.392   3.412   1.957
 4738TIP3    H114220   4.431   3.408   1.870
 4738TIP3    H214221   4.455   3.369   2.014
 4739TIP3   OH214222   2.930   4.365   1.881
 4739TIP3    H114223   2.895   4.452   1.864
 4739TIP3    H214224   2.922   4.319   1.797
 4740TIP3   OH214225   0.070   5.084   3.978
 4740TIP3    H114226  -0.016   5.064   4.015
 4740TIP3    H214227   0.050   5.125   3.893
 4741TIP3   OH214228   1.096   3.047   1.747
 4741TIP3    H114229   1.016   2.995   1.757
 4741TIP3    H214230   1.122   3.034   1.656
 4742TIP3   OH214231   1.194   3.313   1.577
 4742TIP3    H114232   1.226   3.311   1.487
 4742TIP3    H214233   1.244   3.246   1.622
 4743TIP3   OH214234   3.190   2.383   4.999
 4743TIP3    H114235   3.132   2.323   5.046
 4743TIP3    H214236   3.161   2.470   5.026
 4744TIP3   OH214237   1.572   5.808   0.018
 4744TIP3    H114238   1.532   5.746  -0.044
 4744TIP3    H214239   1.630   5.753   0.072
 4745TIP3   OH214240   0.333   5.124   0.304
 4745TIP3    H114241   0.367   5.172   0.379
 4745TIP3    H214242   0.248   5.165   0.286
 4746TIP3   OH214243   0.716   3.865   2.570
 4746TIP3    H114244   0.757   3.802   2.512
 4746TIP3    H214245   0.785   3.890   2.631
 4747TIP3   OH214246   0.166   2.681   0.079
 4747TIP3    H114247   0.250   2.726   0.085
 4747TIP3    H214248   0.101   2.750   0.091
 4748TIP3   OH214249   4.667   4.734   2.610
 4748TIP3    H114250   4.598   4.787   2.650
 4748TIP3    H214251   4.688   4.669   2.677
 4749TIP3   OH214252   6.331   0.715   4.356
 4749TIP3    H114253   6.406   0.668   4.320
 4749TIP3    H214254   6.275   0.646   4.393
 4750TIP3   OH214255   4.793   4.827   4.224
 4750TIP3    H114256   4.853   4.830   4.299
 4750TIP3    H214257   4.845   4.792   4.152
 4751TIP3   OH214258   2.667   2.036   4.511
 4751TIP3    H114259   2.580   1.999   4.503
 4751TIP3    H214260   2.665   2.086   4.593
 4752TIP3   OH214261   3.946   0.350   0.648
 4752TIP3    H114262   3.892   0.347   0.727
 4752TIP3    H214263   4.018   0.289   0.666
 4753TIP3   OH214264   5.210   0.704   1.733
 4753TIP3    H114265   5.214   0.780   1.675
 4753TIP3    H214266   5.252   0.634   1.684
 4754TIP3   OH214267   2.747   0.687   2.432
 4754TIP3    H114268   2.775   0.661   2.345
 4754TIP3    H214269   2.657   0.716   2.421
 4755TIP3   OH214270   2.165   3.916   2.622
 4755TIP3    H114271   2.254   3.907   2.587
 4755TIP3    H214272   2.115   3.848   2.579
 4756TIP3   OH214273   1.811   0.577   3.894
 4756TIP3    H114274   1.857   0.573   3.978
 4756TIP3    H214275   1.777   0.488   3.881
 4757TIP3   OH214276   2.177   3.210   2.747
 4757TIP3    H114277   2.156   3.303   2.739
 4757TIP3    H214278   2.241   3.194   2.678
 4758TIP3   OH214279   3.407   0.079   4.098
 4758TIP3    H114280   3.387   0.159   4.051
 4758TIP3    H214281   3.491   0.050   4.061
 4759TIP3   OH214282   5.651   5.078   1.173
 4759TIP3    H114283   5.675   5.104   1.262
 4759TIP3    H214284   5.672   5.154   1.118
 4760TIP3   OH214285   4.308   5.838   4.751
 4760TIP3    H114286   4.336   5.847   4.659
 4760TIP3    H214287   4.371   5.890   4.800
 4761TIP3   OH214288   3.879   5.573   2.290
 4761TIP3    H114289   3.944   5.642   2.286
 4761TIP3    H214290   3.797   5.618   2.309
 4762TIP3   OH214291   6.078   5.950   1.970
 4762TIP3    H114292   6.146   5.944   2.037
 4762TIP3    H214293   6.102   5.884   1.905
 4763TIP3   OH214294   3.825   5.342   0.980
 4763TIP3    H114295   3.885   5.306   1.045
 4763TIP3    H214296   3.740   5.344   1.024
 4764TIP3   OH214297   3.947   1.584   2.624
 4764TIP3    H114298   4.040   1.588   2.645
 4764TIP3    H214299   3.904   1.632   2.694
 4765TIP3   OH214300   5.173   0.640   2.481
 4765TIP3    H114301   5.154   0.550   2.507
 4765TIP3    H214302   5.240   0.632   2.413
 4766TIP3   OH214303   3.320   3.430   4.233
 4766TIP3    H114304   3.395   3.408   4.178
 4766TIP3    H214305   3.256   3.469   4.173
 4767TIP3   OH214306   5.721   0.089   0.369
 4767TIP3    H114307   5.773   0.032   0.425
 4767TIP3    H214308   5.785   0.139   0.318
 4768TIP3   OH214309   2.091   0.830   1.036
 4768TIP3    H114310   2.158   0.774   0.998
 4768TIP3    H214311   2.008   0.792   1.006
 4769TIP3   OH214312   3.495   4.177   2.476
 4769TIP3    H114313   3.459   4.257   2.437
 4769TIP3    H214314   3.588   4.197   2.488
 4770TIP3   OH214315   3.943   5.947   2.701
 4770TIP3    H114316   3.915   5.909   2.784
 4770TIP3    H214317   3.867   5.999   2.673
 4771TIP3   OH214318   4.182   1.094   0.521
 4771TIP3    H114319   4.132   1.107   0.602
 4771TIP3    H214320   4.115   1.084   0.454
 4772TIP3   OH214321   1.308   2.218   1.211
 4772TIP3    H114322   1.337   2.217   1.302
 4772TIP3    H214323   1.360   2.150   1.169
 4773TIP3   OH214324   1.155   2.673   4.131
 4773TIP3    H114325   1.242   2.673   4.170
 4773TIP3    H214326   1.169   2.646   4.040
 4774TIP3   OH214327   3.811   2.708   5.027
 4774TIP3    H114328   3.744   2.676   4.967
 4774TIP3    H214329   3.894   2.685   4.985
 4775TIP3   OH214330   0.084   3.058   1.366
 4775TIP3    H114331   0.170   3.081   1.334
 4775TIP3    H214332   0.069   2.969   1.335
 4776TIP3   OH214333   4.797   3.427   0.114
 4776TIP3    H114334   4.743   3.391   0.184
 4776TIP3    H214335   4.887   3.409   0.142
 4777TIP3   OH214336   4.932   3.616   0.507
 4777TIP3    H114337   4.941   3.710   0.491
 4777TIP3    H214338   4.953   3.575   0.423
 4778TIP3   OH214339   4.006   1.769   0.022
 4778TIP3    H114340   3.952   1.846   0.040
 4778TIP3    H214341   3.994   1.712   0.098
 4779TIP3   OH214342   1.308   1.902   0.465
 4779TIP3    H114343   1.381   1.924   0.407
 4779TIP3    H214344   1.231   1.936   0.419
 4780TIP3   OH214345   2.308   4.595   4.297
 4780TIP3    H114346   2.282   4.626   4.210
 4780TIP3    H214347   2.339   4.674   4.342
 4781TIP3   OH214348   2.416   5.690   0.192
 4781TIP3    H114349   2.335   5.689   0.141
 4781TIP3    H214350   2.467   5.761   0.155
 4782TIP3   OH214351   5.447   2.767   4.299
 4782TIP3    H114352   5.387   2.728   4.363
 4782TIP3    H214353   5.535   2.745   4.331
 4783TIP3   OH214354   5.320   1.970   2.795
 4783TIP3    H114355   5.233   1.968   2.755
 4783TIP3    H214356   5.304   1.948   2.887
 4784TIP3   OH214357   2.382   5.130   3.311
 4784TIP3    H114358   2.446   5.170   3.253
 4784TIP3    H214359   2.356   5.049   3.267
 4785TIP3   OH214360   2.709   0.863   5.190
 4785TIP3    H114361   2.802   0.880   5.203
 4785TIP3    H214362   2.703   0.835   5.099
 4786TIP3   OH214363   1.399   3.726   4.027
 4786TIP3    H114364   1.483   3.768   4.007
 4786TIP3    H214365   1.396   3.722   4.122
 4787TIP3   OH214366   0.289   4.009   1.416
 4787TIP3    H114367   0.261   4.059   1.339
 4787TIP3    H214368   0.317   4.076   1.479
 4788TIP3   OH214369   6.033   2.729   4.823
 4788TIP3    H114370   5.947   2.770   4.821
 4788TIP3    H214371   6.052   2.708   4.732
 4789TIP3   OH214372   2.000   5.300   1.851
 4789TIP3    H114373   1.948   5.369   1.892
 4789TIP3    H214374   2.047   5.343   1.780
 4790TIP3   OH214375   1.408   3.811   2.628
 4790TIP3    H114376   1.378   3.889   2.581
 4790TIP3    H214377   1.444   3.754   2.560
 4791TIP3   OH214378   4.286   4.733   3.085
 4791TIP3    H114379   4.336   4.787   3.025
 4791TIP3    H214380   4.326   4.646   3.078
 4792TIP3   OH214381   4.653   2.341   2.803
 4792TIP3    H114382   4.734   2.366   2.760
 4792TIP3    H214383   4.594   2.416   2.792
 4793TIP3   OH214384   4.200   2.627   1.019
 4793TIP3    H114385   4.294   2.631   1.006
 4793TIP3    H214386   4.186   2.545   1.066
 4794TIP3   OH214387   1.214   5.342   2.734
 4794TIP3    H114388   1.259   5.414   2.689
 4794TIP3    H214389   1.263   5.264   2.708
 4795TIP3   OH214390   0.101   2.541   2.589
 4795TIP3    H114391   0.121   2.456   2.628
 4795TIP3    H214392   0.060   2.520   2.505
 4796TIP3   OH214393   2.883   2.842   5.106
 4796TIP3    H114394   2.960   2.886   5.071
 4796TIP3    H214395   2.893   2.848   5.201
 4797TIP3   OH214396   0.949   5.512   3.405
 4797TIP3    H114397   0.975   5.545   3.319
 4797TIP3    H214398   0.929   5.590   3.456
 4798TIP3   OH214399   0.363   3.906   1.099
 4798TIP3    H114400   0.385   3.998   1.083
 4798TIP3    H214401   0.294   3.909   1.165
 4799TIP3   OH214402   0.608   3.987   0.577
 4799TIP3    H114403   0.679   3.934   0.542
 4799TIP3    H214404   0.643   4.021   0.660
 4800TIP3   OH214405   1.628   5.680   2.031
 4800TIP3    H114406   1.559   5.642   1.977
 4800TIP3    H214407   1.652   5.761   1.986
 4801TIP3   OH214408   3.933   1.215   3.480
 4801TIP3    H114409   3.838   1.205   3.466
 4801TIP3    H214410   3.973   1.185   3.399
 4802TIP3   OH214411   0.538   1.291   1.770
 4802TIP3    H114412   0.551   1.375   1.813
 4802TIP3    H214413   0.532   1.227   1.841
 4803TIP3   OH214414   5.511   1.215   1.287
 4803TIP3    H114415   5.479   1.293   1.243
 4803TIP3    H214416   5.487   1.227   1.379
 4804TIP3   OH214417   5.173   3.415   3.602
 4804TIP3    H114418   5.261   3.398   3.568
 4804TIP3    H214419   5.176   3.507   3.629
 4805TIP3   OH214420   3.712   1.686   0.935
 4805TIP3    H114421   3.684   1.677   1.026
 4805TIP3    H214422   3.699   1.599   0.897
 4806TIP3   OH214423   4.547   0.124   1.041
 4806TIP3    H114424   4.620   0.093   0.987
 4806TIP3    H214425   4.582   0.201   1.086
 4807TIP3   OH214426   3.654   5.229   2.355
 4807TIP3    H114427   3.746   5.255   2.355
 4807TIP3    H214428   3.607   5.306   2.325
 4808TIP3   OH214429   4.695   2.708   0.804
 4808TIP3    H114430   4.626   2.744   0.748
 4808TIP3    H214431   4.689   2.613   0.791
 4809TIP3   OH214432   3.875   5.474   3.112
 4809TIP3    H114433   3.869   5.425   3.194
 4809TIP3    H214434   3.947   5.535   3.125
 4810TIP3   OH214435   6.362   0.526   4.630
 4810TIP3    H114436   6.331   0.508   4.541
 4810TIP3    H214437   6.313   0.604   4.657
 4811TIP3   OH214438   2.595   0.993   2.249
 4811TIP3    H114439   2.574   0.910   2.292
 4811TIP3    H214440   2.518   1.048   2.263
 4812TIP3   OH214441   4.220   2.378   1.458
 4812TIP3    H114442   4.271   2.357   1.537
 4812TIP3    H214443   4.199   2.292   1.420
 4813TIP3   OH214444   5.763   5.060   1.767
 4813TIP3    H114445   5.696   5.056   1.699
 4813TIP3    H214446   5.764   4.973   1.806
 4814TIP3   OH214447   4.537   4.274   1.397
 4814TIP3    H114448   4.532   4.210   1.326
 4814TIP3    H214449   4.547   4.358   1.353
 4815TIP3   OH214450   6.053   4.119   1.321
 4815TIP3    H114451   6.118   4.166   1.270
 4815TIP3    H214452   6.099   4.042   1.353
 4816TIP3   OH214453   0.672   1.615   1.638
 4816TIP3    H114454   0.595   1.671   1.629
 4816TIP3    H214455   0.743   1.676   1.659
 4817TIP3   OH214456   4.544   2.341   1.590
 4817TIP3    H114457   4.607   2.302   1.529
 4817TIP3    H214458   4.581   2.428   1.608
 4818TIP3   OH214459   5.957   1.588   0.574
 4818TIP3    H114460   6.012   1.618   0.502
 4818TIP3    H214461   5.869   1.586   0.538
 4819TIP3   OH214462   4.892   5.463   3.436
 4819TIP3    H114463   4.967   5.418   3.396
 4819TIP3    H214464   4.817   5.435   3.384
 4820TIP3   OH214465   5.824   5.210   3.663
 4820TIP3    H114466   5.789   5.239   3.579
 4820TIP3    H214467   5.809   5.115   3.663
 4821TIP3   OH214468   2.181   3.969   4.980
 4821TIP3    H114469   2.270   3.947   5.009
 4821TIP3    H214470   2.124   3.930   5.046
 4822TIP3   OH214471   3.768   1.882   3.758
 4822TIP3    H114472   3.814   1.961   3.729
 4822TIP3    H214473   3.715   1.857   3.682
 4823TIP3   OH214474   3.145   2.335   1.354
 4823TIP3    H114475   3.086   2.363   1.424
 4823TIP3    H214476   3.222   2.391   1.364
 4824TIP3   OH214477   2.916   2.372   3.793
 4824TIP3    H114478   2.920   2.277   3.804
 4824TIP3    H214479   2.824   2.394   3.811
 4825TIP3   OH214480   5.316   5.050   0.503
 4825TIP3    H114481   5.324   5.124   0.563
 4825TIP3    H214482   5.343   4.974   0.554
 4826TIP3   OH214483   3.128   2.380   4.716
 4826TIP3    H114484   3.042   2.415   4.694
 4826TIP3    H214485   3.147   2.415   4.803
 4827TIP3   OH214486   4.278   5.579   0.255
 4827TIP3    H114487   4.190   5.603   0.282
 4827TIP3    H214488   4.333   5.653   0.281
 4828TIP3   OH214489   4.475   1.501   3.894
 4828TIP3    H114490   4.502   1.593   3.893
 4828TIP3    H214491   4.393   1.500   3.944
 4829TIP3   OH214492   1.013   0.622   3.056
 4829TIP3    H114493   0.946   0.626   3.124
 4829TIP3    H214494   1.078   0.687   3.083
 4830TIP3   OH214495   2.312   4.171   2.960
 4830TIP3    H114496   2.219   4.193   2.957
 4830TIP3    H214497   2.351   4.243   3.010
 4831TIP3   OH214498   4.102   1.349   3.835
 4831TIP3    H114499   4.169   1.360   3.767
 4831TIP3    H214500   4.020   1.375   3.792
 4832TIP3   OH214501   5.547   2.555   0.560
 4832TIP3    H114502   5.626   2.577   0.610
 4832TIP3    H214503   5.520   2.637   0.520
 4833TIP3   OH214504   4.588   5.327   0.734
 4833TIP3    H114505   4.498   5.307   0.760
 4833TIP3    H214506   4.624   5.375   0.809
 4834TIP3   OH214507   1.887   3.287   3.427
 4834TIP3    H114508   1.892   3.274   3.522
 4834TIP3    H214509   1.974   3.320   3.403
 4835TIP3   OH214510   2.256   5.369   0.701
 4835TIP3    H114511   2.218   5.427   0.635
 4835TIP3    H214512   2.216   5.284   0.684
 4836TIP3   OH214513   3.039   4.760   3.111
 4836TIP3    H114514   3.095   4.835   3.089
 4836TIP3    H214515   3.014   4.723   3.026
 4837TIP3   OH214516   3.580   4.180   0.605
 4837TIP3    H114517   3.575   4.275   0.617
 4837TIP3    H214518   3.654   4.168   0.545
 4838TIP3   OH214519   1.299   1.104   2.641
 4838TIP3    H114520   1.227   1.065   2.690
 4838TIP3    H214521   1.340   1.031   2.595
 4839TIP3   OH214522   4.027   3.421   0.183
 4839TIP3    H114523   4.022   3.360   0.110
 4839TIP3    H214524   3.937   3.449   0.197
 4840TIP3   OH214525   2.014   1.457   0.543
 4840TIP3    H114526   2.040   1.425   0.456
 4840TIP3    H214527   1.921   1.479   0.533
 4841TIP3   OH214528   4.896   4.261   3.345
 4841TIP3    H114529   4.886   4.347   3.385
 4841TIP3    H214530   4.988   4.259   3.316
 4842TIP3   OH214531   4.981   1.779   2.633
 4842TIP3    H114532   5.044   1.824   2.577
 4842TIP3    H214533   4.944   1.849   2.688
 4843TIP3   OH214534   0.006   4.160   3.647
 4843TIP3    H114535   0.007   4.072   3.684
 4843TIP3    H214536   0.076   4.160   3.582
 4844TIP3   OH214537   4.541   0.112   2.416
 4844TIP3    H114538   4.601   0.051   2.373
 4844TIP3    H214539   4.491   0.057   2.476
 4845TIP3   OH214540   5.407   3.990   2.021
 4845TIP3    H114541   5.376   3.899   2.027
 4845TIP3    H214542   5.348   4.032   1.959
 4846TIP3   OH214543   2.712   0.589   1.695
 4846TIP3    H114544   2.707   0.495   1.681
 4846TIP3    H214545   2.622   0.615   1.713
 4847TIP3   OH214546   0.364   1.118   4.615
 4847TIP3    H114547   0.293   1.136   4.554
 4847TIP3    H214548   0.443   1.148   4.570
 4848TIP3   OH214549   2.099   4.291   1.855
 4848TIP3    H114550   2.155   4.273   1.779
 4848TIP3    H214551   2.133   4.373   1.891
 4849TIP3   OH214552   5.855   3.619   2.223
 4849TIP3    H114553   5.947   3.638   2.201
 4849TIP3    H214554   5.853   3.625   2.319
 4850TIP3   OH214555   4.531   1.341   0.260
 4850TIP3    H114556   4.519   1.420   0.207
 4850TIP3    H214557   4.511   1.269   0.200
 4851TIP3   OH214558   2.878   1.863   2.773
 4851TIP3    H114559   2.844   1.889   2.858
 4851TIP3    H214560   2.972   1.850   2.787
 4852TIP3   OH214561   1.147   2.010   5.108
 4852TIP3    H114562   1.142   1.922   5.070
 4852TIP3    H214563   1.144   2.069   5.033
 4853TIP3   OH214564   5.874   4.618   2.737
 4853TIP3    H114565   5.886   4.529   2.770
 4853TIP3    H214566   5.962   4.646   2.712
 4854TIP3   OH214567   3.270   4.403   2.705
 4854TIP3    H114568   3.291   4.446   2.623
 4854TIP3    H214569   3.224   4.323   2.679
 4855TIP3   OH214570   0.275   0.273   4.150
 4855TIP3    H114571   0.295   0.183   4.123
 4855TIP3    H214572   0.354   0.302   4.195
 4856TIP3   OH214573   2.290   3.515   3.086
 4856TIP3    H114574   2.380   3.486   3.103
 4856TIP3    H214575   2.295   3.559   3.001
 4857TIP3   OH214576   4.343   4.946   4.296
 4857TIP3    H114577   4.248   4.953   4.308
 4857TIP3    H214578   4.380   5.008   4.359
 4858TIP3   OH214579   0.970   0.460   3.586
 4858TIP3    H114580   0.911   0.509   3.642
 4858TIP3    H214581   0.988   0.519   3.513
 4859TIP3   OH214582   6.054   4.626   0.711
 4859TIP3    H114583   6.065   4.674   0.629
 4859TIP3    H214584   5.960   4.634   0.730
 4860TIP3   OH214585   5.933   5.444   3.773
 4860TIP3    H114586   5.952   5.358   3.810
 4860TIP3    H214587   5.853   5.431   3.722
 4861TIP3   OH214588   5.688   0.756   3.979
 4861TIP3    H114589   5.661   0.665   3.979
 4861TIP3    H214590   5.778   0.754   3.946
 4862TIP3   OH214591   1.161   3.358   2.070
 4862TIP3    H114592   1.158   3.453   2.072
 4862TIP3    H214593   1.099   3.333   2.002
 4863TIP3   OH214594   2.836   0.271   1.371
 4863TIP3    H114595   2.762   0.259   1.312
 4863TIP3    H214596   2.839   0.365   1.388
 4864TIP3   OH214597   5.170   0.947   1.600
 4864TIP3    H114598   5.102   1.006   1.633
 4864TIP3    H214599   5.250   0.975   1.645
 4865TIP3   OH214600   1.245   4.778   1.770
 4865TIP3    H114601   1.153   4.805   1.772
 4865TIP3    H214602   1.295   4.859   1.778
 4866TIP3   OH214603   5.363   1.334   4.335
 4866TIP3    H114604   5.436   1.334   4.273
 4866TIP3    H214605   5.293   1.287   4.289
 4867TIP3   OH214606   3.274   4.350   0.074
 4867TIP3    H114607   3.335   4.343   0.147
 4867TIP3    H214608   3.239   4.262   0.062
 4868TIP3   OH214609   3.383   1.100   0.830
 4868TIP3    H114610   3.470   1.136   0.813
 4868TIP3    H214611   3.375   1.026   0.769
 4869TIP3   OH214612   3.839   4.893   0.792
 4869TIP3    H114613   3.934   4.893   0.803
 4869TIP3    H214614   3.821   4.813   0.742
 4870TIP3   OH214615   4.222   3.620   3.760
 4870TIP3    H114616   4.291   3.590   3.702
 4870TIP3    H214617   4.204   3.546   3.817
 4871TIP3   OH214618   0.455   3.677   3.039
 4871TIP3    H114619   0.480   3.692   3.130
 4871TIP3    H214620   0.538   3.661   2.994
 4872TIP3   OH214621   5.640   0.546   3.607
 4872TIP3    H114622   5.694   0.501   3.672
 4872TIP3    H214623   5.565   0.489   3.593
 4873TIP3   OH214624   3.398   2.390   1.604
 4873TIP3    H114625   3.349   2.311   1.626
 4873TIP3    H214626   3.380   2.450   1.676
 4874TIP3   OH214627   1.021   3.045   4.808
 4874TIP3    H114628   0.981   2.979   4.752
 4874TIP3    H214629   1.082   2.997   4.864
 4875TIP3   OH214630   2.847   5.219   4.285
 4875TIP3    H114631   2.915   5.152   4.280
 4875TIP3    H214632   2.861   5.273   4.208
 4876TIP3   OH214633   4.644   5.293   4.861
 4876TIP3    H114634   4.653   5.367   4.801
 4876TIP3    H214635   4.553   5.297   4.891
 4877TIP3   OH214636   4.875   4.338   4.234
 4877TIP3    H114637   4.788   4.376   4.244
 4877TIP3    H214638   4.884   4.322   4.140
 4878TIP3   OH214639   1.575   4.493   1.811
 4878TIP3    H114640   1.514   4.509   1.739
 4878TIP3    H214641   1.660   4.479   1.768
 4879TIP3   OH214642   6.180   4.643   1.687
 4879TIP3    H114643   6.257   4.614   1.737
 4879TIP3    H214644   6.179   4.738   1.697
 4880TIP3   OH214645   5.581   3.142   3.990
 4880TIP3    H114646   5.491   3.173   3.996
 4880TIP3    H214647   5.579   3.054   4.028
 4881TIP3   OH214648   5.252   0.652   3.695
 4881TIP3    H114649   5.235   0.652   3.601
 4881TIP3    H214650   5.343   0.681   3.703
 4882TIP3   OH214651   3.862   0.528   2.697
 4882TIP3    H114652   3.819   0.481   2.626
 4882TIP3    H214653   3.950   0.545   2.664
 4883TIP3   OH214654   3.630   3.500   3.422
 4883TIP3    H114655   3.617   3.507   3.516
 4883TIP3    H214656   3.718   3.536   3.407
 4884TIP3   OH214657   3.962   5.226   1.784
 4884TIP3    H114658   3.881   5.276   1.775
 4884TIP3    H214659   3.934   5.135   1.791
 4885TIP3   OH214660   0.936   4.626   4.300
 4885TIP3    H114661   0.964   4.692   4.237
 4885TIP3    H214662   0.882   4.674   4.363
 4886TIP3   OH214663   2.795   1.661   3.216
 4886TIP3    H114664   2.710   1.620   3.232
 4886TIP3    H214665   2.783   1.752   3.245
 4887TIP3   OH214666   5.567   2.201   2.002
 4887TIP3    H114667   5.614   2.279   2.029
 4887TIP3    H214668   5.498   2.233   1.944
 4888TIP3   OH214669   1.121   4.328   4.741
 4888TIP3    H114670   1.175   4.299   4.667
 4888TIP3    H214671   1.131   4.260   4.807
 4889TIP3   OH214672   5.527   4.555   1.703
 4889TIP3    H114673   5.490   4.478   1.747
 4889TIP3    H214674   5.509   4.627   1.763
 4890TIP3   OH214675   4.529   0.612   1.347
 4890TIP3    H114676   4.607   0.556   1.341
 4890TIP3    H214677   4.563   0.698   1.370
 4891TIP3   OH214678   4.676   1.111   3.601
 4891TIP3    H114679   4.633   1.188   3.640
 4891TIP3    H214680   4.620   1.088   3.527
 4892TIP3   OH214681   4.952   3.409   4.168
 4892TIP3    H114682   4.954   3.325   4.121
 4892TIP3    H214683   5.038   3.415   4.209
 4893TIP3   OH214684   0.620   0.661   0.616
 4893TIP3    H114685   0.683   0.712   0.567
 4893TIP3    H214686   0.672   0.599   0.667
 4894TIP3   OH214687   3.677   5.691   3.157
 4894TIP3    H114688   3.589   5.658   3.176
 4894TIP3    H214689   3.732   5.613   3.159
 4895TIP3   OH214690   2.914   1.970   3.652
 4895TIP3    H114691   2.842   2.014   3.607
 4895TIP3    H214692   2.876   1.887   3.682
 4896TIP3   OH214693   3.156   1.505   4.609
 4896TIP3    H114694   3.245   1.506   4.576
 4896TIP3    H214695   3.143   1.417   4.643
 4897TIP3   OH214696   3.284   4.455   4.764
 4897TIP3    H114697   3.219   4.455   4.694
 4897TIP3    H214698   3.248   4.513   4.831
 4898TIP3   OH214699   4.790   4.741   1.178
 4898TIP3    H114700   4.825   4.701   1.258
 4898TIP3    H214701   4.727   4.677   1.145
 4899TIP3   OH214702   4.493   5.167   4.427
 4899TIP3    H114703   4.469   5.202   4.513
 4899TIP3    H214704   4.463   5.233   4.365
 4900TIP3   OH214705   0.283   5.793   0.073
 4900TIP3    H114706   0.371   5.794   0.035
 4900TIP3    H214707   0.297   5.781   0.167
 4901TIP3   OH214708   4.371   1.786   4.636
 4901TIP3    H114709   4.378   1.861   4.577
 4901TIP3    H214710   4.351   1.712   4.578
 4902TIP3   OH214711   4.981   5.536   3.842
 4902TIP3    H114712   4.931   5.468   3.796
 4902TIP3    H214713   5.065   5.538   3.797
 4903TIP3   OH214714   2.202   4.399   2.165
 4903TIP3    H114715   2.241   4.312   2.157
 4903TIP3    H214716   2.269   4.459   2.133
 4904TIP3   OH214717   3.460   3.335   1.652
 4904TIP3    H114718   3.535   3.304   1.703
 4904TIP3    H214719   3.423   3.255   1.613
 4905TIP3   OH214720   0.590   0.835   3.911
 4905TIP3    H114721   0.515   0.806   3.860
 4905TIP3    H214722   0.552   0.879   3.988
 4906TIP3   OH214723   1.856   0.272   5.143
 4906TIP3    H114724   1.916   0.306   5.076
 4906TIP3    H214725   1.792   0.220   5.095
 4907TIP3   OH214726   5.835   3.174   3.287
 4907TIP3    H114727   5.867   3.088   3.262
 4907TIP3    H214728   5.866   3.186   3.377
 4908TIP3   OH214729   4.284   4.417   3.618
 4908TIP3    H114730   4.258   4.505   3.644
 4908TIP3    H214731   4.296   4.371   3.702
 4909TIP3   OH214732   1.476   0.403   0.573
 4909TIP3    H114733   1.515   0.391   0.660
 4909TIP3    H214734   1.439   0.317   0.551
 4910TIP3   OH214735   0.082   2.765   1.756
 4910TIP3    H114736   0.020   2.825   1.798
 4910TIP3    H214737   0.118   2.815   1.683
 4911TIP3   OH214738   4.591   0.599   0.223
 4911TIP3    H114739   4.540   0.521   0.245
 4911TIP3    H214740   4.539   0.672   0.254
 4912TIP3   OH214741   0.375   4.491   2.436
 4912TIP3    H114742   0.357   4.452   2.521
 4912TIP3    H214743   0.358   4.421   2.373
 4913TIP3   OH214744   5.610   3.408   4.094
 4913TIP3    H114745   5.531   3.355   4.107
 4913TIP3    H214746   5.604   3.440   4.004
 4914TIP3   OH214747   2.360   2.927   1.375
 4914TIP3    H114748   2.418   2.862   1.414
 4914TIP3    H214749   2.400   3.011   1.397
 4915TIP3   OH214750   5.400   5.608   0.358
 4915TIP3    H114751   5.448   5.691   0.367
 4915TIP3    H214752   5.391   5.576   0.448
 4916TIP3   OH214753   2.757   1.977   2.515
 4916TIP3    H114754   2.819   1.969   2.443
 4916TIP3    H214755   2.800   1.935   2.589
 4917TIP3   OH214756   5.647   5.543   3.626
 4917TIP3    H114757   5.680   5.631   3.610
 4917TIP3    H214758   5.553   5.549   3.608
 4918TIP3   OH214759   2.688   0.302   0.552
 4918TIP3    H114760   2.662   0.334   0.638
 4918TIP3    H214761   2.664   0.373   0.492
 4919TIP3   OH214762   2.825   5.820   0.411
 4919TIP3    H114763   2.855   5.731   0.430
 4919TIP3    H214764   2.738   5.825   0.451
 4920TIP3   OH214765   2.769   5.037   5.031
 4920TIP3    H114766   2.847   4.988   5.056
 4920TIP3    H214767   2.759   5.020   4.938
 4921TIP3   OH214768   3.781   3.048   2.397
 4921TIP3    H114769   3.771   3.109   2.470
 4921TIP3    H214770   3.739   3.091   2.323
 4922TIP3   OH214771   0.575   1.343   4.742
 4922TIP3    H114772   0.651   1.401   4.754
 4922TIP3    H214773   0.609   1.270   4.690
 4923TIP3   OH214774   5.403   4.907   0.073
 4923TIP3    H114775   5.311   4.935   0.074
 4923TIP3    H214776   5.443   4.960   0.004
 4924TIP3   OH214777   4.037   1.683   2.989
 4924TIP3    H114778   4.046   1.714   3.079
 4924TIP3    H214779   4.121   1.704   2.948
 4925TIP3   OH214780   2.515   2.116   1.302
 4925TIP3    H114781   2.421   2.102   1.314
 4925TIP3    H214782   2.553   2.104   1.389
 4926TIP3   OH214783   4.645   5.248   2.621
 4926TIP3    H114784   4.700   5.173   2.595
 4926TIP3    H214785   4.671   5.318   2.561
 4927TIP3   OH214786   4.064   5.302   3.482
 4927TIP3    H114787   4.099   5.220   3.447
 4927TIP3    H214788   4.017   5.276   3.562
 4928TIP3   OH214789   3.515   5.940   1.353
 4928TIP3    H114790   3.602   5.967   1.324
 4928TIP3    H214791   3.497   5.996   1.429
 4929TIP3   OH214792   3.035   5.537   3.294
 4929TIP3    H114793   2.963   5.489   3.335
 4929TIP3    H214794   3.099   5.549   3.364
 4930TIP3   OH214795   0.194   4.472   3.860
 4930TIP3    H114796   0.266   4.418   3.827
 4930TIP3    H214797   0.213   4.484   3.953
 4931TIP3   OH214798   1.550   4.136   3.716
 4931TIP3    H114799   1.541   4.228   3.694
 4931TIP3    H214800   1.461   4.102   3.717
 4932TIP3   OH214801   0.390   2.383   3.798
 4932TIP3    H114802   0.312   2.329   3.788
 4932TIP3    H214803   0.442   2.366   3.719
 4933TIP3   OH214804   3.737   3.148   0.788
 4933TIP3    H114805   3.659   3.146   0.733
 4933TIP3    H214806   3.719   3.215   0.853
 4934TIP3   OH214807   1.284   1.333   2.511
 4934TIP3    H114808   1.282   1.255   2.566
 4934TIP3    H214809   1.214   1.319   2.447
 4935TIP3   OH214810   0.955   1.756   1.022
 4935TIP3    H114811   0.888   1.766   1.091
 4935TIP3    H214812   0.905   1.743   0.942
 4936TIP3   OH214813   0.273   1.175   2.216
 4936TIP3    H114814   0.302   1.264   2.234
 4936TIP3    H214815   0.354   1.123   2.215
 4937TIP3   OH214816   6.071   2.136   4.990
 4937TIP3    H114817   6.032   2.211   4.945
 4937TIP3    H214818   6.124   2.174   5.059
 4938TIP3   OH214819   4.656   5.849   0.999
 4938TIP3    H114820   4.720   5.919   0.987
 4938TIP3    H214821   4.710   5.770   1.012
 4939TIP3   OH214822   4.787   0.427   3.213
 4939TIP3    H114823   4.728   0.450   3.141
 4939TIP3    H214824   4.867   0.477   3.195
 4940TIP3   OH214825   0.619   3.224   0.202
 4940TIP3    H114826   0.656   3.238   0.289
 4940TIP3    H214827   0.606   3.130   0.196
 4941TIP3   OH214828   4.551   3.204   1.322
 4941TIP3    H114829   4.575   3.198   1.230
 4941TIP3    H214830   4.536   3.298   1.337
 4942TIP3   OH214831   1.689   0.181   4.471
 4942TIP3    H114832   1.715   0.262   4.427
 4942TIP3    H214833   1.661   0.208   4.558
 4943TIP3   OH214834   1.825   4.096   3.579
 4943TIP3    H114835   1.797   4.158   3.511
 4943TIP3    H214836   1.749   4.086   3.636
 4944TIP3   OH214837   3.960   0.358   2.024
 4944TIP3    H114838   4.035   0.349   1.965
 4944TIP3    H214839   3.956   0.452   2.044
 4945TIP3   OH214840   1.206   4.817   3.768
 4945TIP3    H114841   1.199   4.893   3.825
 4945TIP3    H214842   1.297   4.789   3.775
 4946TIP3   OH214843   5.390   2.226   3.400
 4946TIP3    H114844   5.355   2.313   3.380
 4946TIP3    H214845   5.345   2.199   3.480
 4947TIP3   OH214846   0.782   1.511   4.791
 4947TIP3    H114847   0.804   1.566   4.716
 4947TIP3    H214848   0.862   1.507   4.843
 4948TIP3   OH214849   5.625   5.401   4.431
 4948TIP3    H114850   5.619   5.478   4.488
 4948TIP3    H214851   5.630   5.436   4.343
 4949TIP3   OH214852   3.255   3.506   2.445
 4949TIP3    H114853   3.271   3.412   2.449
 4949TIP3    H214854   3.341   3.543   2.424
 4950TIP3   OH214855   0.610   2.566   0.587
 4950TIP3    H114856   0.617   2.482   0.541
 4950TIP3    H214857   0.665   2.556   0.665
 4951TIP3   OH214858   5.222   3.207   3.789
 4951TIP3    H114859   5.197   3.284   3.738
 4951TIP3    H214860   5.286   3.240   3.852
 4952TIP3   OH214861   4.728   0.436   1.933
 4952TIP3    H114862   4.818   0.414   1.907
 4952TIP3    H214863   4.732   0.527   1.961
 4953TIP3   OH214864   6.212   2.802   1.042
 4953TIP3    H114865   6.122   2.789   1.071
 4953TIP3    H214866   6.220   2.747   0.965
 4954TIP3   OH214867   0.992   5.827   3.850
 4954TIP3    H114868   1.027   5.857   3.934
 4954TIP3    H214869   1.068   5.794   3.803
 4955TIP3   OH214870   2.169   3.416   1.113
 4955TIP3    H114871   2.109   3.490   1.111
 4955TIP3    H214872   2.183   3.395   1.020
 4956TIP3   OH214873   5.605   5.995   3.516
 4956TIP3    H114874   5.513   5.982   3.496
 4956TIP3    H214875   5.652   5.943   3.451
 4957TIP3   OH214876   1.816   0.041   4.737
 4957TIP3    H114877   1.899   0.088   4.737
 4957TIP3    H214878   1.841  -0.051   4.727
 4958TIP3   OH214879   2.563   4.864   2.587
 4958TIP3    H114880   2.638   4.854   2.645
 4958TIP3    H214881   2.566   4.956   2.560
 4959TIP3   OH214882   2.805   4.340   0.595
 4959TIP3    H114883   2.727   4.355   0.541
 4959TIP3    H214884   2.859   4.418   0.582
 4960TIP3   OH214885   4.461   1.279   3.702
 4960TIP3    H114886   4.484   1.362   3.742
 4960TIP3    H214887   4.379   1.295   3.657
 4961TIP3   OH214888   4.158   4.652   3.708
 4961TIP3    H114889   4.195   4.692   3.787
 4961TIP3    H214890   4.198   4.702   3.636
 4962TIP3   OH214891   3.254   3.901   2.526
 4962TIP3    H114892   3.273   3.959   2.600
 4962TIP3    H214893   3.251   3.960   2.450
 4963TIP3   OH214894   5.986   3.520   1.500
 4963TIP3    H114895   5.904   3.502   1.547
 4963TIP3    H214896   5.962   3.587   1.436
 4964TIP3   OH214897   6.024   1.683   0.323
 4964TIP3    H114898   6.012   1.678   0.228
 4964TIP3    H214899   6.119   1.680   0.335
 4965TIP3   OH214900   1.656   0.793   0.217
 4965TIP3    H114901   1.702   0.842   0.149
 4965TIP3    H214902   1.706   0.712   0.227
 4966TIP3   OH214903   3.955   3.042   1.040
 4966TIP3    H114904   4.000   3.004   1.115
 4966TIP3    H214905   3.979   3.134   1.041
 4967TIP3   OH214906   1.222   3.276   0.498
 4967TIP3    H114907   1.151   3.328   0.536
 4967TIP3    H214908   1.287   3.269   0.568
 4968TIP3   OH214909   5.975   4.116   4.630
 4968TIP3    H114910   5.947   4.197   4.674
 4968TIP3    H214911   6.071   4.121   4.631
 4969TIP3   OH214912   2.482   0.898   4.260
 4969TIP3    H114913   2.398   0.875   4.221
 4969TIP3    H214914   2.475   0.991   4.281
 4970TIP3   OH214915   0.385   1.432   5.035
 4970TIP3    H114916   0.458   1.487   5.008
 4970TIP3    H214917   0.369   1.374   4.960
 4971TIP3   OH214918   1.445   4.927   1.312
 4971TIP3    H114919   1.448   4.905   1.219
 4971TIP3    H214920   1.509   4.998   1.322
 4972TIP3   OH214921   0.581   2.723   0.978
 4972TIP3    H114922   0.671   2.735   1.009
 4972TIP3    H214923   0.564   2.630   0.989
 4973TIP3   OH214924   2.558   2.609   3.332
 4973TIP3    H114925   2.652   2.593   3.335
 4973TIP3    H214926   2.544   2.655   3.249
 4974TIP3   OH214927   1.310   2.479   4.458
 4974TIP3    H114928   1.293   2.431   4.376
 4974TIP3    H214929   1.398   2.451   4.485
 4975TIP3   OH214930   1.141   0.026   0.053
 4975TIP3    H114931   1.199   0.070   0.115
 4975TIP3    H214932   1.094  -0.039   0.105
 4976TIP3   OH214933   3.554   2.258   0.985
 4976TIP3    H114934   3.459   2.257   0.996
 4976TIP3    H214935   3.585   2.186   1.039
 4977TIP3   OH214936   5.166   5.220   4.397
 4977TIP3    H114937   5.093   5.196   4.454
 4977TIP3    H214938   5.223   5.274   4.452
 4978TIP3   OH214939   4.961   5.931   2.009
 4978TIP3    H114940   4.973   5.836   2.020
 4978TIP3    H214941   4.951   5.964   2.098
 4979TIP3   OH214942   0.939   3.910   2.291
 4979TIP3    H114943   0.897   3.904   2.205
 4979TIP3    H214944   0.976   3.998   2.294
 4980TIP3   OH214945   1.233   0.748   3.171
 4980TIP3    H114946   1.322   0.781   3.172
 4980TIP3    H214947   1.182   0.815   3.217
 4981TIP3   OH214948   5.682   0.104   1.605
 4981TIP3    H114949   5.692   0.043   1.678
 4981TIP3    H214950   5.698   0.190   1.642
 4982TIP3   OH214951   5.145   4.926   4.282
 4982TIP3    H114952   5.105   5.006   4.248
 4982TIP3    H214953   5.126   4.860   4.216
 4983TIP3   OH214954   1.280   3.408   2.666
 4983TIP3    H114955   1.292   3.360   2.748
 4983TIP3    H214956   1.213   3.473   2.687
 4984TIP3   OH214957   0.615   3.465   2.652
 4984TIP3    H114958   0.669   3.487   2.576
 4984TIP3    H214959   0.664   3.500   2.727
 4985TIP3   OH214960   1.702   4.679   3.418
 4985TIP3    H114961   1.746   4.722   3.344
 4985TIP3    H214962   1.623   4.731   3.433
 4986TIP3   OH214963   1.627   4.129   0.341
 4986TIP3    H114964   1.549   4.143   0.396
 4986TIP3    H214965   1.592   4.095   0.259
 4987TIP3   OH214966   0.996   0.321   0.973
 4987TIP3    H114967   1.025   0.411   0.956
 4987TIP3    H214968   0.986   0.316   1.068
 4988TIP3   OH214969   1.557   0.995   2.096
 4988TIP3    H114970   1.547   0.955   2.009
 4988TIP3    H214971   1.489   1.062   2.099
 4989TIP3   OH214972   1.841   3.233   4.513
 4989TIP3    H114973   1.838   3.227   4.608
 4989TIP3    H214974   1.843   3.142   4.483
 4990TIP3   OH214975   4.677   2.007   1.876
 4990TIP3    H114976   4.649   2.098   1.873
 4990TIP3    H214977   4.767   2.010   1.907
 4991TIP3   OH214978   4.121   3.480   4.154
 4991TIP3    H114979   4.208   3.440   4.145
 4991TIP3    H214980   4.065   3.409   4.187
 4992TIP3   OH214981   5.655   1.057   3.064
 4992TIP3    H114982   5.744   1.054   3.098
 4992TIP3    H214983   5.662   1.022   2.975
 4993TIP3   OH214984   1.186   4.215   0.382
 4993TIP3    H114985   1.178   4.122   0.402
 4993TIP3    H214986   1.238   4.251   0.455
 4994TIP3   OH214987   3.245   5.478   2.527
 4994TIP3    H114988   3.240   5.413   2.598
 4994TIP3    H214989   3.337   5.481   2.504
 4995TIP3   OH214990   5.877   1.315   3.553
 4995TIP3    H114991   5.788   1.285   3.536
 4995TIP3    H214992   5.868   1.409   3.568
 4996TIP3   OH214993   3.581   4.567   2.075
 4996TIP3    H114994   3.539   4.514   2.143
 4996TIP3    H214995   3.511   4.623   2.041
 4997TIP3   OH214996   3.486   0.334   1.030
 4997TIP3    H114997   3.505   0.266   0.966
 4997TIP3    H214998   3.391   0.348   1.023
 4998TIP3   OH214999   2.680   1.530   0.874
 4998TIP3    H115000   2.768   1.498   0.895
 4998TIP3    H215001   2.661   1.493   0.788
 4999TIP3   OH215002   3.319   5.326   4.040
 4999TIP3    H115003   3.320   5.240   3.997
 4999TIP3    H215004   3.282   5.385   3.975
 5000TIP3   OH215005   4.494   0.768   0.537
 5000TIP3    H115006   4.566   0.711   0.566
 5000TIP3    H215007   4.504   0.847   0.589
 5001TIP3   OH215008   0.838   1.212   5.168
 5001TIP3    H115009   0.812   1.254   5.087
 5001TIP3    H215010   0.916   1.162   5.146
 5002TIP3   OH215011   4.225   5.735   3.822
 5002TIP3    H115012   4.130   5.745   3.820
 5002TIP3    H215013   4.241   5.661   3.881
 5003TIP3   OH215014   1.299   0.268   4.470
 5003TIP3    H115015   1.353   0.281   4.392
 5003TIP3    H215016   1.220   0.320   4.453
 5004TIP3   OH215017   5.323   2.806   4.779
 5004TIP3    H115018   5.295   2.894   4.806
 5004TIP3    H215019   5.353   2.818   4.689
 5005TIP3   OH215020   5.204   1.726   0.951
 5005TIP3    H115021   5.248   1.772   0.880
 5005TIP3    H215022   5.128   1.684   0.911
 5006TIP3   OH215023   2.752   5.064   4.773
 5006TIP3    H115024   2.699   5.013   4.711
 5006TIP3    H215025   2.842   5.053   4.743
 5007TIP3   OH215026   0.062   0.132   2.446
 5007TIP3    H115027   0.016   0.212   2.470
 5007TIP3    H215028   0.098   0.150   2.359
 5008TIP3   OH215029   5.760   3.871   2.866
 5008TIP3    H115030   5.856   3.871   2.868
 5008TIP3    H215031   5.735   3.795   2.918
 5009TIP3   OH215032   6.106   2.617   1.470
 5009TIP3    H115033   6.078   2.704   1.441
 5009TIP3    H215034   6.196   2.630   1.500
 5010TIP3   OH215035   3.885   1.719   5.122
 5010TIP3    H115036   3.957   1.736   5.183
 5010TIP3    H215037   3.928   1.704   5.038
 5011TIP3   OH215038   2.878   2.492   4.734
 5011TIP3    H115039   2.812   2.493   4.665
 5011TIP3    H215040   2.879   2.581   4.769
 5012TIP3   OH215041   2.136   5.065   4.055
 5012TIP3    H115042   2.227   5.085   4.032
 5012TIP3    H215043   2.143   4.985   4.108
 5013TIP3   OH215044   4.413   4.140   3.466
 5013TIP3    H115045   4.323   4.167   3.448
 5013TIP3    H215046   4.419   4.142   3.562
 5014TIP3   OH215047   4.151   1.477   5.018
 5014TIP3    H115048   4.159   1.456   4.925
 5014TIP3    H215049   4.057   1.473   5.036
 5015TIP3   OH215050   4.226   5.650   1.003
 5015TIP3    H115051   4.174   5.728   1.021
 5015TIP3    H215052   4.174   5.578   1.040
 5016TIP3   OH215053   1.250   2.429   3.932
 5016TIP3    H115054   1.238   2.367   3.860
 5016TIP3    H215055   1.258   2.514   3.890
 5017TIP3   OH215056   1.058   3.177   2.847
 5017TIP3    H115057   0.974   3.142   2.816
 5017TIP3    H215058   1.056   3.269   2.820
 5018TIP3   OH215059   0.202   5.273   4.120
 5018TIP3    H115060   0.188   5.202   4.058
 5018TIP3    H215061   0.140   5.341   4.094
 5019TIP3   OH215062   5.156   2.304   4.350
 5019TIP3    H115063   5.069   2.310   4.311
 5019TIP3    H215064   5.196   2.389   4.333
 5020TIP3   OH215065   0.148   0.455   4.867
 5020TIP3    H115066   0.186   0.542   4.856
 5020TIP3    H215067   0.133   0.423   4.778
 5021TIP3   OH215068   4.225   2.738   3.083
 5021TIP3    H115069   4.272   2.716   3.002
 5021TIP3    H215070   4.152   2.793   3.054
 5022TIP3   OH215071   5.573   4.001   3.719
 5022TIP3    H115072   5.621   4.042   3.792
 5022TIP3    H215073   5.518   4.071   3.685
 5023TIP3   OH215074   4.697   0.748   3.180
 5023TIP3    H115075   4.791   0.754   3.201
 5023TIP3    H215076   4.654   0.737   3.264
 5024TIP3   OH215077   1.835   3.676   1.241
 5024TIP3    H115078   1.799   3.595   1.278
 5024TIP3    H215079   1.765   3.709   1.184
 5025TIP3   OH215080   6.060   0.136   1.184
 5025TIP3    H115081   6.086   0.092   1.265
 5025TIP3    H215082   6.112   0.216   1.182
 5026TIP3   OH215083   6.031   3.870   2.828
 5026TIP3    H115084   5.999   3.880   2.739
 5026TIP3    H215085   6.115   3.824   2.819
 5027TIP3   OH215086   0.939   2.467   4.702
 5027TIP3    H115087   0.964   2.376   4.689
 5027TIP3    H215088   0.998   2.499   4.770
 5028TIP3   OH215089   5.540   5.367   3.837
 5028TIP3    H115090   5.589   5.447   3.852
 5028TIP3    H215091   5.591   5.299   3.881
 5029TIP3   OH215092   4.081   5.879   0.982
 5029TIP3    H115093   4.119   5.957   0.944
 5029TIP3    H215094   3.986   5.892   0.974
 5030TIP3   OH215095   1.196   1.945   0.718
 5030TIP3    H115096   1.122   1.999   0.689
 5030TIP3    H215097   1.221   1.895   0.641
 5031TIP3   OH215098   4.656   3.839   1.537
 5031TIP3    H115099   4.719   3.790   1.591
 5031TIP3    H215100   4.650   3.924   1.580
 5032TIP3   OH215101   3.145   3.568   2.698
 5032TIP3    H115102   3.219   3.555   2.638
 5032TIP3    H215103   3.108   3.652   2.672
 5033TIP3   OH215104   5.475   0.511   2.027
 5033TIP3    H115105   5.404   0.561   2.067
 5033TIP3    H215106   5.525   0.575   1.978
 5034TIP3   OH215107   1.614   5.891   2.798
 5034TIP3    H115108   1.524   5.920   2.814
 5034TIP3    H215109   1.642   5.855   2.882
 5035TIP3   OH215110   5.938   5.183   0.279
 5035TIP3    H115111   5.998   5.112   0.255
 5035TIP3    H215112   5.868   5.179   0.214
 5036TIP3   OH215113   1.557   4.011   0.097
 5036TIP3    H115114   1.577   3.993   0.005
 5036TIP3    H215115   1.573   3.929   0.142
 5037TIP3   OH215116   2.603   4.883   0.469
 5037TIP3    H115117   2.655   4.828   0.528
 5037TIP3    H215118   2.666   4.921   0.408
 5038TIP3   OH215119   0.061   1.109   2.731
 5038TIP3    H115120   0.090   1.070   2.813
 5038TIP3    H215121   0.140   1.115   2.678
 5039TIP3   OH215122   3.544   0.889   4.996
 5039TIP3    H115123   3.611   0.935   4.945
 5039TIP3    H215124   3.520   0.813   4.943
 5040TIP3   OH215125   4.992   1.743   0.062
 5040TIP3    H115126   4.897   1.742   0.048
 5040TIP3    H215127   5.018   1.833   0.042
 5041TIP3   OH215128   2.584   3.079   2.424
 5041TIP3    H115129   2.651   3.092   2.491
 5041TIP3    H215130   2.602   3.147   2.359
 5042TIP3   OH215131   3.984   4.911   1.331
 5042TIP3    H115132   3.973   4.863   1.413
 5042TIP3    H215133   3.897   4.916   1.293
 5043TIP3   OH215134   5.187   5.909   0.772
 5043TIP3    H115135   5.197   5.840   0.837
 5043TIP3    H215136   5.161   5.863   0.692
 5044TIP3   OH215137   1.171   5.657   1.309
 5044TIP3    H115138   1.230   5.701   1.371
 5044TIP3    H215139   1.193   5.564   1.317
 5045TIP3   OH215140   4.122   2.385   3.508
 5045TIP3    H115141   4.029   2.365   3.513
 5045TIP3    H215142   4.126   2.477   3.481
 5046TIP3   OH215143   1.909   1.040   4.150
 5046TIP3    H115144   1.820   1.025   4.180
 5046TIP3    H215145   1.962   0.980   4.203
 5047TIP3   OH215146   3.251   5.658   4.180
 5047TIP3    H115147   3.272   5.564   4.186
 5047TIP3    H215148   3.336   5.702   4.184
 5048TIP3   OH215149   3.451   2.886   0.487
 5048TIP3    H115150   3.431   2.878   0.393
 5048TIP3    H215151   3.375   2.847   0.531
 5049TIP3   OH215152   4.977   0.875   0.584
 5049TIP3    H115153   4.890   0.903   0.556
 5049TIP3    H215154   5.037   0.922   0.526
 5050TIP3   OH215155   5.596   2.156   0.758
 5050TIP3    H115156   5.549   2.193   0.683
 5050TIP3    H215157   5.597   2.225   0.824
 5051TIP3   OH215158   2.590   2.218   0.652
 5051TIP3    H115159   2.508   2.178   0.681
 5051TIP3    H215160   2.641   2.227   0.733
 5052TIP3   OH215161   4.248   0.228   2.545
 5052TIP3    H115162   4.164   0.225   2.500
 5052TIP3    H215163   4.283   0.139   2.537
 5053TIP3   OH215164   4.425   5.622   1.322
 5053TIP3    H115165   4.440   5.556   1.255
 5053TIP3    H215166   4.439   5.705   1.276
 5054TIP3   OH215167   6.090   5.587   1.118
 5054TIP3    H115168   6.041   5.519   1.164
 5054TIP3    H215169   6.078   5.567   1.026
 5055TIP3   OH215170   1.836   2.251   1.899
 5055TIP3    H115171   1.846   2.215   1.987
 5055TIP3    H215172   1.885   2.191   1.843
 5056TIP3   OH215173   6.343   4.673   5.083
 5056TIP3    H115174   6.264   4.706   5.126
 5056TIP3    H215175   6.316   4.653   4.994
 5057TIP3   OH215176   1.819   2.789   0.117
 5057TIP3    H115177   1.731   2.808   0.087
 5057TIP3    H215178   1.875   2.846   0.064
 5058TIP3   OH215179   1.715   2.067   3.068
 5058TIP3    H115180   1.702   2.096   3.158
 5058TIP3    H215181   1.637   2.097   3.021
 5059TIP3   OH215182   6.055   2.540   3.475
 5059TIP3    H115183   6.076   2.604   3.543
 5059TIP3    H215184   6.095   2.575   3.395
 5060TIP3   OH215185   5.299   3.775   0.340
 5060TIP3    H115186   5.371   3.837   0.349
 5060TIP3    H215187   5.339   3.697   0.301
 5061TIP3   OH215188   2.368   2.724   4.119
 5061TIP3    H115189   2.394   2.810   4.153
 5061TIP3    H215190   2.310   2.688   4.187
 5062TIP3   OH215191   2.058   4.767   0.477
 5062TIP3    H115192   2.051   4.845   0.531
 5062TIP3    H215193   1.999   4.703   0.519
 5063TIP3   OH215194   3.418   0.424   3.715
 5063TIP3    H115195   3.429   0.517   3.698
 5063TIP3    H215196   3.406   0.385   3.628
 5064TIP3   OH215197   4.272   4.611   4.118
 5064TIP3    H115198   4.269   4.685   4.058
 5064TIP3    H215199   4.258   4.534   4.062
 5065TIP3   OH215200   4.094   2.481   4.647
 5065TIP3    H115201   4.168   2.439   4.691
 5065TIP3    H215202   4.019   2.426   4.667
 5066TIP3   OH215203   6.162   5.645   1.444
 5066TIP3    H115204   6.132   5.649   1.353
 5066TIP3    H215205   6.082   5.627   1.494
 5067TIP3   OH215206   5.587   0.418   0.211
 5067TIP3    H115207   5.611   0.416   0.119
 5067TIP3    H215208   5.581   0.511   0.232
 5068TIP3   OH215209   6.071   2.477   4.142
 5068TIP3    H115210   6.052   2.497   4.051
 5068TIP3    H215211   6.027   2.545   4.192
 5069TIP3   OH215212   4.866   1.034   4.525
 5069TIP3    H115213   4.889   1.127   4.528
 5069TIP3    H215214   4.770   1.034   4.518
 5070TIP3   OH215215   4.730   1.008   0.175
 5070TIP3    H115216   4.722   1.019   0.270
 5070TIP3    H215217   4.642   1.025   0.141
 5071TIP3   OH215218   3.117   0.156   1.234
 5071TIP3    H115219   3.081   0.094   1.298
 5071TIP3    H215220   3.041   0.193   1.190
 5072TIP3   OH215221   2.111   3.012   1.028
 5072TIP3    H115222   2.062   3.094   1.020
 5072TIP3    H215223   2.125   2.984   0.937
 5073TIP3   OH215224   5.624   1.046   2.784
 5073TIP3    H115225   5.678   1.052   2.705
 5073TIP3    H215226   5.544   1.093   2.762
 5074TIP3   OH215227   3.007   0.573   4.551
 5074TIP3    H115228   3.101   0.576   4.571
 5074TIP3    H215229   2.966   0.620   4.623
 5075TIP3   OH215230   2.920   5.171   1.738
 5075TIP3    H115231   2.915   5.149   1.831
 5075TIP3    H215232   2.882   5.259   1.732
 5076TIP3   OH215233   4.904   0.665   1.605
 5076TIP3    H115234   4.971   0.718   1.562
 5076TIP3    H215235   4.923   0.674   1.699
 5077TIP3   OH215236   5.017   2.722   2.196
 5077TIP3    H115237   5.023   2.793   2.261
 5077TIP3    H215238   5.005   2.643   2.248
 5078TIP3   OH215239   0.912   1.335   3.570
 5078TIP3    H115240   0.890   1.376   3.487
 5078TIP3    H215241   0.908   1.406   3.634
 5079TIP3   OH215242   5.393   5.314   3.155
 5079TIP3    H115243   5.465   5.251   3.146
 5079TIP3    H215244   5.436   5.396   3.179
 5080TIP3   OH215245   3.781   3.393   3.847
 5080TIP3    H115246   3.791   3.312   3.897
 5080TIP3    H215247   3.836   3.456   3.893
 5081TIP3   OH215248   4.006   1.270   2.487
 5081TIP3    H115249   4.006   1.227   2.402
 5081TIP3    H215250   4.080   1.330   2.484
 5082TIP3   OH215251   2.975   5.164   1.029
 5082TIP3    H115252   3.032   5.094   0.997
 5082TIP3    H215253   2.987   5.163   1.124
 5083TIP3   OH215254   2.704   5.858   4.404
 5083TIP3    H115255   2.608   5.867   4.404
 5083TIP3    H215256   2.729   5.869   4.496
 5084TIP3   OH215257   2.016   4.123   2.914
 5084TIP3    H115258   1.954   4.174   2.966
 5084TIP3    H215259   1.963   4.082   2.845
 5085TIP3   OH215260   5.947   0.184   0.784
 5085TIP3    H115261   5.851   0.184   0.782
 5085TIP3    H215262   5.971   0.272   0.758
 5086TIP3   OH215263   4.579   5.299   0.114
 5086TIP3    H115264   4.553   5.225   0.168
 5086TIP3    H215265   4.674   5.289   0.104
 5087TIP3   OH215266   2.044   4.409   3.251
 5087TIP3    H115267   2.117   4.350   3.233
 5087TIP3    H215268   2.083   4.496   3.254
 5088TIP3   OH215269   3.397   4.004   1.459
 5088TIP3    H115270   3.383   3.980   1.368
 5088TIP3    H215271   3.481   4.050   1.460
 5089TIP3   OH215272   0.333   1.681   4.755
 5089TIP3    H115273   0.321   1.590   4.729
 5089TIP3    H215274   0.410   1.680   4.811
 5090TIP3   OH215275   1.266   5.596   2.900
 5090TIP3    H115276   1.293   5.618   2.811
 5090TIP3    H215277   1.171   5.609   2.901
 5091TIP3   OH215278   3.241   5.371   0.554
 5091TIP3    H115279   3.162   5.343   0.600
 5091TIP3    H215280   3.211   5.395   0.467
 5092TIP3   OH215281   2.541   0.641   3.342
 5092TIP3    H115282   2.635   0.657   3.347
 5092TIP3    H215283   2.530   0.550   3.372
 5093TIP3   OH215284   0.201   3.416   4.196
 5093TIP3    H115285   0.110   3.401   4.220
 5093TIP3    H215286   0.206   3.509   4.177
 5094TIP3   OH215287   4.510   2.639   3.168
 5094TIP3    H115288   4.588   2.607   3.213
 5094TIP3    H215289   4.437   2.591   3.209
 5095TIP3   OH215290   2.273   3.211   4.399
 5095TIP3    H115291   2.239   3.241   4.315
 5095TIP3    H215292   2.367   3.206   4.388
 5096TIP3   OH215293   2.492   2.336   2.799
 5096TIP3    H115294   2.537   2.374   2.874
 5096TIP3    H215295   2.562   2.302   2.743
 5097TIP3   OH215296   2.877   5.259   4.558
 5097TIP3    H115297   2.881   5.293   4.468
 5097TIP3    H215298   2.833   5.174   4.550
 5098TIP3   OH215299   4.082   2.638   1.528
 5098TIP3    H115300   4.006   2.584   1.549
 5098TIP3    H215301   4.141   2.580   1.482
 5099TIP3   OH215302   2.057   5.405   1.333
 5099TIP3    H115303   2.137   5.459   1.332
 5099TIP3    H215304   1.986   5.468   1.343
 5100TIP3   OH215305   0.930   5.760   3.533
 5100TIP3    H115306   0.881   5.805   3.464
 5100TIP3    H215307   0.870   5.758   3.608
 5101TIP3   OH215308   0.352   4.063   0.747
 5101TIP3    H115309   0.387   4.092   0.831
 5101TIP3    H215310   0.429   4.045   0.694
 5102TIP3   OH215311   2.540   4.612   0.621
 5102TIP3    H115312   2.586   4.607   0.537
 5102TIP3    H215313   2.479   4.685   0.610
 5103TIP3   OH215314   0.412   2.356   0.744
 5103TIP3    H115315   0.426   2.343   0.650
 5103TIP3    H215316   0.385   2.447   0.752
 5104TIP3   OH215317   3.659   2.550   1.643
 5104TIP3    H115318   3.658   2.525   1.736
 5104TIP3    H215319   3.582   2.606   1.633
 5105TIP3   OH215320   2.152   1.958   2.076
 5105TIP3    H115321   2.145   1.864   2.090
 5105TIP3    H215322   2.224   1.968   2.014
 5106TIP3   OH215323   4.029   0.089   3.681
 5106TIP3    H115324   4.031   0.141   3.601
 5106TIP3    H215325   4.097   0.127   3.736
 5107TIP3   OH215326   4.683   3.685   0.155
 5107TIP3    H115327   4.731   3.756   0.113
 5107TIP3    H215328   4.730   3.606   0.130
 5108TIP3   OH215329   5.268   0.681   3.089
 5108TIP3    H115330   5.259   0.769   3.052
 5108TIP3    H215331   5.354   0.652   3.060
 5109TIP3   OH215332   4.664   5.279   2.037
 5109TIP3    H115333   4.639   5.335   2.111
 5109TIP3    H215334   4.601   5.300   1.969
 5110TIP3   OH215335   1.213   1.039   2.300
 5110TIP3    H115336   1.298   1.048   2.344
 5110TIP3    H215337   1.155   1.097   2.349
 5111TIP3   OH215338   2.019   3.459   0.053
 5111TIP3    H115339   1.937   3.505   0.034
 5111TIP3    H215340   2.087   3.516   0.017
 5112TIP3   OH215341   0.457   4.413   3.791
 5112TIP3    H115342   0.531   4.366   3.752
 5112TIP3    H215343   0.468   4.503   3.762
 5113TIP3   OH215344   0.073   2.924   0.682
 5113TIP3    H115345  -0.020   2.904   0.669
 5113TIP3    H215346   0.089   3.002   0.629
 5114TIP3   OH215347   3.557   2.279   0.387
 5114TIP3    H115348   3.496   2.352   0.402
 5114TIP3    H215349   3.564   2.273   0.292
 5115TIP3   OH215350   2.709   3.211   4.172
 5115TIP3    H115351   2.674   3.135   4.126
 5115TIP3    H215352   2.803   3.205   4.162
 5116TIP3   OH215353   2.878   2.759   4.734
 5116TIP3    H115354   2.803   2.747   4.676
 5116TIP3    H215355   2.863   2.845   4.776
 5117TIP3   OH215356   4.174   5.608   2.833
 5117TIP3    H115357   4.205   5.567   2.913
 5117TIP3    H215358   4.093   5.560   2.811
 5118TIP3   OH215359   1.258   2.641   1.338
 5118TIP3    H115360   1.310   2.563   1.361
 5118TIP3    H215361   1.302   2.713   1.382
 5119TIP3   OH215362   1.258   5.932   1.496
 5119TIP3    H115363   1.290   5.975   1.416
 5119TIP3    H215364   1.309   5.971   1.566
 5120TIP3   OH215365   1.580   4.428   0.281
 5120TIP3    H115366   1.590   4.334   0.265
 5120TIP3    H215367   1.663   4.454   0.323
 5121TIP3   OH215368   0.532   4.322   1.349
 5121TIP3    H115369   0.589   4.398   1.337
 5121TIP3    H215370   0.471   4.326   1.276
 5122TIP3   OH215371   4.144   2.226   3.242
 5122TIP3    H115372   4.183   2.140   3.258
 5122TIP3    H215373   4.118   2.258   3.328
 5123TIP3   OH215374   3.606   4.809   1.437
 5123TIP3    H115375   3.566   4.779   1.518
 5123TIP3    H215376   3.682   4.753   1.425
 5124TIP3   OH215377   3.665   0.685   0.502
 5124TIP3    H115378   3.719   0.611   0.473
 5124TIP3    H215379   3.591   0.645   0.548
 5125TIP3   OH215380   4.143   1.915   0.328
 5125TIP3    H115381   4.082   1.986   0.348
 5125TIP3    H215382   4.222   1.960   0.298
 5126TIP3   OH215383   2.002   3.047   2.543
 5126TIP3    H115384   1.991   2.953   2.555
 5126TIP3    H215385   2.090   3.057   2.507
 5127TIP3   OH215386   5.448   3.698   4.447
 5127TIP3    H115387   5.465   3.607   4.469
 5127TIP3    H215388   5.495   3.713   4.365
 5128TIP3   OH215389   2.371   0.936   3.846
 5128TIP3    H115390   2.392   0.932   3.753
 5128TIP3    H215391   2.457   0.934   3.890
 5129TIP3   OH215392   1.231   2.316   3.104
 5129TIP3    H115393   1.179   2.355   3.174
 5129TIP3    H215394   1.315   2.297   3.145
 5130TIP3   OH215395   0.119   2.381   2.070
 5130TIP3    H115396   0.053   2.312   2.079
 5130TIP3    H215397   0.091   2.430   1.992
 5131TIP3   OH215398   1.705   4.568   0.876
 5131TIP3    H115399   1.744   4.481   0.887
 5131TIP3    H215400   1.734   4.617   0.952
 5132TIP3   OH215401   0.480   0.139   0.033
 5132TIP3    H115402   0.440   0.176  -0.046
 5132TIP3    H215403   0.442   0.051   0.040
 5133TIP3   OH215404   0.792   3.673   1.310
 5133TIP3    H115405   0.833   3.649   1.227
 5133TIP3    H215406   0.815   3.602   1.369
 5134TIP3   OH215407   5.544   4.920   1.660
 5134TIP3    H115408   5.460   4.898   1.621
 5134TIP3    H215409   5.600   4.844   1.644
 5135TIP3   OH215410   4.685   3.200   2.900
 5135TIP3    H115411   4.617   3.137   2.923
 5135TIP3    H215412   4.639   3.270   2.855
 5136TIP3   OH215413   4.065   3.540   0.860
 5136TIP3    H115414   4.029   3.502   0.780
 5136TIP3    H215415   4.088   3.630   0.837
 5137TIP3   OH215416   0.230   5.359   5.144
 5137TIP3    H115417   0.281   5.291   5.189
 5137TIP3    H215418   0.158   5.378   5.203
 5138TIP3   OH215419   2.993   0.257   3.684
 5138TIP3    H115420   2.928   0.219   3.625
 5138TIP3    H215421   3.024   0.183   3.737
 5139TIP3   OH215422   0.334   1.356   4.412
 5139TIP3    H115423   0.405   1.304   4.374
 5139TIP3    H215424   0.288   1.394   4.337
 5140TIP3   OH215425   4.181   0.621   1.155
 5140TIP3    H115426   4.089   0.632   1.130
 5140TIP3    H215427   4.226   0.696   1.115
 5141TIP3   OH215428   5.484   5.883   4.408
 5141TIP3    H115429   5.429   5.958   4.386
 5141TIP3    H215430   5.573   5.912   4.388
 5142TIP3   OH215431   3.955   1.208   1.732
 5142TIP3    H115432   3.969   1.154   1.810
 5142TIP3    H215433   3.891   1.273   1.759
 5143TIP3   OH215434   0.853   1.393   3.305
 5143TIP3    H115435   0.781   1.352   3.257
 5143TIP3    H215436   0.901   1.443   3.240
 5144TIP3   OH215437   1.113   4.977   0.724
 5144TIP3    H115438   1.089   5.058   0.770
 5144TIP3    H215439   1.191   5.000   0.674
 5145TIP3   OH215440   0.232   0.056   3.119
 5145TIP3    H115441   0.285   0.004   3.179
 5145TIP3    H215442   0.267   0.145   3.127
 5146TIP3   OH215443   0.180   1.428   0.661
 5146TIP3    H115444   0.089   1.403   0.650
 5146TIP3    H215445   0.222   1.405   0.578
 5147TIP3   OH215446   4.016   1.377   4.523
 5147TIP3    H115447   4.021   1.380   4.427
 5147TIP3    H215448   3.956   1.304   4.541
 5148TIP3   OH215449   2.303   5.760   3.394
 5148TIP3    H115450   2.399   5.758   3.387
 5148TIP3    H215451   2.273   5.780   3.306
 5149TIP3   OH215452   5.977   4.057   3.374
 5149TIP3    H115453   5.954   3.964   3.385
 5149TIP3    H215454   6.043   4.057   3.305
 5150TIP3   OH215455   5.203   2.905   1.408
 5150TIP3    H115456   5.109   2.902   1.390
 5150TIP3    H215457   5.244   2.928   1.325
 5151TIP3   OH215458   4.460   4.885   5.150
 5151TIP3    H115459   4.405   4.857   5.224
 5151TIP3    H215460   4.403   4.939   5.096
 5152TIP3   OH215461   1.680   0.700   3.192
 5152TIP3    H115462   1.691   0.723   3.284
 5152TIP3    H215463   1.718   0.774   3.144
 5153TIP3   OH215464   5.416   3.153   1.321
 5153TIP3    H115465   5.393   3.082   1.260
 5153TIP3    H215466   5.500   3.185   1.289
 5154TIP3   OH215467   2.934   1.454   0.901
 5154TIP3    H115468   2.964   1.526   0.955
 5154TIP3    H215469   2.994   1.382   0.922
 5155TIP3   OH215470   4.853   4.903   3.719
 5155TIP3    H115471   4.851   4.834   3.653
 5155TIP3    H215472   4.915   4.968   3.684
 5156TIP3   OH215473   1.923   3.244   0.995
 5156TIP3    H115474   1.830   3.230   1.010
 5156TIP3    H215475   1.926   3.307   0.922
 5157TIP3   OH215476   0.924   2.264   0.373
 5157TIP3    H115477   0.838   2.305   0.385
 5157TIP3    H215478   0.923   2.230   0.284
 5158TIP3   OH215479   4.864   0.570   0.156
 5158TIP3    H115480   4.773   0.581   0.184
 5158TIP3    H215481   4.861   0.494   0.098
 5159TIP3   OH215482   1.603   0.427   3.091
 5159TIP3    H115483   1.536   0.483   3.130
 5159TIP3    H215484   1.686   0.472   3.111
 5160TIP3   OH215485   5.174   4.132   4.011
 5160TIP3    H115486   5.201   4.193   4.079
 5160TIP3    H215487   5.079   4.130   4.016
 5161TIP3   OH215488   6.094   0.204   4.263
 5161TIP3    H115489   6.040   0.152   4.322
 5161TIP3    H215490   6.135   0.140   4.205
 5162TIP3   OH215491   6.285   0.818   3.213
 5162TIP3    H115492   6.229   0.856   3.145
 5162TIP3    H215493   6.324   0.893   3.257
 5163TIP3   OH215494   4.063   4.674   4.284
 5163TIP3    H115495   4.148   4.664   4.241
 5163TIP3    H215496   4.052   4.768   4.295
 5164TIP3   OH215497   0.383   4.787   3.280
 5164TIP3    H115498   0.435   4.770   3.201
 5164TIP3    H215499   0.446   4.821   3.344
 5165TIP3   OH215500   3.385   5.588   4.865
 5165TIP3    H115501   3.408   5.512   4.918
 5165TIP3    H215502   3.403   5.561   4.775
 5166TIP3   OH215503   1.822   0.928   0.045
 5166TIP3    H115504   1.750   0.955  -0.012
 5166TIP3    H215505   1.884   0.885  -0.014
 5167TIP3   OH215506   5.463   0.214   5.125
 5167TIP3    H115507   5.373   0.230   5.095
 5167TIP3    H215508   5.517   0.247   5.054
 5168TIP3   OH215509   0.515   3.172   2.926
 5168TIP3    H115510   0.455   3.217   2.866
 5168TIP3    H215511   0.475   3.183   3.012
 5169TIP3   OH215512   4.419   4.071   4.806
 5169TIP3    H115513   4.496   4.073   4.862
 5169TIP3    H215514   4.349   4.109   4.859
 5170TIP3   OH215515   6.284   3.354   4.236
 5170TIP3    H115516   6.265   3.260   4.234
 5170TIP3    H215517   6.236   3.386   4.312
 5171TIP3   OH215518   1.832   1.865   2.876
 5171TIP3    H115519   1.815   1.959   2.882
 5171TIP3    H215520   1.752   1.824   2.907
 5172TIP3   OH215521   2.975   3.111   4.313
 5172TIP3    H115522   2.998   3.034   4.261
 5172TIP3    H215523   2.912   3.078   4.377
 5173TIP3   OH215524   4.166   2.106   1.480
 5173TIP3    H115525   4.071   2.104   1.496
 5173TIP3    H215526   4.190   2.015   1.468
 5174TIP3   OH215527   1.364   1.098   4.413
 5174TIP3    H115528   1.273   1.069   4.407
 5174TIP3    H215529   1.415   1.017   4.410
 5175TIP3   OH215530   3.423   4.692   0.757
 5175TIP3    H115531   3.448   4.720   0.845
 5175TIP3    H215532   3.371   4.764   0.722
 5176TIP3   OH215533   1.014   5.460   2.349
 5176TIP3    H115534   1.047   5.539   2.307
 5176TIP3    H215535   1.030   5.390   2.286
 5177TIP3   OH215536   0.225   0.335   3.206
 5177TIP3    H115537   0.245   0.428   3.202
 5177TIP3    H215538   0.151   0.329   3.267
 5178TIP3   OH215539   3.724   1.445   2.549
 5178TIP3    H115540   3.799   1.503   2.563
 5178TIP3    H215541   3.750   1.362   2.587
 5179TIP3   OH215542   0.548   0.395   1.728
 5179TIP3    H115543   0.629   0.429   1.767
 5179TIP3    H215544   0.574   0.312   1.689
 5180TIP3   OH215545   3.925   4.188   2.950
 5180TIP3    H115546   3.958   4.235   3.026
 5180TIP3    H215547   3.884   4.110   2.986
 5181TIP3   OH215548   5.488   2.367   4.824
 5181TIP3    H115549   5.541   2.301   4.869
 5181TIP3    H215550   5.401   2.326   4.817
 5182TIP3   OH215551   2.664   4.144   4.155
 5182TIP3    H115552   2.756   4.163   4.173
 5182TIP3    H215553   2.664   4.099   4.071
 5183TIP3   OH215554   2.881   4.398   3.967
 5183TIP3    H115555   2.967   4.429   3.937
 5183TIP3    H215556   2.901   4.332   4.033
 5184TIP3   OH215557   4.516   1.381   4.916
 5184TIP3    H115558   4.512   1.332   4.834
 5184TIP3    H215559   4.473   1.465   4.896
 5185TIP3   OH215560   3.727   2.595   2.243
 5185TIP3    H115561   3.819   2.608   2.222
 5185TIP3    H215562   3.700   2.676   2.286
 5186TIP3   OH215563   2.445   0.041   3.541
 5186TIP3    H115564   2.368   0.024   3.596
 5186TIP3    H215565   2.434  -0.017   3.466
 5187TIP3   OH215566   6.043   2.417   2.909
 5187TIP3    H115567   6.051   2.330   2.869
 5187TIP3    H215568   6.049   2.477   2.835
 5188TIP3   OH215569   1.297   0.058   4.072
 5188TIP3    H115570   1.372   0.046   4.013
 5188TIP3    H215571   1.336   0.057   4.160
 5189TIP3   OH215572   5.462   4.807   3.957
 5189TIP3    H115573   5.484   4.764   3.874
 5189TIP3    H215574   5.467   4.737   4.022
 5190TIP3   OH215575   3.942   2.954   4.735
 5190TIP3    H115576   3.992   3.022   4.689
 5190TIP3    H215577   3.896   3.001   4.805
 5191TIP3   OH215578   4.386   5.965   3.518
 5191TIP3    H115579   4.326   5.991   3.589
 5191TIP3    H215580   4.403   5.872   3.534
 5192TIP3   OH215581   5.971   5.630   3.953
 5192TIP3    H115582   5.948   5.563   3.888
 5192TIP3    H215583   6.066   5.637   3.946
 5193TIP3   OH215584   4.264   4.844   3.485
 5193TIP3    H115585   4.349   4.811   3.514
 5193TIP3    H215586   4.282   4.884   3.400
 5194TIP3   OH215587   3.050   3.891   3.890
 5194TIP3    H115588   2.991   3.959   3.858
 5194TIP3    H215589   3.131   3.905   3.842
 5195TIP3   OH215590   4.260   0.100   4.402
 5195TIP3    H115591   4.251   0.009   4.373
 5195TIP3    H215592   4.201   0.107   4.477
 5196TIP3   OH215593   4.436   4.191   2.460
 5196TIP3    H115594   4.485   4.110   2.474
 5196TIP3    H215595   4.457   4.217   2.371
 5197TIP3   OH215596   1.170   3.917   4.798
 5197TIP3    H115597   1.161   3.945   4.707
 5197TIP3    H215598   1.136   3.989   4.849
 5198TIP3   OH215599   5.909   3.790   3.291
 5198TIP3    H115600   5.839   3.813   3.352
 5198TIP3    H215601   5.864   3.757   3.214
 5199TIP3   OH215602   3.604   3.305   4.931
 5199TIP3    H115603   3.573   3.393   4.952
 5199TIP3    H215604   3.527   3.249   4.944
 5200TIP3   OH215605   1.761   1.442   1.476
 5200TIP3    H115606   1.816   1.433   1.554
 5200TIP3    H215607   1.821   1.471   1.407
 5201TIP3   OH215608   2.875   3.855   3.387
 5201TIP3    H115609   2.955   3.904   3.405
 5201TIP3    H215610   2.819   3.872   3.463
 5202TIP3   OH215611   2.982   5.832   2.369
 5202TIP3    H115612   2.888   5.841   2.384
 5202TIP3    H215613   2.988   5.789   2.283
 5203TIP3   OH215614   0.519   3.053   0.891
 5203TIP3    H115615   0.594   2.994   0.888
 5203TIP3    H215616   0.444   2.999   0.868
 5204TIP3   OH215617   4.070   5.939   4.883
 5204TIP3    H115618   4.031   5.896   4.807
 5204TIP3    H215619   4.117   6.014   4.846
 5205TIP3   OH215620   5.425   1.347   0.556
 5205TIP3    H115621   5.388   1.434   0.546
 5205TIP3    H215622   5.398   1.300   0.478
 5206TIP3   OH215623   3.874   1.619   2.331
 5206TIP3    H115624   3.804   1.657   2.278
 5206TIP3    H215625   3.854   1.647   2.420
 5207TIP3   OH215626   2.599   2.974   4.090
 5207TIP3    H115627   2.524   2.960   4.148
 5207TIP3    H215628   2.659   2.902   4.111
 5208TIP3   OH215629   5.898   0.702   2.625
 5208TIP3    H115630   5.923   0.779   2.675
 5208TIP3    H215631   5.912   0.726   2.533
 5209TIP3   OH215632   0.408   5.116   1.038
 5209TIP3    H115633   0.370   5.203   1.025
 5209TIP3    H215634   0.436   5.088   0.951
 5210TIP3   OH215635   5.954   4.495   4.100
 5210TIP3    H115636   5.923   4.410   4.130
 5210TIP3    H215637   6.046   4.498   4.127
 5211TIP3   OH215638   2.346   4.069   4.778
 5211TIP3    H115639   2.295   4.040   4.854
 5211TIP3    H215640   2.295   4.142   4.741
 5212TIP3   OH215641   3.159   3.434   1.877
 5212TIP3    H115642   3.073   3.466   1.902
 5212TIP3    H215643   3.144   3.381   1.799
 5213TIP3   OH215644   0.978   3.285   0.240
 5213TIP3    H115645   0.948   3.194   0.245
 5213TIP3    H215646   1.047   3.284   0.174
 5214TIP3   OH215647   3.138   3.688   1.711
 5214TIP3    H115648   3.136   3.626   1.784
 5214TIP3    H215649   3.188   3.644   1.643
 5215TIP3   OH215650   2.739   0.931   1.798
 5215TIP3    H115651   2.760   0.857   1.854
 5215TIP3    H215652   2.725   1.004   1.858
 5216TIP3   OH215653   3.961   0.661   4.128
 5216TIP3    H115654   3.904   0.642   4.202
 5216TIP3    H215655   3.936   0.749   4.100
 5217TIP3   OH215656   1.159   3.724   1.102
 5217TIP3    H115657   1.144   3.643   1.150
 5217TIP3    H215658   1.189   3.786   1.169
 5218TIP3   OH215659   3.620   5.743   1.982
 5218TIP3    H115660   3.627   5.837   1.970
 5218TIP3    H215661   3.555   5.732   2.051
 5219TIP3   OH215662   3.061   4.430   3.387
 5219TIP3    H115663   3.032   4.373   3.459
 5219TIP3    H215664   3.015   4.397   3.310
 5220TIP3   OH215665   1.258   4.631   3.312
 5220TIP3    H115666   1.324   4.642   3.380
 5220TIP3    H215667   1.241   4.719   3.279
 5221TIP3   OH215668   1.740   0.375   1.980
 5221TIP3    H115669   1.740   0.395   1.887
 5221TIP3    H215670   1.648   0.366   2.003
 5222TIP3   OH215671   3.820   2.379   0.008
 5222TIP3    H115672   3.840   2.453  -0.049
 5222TIP3    H215673   3.758   2.414   0.072
 5223TIP3   OH215674   0.261   3.543   5.147
 5223TIP3    H115675   0.313   3.599   5.204
 5223TIP3    H215676   0.307   3.459   5.148
 5224TIP3   OH215677   3.168   4.624   0.097
 5224TIP3    H115678   3.198   4.533   0.102
 5224TIP3    H215679   3.141   4.635   0.006
 5225TIP3   OH215680   3.681   0.899   0.312
 5225TIP3    H115681   3.732   0.965   0.358
 5225TIP3    H215682   3.662   0.832   0.378
 5226TIP3   OH215683   5.674   2.501   4.233
 5226TIP3    H115684   5.735   2.572   4.216
 5226TIP3    H215685   5.616   2.500   4.157
 5227TIP3   OH215686   3.083   4.532   4.960
 5227TIP3    H115687   3.122   4.583   5.031
 5227TIP3    H215688   3.009   4.585   4.931
 5228TIP3   OH215689   3.062   2.891   1.297
 5228TIP3    H115690   3.038   2.983   1.285
 5228TIP3    H215691   2.979   2.847   1.318
 5229TIP3   OH215692   4.858   3.902   0.660
 5229TIP3    H115693   4.807   3.828   0.625
 5229TIP3    H215694   4.798   3.944   0.722
 5230TIP3   OH215695   3.963   3.241   4.323
 5230TIP3    H115696   3.961   3.315   4.383
 5230TIP3    H215697   3.913   3.173   4.367
 5231TIP3   OH215698   1.093   0.591   0.975
 5231TIP3    H115699   1.037   0.649   1.026
 5231TIP3    H215700   1.136   0.649   0.912
 5232TIP3   OH215701   5.824   5.133   5.116
 5232TIP3    H115702   5.895   5.196   5.130
 5232TIP3    H215703   5.848   5.058   5.172
 5233TIP3   OH215704   0.126   1.757   3.810
 5233TIP3    H115705   0.044   1.713   3.786
 5233TIP3    H215706   0.101   1.819   3.879
 5234TIP3   OH215707   1.794   2.420   4.242
 5234TIP3    H115708   1.834   2.477   4.177
 5234TIP3    H215709   1.865   2.396   4.301
 5235TIP3   OH215710   3.076   3.029   5.038
 5235TIP3    H115711   3.134   3.028   5.114
 5235TIP3    H215712   3.021   3.105   5.051
 5236TIP3   OH215713   0.621   0.291   3.974
 5236TIP3    H115714   0.597   0.381   3.992
 5236TIP3    H215715   0.538   0.246   3.958
 5237TIP3   OH215716   4.063   4.816   3.219
 5237TIP3    H115717   3.993   4.831   3.156
 5237TIP3    H215718   4.123   4.756   3.175
 5238TIP3   OH215719   3.746   0.910   1.686
 5238TIP3    H115720   3.697   0.913   1.604
 5238TIP3    H215721   3.832   0.876   1.662
 5239TIP3   OH215722   2.013   4.947   0.655
 5239TIP3    H115723   1.935   4.912   0.699
 5239TIP3    H215724   2.067   4.983   0.726
 5240TIP3   OH215725   0.925   5.510   0.888
 5240TIP3    H115726   1.020   5.510   0.902
 5240TIP3    H215727   0.905   5.600   0.863
 5241TIP3   OH215728   0.817   3.456   2.208
 5241TIP3    H115729   0.770   3.373   2.205
 5241TIP3    H215730   0.842   3.473   2.117
 5242TIP3   OH215731   0.975   4.767   4.965
 5242TIP3    H115732   1.019   4.838   4.920
 5242TIP3    H215733   0.998   4.689   4.915
 5243TIP3   OH215734   2.955   3.798   3.115
 5243TIP3    H115735   3.007   3.725   3.150
 5243TIP3    H215736   2.896   3.821   3.186
 5244TIP3   OH215737   5.628   3.760   1.963
 5244TIP3    H115738   5.589   3.778   1.877
 5244TIP3    H215739   5.719   3.736   1.943
 5245TIP3   OH215740   2.424   1.087   1.756
 5245TIP3    H115741   2.423   1.117   1.847
 5245TIP3    H215742   2.468   1.157   1.708
 5246TIP3   OH215743   0.568   4.102   4.672
 5246TIP3    H115744   0.556   4.144   4.757
 5246TIP3    H215745   0.549   4.170   4.608
 5247TIP3   OH215746   0.320   3.795   3.467
 5247TIP3    H115747   0.381   3.803   3.393
 5247TIP3    H215748   0.377   3.780   3.542
 5248TIP3   OH215749   1.293   4.586   5.026
 5248TIP3    H115750   1.215   4.581   4.971
 5248TIP3    H215751   1.315   4.495   5.045
 5249TIP3   OH215752   0.739   1.542   0.869
 5249TIP3    H115753   0.722   1.635   0.880
 5249TIP3    H215754   0.655   1.506   0.839
 5250TIP3   OH215755   4.816   4.665   3.590
 5250TIP3    H115756   4.757   4.617   3.531
 5250TIP3    H215757   4.903   4.634   3.566
 5251TIP3   OH215758   2.073   0.225   3.006
 5251TIP3    H115759   2.029   0.166   3.068
 5251TIP3    H215760   2.044   0.194   2.920
 5252TIP3   OH215761   6.042   2.324   1.917
 5252TIP3    H115762   5.991   2.334   1.837
 5252TIP3    H215763   6.097   2.401   1.920
 5253TIP3   OH215764   3.887   2.297   2.914
 5253TIP3    H115765   3.958   2.353   2.883
 5253TIP3    H215766   3.810   2.354   2.916
 5254TIP3   OH215767   6.218   5.794   4.470
 5254TIP3    H115768   6.271   5.727   4.427
 5254TIP3    H215769   6.239   5.784   4.563
 5255TIP3   OH215770   0.830   1.128   4.791
 5255TIP3    H115771   0.915   1.119   4.835
 5255TIP3    H215772   0.853   1.152   4.701
 5256TIP3   OH215773   5.947   0.696   0.016
 5256TIP3    H115774   5.876   0.711  -0.047
 5256TIP3    H215775   5.910   0.633   0.078
 5257TIP3   OH215776   5.057   1.927   4.234
 5257TIP3    H115777   5.047   1.928   4.329
 5257TIP3    H215778   5.135   1.873   4.219
 5258TIP3   OH215779   1.170   3.531   2.296
 5258TIP3    H115780   1.089   3.484   2.316
 5258TIP3    H215781   1.160   3.560   2.205
 5259TIP3   OH215782   3.835   5.584   1.933
 5259TIP3    H115783   3.903   5.648   1.952
 5259TIP3    H215784   3.752   5.632   1.945
 5260TIP3   OH215785   5.718   5.748   3.276
 5260TIP3    H115786   5.813   5.754   3.275
 5260TIP3    H215787   5.693   5.745   3.183
 5261TIP3   OH215788   3.654   5.977   3.246
 5261TIP3    H115789   3.560   5.960   3.252
 5261TIP3    H215790   3.694   5.890   3.246
 5262TIP3   OH215791   4.749   3.718   4.433
 5262TIP3    H115792   4.670   3.734   4.381
 5262TIP3    H215793   4.816   3.697   4.369
 5263TIP3   OH215794   3.403   0.148   1.233
 5263TIP3    H115795   3.311   0.170   1.215
 5263TIP3    H215796   3.450   0.175   1.154
 5264TIP3   OH215797   1.520   4.209   5.028
 5264TIP3    H115798   1.517   4.140   4.962
 5264TIP3    H215799   1.566   4.170   5.102
 5265TIP3   OH215800   0.167   0.197   0.776
 5265TIP3    H115801   0.208   0.111   0.787
 5265TIP3    H215802   0.119   0.190   0.694
 5266TIP3   OH215803   0.633   3.992   1.623
 5266TIP3    H115804   0.628   4.087   1.616
 5266TIP3    H215805   0.722   3.970   1.595
 5267TIP3   OH215806   2.307   2.497   3.118
 5267TIP3    H115807   2.296   2.563   3.186
 5267TIP3    H215808   2.298   2.546   3.036
 5268TIP3   OH215809   1.925   0.400   2.573
 5268TIP3    H115810   2.019   0.394   2.589
 5268TIP3    H215811   1.905   0.325   2.516
 5269TIP3   OH215812   4.726   2.808   5.084
 5269TIP3    H115813   4.804   2.825   5.136
 5269TIP3    H215814   4.728   2.874   5.015
 5270TIP3   OH215815   0.654   4.849   1.009
 5270TIP3    H115816   0.630   4.922   0.952
 5270TIP3    H215817   0.750   4.846   1.006
 5271TIP3   OH215818   1.154   4.262   4.418
 5271TIP3    H115819   1.068   4.224   4.439
 5271TIP3    H215820   1.134   4.332   4.356
 5272TIP3   OH215821   4.171   2.858   1.154
 5272TIP3    H115822   4.223   2.833   1.231
 5272TIP3    H215823   4.171   2.779   1.100
 5273TIP3   OH215824   6.142   0.958   2.156
 5273TIP3    H115825   6.156   0.920   2.243
 5273TIP3    H215826   6.221   0.936   2.107
 5274TIP3   OH215827   2.789   5.386   1.660
 5274TIP3    H115828   2.764   5.383   1.568
 5274TIP3    H215829   2.823   5.475   1.672
 5275TIP3   OH215830   2.108   2.752   0.575
 5275TIP3    H115831   2.157   2.721   0.498
 5275TIP3    H215832   2.045   2.683   0.592
 5276TIP3   OH215833   3.211   2.852   3.741
 5276TIP3    H115834   3.144   2.819   3.681
 5276TIP3    H215835   3.216   2.786   3.810
 5277TIP3   OH215836   1.616   3.268   3.340
 5277TIP3    H115837   1.590   3.192   3.288
 5277TIP3    H215838   1.707   3.251   3.364
 5278TIP3   OH215839   1.593   4.459   3.866
 5278TIP3    H115840   1.525   4.405   3.906
 5278TIP3    H215841   1.596   4.430   3.775
 5279TIP3   OH215842   1.054   4.197   0.671
 5279TIP3    H115843   1.020   4.123   0.721
 5279TIP3    H215844   1.122   4.234   0.727
 5280TIP3   OH215845   0.237   4.185   1.813
 5280TIP3    H115846   0.157   4.191   1.762
 5280TIP3    H215847   0.307   4.190   1.748
 5281TIP3   OH215848   6.341   5.702   1.169
 5281TIP3    H115849   6.260   5.658   1.143
 5281TIP3    H215850   6.339   5.785   1.120
 5282TIP3   OH215851   5.751   1.937   4.313
 5282TIP3    H115852   5.742   1.889   4.395
 5282TIP3    H215853   5.724   2.027   4.334
 5283TIP3   OH215854   3.977   3.870   1.238
 5283TIP3    H115855   3.994   3.789   1.189
 5283TIP3    H215856   3.892   3.900   1.208
 5284TIP3   OH215857   2.379   1.837   4.185
 5284TIP3    H115858   2.466   1.838   4.147
 5284TIP3    H215859   2.341   1.754   4.156
 5285TIP3   OH215860   1.147   3.655   2.690
 5285TIP3    H115861   1.115   3.723   2.631
 5285TIP3    H215862   1.242   3.666   2.690
 5286TIP3   OH215863   3.759   3.967   2.205
 5286TIP3    H115864   3.753   3.951   2.110
 5286TIP3    H215865   3.774   4.061   2.212
 5287TIP3   OH215866   4.968   5.267   2.087
 5287TIP3    H115867   5.030   5.307   2.026
 5287TIP3    H215868   4.884   5.308   2.067
 5288TIP3   OH215869   2.967   4.881   5.071
 5288TIP3    H115870   2.985   4.835   4.990
 5288TIP3    H215871   2.917   4.818   5.124
 5289TIP3   OH215872   6.297   5.890   1.409
 5289TIP3    H115873   6.272   5.799   1.393
 5289TIP3    H215874   6.340   5.917   1.328
 5290TIP3   OH215875   2.282   5.108   2.515
 5290TIP3    H115876   2.290   5.057   2.597
 5290TIP3    H215877   2.247   5.045   2.452
 5291TIP3   OH215878   0.866   0.446   2.598
 5291TIP3    H115879   0.829   0.534   2.606
 5291TIP3    H215880   0.791   0.390   2.578
 5292TIP3   OH215881   5.205   0.683   4.129
 5292TIP3    H115882   5.209   0.736   4.208
 5292TIP3    H215883   5.190   0.746   4.058
 5293TIP3   OH215884   2.437   0.350   4.093
 5293TIP3    H115885   2.412   0.439   4.070
 5293TIP3    H215886   2.524   0.338   4.054
 5294TIP3   OH215887   5.822   4.631   4.615
 5294TIP3    H115888   5.742   4.579   4.600
 5294TIP3    H215889   5.807   4.712   4.566
 5295TIP3   OH215890   2.998   5.344   0.662
 5295TIP3    H115891   2.978   5.382   0.748
 5295TIP3    H215892   2.912   5.317   0.628
 5296TIP3   OH215893   0.904   5.319   4.465
 5296TIP3    H115894   0.827   5.271   4.435
 5296TIP3    H215895   0.952   5.339   4.385
 5297TIP3   OH215896   4.277   2.182   4.271
 5297TIP3    H115897   4.213   2.222   4.330
 5297TIP3    H215898   4.226   2.119   4.220
 5298TIP3   OH215899   0.791   5.143   1.394
 5298TIP3    H115900   0.857   5.195   1.348
 5298TIP3    H215901   0.841   5.084   1.450
 5299TIP3   OH215902   5.640   5.359   5.152
 5299TIP3    H115903   5.661   5.452   5.163
 5299TIP3    H215904   5.723   5.318   5.131
 5300TIP3   OH215905   0.277   4.573   5.021
 5300TIP3    H115906   0.319   4.650   4.983
 5300TIP3    H215907   0.214   4.608   5.083
 5301TIP3   OH215908   6.007   5.758   3.308
 5301TIP3    H115909   6.053   5.829   3.354
 5301TIP3    H215910   5.991   5.692   3.375
 5302TIP3   OH215911   2.385   2.616   2.350
 5302TIP3    H115912   2.445   2.687   2.328
 5302TIP3    H215913   2.441   2.542   2.372
 5303TIP3   OH215914   1.714   3.730   0.582
 5303TIP3    H115915   1.669   3.748   0.665
 5303TIP3    H215916   1.804   3.756   0.598
 5304TIP3   OH215917   0.490   5.669   2.648
 5304TIP3    H115918   0.561   5.734   2.642
 5304TIP3    H215919   0.519   5.597   2.592
 5305TIP3   OH215920   2.645   1.698   5.013
 5305TIP3    H115921   2.693   1.772   5.050
 5305TIP3    H215922   2.593   1.665   5.086
 5306TIP3   OH215923   2.589   2.445   3.059
 5306TIP3    H115924   2.500   2.465   3.086
 5306TIP3    H215925   2.622   2.385   3.126
 5307TIP3   OH215926   6.032   3.898   1.095
 5307TIP3    H115927   6.085   3.939   1.162
 5307TIP3    H215928   6.090   3.888   1.020
 5308TIP3   OH215929   4.735   5.401   0.492
 5308TIP3    H115930   4.652   5.375   0.534
 5308TIP3    H215931   4.718   5.489   0.458
 5309TIP3   OH215932   2.837   4.397   0.130
 5309TIP3    H115933   2.825   4.404   0.225
 5309TIP3    H215934   2.890   4.318   0.119
 5310TIP3   OH215935   4.628   3.700   4.189
 5310TIP3    H115936   4.722   3.687   4.206
 5310TIP3    H215937   4.626   3.763   4.117
 5311TIP3   OH215938   5.709   5.446   4.808
 5311TIP3    H115939   5.795   5.467   4.772
 5311TIP3    H215940   5.717   5.355   4.836
 5312TIP3   OH215941   0.541   3.766   4.211
 5312TIP3    H115942   0.526   3.841   4.268
 5312TIP3    H215943   0.504   3.691   4.258
 5313TIP3   OH215944   4.640   5.945   2.886
 5313TIP3    H115945   4.579   5.962   2.814
 5313TIP3    H215946   4.650   5.850   2.887
 5314TIP3   OH215947   3.482   4.601   4.041
 5314TIP3    H115948   3.403   4.593   4.093
 5314TIP3    H215949   3.471   4.538   3.970
 5315TIP3   OH215950   4.848   5.246   1.072
 5315TIP3    H115951   4.882   5.288   1.151
 5315TIP3    H215952   4.891   5.161   1.070
 5316TIP3   OH215953   4.740   0.143   3.961
 5316TIP3    H115954   4.750   0.238   3.953
 5316TIP3    H215955   4.786   0.121   4.042
 5317TIP3   OH215956   1.180   3.533   0.074
 5317TIP3    H115957   1.104   3.488   0.037
 5317TIP3    H215958   1.230   3.465   0.118
 5318TIP3   OH215959   1.927   1.480   1.278
 5318TIP3    H115960   1.905   1.563   1.237
 5318TIP3    H215961   1.983   1.436   1.215
 5319TIP3   OH215962   2.370   5.654   1.868
 5319TIP3    H115963   2.284   5.626   1.837
 5319TIP3    H215964   2.388   5.598   1.944
 5320TIP3   OH215965   3.938   5.204   1.195
 5320TIP3    H115966   3.983   5.134   1.241
 5320TIP3    H215967   3.861   5.224   1.249
 5321TIP3   OH215968   3.516   0.512   2.699
 5321TIP3    H115969   3.497   0.549   2.614
 5321TIP3    H215970   3.544   0.422   2.681
 5322TIP3   OH215971   3.414   3.418   1.256
 5322TIP3    H115972   3.355   3.348   1.231
 5322TIP3    H215973   3.357   3.494   1.270
 5323TIP3   OH215974   5.156   2.019   0.538
 5323TIP3    H115975   5.082   1.961   0.517
 5323TIP3    H215976   5.121   2.080   0.602
 5324TIP3   OH215977   2.434   5.851   4.646
 5324TIP3    H115978   2.381   5.783   4.605
 5324TIP3    H215979   2.504   5.803   4.690
 5325TIP3   OH215980   0.894   5.510   0.548
 5325TIP3    H115981   0.833   5.505   0.474
 5325TIP3    H215982   0.856   5.576   0.606
 5326TIP3   OH215983   5.690   0.628   4.822
 5326TIP3    H115984   5.656   0.698   4.766
 5326TIP3    H215985   5.774   0.604   4.783
 5327TIP3   OH215986   5.381   4.130   4.388
 5327TIP3    H115987   5.372   4.105   4.480
 5327TIP3    H215988   5.333   4.062   4.340
 5328TIP3   OH215989   3.865   4.374   1.449
 5328TIP3    H115990   3.898   4.321   1.377
 5328TIP3    H215991   3.941   4.423   1.479
 5329TIP3   OH215992   5.719   2.851   0.683
 5329TIP3    H115993   5.644   2.886   0.635
 5329TIP3    H215994   5.774   2.811   0.615
 5330TIP3   OH215995   2.394   2.171   3.531
 5330TIP3    H115996   2.332   2.232   3.572
 5330TIP3    H215997   2.386   2.187   3.437
 5331TIP3   OH215998   1.398   2.474   2.138
 5331TIP3    H115999   1.308   2.499   2.159
 5331TIP3    H216000   1.430   2.545   2.082
 5332TIP3   OH216001   1.512   5.595   3.896
 5332TIP3    H116002   1.596   5.627   3.863
 5332TIP3    H216003   1.511   5.501   3.875
 5333TIP3   OH216004   2.357   2.151   3.979
 5333TIP3    H116005   2.292   2.099   3.931
 5333TIP3    H216006   2.336   2.137   4.071
 5334TIP3   OH216007   2.311   0.945   4.999
 5334TIP3    H116008   2.295   0.930   4.906
 5334TIP3    H216009   2.226   0.969   5.035
 5335TIP3   OH216010   3.636   4.920   1.021
 5335TIP3    H116011   3.714   4.928   0.965
 5335TIP3    H216012   3.665   4.955   1.106
 5336TIP3   OH216013   0.167   3.199   3.743
 5336TIP3    H116014   0.258   3.229   3.733
 5336TIP3    H216015   0.136   3.246   3.820
 5337TIP3   OH216016   1.735   2.137   3.327
 5337TIP3    H116017   1.684   2.188   3.391
 5337TIP3    H216018   1.826   2.152   3.352
 5338TIP3   OH216019   1.445   2.820   1.372
 5338TIP3    H116020   1.530   2.781   1.394
 5338TIP3    H216021   1.468   2.899   1.323
 5339TIP3   OH216022   4.791   5.977   1.657
 5339TIP3    H116023   4.855   5.906   1.667
 5339TIP3    H216024   4.836   6.054   1.693
 5340TIP3   OH216025   0.168   2.118   0.392
 5340TIP3    H116026   0.193   2.173   0.318
 5340TIP3    H216027   0.146   2.033   0.353
 5341TIP3   OH216028   0.792   1.665   0.216
 5341TIP3    H116029   0.786   1.760   0.216
 5341TIP3    H216030   0.717   1.636   0.268
 5342TIP3   OH216031   5.000   4.463   3.034
 5342TIP3    H116032   4.965   4.375   3.042
 5342TIP3    H216033   5.071   4.455   2.970
 5343TIP3   OH216034   2.970   3.393   4.599
 5343TIP3    H116035   2.984   3.422   4.689
 5343TIP3    H216036   2.936   3.304   4.607
 5344TIP3   OH216037   4.933   4.582   2.650
 5344TIP3    H116038   4.854   4.571   2.703
 5344TIP3    H216039   4.985   4.647   2.696
 5345TIP3   OH216040   1.707   1.274   1.878
 5345TIP3    H116041   1.704   1.294   1.971
 5345TIP3    H216042   1.674   1.185   1.871
 5346TIP3   OH216043   2.476   3.657   2.421
 5346TIP3    H116044   2.521   3.696   2.496
 5346TIP3    H216045   2.546   3.636   2.360
 5347TIP3   OH216046   5.629   5.812   4.674
 5347TIP3    H116047   5.633   5.763   4.592
 5347TIP3    H216048   5.593   5.897   4.650
 5348TIP3   OH216049   5.978   5.083   4.225
 5348TIP3    H116050   5.950   5.151   4.287
 5348TIP3    H216051   5.979   5.003   4.277
 5349TIP3   OH216052   0.869   3.814   3.643
 5349TIP3    H116053   0.947   3.849   3.687
 5349TIP3    H216054   0.889   3.822   3.550
 5350TIP3   OH216055   4.837   4.005   4.649
 5350TIP3    H116056   4.910   3.948   4.627
 5350TIP3    H216057   4.769   3.983   4.585
 5351TIP3   OH216058   4.846   4.790   0.381
 5351TIP3    H116059   4.932   4.831   0.368
 5351TIP3    H216060   4.796   4.855   0.432
 5352TIP3   OH216061   3.621   1.384   3.639
 5352TIP3    H116062   3.531   1.416   3.642
 5352TIP3    H216063   3.624   1.328   3.561
 5353TIP3   OH216064   4.795   4.501   0.350
 5353TIP3    H116065   4.877   4.455   0.336
 5353TIP3    H216066   4.822   4.588   0.382
 5354TIP3   OH216067   3.897   4.578   4.017
 5354TIP3    H116068   3.895   4.583   4.113
 5354TIP3    H216069   3.853   4.658   3.988
 5355TIP3   OH216070   1.347   5.974   2.797
 5355TIP3    H116071   1.265   5.939   2.833
 5355TIP3    H216072   1.345   5.947   2.705
 5356TIP3   OH216073   1.281   0.191   3.035
 5356TIP3    H116074   1.307   0.222   2.948
 5356TIP3    H216075   1.187   0.176   3.028
 5357TIP3   OH216076   3.736   4.079   1.137
 5357TIP3    H116077   3.750   4.074   1.042
 5357TIP3    H216078   3.705   3.992   1.161
 5358TIP3   OH216079   4.490   3.283   3.658
 5358TIP3    H116080   4.554   3.354   3.667
 5358TIP3    H216081   4.479   3.274   3.563
 5359TIP3   OH216082   2.123   5.873   3.213
 5359TIP3    H116083   2.039   5.894   3.254
 5359TIP3    H216084   2.177   5.951   3.229
 5360TIP3   OH216085   5.587   2.324   0.990
 5360TIP3    H116086   5.545   2.389   1.046
 5360TIP3    H216087   5.646   2.276   1.049
 5361TIP3   OH216088   3.907   3.973   0.912
 5361TIP3    H116089   3.814   3.954   0.899
 5361TIP3    H216090   3.952   3.907   0.860
 5362TIP3   OH216091   0.541   4.607   1.098
 5362TIP3    H116092   0.606   4.585   1.165
 5362TIP3    H216093   0.570   4.691   1.064
 5363TIP3   OH216094   0.931   5.395   2.855
 5363TIP3    H116095   0.926   5.370   2.948
 5363TIP3    H216096   1.014   5.359   2.824
 5364TIP3   OH216097   0.243   3.749   2.819
 5364TIP3    H116098   0.227   3.718   2.730
 5364TIP3    H216099   0.303   3.685   2.857
 5365TIP3   OH216100   1.566   5.961   4.439
 5365TIP3    H116101   1.562   5.896   4.509
 5365TIP3    H216102   1.622   5.921   4.372
 5366TIP3   OH216103   3.700   1.429   2.863
 5366TIP3    H116104   3.779   1.419   2.916
 5366TIP3    H216105   3.678   1.340   2.836
 5367TIP3   OH216106   2.016   0.687   2.195
 5367TIP3    H116107   2.094   0.679   2.140
 5367TIP3    H216108   2.025   0.771   2.239
 5368TIP3   OH216109   1.156   5.217   3.286
 5368TIP3    H116110   1.207   5.287   3.245
 5368TIP3    H216111   1.088   5.196   3.222
 5369TIP3   OH216112   3.433   1.129   4.804
 5369TIP3    H116113   3.422   1.105   4.712
 5369TIP3    H216114   3.523   1.106   4.824
 5370TIP3   OH216115   3.589   0.322   2.985
 5370TIP3    H116116   3.660   0.384   2.967
 5370TIP3    H216117   3.542   0.315   2.902
 5371TIP3   OH216118   4.821   2.189   3.761
 5371TIP3    H116119   4.869   2.234   3.830
 5371TIP3    H216120   4.888   2.137   3.716
 5372TIP3   OH216121   5.786   1.297   1.121
 5372TIP3    H116122   5.876   1.279   1.148
 5372TIP3    H216123   5.735   1.287   1.201
 5373TIP3   OH216124   4.212   5.949   1.970
 5373TIP3    H116125   4.179   5.865   1.999
 5373TIP3    H216126   4.306   5.935   1.957
 5374TIP3   OH216127   1.333   5.506   0.372
 5374TIP3    H116128   1.278   5.507   0.451
 5374TIP3    H216129   1.289   5.565   0.311
 5375TIP3   OH216130   0.641   1.188   3.289
 5375TIP3    H116131   0.663   1.117   3.229
 5375TIP3    H216132   0.621   1.145   3.372
 5376TIP3   OH216133   5.401   5.170   5.043
 5376TIP3    H116134   5.376   5.206   5.128
 5376TIP3    H216135   5.440   5.245   4.996
 5377TIP3   OH216136   3.362   0.672   0.323
 5377TIP3    H116137   3.311   0.718   0.390
 5377TIP3    H216138   3.423   0.618   0.373
 5378TIP3   OH216139   2.943   4.729   4.005
 5378TIP3    H116140   2.906   4.656   3.956
 5378TIP3    H216141   2.937   4.702   4.096
 5379TIP3   OH216142   5.521   2.624   3.091
 5379TIP3    H116143   5.542   2.638   2.998
 5379TIP3    H216144   5.570   2.692   3.137
 5380TIP3   OH216145   4.764   0.591   2.534
 5380TIP3    H116146   4.829   0.535   2.576
 5380TIP3    H216147   4.715   0.532   2.478
 5381TIP3   OH216148   1.116   5.359   4.877
 5381TIP3    H116149   1.071   5.356   4.962
 5381TIP3    H216150   1.187   5.296   4.885
 5382TIP3   OH216151   0.867   2.120   2.108
 5382TIP3    H116152   0.813   2.198   2.123
 5382TIP3    H216153   0.876   2.116   2.012
 5383TIP3   OH216154   6.300   4.636   2.207
 5383TIP3    H116155   6.372   4.576   2.184
 5383TIP3    H216156   6.307   4.707   2.144
 5384TIP3   OH216157   2.004   4.344   3.534
 5384TIP3    H116158   1.977   4.348   3.442
 5384TIP3    H216159   1.981   4.430   3.569
 5385TIP3   OH216160   2.367   1.180   3.572
 5385TIP3    H116161   2.403   1.092   3.563
 5385TIP3    H216162   2.427   1.236   3.523
 5386TIP3   OH216163   4.667   3.850   3.964
 5386TIP3    H116164   4.731   3.782   3.943
 5386TIP3    H216165   4.602   3.845   3.894
 5387TIP3   OH216166   3.507   0.309   2.475
 5387TIP3    H116167   3.571   0.269   2.416
 5387TIP3    H216168   3.517   0.262   2.558
 5388TIP3   OH216169   6.215   4.922   1.701
 5388TIP3    H116170   6.285   4.960   1.755
 5388TIP3    H216171   6.140   4.981   1.714
 5389TIP3   OH216172   3.322   2.517   1.865
 5389TIP3    H116173   3.242   2.565   1.888
 5389TIP3    H216174   3.369   2.507   1.948
 5390TIP3   OH216175   4.989   5.633   0.767
 5390TIP3    H116176   5.003   5.540   0.782
 5390TIP3    H216177   5.077   5.671   0.769
 5391TIP3   OH216178   2.298   2.478   4.937
 5391TIP3    H116179   2.303   2.485   5.033
 5391TIP3    H216180   2.365   2.414   4.915
 5392TIP3   OH216181   2.940   3.279   3.973
 5392TIP3    H116182   3.030   3.273   3.942
 5392TIP3    H216183   2.910   3.189   3.979
 5393TIP3   OH216184   5.165   5.269   1.541
 5393TIP3    H116185   5.104   5.340   1.559
 5393TIP3    H216186   5.159   5.212   1.618
 5394TIP3   OH216187   4.810   1.046   0.451
 5394TIP3    H116188   4.720   1.077   0.461
 5394TIP3    H216189   4.864   1.121   0.478
 5395TIP3   OH216190   4.292   4.975   0.922
 5395TIP3    H116191   4.360   4.985   0.989
 5395TIP3    H216192   4.291   5.059   0.877
 5396TIP3   OH216193   2.707   4.423   4.390
 5396TIP3    H116194   2.790   4.470   4.397
 5396TIP3    H216195   2.658   4.469   4.322
 5397TIP3   OH216196   3.048   3.849   2.264
 5397TIP3    H116197   3.022   3.938   2.287
 5397TIP3    H216198   2.982   3.820   2.201
 5398TIP3   OH216199   3.653   2.364   2.391
 5398TIP3    H116200   3.562   2.355   2.361
 5398TIP3    H216201   3.691   2.429   2.332
 5399TIP3   OH216202   5.695   3.440   0.344
 5399TIP3    H116203   5.654   3.520   0.376
 5399TIP3    H216204   5.747   3.469   0.269
 5400TIP3   OH216205   1.244   0.216   1.744
 5400TIP3    H116206   1.335   0.229   1.721
 5400TIP3    H216207   1.229   0.276   1.817
 5401TIP3   OH216208   3.490   2.139   4.114
 5401TIP3    H116209   3.569   2.098   4.078
 5401TIP3    H216210   3.512   2.232   4.120
 5402TIP3   OH216211   0.529   1.886   4.110
 5402TIP3    H116212   0.507   1.961   4.054
 5402TIP3    H216213   0.444   1.844   4.127
 5403TIP3   OH216214   4.526   0.056   0.254
 5403TIP3    H116215   4.518   0.017   0.341
 5403TIP3    H216216   4.441   0.042   0.213
 5404TIP3   OH216217   0.064   0.209   3.377
 5404TIP3    H116218   0.098   0.131   3.420
 5404TIP3    H216219  -0.015   0.180   3.331
 5405TIP3   OH216220   5.296   4.142   1.122
 5405TIP3    H116221   5.386   4.149   1.091
 5405TIP3    H216222   5.288   4.051   1.152
 5406TIP3   OH216223   1.506   3.665   1.760
 5406TIP3    H116224   1.433   3.622   1.805
 5406TIP3    H216225   1.527   3.606   1.688
 5407TIP3   OH216226   5.161   3.502   3.921
 5407TIP3    H116227   5.106   3.428   3.896
 5407TIP3    H216228   5.161   3.559   3.843
 5408TIP3   OH216229   3.638   3.547   1.194
 5408TIP3    H116230   3.682   3.584   1.271
 5408TIP3    H216231   3.559   3.506   1.229
 5409TIP3   OH216232   3.551   5.349   0.795
 5409TIP3    H116233   3.630   5.298   0.780
 5409TIP3    H216234   3.545   5.357   0.890
 5410TIP3   OH216235   2.944   5.419   0.926
 5410TIP3    H116236   2.946   5.328   0.958
 5410TIP3    H216237   2.863   5.455   0.963
 5411TIP3   OH216238   3.765   3.478   5.158
 5411TIP3    H116239   3.768   3.538   5.083
 5411TIP3    H216240   3.849   3.492   5.203
 5412TIP3   OH216241   4.560   1.779   3.883
 5412TIP3    H116242   4.653   1.761   3.869
 5412TIP3    H216243   4.541   1.851   3.823
 5413TIP3   OH216244   2.420   4.852   1.128
 5413TIP3    H116245   2.426   4.757   1.142
 5413TIP3    H216246   2.396   4.861   1.036
 5414TIP3   OH216247   3.167   5.155   3.622
 5414TIP3    H116248   3.086   5.107   3.605
 5414TIP3    H216249   3.172   5.160   3.718
 5415TIP3   OH216250   5.287   2.125   5.119
 5415TIP3    H116251   5.349   2.197   5.132
 5415TIP3    H216252   5.220   2.161   5.061
 5416TIP3   OH216253   4.826   2.579   4.856
 5416TIP3    H116254   4.744   2.591   4.903
 5416TIP3    H216255   4.894   2.600   4.920
 5417TIP3   OH216256   5.106   4.990   4.645
 5417TIP3    H116257   5.195   5.018   4.666
 5417TIP3    H216258   5.055   5.071   4.644
 5418TIP3   OH216259   4.258   0.131   1.134
 5418TIP3    H116260   4.251   0.225   1.151
 5418TIP3    H216261   4.343   0.120   1.091
 5419TIP3   OH216262   0.523   4.227   4.919
 5419TIP3    H116263   0.555   4.313   4.893
 5419TIP3    H216264   0.552   4.216   5.010
 5420TIP3   OH216265   4.010   2.536   0.646
 5420TIP3    H116266   3.987   2.587   0.724
 5420TIP3    H216267   3.971   2.450   0.661
 5421TIP3   OH216268   0.279   1.123   1.256
 5421TIP3    H116269   0.303   1.197   1.199
 5421TIP3    H216270   0.189   1.141   1.282
 5422TIP3   OH216271   5.527   5.545   2.364
 5422TIP3    H116272   5.611   5.568   2.404
 5422TIP3    H216273   5.540   5.560   2.270
 5423TIP3   OH216274   1.799   2.660   2.124
 5423TIP3    H116275   1.857   2.709   2.183
 5423TIP3    H216276   1.852   2.646   2.045
 5424TIP3   OH216277   6.296   5.611   5.120
 5424TIP3    H116278   6.344   5.589   5.200
 5424TIP3    H216279   6.347   5.681   5.079
 5425TIP3   OH216280   4.723   1.955   1.359
 5425TIP3    H116281   4.690   1.937   1.271
 5425TIP3    H216282   4.795   1.892   1.371
 5426TIP3   OH216283   1.365   2.322   2.366
 5426TIP3    H116284   1.398   2.401   2.323
 5426TIP3    H216285   1.287   2.299   2.317
 5427TIP3   OH216286   2.829   0.956   4.839
 5427TIP3    H116287   2.739   0.940   4.867
 5427TIP3    H216288   2.883   0.921   4.911
 5428TIP3   OH216289   3.558   3.880   4.501
 5428TIP3    H116290   3.646   3.844   4.494
 5428TIP3    H216291   3.502   3.816   4.458
 5429TIP3   OH216292   1.972   0.932   3.152
 5429TIP3    H116293   2.023   1.012   3.141
 5429TIP3    H216294   1.886   0.953   3.114
 5430TIP3   OH216295   4.146   4.062   3.982
 5430TIP3    H116296   4.053   4.082   3.997
 5430TIP3    H216297   4.181   4.143   3.945
 5431TIP3   OH216298   0.323   2.050   3.515
 5431TIP3    H116299   0.301   2.079   3.427
 5431TIP3    H216300   0.244   2.007   3.548
 5432TIP3   OH216301   1.303   3.325   3.775
 5432TIP3    H116302   1.315   3.326   3.870
 5432TIP3    H216303   1.365   3.390   3.742
 5433TIP3   OH216304   1.374   0.323   1.044
 5433TIP3    H116305   1.430   0.278   1.107
 5433TIP3    H216306   1.312   0.372   1.099
 5434TIP3   OH216307   4.671   0.165   1.449
 5434TIP3    H116308   4.760   0.165   1.483
 5434TIP3    H216309   4.670   0.234   1.382
 5435TIP3   OH216310   4.440   3.771   4.833
 5435TIP3    H116311   4.371   3.719   4.793
 5435TIP3    H216312   4.521   3.729   4.804
 5436TIP3   OH216313   4.520   5.318   1.542
 5436TIP3    H116314   4.472   5.293   1.463
 5436TIP3    H216315   4.575   5.242   1.562
 5437TIP3   OH216316   2.110   3.637   1.473
 5437TIP3    H116317   2.163   3.560   1.455
 5437TIP3    H216318   2.118   3.691   1.394
 5438TIP3   OH216319   5.387   5.774   3.808
 5438TIP3    H116320   5.342   5.826   3.875
 5438TIP3    H216321   5.448   5.719   3.857
 5439TIP3   OH216322   2.289   1.389   0.439
 5439TIP3    H116323   2.257   1.355   0.355
 5439TIP3    H216324   2.332   1.471   0.416
 5440TIP3   OH216325   6.112   4.509   2.992
 5440TIP3    H116326   6.155   4.592   3.011
 5440TIP3    H216327   6.096   4.471   3.078
 5441TIP3   OH216328   2.364   3.777   1.074
 5441TIP3    H116329   2.408   3.761   0.990
 5441TIP3    H216330   2.402   3.712   1.133
 5442TIP3   OH216331   4.357   4.031   2.836
 5442TIP3    H116332   4.447   4.005   2.816
 5442TIP3    H216333   4.305   3.994   2.765
 5443TIP3   OH216334   5.215   4.072   2.184
 5443TIP3    H116335   5.185   4.161   2.166
 5443TIP3    H216336   5.285   4.057   2.120
 5444TIP3   OH216337   0.908   2.068   2.491
 5444TIP3    H116338   0.884   2.152   2.451
 5444TIP3    H216339   0.988   2.042   2.446
 5445TIP3   OH216340   4.989   5.875   5.144
 5445TIP3    H116341   4.929   5.911   5.209
 5445TIP3    H216342   4.942   5.882   5.061
 5446TIP3   OH216343   3.528   2.685   0.983
 5446TIP3    H116344   3.549   2.637   1.063
 5446TIP3    H216345   3.513   2.616   0.918
 5447TIP3   OH216346   1.743   2.883   5.016
 5447TIP3    H116347   1.823   2.935   5.021
 5447TIP3    H216348   1.725   2.874   4.923
 5448TIP3   OH216349   3.457   0.950   2.725
 5448TIP3    H116350   3.543   0.978   2.696
 5448TIP3    H216351   3.463   0.854   2.727
 5449TIP3   OH216352   1.466   5.204   4.649
 5449TIP3    H116353   1.533   5.164   4.594
 5449TIP3    H216354   1.466   5.152   4.729
 5450TIP3   OH216355   5.210   3.477   4.270
 5450TIP3    H116356   5.221   3.443   4.359
 5450TIP3    H216357   5.268   3.553   4.266
 5451TIP3   OH216358   3.472   1.020   3.381
 5451TIP3    H116359   3.462   0.925   3.388
 5451TIP3    H216360   3.391   1.050   3.340
 5452TIP3   OH216361   3.381   1.532   4.230
 5452TIP3    H116362   3.381   1.556   4.323
 5452TIP3    H216363   3.332   1.449   4.227
 5453TIP3   OH216364   2.181   3.912   0.639
 5453TIP3    H116365   2.185   3.843   0.705
 5453TIP3    H216366   2.115   3.882   0.577
 5454TIP3   OH216367   1.314   2.918   4.313
 5454TIP3    H116368   1.257   2.994   4.320
 5454TIP3    H216369   1.269   2.850   4.363
 5455TIP3   OH216370   5.451   1.613   2.257
 5455TIP3    H116371   5.364   1.652   2.272
 5455TIP3    H216372   5.439   1.558   2.179
 5456TIP3   OH216373   1.239   4.220   3.880
 5456TIP3    H116374   1.259   4.212   3.973
 5456TIP3    H216375   1.228   4.129   3.850
 5457TIP3   OH216376   6.230   3.207   3.430
 5457TIP3    H116377   6.309   3.247   3.464
 5457TIP3    H216378   6.227   3.234   3.338
 5458TIP3   OH216379   1.751   5.192   1.872
 5458TIP3    H116380   1.702   5.200   1.954
 5458TIP3    H216381   1.838   5.228   1.892
 5459TIP3   OH216382   5.165   0.174   4.259
 5459TIP3    H116383   5.226   0.140   4.194
 5459TIP3    H216384   5.160   0.104   4.325
 5460TIP3   OH216385   0.259   2.086   3.262
 5460TIP3    H116386   0.170   2.067   3.230
 5460TIP3    H216387   0.313   2.017   3.223
 5461TIP3   OH216388   0.937   0.330   3.189
 5461TIP3    H116389   0.977   0.408   3.227
 5461TIP3    H216390   1.000   0.300   3.124
 5462TIP3   OH216391   4.623   3.991   2.785
 5462TIP3    H116392   4.686   3.953   2.724
 5462TIP3    H216393   4.675   4.011   2.863
 5463TIP3   OH216394   2.303   4.369   4.743
 5463TIP3    H116395   2.376   4.388   4.802
 5463TIP3    H216396   2.224   4.383   4.797
 5464TIP3   OH216397   3.765   4.823   4.945
 5464TIP3    H116398   3.790   4.747   4.891
 5464TIP3    H216399   3.758   4.895   4.883
 5465TIP3   OH216400   5.655   5.176   3.125
 5465TIP3    H116401   5.627   5.107   3.064
 5465TIP3    H216402   5.646   5.136   3.212
 5466TIP3   OH216403   5.955   1.739   1.653
 5466TIP3    H116404   6.041   1.779   1.656
 5466TIP3    H216405   5.903   1.797   1.597
 5467TIP3   OH216406   3.641   2.993   1.744
 5467TIP3    H116407   3.707   2.935   1.705
 5467TIP3    H216408   3.585   2.934   1.795
 5468TIP3   OH216409   3.404   3.504   0.162
 5468TIP3    H116410   3.377   3.583   0.117
 5468TIP3    H216411   3.331   3.443   0.148
 5469TIP3   OH216412   3.804   0.376   0.864
 5469TIP3    H116413   3.778   0.456   0.908
 5469TIP3    H216414   3.867   0.335   0.923
 5470TIP3   OH216415   3.890   2.653   2.530
 5470TIP3    H116416   3.977   2.691   2.526
 5470TIP3    H216417   3.843   2.689   2.455
 5471TIP3   OH216418   5.291   0.770   3.423
 5471TIP3    H116419   5.353   0.803   3.358
 5471TIP3    H216420   5.205   0.781   3.383
 5472TIP3   OH216421   1.952   4.641   2.029
 5472TIP3    H116422   1.889   4.598   1.972
 5472TIP3    H216423   1.963   4.728   1.992
 5473TIP3   OH216424   2.203   1.828   0.201
 5473TIP3    H116425   2.117   1.824   0.158
 5473TIP3    H216426   2.183   1.821   0.294
 5474TIP3   OH216427   3.293   5.053   3.958
 5474TIP3    H116428   3.246   4.994   3.899
 5474TIP3    H216429   3.385   5.039   3.937
 5475TIP3   OH216430   0.176   0.777   3.488
 5475TIP3    H116431   0.155   0.863   3.452
 5475TIP3    H216432   0.094   0.748   3.528
 5476TIP3   OH216433   3.872   1.947   1.668
 5476TIP3    H116434   3.799   1.964   1.728
 5476TIP3    H216435   3.945   1.924   1.725
 5477TIP3   OH216436   3.494   0.408   4.488
 5477TIP3    H116437   3.496   0.318   4.454
 5477TIP3    H216438   3.419   0.449   4.444
 5478TIP3   OH216439   3.922   1.118   3.778
 5478TIP3    H116440   3.827   1.105   3.778
 5478TIP3    H216441   3.936   1.186   3.711
 5479TIP3   OH216442   3.042   5.839   1.271
 5479TIP3    H116443   3.061   5.760   1.221
 5479TIP3    H216444   2.968   5.814   1.328
 5480TIP3   OH216445   4.923   3.856   0.963
 5480TIP3    H116446   4.967   3.882   1.044
 5480TIP3    H216447   4.990   3.811   0.912
 5481TIP3   OH216448   2.000   0.036   2.182
 5481TIP3    H116449   2.094   0.040   2.200
 5481TIP3    H216450   1.976   0.126   2.159
 5482TIP3   OH216451   1.201   2.951   3.995
 5482TIP3    H116452   1.142   2.988   3.930
 5482TIP3    H216453   1.150   2.947   4.076
 5483TIP3   OH216454   4.927   1.255   0.575
 5483TIP3    H116455   4.965   1.343   0.566
 5483TIP3    H216456   4.864   1.264   0.646
 5484TIP3   OH216457   0.990   3.797   3.406
 5484TIP3    H116458   1.082   3.808   3.427
 5484TIP3    H216459   0.984   3.812   3.311
 5485TIP3   OH216460   3.505   1.607   0.650
 5485TIP3    H116461   3.473   1.574   0.567
 5485TIP3    H216462   3.458   1.689   0.664
 5486TIP3   OH216463   5.619   3.260   4.582
 5486TIP3    H116464   5.687   3.293   4.524
 5486TIP3    H216465   5.623   3.317   4.659
 5487TIP3   OH216466   3.028   1.625   1.533
 5487TIP3    H116467   3.036   1.666   1.619
 5487TIP3    H216468   2.934   1.608   1.523
 5488TIP3   OH216469   4.504   2.575   4.195
 5488TIP3    H116470   4.415   2.554   4.166
 5488TIP3    H216471   4.509   2.538   4.283
 5489TIP3   OH216472   1.085   0.522   3.340
 5489TIP3    H116473   1.124   0.601   3.302
 5489TIP3    H216474   1.156   0.458   3.340
 5490TIP3   OH216475   5.235   2.432   0.386
 5490TIP3    H116476   5.153   2.480   0.373
 5490TIP3    H216477   5.280   2.438   0.301
 5491TIP3   OH216478   4.417   2.532   0.487
 5491TIP3    H116479   4.463   2.545   0.404
 5491TIP3    H216480   4.329   2.566   0.471
 5492TIP3   OH216481   3.389   0.735   0.685
 5492TIP3    H116482   3.308   0.772   0.649
 5492TIP3    H216483   3.454   0.803   0.670
 5493TIP3   OH216484   1.259   0.305   3.323
 5493TIP3    H116485   1.328   0.306   3.390
 5493TIP3    H216486   1.272   0.222   3.276
 5494TIP3   OH216487   4.430   3.845   0.421
 5494TIP3    H116488   4.525   3.830   0.417
 5494TIP3    H216489   4.417   3.928   0.375
 5495TIP3   OH216490   6.067   0.985   1.800
 5495TIP3    H116491   6.074   1.032   1.884
 5495TIP3    H216492   6.147   0.932   1.796
 5496TIP3   OH216493   2.667   3.482   2.585
 5496TIP3    H116494   2.578   3.452   2.566
 5496TIP3    H216495   2.689   3.440   2.668
 5497TIP3   OH216496   4.789   4.239   5.000
 5497TIP3    H116497   4.791   4.187   5.080
 5497TIP3    H216498   4.745   4.320   5.025
 5498TIP3   OH216499   5.857   2.995   2.078
 5498TIP3    H116500   5.877   2.972   1.987
 5498TIP3    H216501   5.805   3.075   2.072
 5499TIP3   OH216502   4.463   2.911   0.196
 5499TIP3    H116503   4.430   2.898   0.285
 5499TIP3    H216504   4.435   3.000   0.173
 5500TIP3   OH216505   2.822   2.235   0.022
 5500TIP3    H116506   2.798   2.305   0.083
 5500TIP3    H216507   2.746   2.177   0.021
 5501TIP3   OH216508   5.161   5.795   4.453
 5501TIP3    H116509   5.217   5.718   4.464
 5501TIP3    H216510   5.073   5.763   4.472
 5502TIP3   OH216511   3.171   5.102   4.443
 5502TIP3    H116512   3.147   5.136   4.357
 5502TIP3    H216513   3.116   5.024   4.454
 5503TIP3   OH216514   5.616   2.153   4.083
 5503TIP3    H116515   5.701   2.193   4.097
 5503TIP3    H216516   5.567   2.169   4.163
 5504TIP3   OH216517   1.556   5.094   4.887
 5504TIP3    H116518   1.550   5.028   4.957
 5504TIP3    H216519   1.645   5.128   4.893
 5505TIP3   OH216520   2.717   0.358   4.033
 5505TIP3    H116521   2.763   0.368   3.950
 5505TIP3    H216522   2.741   0.436   4.084
 5506TIP3   OH216523   0.653   4.013   3.404
 5506TIP3    H116524   0.611   4.099   3.402
 5506TIP3    H216525   0.641   3.982   3.493
 5507TIP3   OH216526   1.774   1.165   0.356
 5507TIP3    H116527   1.835   1.162   0.283
 5507TIP3    H216528   1.777   1.077   0.394
 5508TIP3   OH216529   0.235   5.633   2.747
 5508TIP3    H116530   0.204   5.543   2.751
 5508TIP3    H216531   0.319   5.628   2.700
 5509TIP3   OH216532   0.465   4.563   0.634
 5509TIP3    H116533   0.508   4.635   0.588
 5509TIP3    H216534   0.532   4.494   0.638
 5510TIP3   OH216535   2.920   5.926   2.920
 5510TIP3    H116536   2.909   5.947   3.012
 5510TIP3    H216537   2.994   5.979   2.892
 5511TIP3   OH216538   0.063   1.206   1.602
 5511TIP3    H116539   0.089   1.178   1.689
 5511TIP3    H216540   0.055   1.125   1.551
 5512TIP3   OH216541   2.645   2.364   5.056
 5512TIP3    H116542   2.732   2.326   5.072
 5512TIP3    H216543   2.651   2.452   5.092
 5513TIP3   OH216544   2.613   3.946   4.758
 5513TIP3    H116545   2.602   4.041   4.748
 5513TIP3    H216546   2.545   3.908   4.702
 5514TIP3   OH216547   1.362   2.568   0.045
 5514TIP3    H116548   1.367   2.488   0.098
 5514TIP3    H216549   1.332   2.537  -0.041
 5515TIP3   OH216550   1.684   2.714   3.106
 5515TIP3    H116551   1.714   2.801   3.078
 5515TIP3    H216552   1.646   2.729   3.193
 5516TIP3   OH216553   0.412   5.866   2.872
 5516TIP3    H116554   0.455   5.903   2.795
 5516TIP3    H216555   0.379   5.781   2.843
 5517TIP3   OH216556   3.349   3.712   3.276
 5517TIP3    H116557   3.312   3.671   3.355
 5517TIP3    H216558   3.411   3.777   3.310
 5518TIP3   OH216559   5.893   4.093   1.880
 5518TIP3    H116560   5.807   4.108   1.841
 5518TIP3    H216561   5.876   4.034   1.953
 5519TIP3   OH216562   1.265   1.304   0.640
 5519TIP3    H116563   1.255   1.303   0.735
 5519TIP3    H216564   1.358   1.318   0.626
 5520TIP3   OH216565   1.397   5.276   2.936
 5520TIP3    H116566   1.324   5.313   2.887
 5520TIP3    H216567   1.377   5.297   3.028
 5521TIP3   OH216568   1.049   2.762   1.509
 5521TIP3    H116569   1.131   2.810   1.502
 5521TIP3    H216570   1.075   2.674   1.537
 5522TIP3   OH216571   4.699   3.246   1.574
 5522TIP3    H116572   4.767   3.178   1.573
 5522TIP3    H216573   4.632   3.213   1.513
 5523TIP3   OH216574   5.976   3.621   0.444
 5523TIP3    H116575   6.053   3.674   0.461
 5523TIP3    H216576   5.970   3.561   0.518
 5524TIP3   OH216577   4.003   1.905   0.849
 5524TIP3    H116578   3.963   1.895   0.762
 5524TIP3    H216579   3.985   1.996   0.873
 5525TIP3   OH216580   3.188   2.269   3.056
 5525TIP3    H116581   3.195   2.205   3.126
 5525TIP3    H216582   3.094   2.280   3.042
 5526TIP3   OH216583   0.392   1.804   2.662
 5526TIP3    H116584   0.427   1.715   2.665
 5526TIP3    H216585   0.468   1.860   2.677
 5527TIP3   OH216586   5.787   2.676   1.741
 5527TIP3    H116587   5.846   2.737   1.785
 5527TIP3    H216588   5.712   2.667   1.801
 5528TIP3   OH216589   0.008   5.239   3.748
 5528TIP3    H116590   0.030   5.324   3.785
 5528TIP3    H216591   0.032   5.246   3.656
 5529TIP3   OH216592   1.111   1.847   1.700
 5529TIP3    H116593   1.138   1.765   1.740
 5529TIP3    H216594   1.116   1.831   1.606
 5530TIP3   OH216595   2.522   1.566   2.042
 5530TIP3    H116596   2.505   1.645   2.094
 5530TIP3    H216597   2.434   1.531   2.022
 5531TIP3   OH216598   4.110   4.604   0.521
 5531TIP3    H116599   4.158   4.687   0.521
 5531TIP3    H216600   4.057   4.607   0.601
 5532TIP3   OH216601   1.212   4.951   0.098
 5532TIP3    H116602   1.151   4.907   0.157
 5532TIP3    H216603   1.163   5.025   0.063
 5533TIP3   OH216604   3.831   4.837   3.904
 5533TIP3    H116605   3.908   4.876   3.946
 5533TIP3    H216606   3.853   4.833   3.811
 5534TIP3   OH216607   1.916   2.890   2.240
 5534TIP3    H116608   1.916   2.848   2.327
 5534TIP3    H216609   1.975   2.964   2.250
 5535TIP3   OH216610   5.322   1.638   4.775
 5535TIP3    H116611   5.232   1.668   4.766
 5535TIP3    H216612   5.315   1.547   4.804
 5536TIP3   OH216613   5.567   1.789   3.077
 5536TIP3    H116614   5.542   1.853   3.143
 5536TIP3    H216615   5.485   1.746   3.052
 5537TIP3   OH216616   6.053   1.137   4.161
 5537TIP3    H116617   5.970   1.095   4.184
 5537TIP3    H216618   6.120   1.083   4.203
 5538TIP3   OH216619   5.131   1.187   4.244
 5538TIP3    H116620   5.103   1.232   4.324
 5538TIP3    H216621   5.059   1.127   4.224
 5539TIP3   OH216622   5.533   4.929   2.333
 5539TIP3    H116623   5.552   4.984   2.409
 5539TIP3    H216624   5.438   4.923   2.331
 5540TIP3   OH216625   0.003   1.029   5.019
 5540TIP3    H116626   0.079   1.024   4.961
 5540TIP3    H216627  -0.064   0.977   4.975
 5541TIP3   OH216628   5.933  -0.003   0.990
 5541TIP3    H116629   5.959   0.059   1.058
 5541TIP3    H216630   5.940   0.047   0.908
 5542TIP3   OH216631   1.598   0.734   4.206
 5542TIP3    H116632   1.554   0.693   4.131
 5542TIP3    H216633   1.639   0.662   4.252
 5543TIP3   OH216634   0.018   1.997   1.019
 5543TIP3    H116635  -0.019   2.050   1.089
 5543TIP3    H216636   0.046   2.060   0.953
 5544TIP3   OH216637   2.472   1.266   2.228
 5544TIP3    H116638   2.421   1.313   2.294
 5544TIP3    H216639   2.560   1.303   2.235
 5545TIP3   OH216640   1.080   4.141   2.404
 5545TIP3    H116641   1.164   4.113   2.368
 5545TIP3    H216642   1.076   4.235   2.383
 5546TIP3   OH216643   0.209   3.029   1.625
 5546TIP3    H116644   0.145   3.013   1.556
 5546TIP3    H216645   0.193   3.119   1.653
 5547TIP3   OH216646   2.380   1.736   0.825
 5547TIP3    H116647   2.453   1.781   0.868
 5547TIP3    H216648   2.333   1.693   0.896
 5548TIP3   OH216649   2.553   4.886   3.411
 5548TIP3    H116650   2.590   4.805   3.446
 5548TIP3    H216651   2.491   4.857   3.344
 5549TIP3   OH216652   0.845   3.398   3.441
 5549TIP3    H116653   0.830   3.458   3.513
 5549TIP3    H216654   0.932   3.361   3.459
 5550TIP3   OH216655   2.574   3.611   3.832
 5550TIP3    H116656   2.669   3.611   3.846
 5550TIP3    H216657   2.560   3.555   3.756
 5551TIP3   OH216658   3.603   0.994   4.033
 5551TIP3    H116659   3.516   0.974   3.998
 5551TIP3    H216660   3.600   1.088   4.052
 5552TIP3   OH216661   5.114   4.717   4.084
 5552TIP3    H116662   5.029   4.716   4.041
 5552TIP3    H216663   5.159   4.640   4.051
 5553TIP3   OH216664   4.308   2.194   1.688
 5553TIP3    H116665   4.269   2.149   1.613
 5553TIP3    H216666   4.397   2.215   1.660
 5554TIP3   OH216667   4.647   0.789   4.093
 5554TIP3    H116668   4.581   0.720   4.088
 5554TIP3    H216669   4.612   0.860   4.039
 5555TIP3   OH216670   1.816   4.534   4.019
 5555TIP3    H116671   1.776   4.509   4.103
 5555TIP3    H216672   1.742   4.545   3.959
 5556TIP3   OH216673   4.885   2.317   1.246
 5556TIP3    H116674   4.898   2.344   1.155
 5556TIP3    H216675   4.915   2.391   1.298
 5557TIP3   OH216676   0.141   4.957   0.847
 5557TIP3    H116677   0.076   4.980   0.914
 5557TIP3    H216678   0.202   4.899   0.892
 5558TIP3   OH216679   0.003   4.505   2.684
 5558TIP3    H116680   0.022   4.565   2.612
 5558TIP3    H216681   0.003   4.560   2.762
 5559TIP3   OH216682   0.280   5.519   1.010
 5559TIP3    H116683   0.366   5.501   0.973
 5559TIP3    H216684   0.286   5.489   1.101
 5560TIP3   OH216685   5.406   3.646   1.153
 5560TIP3    H116686   5.403   3.575   1.217
 5560TIP3    H216687   5.455   3.610   1.080
 5561TIP3   OH216688   6.142   3.709   4.016
 5561TIP3    H116689   6.216   3.685   3.961
 5561TIP3    H216690   6.117   3.796   3.985
 5562TIP3   OH216691   3.394   3.911   1.980
 5562TIP3    H116692   3.419   3.996   2.017
 5562TIP3    H216693   3.359   3.933   1.893
 5563TIP3   OH216694   2.459   3.974   2.858
 5563TIP3    H116695   2.432   3.920   2.932
 5563TIP3    H216696   2.401   4.050   2.860
 5564TIP3   OH216697   3.897   2.580   3.623
 5564TIP3    H116698   3.952   2.654   3.648
 5564TIP3    H216699   3.889   2.588   3.527
 5565TIP3   OH216700   1.868   1.878   1.639
 5565TIP3    H116701   1.838   1.852   1.726
 5565TIP3    H216702   1.934   1.946   1.656
 5566TIP3   OH216703   5.069   3.678   0.047
 5566TIP3    H116704   5.078   3.604   0.107
 5566TIP3    H216705   5.028   3.639  -0.031
 5567TIP3   OH216706   5.795   3.287   1.419
 5567TIP3    H116707   5.889   3.304   1.426
 5567TIP3    H216708   5.762   3.293   1.509
 5568TIP3   OH216709   3.474   2.664   3.009
 5568TIP3    H116710   3.391   2.643   3.052
 5568TIP3    H216711   3.457   2.745   2.961
 5569TIP3   OH216712   3.970   2.911   0.006
 5569TIP3    H116713   4.015   2.971   0.067
 5569TIP3    H216714   3.946   2.966  -0.068
 5570TIP3   OH216715   1.154   3.629   2.044
 5570TIP3    H116716   1.243   3.633   2.010
 5570TIP3    H216717   1.125   3.720   2.048
 5571TIP3   OH216718   3.388   3.676   4.406
 5571TIP3    H116719   3.393   3.583   4.386
 5571TIP3    H216720   3.295   3.693   4.420
 5572TIP3   OH216721   3.946   4.251   1.239
 5572TIP3    H116722   3.857   4.218   1.225
 5572TIP3    H216723   3.952   4.328   1.183
 5573TIP3   OH216724   5.523   0.086   4.841
 5573TIP3    H116725   5.583   0.141   4.891
 5573TIP3    H216726   5.544  -0.003   4.867
 5574TIP3   OH216727   3.245   2.323   0.862
 5574TIP3    H116728   3.181   2.367   0.806
 5574TIP3    H216729   3.209   2.329   0.950
 5575TIP3   OH216730   5.386   5.348   1.415
 5575TIP3    H116731   5.306   5.312   1.454
 5575TIP3    H216732   5.394   5.304   1.331
 5576TIP3   OH216733   0.223   4.981   0.088
 5576TIP3    H116734   0.291   4.975   0.021
 5576TIP3    H216735   0.272   4.995   0.170
 5577TIP3   OH216736   1.186   2.255   1.545
 5577TIP3    H116737   1.260   2.316   1.553
 5577TIP3    H216738   1.146   2.256   1.632
 5578TIP3   OH216739   5.943   1.579   1.103
 5578TIP3    H116740   5.954   1.496   1.149
 5578TIP3    H216741   5.853   1.576   1.071
 5579TIP3   OH216742   1.412   0.621   2.476
 5579TIP3    H116743   1.401   0.703   2.523
 5579TIP3    H216744   1.430   0.647   2.385
 5580TIP3   OH216745   0.198   6.000   3.006
 5580TIP3    H116746   0.152   5.920   3.031
 5580TIP3    H216747   0.286   5.972   2.983
 5581TIP3   OH216748   6.180   3.234   2.388
 5581TIP3    H116749   6.157   3.188   2.308
 5581TIP3    H216750   6.275   3.225   2.395
 5582TIP3   OH216751   1.349   3.166   1.779
 5582TIP3    H116752   1.406   3.091   1.798
 5582TIP3    H216753   1.260   3.131   1.789
 5583TIP3   OH216754   2.649   0.248   0.833
 5583TIP3    H116755   2.572   0.191   0.832
 5583TIP3    H216756   2.636   0.303   0.911
 5584TIP3   OH216757   2.674   0.905   3.248
 5584TIP3    H116758   2.638   0.857   3.174
 5584TIP3    H216759   2.630   0.990   3.246
 5585TIP3   OH216760   1.695   4.241   2.654
 5585TIP3    H116761   1.649   4.247   2.570
 5585TIP3    H216762   1.778   4.286   2.640
 5586TIP3   OH216763   2.629   1.408   0.284
 5586TIP3    H116764   2.646   1.318   0.254
 5586TIP3    H216765   2.578   1.447   0.213
 5587TIP3   OH216766   1.284   4.736   4.400
 5587TIP3    H116767   1.296   4.825   4.433
 5587TIP3    H216768   1.324   4.680   4.467
 5588TIP3   OH216769   5.829   3.916   2.121
 5588TIP3    H116770   5.742   3.938   2.157
 5588TIP3    H216771   5.889   3.933   2.194
 5589TIP3   OH216772   6.245   5.725   2.661
 5589TIP3    H116773   6.324   5.761   2.701
 5589TIP3    H216774   6.186   5.800   2.653
 5590TIP3   OH216775   2.430   0.719   1.549
 5590TIP3    H116776   2.386   0.769   1.480
 5590TIP3    H216777   2.381   0.636   1.552
 5591TIP3   OH216778   0.402   2.108   1.941
 5591TIP3    H116779   0.351   2.069   2.011
 5591TIP3    H216780   0.339   2.119   1.869
 5592TIP3   OH216781   4.954   0.640   1.058
 5592TIP3    H116782   5.012   0.705   1.020
 5592TIP3    H216783   4.987   0.625   1.146
 5593TIP3   OH216784   2.642   4.943   4.547
 5593TIP3    H116785   2.618   4.860   4.588
 5593TIP3    H216786   2.595   4.943   4.464
 5594TIP3   OH216787   4.209   2.510   4.143
 5594TIP3    H116788   4.155   2.453   4.199
 5594TIP3    H216789   4.173   2.498   4.055
 5595TIP3   OH216790   4.928   2.534   0.055
 5595TIP3    H116791   4.920   2.607  -0.007
 5595TIP3    H216792   5.003   2.558   0.110
 5596TIP3   OH216793   4.264   2.160   0.547
 5596TIP3    H116794   4.206   2.167   0.623
 5596TIP3    H216795   4.207   2.175   0.472
 5597TIP3   OH216796   0.178   3.024   0.172
 5597TIP3    H116797   0.132   3.022   0.256
 5597TIP3    H216798   0.260   2.977   0.189
 5598TIP3   OH216799   4.523   4.928   4.067
 5598TIP3    H116800   4.599   4.921   4.126
 5598TIP3    H216801   4.447   4.915   4.125
 5599TIP3   OH216802   4.701   2.221   1.407
 5599TIP3    H116803   4.722   2.128   1.395
 5599TIP3    H216804   4.759   2.267   1.347
 5600TIP3   OH216805   6.252   5.684   3.952
 5600TIP3    H116806   6.287   5.721   3.872
 5600TIP3    H216807   6.279   5.744   4.021
 5601TIP3   OH216808   0.059   1.701   1.545
 5601TIP3    H116809   0.135   1.744   1.582
 5601TIP3    H216810   0.038   1.631   1.607
 5602TIP3   OH216811   1.981   3.716   2.593
 5602TIP3    H116812   1.942   3.670   2.519
 5602TIP3    H216813   1.912   3.774   2.625
 5603TIP3   OH216814   5.110   4.732   1.726
 5603TIP3    H116815   5.092   4.638   1.720
 5603TIP3    H216816   5.058   4.761   1.801
 5604TIP3   OH216817   1.100   5.364   1.603
 5604TIP3    H116818   1.026   5.423   1.618
 5604TIP3    H216819   1.140   5.353   1.689
 5605TIP3   OH216820   0.713   3.694   4.007
 5605TIP3    H116821   0.670   3.691   4.092
 5605TIP3    H216822   0.699   3.783   3.976
 5606TIP3   OH216823   3.096   2.083   3.261
 5606TIP3    H116824   3.055   1.996   3.266
 5606TIP3    H216825   3.022   2.143   3.258
 5607TIP3   OH216826   1.382   5.825   0.470
 5607TIP3    H116827   1.319   5.897   0.479
 5607TIP3    H216828   1.329   5.751   0.441
 5608TIP3   OH216829   5.121   0.232   3.925
 5608TIP3    H116830   5.057   0.303   3.933
 5608TIP3    H216831   5.206   0.275   3.929
 5609TIP3   OH216832   0.790   1.693   2.482
 5609TIP3    H116833   0.776   1.766   2.542
 5609TIP3    H216834   0.810   1.619   2.538
 5610TIP3   OH216835   3.767   3.407   2.065
 5610TIP3    H116836   3.731   3.476   2.009
 5610TIP3    H216837   3.838   3.369   2.014
 5611TIP3   OH216838   1.584   2.080   2.601
 5611TIP3    H116839   1.545   2.154   2.648
 5611TIP3    H216840   1.574   2.006   2.661
 5612TIP3   OH216841   0.912   3.492   3.075
 5612TIP3    H116842   0.853   3.446   3.135
 5612TIP3    H216843   0.985   3.520   3.131
 5613TIP3   OH216844   3.519   2.369   4.463
 5613TIP3    H116845   3.528   2.463   4.446
 5613TIP3    H216846   3.447   2.341   4.406
 5614TIP3   OH216847   3.089   5.416  -0.015
 5614TIP3    H116848   3.049   5.471   0.053
 5614TIP3    H216849   3.063   5.327   0.007
 5615TIP3   OH216850   3.122   0.176   2.645
 5615TIP3    H116851   3.095   0.264   2.618
 5615TIP3    H216852   3.212   0.187   2.675
 5616TIP3   OH216853   0.550   5.378   0.588
 5616TIP3    H116854   0.511   5.463   0.568
 5616TIP3    H216855   0.478   5.316   0.576
 5617TIP3   OH216856   2.741   1.750   3.818
 5617TIP3    H116857   2.729   1.834   3.863
 5617TIP3    H216858   2.654   1.712   3.815
 5618TIP3   OH216859   3.467   2.860   3.632
 5618TIP3    H116860   3.390   2.858   3.689
 5618TIP3    H216861   3.451   2.790   3.568
 5619TIP3   OH216862   4.150   3.968   2.356
 5619TIP3    H116863   4.113   3.916   2.286
 5619TIP3    H216864   4.081   4.032   2.378
 5620TIP3   OH216865   3.239   0.478   4.352
 5620TIP3    H116866   3.169   0.499   4.414
 5620TIP3    H216867   3.226   0.386   4.331
 5621TIP3   OH216868   4.923   0.824   0.075
 5621TIP3    H116869   4.855   0.885   0.103
 5621TIP3    H216870   4.899   0.740   0.115
 5622TIP3   OH216871   4.242   2.597   1.940
 5622TIP3    H116872   4.214   2.506   1.954
 5622TIP3    H216873   4.279   2.598   1.852
 5623TIP3   OH216874   4.687   2.603   3.996
 5623TIP3    H116875   4.623   2.602   4.067
 5623TIP3    H216876   4.731   2.688   4.004
 5624TIP3   OH216877   3.631   4.533   3.624
 5624TIP3    H116878   3.645   4.513   3.531
 5624TIP3    H216879   3.718   4.536   3.662
 5625TIP3   OH216880   0.686   4.851   1.347
 5625TIP3    H116881   0.610   4.901   1.317
 5625TIP3    H216882   0.761   4.890   1.301
 5626TIP3   OH216883   3.292   4.866   4.648
 5626TIP3    H116884   3.384   4.884   4.629
 5626TIP3    H216885   3.256   4.836   4.565
 5627TIP3   OH216886   5.771   5.137   2.756
 5627TIP3    H116887   5.831   5.068   2.784
 5627TIP3    H216888   5.828   5.208   2.728
 5628TIP3   OH216889   3.497   3.779   1.626
 5628TIP3    H116890   3.520   3.845   1.561
 5628TIP3    H216891   3.578   3.766   1.676
 5629TIP3   OH216892   3.887   5.149   3.091
 5629TIP3    H116893   3.813   5.088   3.094
 5629TIP3    H216894   3.850   5.233   3.119
 5630TIP3   OH216895   2.141   0.951   1.306
 5630TIP3    H116896   2.137   0.927   1.213
 5630TIP3    H216897   2.232   0.978   1.320
 5631TIP3   OH216898   1.925   1.789   1.375
 5631TIP3    H116899   2.004   1.748   1.409
 5631TIP3    H216900   1.884   1.830   1.452
 5632TIP3   OH216901   0.362   0.571   2.711
 5632TIP3    H116902   0.305   0.496   2.697
 5632TIP3    H216903   0.430   0.539   2.770
 5633TIP3   OH216904   0.345   0.983   5.201
 5633TIP3    H116905   0.392   1.059   5.166
 5633TIP3    H216906   0.264   0.979   5.150
 5634TIP3   OH216907   2.890   5.362   4.057
 5634TIP3    H116908   2.923   5.452   4.050
 5634TIP3    H216909   2.916   5.321   3.975
 5635TIP3   OH216910   3.778   2.413   2.624
 5635TIP3    H116911   3.709   2.373   2.571
 5635TIP3    H216912   3.810   2.486   2.571
 5636TIP3   OH216913   5.659   2.379   2.179
 5636TIP3    H116914   5.694   2.439   2.245
 5636TIP3    H216915   5.676   2.292   2.215
 5637TIP3   OH216916   4.557   3.494   4.010
 5637TIP3    H116917   4.585   3.544   3.933
 5637TIP3    H216918   4.583   3.549   4.084
 5638TIP3   OH216919   1.985   0.171   0.612
 5638TIP3    H116920   2.039   0.140   0.684
 5638TIP3    H216921   2.023   0.132   0.534
 5639TIP3   OH216922   1.986   4.446   1.139
 5639TIP3    H116923   1.939   4.434   1.222
 5639TIP3    H216924   2.008   4.540   1.137
 5640TIP3   OH216925   5.572   0.057   3.500
 5640TIP3    H116926   5.667   0.052   3.505
 5640TIP3    H216927   5.555   0.136   3.447
 5641TIP3   OH216928   3.095   1.479   3.718
 5641TIP3    H116929   3.066   1.518   3.636
 5641TIP3    H216930   3.044   1.524   3.786
 5642TIP3   OH216931   3.001   3.323   0.795
 5642TIP3    H116932   2.911   3.299   0.773
 5642TIP3    H216933   3.039   3.352   0.713
 5643TIP3   OH216934   1.641   2.406   2.589
 5643TIP3    H116935   1.551   2.388   2.614
 5643TIP3    H216936   1.643   2.391   2.494
 5644TIP3   OH216937   4.873   0.810   2.426
 5644TIP3    H116938   4.799   0.870   2.413
 5644TIP3    H216939   4.834   0.734   2.469
 5645TIP3   OH216940   5.358   5.108   4.780
 5645TIP3    H116941   5.379   5.198   4.752
 5645TIP3    H216942   5.358   5.112   4.875
 5646TIP3   OH216943   3.386   2.508   0.387
 5646TIP3    H116944   3.334   2.439   0.345
 5646TIP3    H216945   3.390   2.579   0.323
 5647TIP3   OH216946   3.473   0.070   1.738
 5647TIP3    H116947   3.511   0.154   1.765
 5647TIP3    H216948   3.385   0.092   1.708
 5648TIP3   OH216949   4.427   2.491   3.770
 5648TIP3    H116950   4.516   2.495   3.737
 5648TIP3    H216951   4.435   2.446   3.855
 5649TIP3   OH216952   4.158   4.768   1.010
 5649TIP3    H116953   4.223   4.762   1.081
 5649TIP3    H216954   4.198   4.826   0.946
 5650TIP3   OH216955   1.162   2.883   1.163
 5650TIP3    H116956   1.246   2.923   1.142
 5650TIP3    H216957   1.172   2.850   1.252
 5651TIP3   OH216958   5.573   4.499   4.545
 5651TIP3    H116959   5.531   4.568   4.494
 5651TIP3    H216960   5.501   4.443   4.575
 5652TIP3   OH216961   2.746   1.488   1.632
 5652TIP3    H116962   2.728   1.499   1.726
 5652TIP3    H216963   2.811   1.418   1.629
 5653TIP3   OH216964   0.921   2.603   2.693
 5653TIP3    H116965   0.879   2.630   2.775
 5653TIP3    H216966   0.922   2.508   2.697
 5654TIP3   OH216967   1.034   5.859   2.654
 5654TIP3    H116968   1.070   5.806   2.583
 5654TIP3    H216969   1.006   5.940   2.612
 5655TIP3   OH216970   4.840   4.828   4.491
 5655TIP3    H116971   4.914   4.879   4.524
 5655TIP3    H216972   4.836   4.752   4.549
 5656TIP3   OH216973   3.123   4.341   1.326
 5656TIP3    H116974   3.110   4.255   1.287
 5656TIP3    H216975   3.109   4.403   1.255
 5657TIP3   OH216976   4.654   1.858   4.471
 5657TIP3    H116977   4.559   1.868   4.473
 5657TIP3    H216978   4.685   1.928   4.414
 5658TIP3   OH216979   0.765   3.116   2.773
 5658TIP3    H116980   0.737   3.025   2.765
 5658TIP3    H216981   0.686   3.164   2.796
 5659TIP3   OH216982   5.994   2.851   1.411
 5659TIP3    H116983   6.009   2.896   1.328
 5659TIP3    H216984   5.899   2.855   1.424
 5660TIP3   OH216985   3.782   0.534   2.960
 5660TIP3    H116986   3.722   0.609   2.963
 5660TIP3    H216987   3.839   0.552   2.885
 5661TIP3   OH216988   5.451   5.104   1.872
 5661TIP3    H116989   5.464   5.037   1.939
 5661TIP3    H216990   5.491   5.068   1.793
 5662TIP3   OH216991   3.266   5.971   1.175
 5662TIP3    H116992   3.188   5.916   1.174
 5662TIP3    H216993   3.316   5.941   1.251
 5663TIP3   OH216994   1.824   0.952   2.187
 5663TIP3    H116995   1.759   1.002   2.136
 5663TIP3    H216996   1.796   0.861   2.179
 5664TIP3   OH216997   5.435   4.737   1.898
 5664TIP3    H116998   5.492   4.786   1.957
 5664TIP3    H216999   5.346   4.758   1.928
 5665TIP3   OH217000   1.492   1.115   0.245
 5665TIP3    H117001   1.579   1.105   0.282
 5665TIP3    H217002   1.494   1.201   0.201
 5666TIP3   OH217003   3.404   5.181   1.823
 5666TIP3    H117004   3.400   5.092   1.788
 5666TIP3    H217005   3.464   5.174   1.897
 5667TIP3   OH217006   4.561   0.661   2.824
 5667TIP3    H117007   4.505   0.738   2.815
 5667TIP3    H217008   4.579   0.633   2.734
 5668TIP3   OH217009   6.070   2.990   2.502
 5668TIP3    H117010   6.084   3.006   2.409
 5668TIP3    H217011   6.026   3.069   2.534
 5669TIP3   OH217012   1.082   2.541   1.786
 5669TIP3    H117013   1.008   2.484   1.765
 5669TIP3    H217014   1.159   2.486   1.770
 5670TIP3   OH217015   1.853   3.188   0.222
 5670TIP3    H117016   1.877   3.188   0.315
 5670TIP3    H217017   1.836   3.280   0.201
 5671TIP3   OH217018   1.051   3.312   0.736
 5671TIP3    H117019   1.067   3.406   0.742
 5671TIP3    H217020   1.079   3.278   0.821
 5672TIP3   OH217021   4.262   4.396   1.162
 5672TIP3    H117022   4.273   4.342   1.240
 5672TIP3    H217023   4.347   4.440   1.151
 5673TIP3   OH217024   2.915   3.834   1.755
 5673TIP3    H117025   2.983   3.769   1.739
 5673TIP3    H217026   2.960   3.907   1.797
 5674TIP3   OH217027   2.214   0.142   1.465
 5674TIP3    H117028   2.138   0.086   1.485
 5674TIP3    H217029   2.243   0.174   1.551
 5675TIP3   OH217030   0.390   4.775   4.453
 5675TIP3    H117031   0.345   4.711   4.509
 5675TIP3    H217032   0.405   4.729   4.371
 5676TIP3   OH217033   2.614   4.606   2.835
 5676TIP3    H117034   2.670   4.602   2.757
 5676TIP3    H217035   2.531   4.567   2.806
 5677TIP3   OH217036   3.852   5.303   3.328
 5677TIP3    H117037   3.829   5.211   3.311
 5677TIP3    H217038   3.932   5.299   3.380
 5678TIP3   OH217039   5.992   2.217   2.172
 5678TIP3    H117040   5.900   2.193   2.163
 5678TIP3    H217041   6.015   2.256   2.088
 5679TIP3   OH217042   0.562   2.573   2.456
 5679TIP3    H117043   0.653   2.590   2.478
 5679TIP3    H217044   0.511   2.622   2.521
 5680TIP3   OH217045   2.251   5.734   4.943
 5680TIP3    H117046   2.255   5.830   4.938
 5680TIP3    H217047   2.258   5.715   5.036
 5681TIP3   OH217048   3.103   0.548   1.593
 5681TIP3    H117049   3.043   0.569   1.665
 5681TIP3    H217050   3.139   0.633   1.565
 5682TIP3   OH217051   1.519   0.572   1.731
 5682TIP3    H117052   1.435   0.537   1.760
 5682TIP3    H217053   1.497   0.648   1.679
 5683TIP3   OH217054   0.251   5.479   4.319
 5683TIP3    H117055   0.306   5.413   4.276
 5683TIP3    H217056   0.237   5.546   4.252
 5684TIP3   OH217057   5.962   0.271   0.258
 5684TIP3    H117058   5.967   0.245   0.166
 5684TIP3    H217059   6.037   0.228   0.299
 5685TIP3   OH217060   1.657   3.194   0.949
 5685TIP3    H117061   1.625   3.279   0.917
 5685TIP3    H217062   1.579   3.153   0.986
 5686TIP3   OH217063   2.954   3.600   1.988
 5686TIP3    H117064   2.905   3.676   2.018
 5686TIP3    H217065   2.888   3.540   1.953
 5687TIP3   OH217066   1.049   1.058   3.045
 5687TIP3    H117067   1.037   1.106   2.964
 5687TIP3    H217068   1.122   1.101   3.089
 5688TIP3   OH217069   6.254   5.318   0.533
 5688TIP3    H117070   6.202   5.238   0.537
 5688TIP3    H217071   6.192   5.386   0.507
 5689TIP3   OH217072   1.255   1.258   0.928
 5689TIP3    H117073   1.286   1.298   1.009
 5689TIP3    H217074   1.225   1.170   0.954
 5690TIP3   OH217075   5.474   0.917   0.949
 5690TIP3    H117076   5.563   0.927   0.983
 5690TIP3    H217077   5.460   0.996   0.897
 5691TIP3   OH217078   6.183   4.345   0.516
 5691TIP3    H117079   6.240   4.412   0.554
 5691TIP3    H217080   6.094   4.372   0.539
 5692TIP3   OH217081   1.656   0.778   4.733
 5692TIP3    H117082   1.587   0.839   4.708
 5692TIP3    H217083   1.640   0.700   4.679
 5693TIP3   OH217084   2.189   3.485   2.651
 5693TIP3    H117085   2.217   3.525   2.733
 5693TIP3    H217086   2.112   3.536   2.624
 5694TIP3   OH217087   0.828   2.904   1.409
 5694TIP3    H117088   0.865   2.954   1.336
 5694TIP3    H217089   0.905   2.878   1.461
 5695TIP3   OH217090   5.203   0.149   3.647
 5695TIP3    H117091   5.164   0.162   3.733
 5695TIP3    H217092   5.184   0.058   3.625
 5696TIP3   OH217093   2.596   0.329   0.258
 5696TIP3    H117094   2.591   0.394   0.328
 5696TIP3    H217095   2.526   0.267   0.278
 5697TIP3   OH217096   0.137   0.414   1.784
 5697TIP3    H117097   0.160   0.507   1.775
 5697TIP3    H217098   0.095   0.393   1.700
 5698TIP3   OH217099   4.819   0.529   1.376
 5698TIP3    H117100   4.901   0.490   1.345
 5698TIP3    H217101   4.839   0.563   1.463
 5699TIP3   OH217102   3.028   3.660   0.954
 5699TIP3    H117103   3.016   3.755   0.944
 5699TIP3    H217104   3.116   3.644   0.920
 5700TIP3   OH217105   2.395   4.390   4.475
 5700TIP3    H117106   2.393   4.377   4.569
 5700TIP3    H217107   2.467   4.451   4.461
 5701TIP3   OH217108   2.891   4.618   4.746
 5701TIP3    H117109   2.909   4.712   4.747
 5701TIP3    H217110   2.965   4.581   4.697
 5702TIP3   OH217111   1.112   4.365   1.538
 5702TIP3    H117112   1.161   4.339   1.460
 5702TIP3    H217113   1.153   4.447   1.566
 5703TIP3   OH217114   1.488   0.684   0.684
 5703TIP3    H117115   1.566   0.695   0.739
 5703TIP3    H217116   1.512   0.615   0.622
 5704TIP3   OH217117   5.444   3.970   0.174
 5704TIP3    H117118   5.523   3.988   0.225
 5704TIP3    H217119   5.471   3.904   0.111
 5705TIP3   OH217120   3.527   1.791   4.677
 5705TIP3    H117121   3.549   1.747   4.595
 5705TIP3    H217122   3.606   1.841   4.699
 5706TIP3   OH217123   3.115   1.799   3.913
 5706TIP3    H117124   3.020   1.788   3.908
 5706TIP3    H217125   3.132   1.819   4.005
 5707TIP3   OH217126   4.638   3.980   2.456
 5707TIP3    H117127   4.565   3.934   2.415
 5707TIP3    H217128   4.684   3.913   2.506
 5708TIP3   OH217129   1.199   1.857   2.055
 5708TIP3    H117130   1.229   1.856   2.146
 5708TIP3    H217131   1.173   1.948   2.040
 5709TIP3   OH217132   4.648   5.588   1.573
 5709TIP3    H117133   4.572   5.530   1.568
 5709TIP3    H217134   4.723   5.530   1.559
 5710TIP3   OH217135   1.689   0.089   2.272
 5710TIP3    H117136   1.736   0.142   2.207
 5710TIP3    H217137   1.699  -0.001   2.242
 5711TIP3   OH217138   2.097   1.709   4.630
 5711TIP3    H117139   2.124   1.762   4.704
 5711TIP3    H217140   2.173   1.654   4.610
 5712TIP3   OH217141   1.553   4.382   0.620
 5712TIP3    H117142   1.553   4.474   0.593
 5712TIP3    H217143   1.646   4.362   0.633
 5713TIP3   OH217144   6.014   0.879   3.645
 5713TIP3    H117145   6.109   0.885   3.639
 5713TIP3    H217146   5.990   0.938   3.716
 5714TIP3   OH217147   5.848   3.682   2.493
 5714TIP3    H117148   5.884   3.600   2.525
 5714TIP3    H217149   5.909   3.749   2.523
 5715TIP3   OH217150   0.922   3.775   2.844
 5715TIP3    H117151   0.924   3.868   2.869
 5715TIP3    H217152   1.013   3.753   2.825
 5716TIP3   OH217153   2.426   0.943   0.937
 5716TIP3    H117154   2.406   0.854   0.966
 5716TIP3    H217155   2.492   0.932   0.869
 5717TIP3   OH217156   4.070   5.673   3.163
 5717TIP3    H117157   4.129   5.644   3.233
 5717TIP3    H217158   4.128   5.695   3.090
 5718TIP3   OH217159   0.786   2.886   5.124
 5718TIP3    H117160   0.745   2.874   5.038
 5718TIP3    H217161   0.829   2.972   5.117
 5719TIP3   OH217162   4.209   1.852   1.431
 5719TIP3    H117163   4.222   1.790   1.359
 5719TIP3    H217164   4.207   1.798   1.510
 5720TIP3   OH217165   6.237   3.938   5.093
 5720TIP3    H117166   6.251   3.975   5.180
 5720TIP3    H217167   6.251   3.844   5.104
 5721TIP3   OH217168   1.827   1.648   1.084
 5721TIP3    H117169   1.876   1.726   1.110
 5721TIP3    H217170   1.845   1.639   0.991
 5722TIP3   OH217171   5.116   2.914   3.142
 5722TIP3    H117172   5.169   2.900   3.220
 5722TIP3    H217173   5.042   2.968   3.172
 5723TIP3   OH217174   6.012   3.452   2.411
 5723TIP3    H117175   6.055   3.520   2.360
 5723TIP3    H217176   6.068   3.375   2.399
 5724TIP3   OH217177   3.524   4.656   0.130
 5724TIP3    H117178   3.551   4.598   0.059
 5724TIP3    H217179   3.602   4.663   0.186
 5725TIP3   OH217180   1.317   4.345   2.916
 5725TIP3    H117181   1.246   4.371   2.974
 5725TIP3    H217182   1.282   4.359   2.828
 5726TIP3   OH217183   0.145   5.337   3.070
 5726TIP3    H117184   0.174   5.361   3.158
 5726TIP3    H217185   0.225   5.307   3.026
 5727TIP3   OH217186   2.295   0.673   0.343
 5727TIP3    H117187   2.311   0.765   0.365
 5727TIP3    H217188   2.322   0.666   0.251
 5728TIP3   OH217189   5.173   3.938   3.591
 5728TIP3    H117190   5.255   3.924   3.637
 5728TIP3    H217191   5.150   4.029   3.610
 5729TIP3   OH217192   1.599   0.609   1.153
 5729TIP3    H117193   1.505   0.619   1.142
 5729TIP3    H217194   1.628   0.693   1.190
 5730TIP3   OH217195   1.383   1.320   3.885
 5730TIP3    H117196   1.336   1.319   3.801
 5730TIP3    H217197   1.440   1.397   3.880
 5731TIP3   OH217198   2.320   0.691   0.931
 5731TIP3    H117199   2.304   0.668   0.840
 5731TIP3    H217200   2.321   0.607   0.977
 5732TIP3   OH217201   1.520   2.600   3.612
 5732TIP3    H117202   1.451   2.642   3.562
 5732TIP3    H217203   1.585   2.669   3.627
 5733TIP3   OH217204   5.288   4.500   2.051
 5733TIP3    H117205   5.195   4.520   2.057
 5733TIP3    H217206   5.306   4.495   1.957
 5734TIP3   OH217207   3.304   0.818   3.483
 5734TIP3    H117208   3.298   0.800   3.389
 5734TIP3    H217209   3.221   0.860   3.504
 5735TIP3   OH217210   3.082   5.166   0.050
 5735TIP3    H117211   3.048   5.101   0.112
 5735TIP3    H217212   3.162   5.126   0.016
 5736TIP3   OH217213   0.104   0.811   0.765
 5736TIP3    H117214   0.175   0.871   0.741
 5736TIP3    H217215   0.120   0.732   0.713
 5737TIP3   OH217216   2.986   3.109   3.297
 5737TIP3    H117217   2.918   3.070   3.351
 5737TIP3    H217218   3.045   3.152   3.359
 5738TIP3   OH217219   0.611   4.266   1.635
 5738TIP3    H117220   0.534   4.322   1.646
 5738TIP3    H217221   0.685   4.327   1.628
 5739TIP3   OH217222   5.945   3.702   4.990
 5739TIP3    H117223   5.935   3.731   5.080
 5739TIP3    H217224   5.921   3.778   4.937
 5740TIP3   OH217225   3.095   1.034   4.475
 5740TIP3    H117226   3.050   0.978   4.412
 5740TIP3    H217227   3.058   1.121   4.461
 5741TIP3   OH217228   4.033   0.685   3.244
 5741TIP3    H117229   4.005   0.705   3.333
 5741TIP3    H217230   4.004   0.595   3.228
 5742TIP3   OH217231   1.286   0.770   0.865
 5742TIP3    H117232   1.249   0.848   0.824
 5742TIP3    H217233   1.347   0.735   0.800
 5743TIP3   OH217234   6.337   1.602   0.880
 5743TIP3    H117235   6.252   1.645   0.876
 5743TIP3    H217236   6.386   1.638   0.807
 5744TIP3   OH217237   3.971   0.017   3.322
 5744TIP3    H117238   3.953   0.010   3.228
 5744TIP3    H217239   4.010   0.104   3.332
 5745TIP3   OH217240   0.993   0.936   4.611
 5745TIP3    H117241   0.954   1.016   4.574
 5745TIP3    H217242   1.087   0.952   4.608
 5746TIP3   OH217243   1.650   2.793   2.356
 5746TIP3    H117244   1.638   2.876   2.402
 5746TIP3    H217245   1.670   2.819   2.266
 5747TIP3   OH217246   1.834   5.364   4.766
 5747TIP3    H117247   1.808   5.318   4.687
 5747TIP3    H217248   1.807   5.306   4.837
 5748TIP3   OH217249   5.443   4.906   1.101
 5748TIP3    H117250   5.514   4.922   1.162
 5748TIP3    H217251   5.435   4.988   1.051
 5749TIP3   OH217252   5.900   4.321   1.443
 5749TIP3    H117253   5.954   4.346   1.518
 5749TIP3    H217254   5.941   4.242   1.410
 5750TIP3   OH217255   5.680   4.052   0.341
 5750TIP3    H117256   5.664   4.141   0.373
 5750TIP3    H217257   5.665   3.996   0.418
 5751TIP3   OH217258   0.626   4.715   1.610
 5751TIP3    H117259   0.662   4.767   1.682
 5751TIP3    H217260   0.658   4.758   1.531
 5752TIP3   OH217261   3.839   3.607   1.386
 5752TIP3    H117262   3.852   3.678   1.448
 5752TIP3    H217263   3.922   3.559   1.386
 5753TIP3   OH217264   1.631   4.805   2.141
 5753TIP3    H117265   1.656   4.795   2.049
 5753TIP3    H217266   1.677   4.734   2.186
 5754TIP3   OH217267   5.830   4.531   5.007
 5754TIP3    H117268   5.798   4.617   5.037
 5754TIP3    H217269   5.759   4.496   4.954
 5755TIP3   OH217270   0.766   2.172   3.779
 5755TIP3    H117271   0.761   2.237   3.849
 5755TIP3    H217272   0.675   2.146   3.765
 5756TIP3   OH217273   0.345   4.411   1.161
 5756TIP3    H117274   0.261   4.423   1.116
 5756TIP3    H217275   0.400   4.483   1.129
 5757TIP3   OH217276   1.608   3.254   1.288
 5757TIP3    H117277   1.590   3.200   1.365
 5757TIP3    H217278   1.573   3.204   1.215
 5758TIP3   OH217279   4.874   3.067   0.573
 5758TIP3    H117280   4.817   2.992   0.551
 5758TIP3    H217281   4.898   3.052   0.664
 5759TIP3   OH217282   1.860   4.263   3.085
 5759TIP3    H117283   1.767   4.284   3.094
 5759TIP3    H217284   1.905   4.335   3.130
 5760TIP3   OH217285   5.398   4.331   1.306
 5760TIP3    H117286   5.333   4.358   1.370
 5760TIP3    H217287   5.350   4.272   1.247
 5761TIP3   OH217288   6.262   1.699   3.381
 5761TIP3    H117289   6.320   1.725   3.310
 5761TIP3    H217290   6.206   1.632   3.342
 5762TIP3   OH217291   5.798   4.008  -0.002
 5762TIP3    H117292   5.761   3.974   0.079
 5762TIP3    H217293   5.759   3.954  -0.071
 5763TIP3   OH217294   1.544   3.265   4.255
 5763TIP3    H117295   1.568   3.356   4.276
 5763TIP3    H217296   1.467   3.247   4.309
 5764TIP3   OH217297   0.472   2.279   1.016
 5764TIP3    H117298   0.446   2.281   0.924
 5764TIP3    H217299   0.450   2.190   1.045
 5765TIP3   OH217300   2.004   2.358   2.101
 5765TIP3    H117301   2.028   2.321   2.186
 5765TIP3    H217302   1.987   2.451   2.119
 5766TIP3   OH217303   6.081   2.640   5.087
 5766TIP3    H117304   6.064   2.666   4.997
 5766TIP3    H217305   6.132   2.560   5.080
 5767TIP3   OH217306   0.167   2.791   2.536
 5767TIP3    H117307   0.130   2.705   2.555
 5767TIP3    H217308   0.108   2.853   2.580
 5768TIP3   OH217309   2.015   3.802   3.351
 5768TIP3    H117310   1.974   3.734   3.298
 5768TIP3    H217311   2.049   3.756   3.428
 5769TIP3   OH217312   0.792   5.212   0.625
 5769TIP3    H117313   0.877   5.242   0.595
 5769TIP3    H217314   0.740   5.291   0.635
 5770TIP3   OH217315   4.679   0.824   1.448
 5770TIP3    H117316   4.681   0.918   1.469
 5770TIP3    H217317   4.740   0.784   1.511
 5771TIP3   OH217318   2.705   1.738   1.871
 5771TIP3    H117319   2.645   1.683   1.921
 5771TIP3    H217320   2.659   1.757   1.790
 5772TIP3   OH217321   1.562   4.963   5.140
 5772TIP3    H117322   1.656   4.949   5.131
 5772TIP3    H217323   1.532   4.892   5.197
 5773TIP3   OH217324   6.015   0.404   2.661
 5773TIP3    H117325   5.955   0.358   2.720
 5773TIP3    H217326   6.073   0.453   2.720
 5774TIP3   OH217327   0.882   2.327   2.663
 5774TIP3    H117328   0.798   2.288   2.688
 5774TIP3    H217329   0.947   2.259   2.680
 5775TIP3   OH217330   4.527   2.213   4.359
 5775TIP3    H117331   4.533   2.309   4.360
 5775TIP3    H217332   4.445   2.195   4.313
 5776TIP3   OH217333   1.709   4.420   4.246
 5776TIP3    H117334   1.783   4.364   4.271
 5776TIP3    H217335   1.677   4.455   4.329
 5777TIP3   OH217336   4.015   4.823   1.612
 5777TIP3    H117337   4.104   4.800   1.638
 5777TIP3    H217338   3.997   4.905   1.657
 5778TIP3   OH217339   0.103   4.796   0.279
 5778TIP3    H117340   0.025   4.756   0.241
 5778TIP3    H217341   0.130   4.862   0.215
 5779TIP3   OH217342   1.829   2.491   3.326
 5779TIP3    H117343   1.802   2.484   3.417
 5779TIP3    H217344   1.762   2.443   3.277
 5780TIP3   OH217345   0.422   1.785   4.484
 5780TIP3    H117346   0.365   1.859   4.463
 5780TIP3    H217347   0.389   1.754   4.569
 5781TIP3   OH217348   5.448   5.374   4.825
 5781TIP3    H117349   5.544   5.380   4.824
 5781TIP3    H217350   5.419   5.464   4.836
 5782TIP3   OH217351   3.320   4.056   2.315
 5782TIP3    H117352   3.402   4.071   2.362
 5782TIP3    H217353   3.311   4.132   2.258
 5783TIP3   OH217354   2.817   2.983   4.880
 5783TIP3    H117355   2.815   2.915   4.948
 5783TIP3    H217356   2.814   3.066   4.928
 5784TIP3   OH217357   3.407   4.361   0.339
 5784TIP3    H117358   3.399   4.417   0.417
 5784TIP3    H217359   3.499   4.369   0.314
 5785TIP3   OH217360   5.474   1.793   2.563
 5785TIP3    H117361   5.516   1.820   2.645
 5785TIP3    H217362   5.469   1.697   2.569
 5786TIP3   OH217363   6.286   0.066   0.117
 5786TIP3    H117364   6.262   0.158   0.105
 5786TIP3    H217365   6.236   0.039   0.194
 5787TIP3   OH217366   3.619   2.277   3.848
 5787TIP3    H117367   3.619   2.203   3.788
 5787TIP3    H217368   3.690   2.259   3.909
 5788TIP3   OH217369   1.286   3.333   0.229
 5788TIP3    H117370   1.224   3.321   0.301
 5788TIP3    H217371   1.296   3.246   0.191
 5789TIP3   OH217372   2.681   2.263   3.286
 5789TIP3    H117373   2.696   2.168   3.288
 5789TIP3    H217374   2.589   2.273   3.307
 5790TIP3   OH217375   6.227   1.058   2.532
 5790TIP3    H117376   6.256   1.104   2.453
 5790TIP3    H217377   6.302   1.064   2.591
 5791TIP3   OH217378   2.424   5.717   1.194
 5791TIP3    H117379   2.432   5.811   1.210
 5791TIP3    H217380   2.502   5.679   1.234
 5792TIP3   OH217381   2.593   0.108   1.212
 5792TIP3    H117382   2.613   0.201   1.218
 5792TIP3    H217383   2.583   0.091   1.119
 5793TIP3   OH217384   1.709   5.871   0.398
 5793TIP3    H117385   1.684   5.779   0.407
 5793TIP3    H217386   1.793   5.869   0.351
 5794TIP3   OH217387   0.524   2.143   2.916
 5794TIP3    H117388   0.496   2.148   2.825
 5794TIP3    H217389   0.526   2.234   2.946
 5795TIP3   OH217390   0.181   0.741   4.757
 5795TIP3    H117391   0.242   0.688   4.707
 5795TIP3    H217392   0.147   0.805   4.694
 5796TIP3   OH217393   4.757   5.103   4.324
 5796TIP3    H117394   4.667   5.128   4.342
 5796TIP3    H217395   4.759   5.008   4.340
 5797TIP3   OH217396   1.756   5.432   3.136
 5797TIP3    H117397   1.820   5.431   3.065
 5797TIP3    H217398   1.788   5.368   3.199
 5798TIP3   OH217399   2.328   1.446   2.374
 5798TIP3    H117400   2.334   1.537   2.402
 5798TIP3    H217401   2.253   1.410   2.421
 5799TIP3   OH217402   1.604   5.431   1.441
 5799TIP3    H117403   1.619   5.420   1.535
 5799TIP3    H217404   1.546   5.506   1.435
 5800TIP3   OH217405   1.375   3.710   2.901
 5800TIP3    H117406   1.402   3.742   2.815
 5800TIP3    H217407   1.456   3.686   2.945
 5801TIP3   OH217408   0.947   2.723   0.435
 5801TIP3    H117409   1.031   2.742   0.391
 5801TIP3    H217410   0.969   2.655   0.499
 5802TIP3   OH217411   4.077   2.263   2.583
 5802TIP3    H117412   4.006   2.326   2.575
 5802TIP3    H217413   4.155   2.316   2.598
 5803TIP3   OH217414   1.355   5.101   2.680
 5803TIP3    H117415   1.328   5.083   2.590
 5803TIP3    H217416   1.449   5.087   2.680
 5804TIP3   OH217417   5.282   2.799   0.227
 5804TIP3    H117418   5.250   2.709   0.221
 5804TIP3    H217419   5.234   2.846   0.159
 5805TIP3   OH217420   5.294   0.295   0.603
 5805TIP3    H117421   5.319   0.285   0.695
 5805TIP3    H217422   5.361   0.247   0.555
 5806TIP3   OH217423   5.301   2.718   5.163
 5806TIP3    H117424   5.353   2.705   5.084
 5806TIP3    H217425   5.228   2.774   5.135
 5807TIP3   OH217426   3.467   5.736   2.703
 5807TIP3    H117427   3.377   5.732   2.671
 5807TIP3    H217428   3.501   5.648   2.691
 5808TIP3   OH217429   2.120   5.660   0.874
 5808TIP3    H117430   2.201   5.639   0.827
 5808TIP3    H217431   2.114   5.755   0.870
 5809TIP3   OH217432   2.011   0.837   5.059
 5809TIP3    H117433   2.061   0.756   5.054
 5809TIP3    H217434   2.031   0.883   4.977
 5810TIP3   OH217435   0.004   4.511   0.657
 5810TIP3    H117436   0.029   4.563   0.733
 5810TIP3    H217437   0.086   4.499   0.608
 5811TIP3   OH217438   4.030   3.247   4.864
 5811TIP3    H117439   4.061   3.269   4.952
 5811TIP3    H217440   3.984   3.326   4.835
 5812TIP3   OH217441   1.522   0.186   1.218
 5812TIP3    H117442   1.514   0.121   1.288
 5812TIP3    H217443   1.561   0.262   1.262
 5813TIP3   OH217444   0.556   1.621   4.926
 5813TIP3    H117445   0.594   1.705   4.952
 5813TIP3    H217446   0.631   1.571   4.892
 5814TIP3   OH217447   5.686   3.015   2.565
 5814TIP3    H117448   5.613   3.001   2.505
 5814TIP3    H217449   5.758   3.044   2.509
 5815TIP3   OH217450   3.799   1.524   0.195
 5815TIP3    H117451   3.848   1.560   0.269
 5815TIP3    H217452   3.867   1.500   0.131
 5816TIP3   OH217453   4.738   4.031   3.026
 5816TIP3    H117454   4.818   4.083   3.024
 5816TIP3    H217455   4.690   4.063   3.103
 5817TIP3   OH217456   4.278   0.479   4.577
 5817TIP3    H117457   4.310   0.519   4.657
 5817TIP3    H217458   4.252   0.390   4.603
 5818TIP3   OH217459   5.138   4.583   4.347
 5818TIP3    H117460   5.182   4.609   4.427
 5818TIP3    H217461   5.179   4.636   4.278
 5819TIP3   OH217462   3.241   5.589   2.259
 5819TIP3    H117463   3.279   5.523   2.201
 5819TIP3    H217464   3.231   5.544   2.343
 5820TIP3   OH217465   5.418   2.617   4.940
 5820TIP3    H117466   5.374   2.677   4.880
 5820TIP3    H217467   5.440   2.541   4.887
 5821TIP3   OH217468   1.736   3.522   3.276
 5821TIP3    H117469   1.744   3.537   3.370
 5821TIP3    H217470   1.720   3.428   3.268
 5822TIP3   OH217471   3.379   1.301   0.268
 5822TIP3    H117472   3.473   1.300   0.248
 5822TIP3    H217473   3.343   1.230   0.215
 5823TIP3   OH217474   5.632   2.345   1.648
 5823TIP3    H117475   5.578   2.365   1.724
 5823TIP3    H217476   5.670   2.429   1.622
 5824TIP3   OH217477   2.431   5.588   2.133
 5824TIP3    H117478   2.453   5.680   2.144
 5824TIP3    H217479   2.477   5.543   2.204
 5825TIP3   OH217480   1.025   0.424   4.582
 5825TIP3    H117481   0.941   0.416   4.628
 5825TIP3    H217482   1.025   0.512   4.545
 5826TIP3   OH217483   5.199   0.612   2.034
 5826TIP3    H117484   5.167   0.668   2.105
 5826TIP3    H217485   5.220   0.674   1.964
 5827TIP3   OH217486   1.508   0.444   2.828
 5827TIP3    H117487   1.539   0.403   2.910
 5827TIP3    H217488   1.426   0.487   2.853
 5828TIP3   OH217489   2.649   5.284   4.922
 5828TIP3    H117490   2.647   5.313   4.831
 5828TIP3    H217491   2.642   5.188   4.918
 5829TIP3   OH217492   2.288   2.564   2.849
 5829TIP3    H117493   2.195   2.583   2.837
 5829TIP3    H217494   2.300   2.479   2.805
 5830TIP3   OH217495   2.290   2.785   1.137
 5830TIP3    H117496   2.240   2.850   1.087
 5830TIP3    H217497   2.307   2.827   1.221
 5831TIP3   OH217498   0.156   2.707   0.986
 5831TIP3    H117499   0.061   2.712   0.975
 5831TIP3    H217500   0.177   2.614   0.976
 5832TIP3   OH217501   5.809   5.686   4.426
 5832TIP3    H117502   5.869   5.746   4.382
 5832TIP3    H217503   5.862   5.642   4.492
 5833TIP3   OH217504   5.920   3.612   1.136
 5833TIP3    H117505   5.879   3.698   1.134
 5833TIP3    H217506   6.010   3.628   1.105
 5834TIP3   OH217507   6.187   5.047   0.203
 5834TIP3    H117508   6.209   5.039   0.111
 5834TIP3    H217509   6.268   5.077   0.245
 5835TIP3   OH217510   2.156   0.612   4.869
 5835TIP3    H117511   2.204   0.637   4.791
 5835TIP3    H217512   2.069   0.651   4.857
 5836TIP3   OH217513   0.559   0.458   3.731
 5836TIP3    H117514   0.556   0.543   3.774
 5836TIP3    H217515   0.501   0.403   3.784
 5837TIP3   OH217516   0.583   3.460   1.049
 5837TIP3    H117517   0.589   3.477   0.955
 5837TIP3    H217518   0.498   3.497   1.074
 5838TIP3   OH217519   6.018   1.388   4.316
 5838TIP3    H117520   5.963   1.345   4.382
 5838TIP3    H217521   6.044   1.317   4.257
 5839TIP3   OH217522   3.218   3.227   0.973
 5839TIP3    H117523   3.163   3.305   0.963
 5839TIP3    H217524   3.222   3.213   1.068
 5840TIP3   OH217525   2.113   3.330   3.241
 5840TIP3    H117526   2.170   3.403   3.220
 5840TIP3    H217527   2.170   3.253   3.239
 5841TIP3   OH217528   5.930   3.086   4.811
 5841TIP3    H117529   5.895   3.045   4.890
 5841TIP3    H217530   5.926   3.180   4.829
 5842TIP3   OH217531   0.157   4.814   3.103
 5842TIP3    H117532   0.212   4.867   3.045
 5842TIP3    H217533   0.218   4.780   3.169
 5843TIP3   OH217534   4.246   1.987   3.343
 5843TIP3    H117535   4.215   1.906   3.384
 5843TIP3    H217536   4.323   2.012   3.394
 5844TIP3   OH217537   5.938   0.074   3.796
 5844TIP3    H117538   6.023   0.114   3.815
 5844TIP3    H217539   5.897   0.063   3.882
 5845TIP3   OH217540   4.254   0.730   0.768
 5845TIP3    H117541   4.307   0.734   0.689
 5845TIP3    H217542   4.211   0.644   0.764
 5846TIP3   OH217543   0.901   3.180   1.358
 5846TIP3    H117544   0.844   3.176   1.435
 5846TIP3    H217545   0.965   3.248   1.378
 5847TIP3   OH217546   2.251   2.086   1.309
 5847TIP3    H117547   2.173   2.075   1.364
 5847TIP3    H217548   2.217   2.126   1.228
 5848TIP3   OH217549   3.054   4.830   4.804
 5848TIP3    H117550   3.057   4.911   4.754
 5848TIP3    H217551   3.145   4.810   4.824
 5849TIP3   OH217552   5.710   3.657   4.197
 5849TIP3    H117553   5.736   3.692   4.112
 5849TIP3    H217554   5.652   3.584   4.177
 5850TIP3   OH217555   5.695   3.385   2.290
 5850TIP3    H117556   5.678   3.344   2.206
 5850TIP3    H217557   5.766   3.447   2.273
 5851TIP3   OH217558   5.654   1.023   3.979
 5851TIP3    H117559   5.560   1.029   3.998
 5851TIP3    H217560   5.674   0.930   3.984
 5852TIP3   OH217561   0.589   0.359   1.105
 5852TIP3    H117562   0.639   0.278   1.098
 5852TIP3    H217563   0.546   0.354   1.190
 5853TIP3   OH217564   4.160   0.233   4.173
 5853TIP3    H117565   4.207   0.200   4.249
 5853TIP3    H217566   4.068   0.215   4.193
 5854TIP3   OH217567   0.590   5.603   1.572
 5854TIP3    H117568   0.580   5.693   1.541
 5854TIP3    H217569   0.607   5.552   1.493
 5855TIP3   OH217570   2.616   4.324   3.864
 5855TIP3    H117571   2.629   4.319   3.770
 5855TIP3    H217572   2.702   4.353   3.898
 5856TIP3   OH217573   3.875   4.916   3.595
 5856TIP3    H117574   3.871   5.011   3.599
 5856TIP3    H217575   3.798   4.890   3.544
 5857TIP3   OH217576   0.161   2.305   2.724
 5857TIP3    H117577   0.150   2.228   2.669
 5857TIP3    H217578   0.162   2.271   2.814
 5858TIP3   OH217579   2.712   1.174   0.478
 5858TIP3    H117580   2.762   1.212   0.405
 5858TIP3    H217581   2.778   1.149   0.542
 5859TIP3   OH217582   0.835   2.515   1.292
 5859TIP3    H117583   0.895   2.443   1.309
 5859TIP3    H217584   0.890   2.593   1.291
 5860TIP3   OH217585   2.758   3.692   1.080
 5860TIP3    H117586   2.722   3.728   0.999
 5860TIP3    H217587   2.848   3.669   1.058
 5861TIP3   OH217588   3.958   5.809   3.846
 5861TIP3    H117589   3.874   5.846   3.817
 5861TIP3    H217590   3.934   5.732   3.897
 5862TIP3   OH217591   4.185   3.756   0.739
 5862TIP3    H117592   4.139   3.768   0.656
 5862TIP3    H217593   4.275   3.737   0.714
 5863TIP3   OH217594   3.970   0.629   1.956
 5863TIP3    H117595   3.944   0.620   1.865
 5863TIP3    H217596   4.014   0.713   1.961
 5864TIP3   OH217597   2.544   2.964   2.784
 5864TIP3    H117598   2.526   2.885   2.733
 5864TIP3    H217599   2.610   2.938   2.847
 5865TIP3   OH217600   4.863   0.281   4.524
 5865TIP3    H117601   4.810   0.360   4.513
 5865TIP3    H217602   4.839   0.247   4.610
 5866TIP3   OH217603   2.214   0.030   0.080
 5866TIP3    H117604   2.232   0.083   0.001
 5866TIP3    H217605   2.266  -0.049   0.067
 5867TIP3   OH217606   2.832   3.444   2.360
 5867TIP3    H117607   2.915   3.492   2.363
 5867TIP3    H217608   2.796   3.454   2.448
 5868TIP3   OH217609   3.189   3.467   5.070
 5868TIP3    H117610   3.280   3.469   5.039
 5868TIP3    H217611   3.195   3.436   5.160
 5869TIP3   OH217612   0.777   0.283   2.118
 5869TIP3    H117613   0.832   0.350   2.159
 5869TIP3    H217614   0.802   0.286   2.025
 5870TIP3   OH217615   6.316   1.064   1.103
 5870TIP3    H117616   6.312   1.088   1.011
 5870TIP3    H217617   6.331   1.146   1.149
 5871TIP3   OH217618   0.786   0.152   0.906
 5871TIP3    H117619   0.794   0.160   0.811
 5871TIP3    H217620   0.865   0.194   0.940
 5872TIP3   OH217621   2.057   0.223   3.720
 5872TIP3    H117622   2.025   0.206   3.631
 5872TIP3    H217623   2.011   0.159   3.775
 5873TIP3   OH217624   3.045   4.337   0.336
 5873TIP3    H117625   3.032   4.242   0.332
 5873TIP3    H217626   3.137   4.350   0.315
 5874TIP3   OH217627   3.536   0.414   4.767
 5874TIP3    H117628   3.455   0.385   4.809
 5874TIP3    H217629   3.523   0.395   4.674
 5875TIP3   OH217630   2.634   2.426   3.551
 5875TIP3    H117631   2.599   2.425   3.462
 5875TIP3    H217632   2.633   2.334   3.579
 5876TIP3   OH217633   1.931   3.213   2.855
 5876TIP3    H117634   2.011   3.188   2.810
 5876TIP3    H217635   1.945   3.305   2.878
 5877TIP3   OH217636   0.235   5.671   4.134
 5877TIP3    H117637   0.256   5.677   4.041
 5877TIP3    H217638   0.309   5.714   4.178
 5878TIP3   OH217639   2.447   3.595   4.652
 5878TIP3    H117640   2.379   3.663   4.651
 5878TIP3    H217641   2.463   3.576   4.560
 5879TIP3   OH217642   2.196   4.903   0.275
 5879TIP3    H117643   2.199   4.983   0.327
 5879TIP3    H217644   2.153   4.839   0.332
 5880TIP3   OH217645   1.851   1.585   4.561
 5880TIP3    H117646   1.793   1.655   4.530
 5880TIP3    H217647   1.939   1.619   4.548
 5881TIP3   OH217648   3.156   3.010   3.106
 5881TIP3    H117649   3.185   2.940   3.165
 5881TIP3    H217650   3.102   3.066   3.162
 5882TIP3   OH217651   2.219   2.266   2.634
 5882TIP3    H117652   2.149   2.201   2.637
 5882TIP3    H217653   2.231   2.293   2.725
 5883TIP3   OH217654   3.320   0.155   0.684
 5883TIP3    H117655   3.383   0.144   0.755
 5883TIP3    H217656   3.275   0.237   0.704
 5884TIP3   OH217657   5.406   4.794   3.160
 5884TIP3    H117658   5.359   4.758   3.236
 5884TIP3    H217659   5.459   4.721   3.128
 5885TIP3   OH217660   3.315   2.581   2.450
 5885TIP3    H117661   3.363   2.548   2.526
 5885TIP3    H217662   3.301   2.673   2.469
 5886TIP3   OH217663   0.935   2.454   3.684
 5886TIP3    H117664   0.874   2.501   3.739
 5886TIP3    H217665   0.992   2.522   3.648
 5887TIP3   OH217666   0.288   2.483   1.036
 5887TIP3    H117667   0.325   2.398   1.012
 5887TIP3    H217668   0.304   2.491   1.130
 5888TIP3   OH217669   1.936   0.957   0.715
 5888TIP3    H117670   1.921   0.912   0.631
 5888TIP3    H217671   1.905   1.046   0.699
 5889TIP3   OH217672   4.856   0.341   0.990
 5889TIP3    H117673   4.862   0.393   0.909
 5889TIP3    H217674   4.947   0.328   1.017
 5890TIP3   OH217675   4.464   1.294   1.922
 5890TIP3    H117676   4.483   1.227   1.857
 5890TIP3    H217677   4.543   1.348   1.926
 5891TIP3   OH217678   0.918   3.248   1.938
 5891TIP3    H117679   0.959   3.188   1.875
 5891TIP3    H217680   0.825   3.245   1.917
 5892TIP3   OH217681   2.768   3.178   2.587
 5892TIP3    H117682   2.715   3.219   2.655
 5892TIP3    H217683   2.840   3.241   2.571
 5893TIP3   OH217684   5.063   0.607   0.405
 5893TIP3    H117685   5.031   0.695   0.385
 5893TIP3    H217686   4.984   0.557   0.427
 5894TIP3   OH217687   3.618   4.452   2.358
 5894TIP3    H117688   3.670   4.371   2.354
 5894TIP3    H217689   3.663   4.512   2.299
 5895TIP3   OH217690   1.937   2.059   3.682
 5895TIP3    H117691   1.978   2.078   3.598
 5895TIP3    H217692   1.982   2.115   3.745
 5896TIP3   OH217693   0.436   3.933   2.957
 5896TIP3    H117694   0.432   3.851   3.006
 5896TIP3    H217695   0.384   3.916   2.878
 5897TIP3   OH217696   2.184   2.984   3.901
 5897TIP3    H117697   2.119   3.043   3.940
 5897TIP3    H217698   2.267   3.011   3.939
 5898TIP3   OH217699   0.355   1.401   3.616
 5898TIP3    H117700   0.432   1.354   3.648
 5898TIP3    H217701   0.344   1.474   3.678
 5899TIP3   OH217702   0.773   1.727   3.283
 5899TIP3    H117703   0.793   1.705   3.192
 5899TIP3    H217704   0.697   1.672   3.305
 5900TIP3   OH217705   3.303   4.660   2.006
 5900TIP3    H117706   3.224   4.713   2.008
 5900TIP3    H217707   3.277   4.579   1.962
 5901TIP3   OH217708   0.862   1.546   5.109
 5901TIP3    H117709   0.807   1.512   5.181
 5901TIP3    H217710   0.903   1.469   5.072
 5902TIP3   OH217711   0.573   4.591   1.958
 5902TIP3    H117712   0.520   4.559   2.031
 5902TIP3    H217713   0.636   4.521   1.941
 5903TIP3   OH217714   5.368   3.406   4.505
 5903TIP3    H117715   5.304   3.364   4.561
 5903TIP3    H217716   5.453   3.380   4.543
 5904TIP3   OH217717   3.348   1.406   2.677
 5904TIP3    H117718   3.286   1.408   2.751
 5904TIP3    H217719   3.416   1.469   2.702
 5905TIP3   OH217720   5.803   3.863   4.787
 5905TIP3    H117721   5.834   3.954   4.784
 5905TIP3    H217722   5.831   3.826   4.703
 5906TIP3   OH217723   5.515   0.579   3.009
 5906TIP3    H117724   5.553   0.584   2.922
 5906TIP3    H217725   5.569   0.637   3.063
 5907TIP3   OH217726   3.580   2.457   1.173
 5907TIP3    H117727   3.573   2.382   1.114
 5907TIP3    H217728   3.673   2.465   1.192
 5908TIP3   OH217729   5.652   3.690   4.950
 5908TIP3    H117730   5.733   3.654   4.984
 5908TIP3    H217731   5.677   3.733   4.868
 5909TIP3   OH217732   0.674   4.099   2.928
 5909TIP3    H117733   0.650   4.150   2.850
 5909TIP3    H217734   0.602   4.037   2.938
 5910TIP3   OH217735   4.671   0.624   2.132
 5910TIP3    H117736   4.588   0.584   2.107
 5910TIP3    H217737   4.647   0.713   2.157
 5911TIP3   OH217738   1.172   3.009   0.382
 5911TIP3    H117739   1.179   3.093   0.427
 5911TIP3    H217740   1.242   3.011   0.317
 5912TIP3   OH217741   1.369   1.956   1.657
 5912TIP3    H117742   1.387   1.880   1.602
 5912TIP3    H217743   1.274   1.957   1.667
 5913TIP3   OH217744   2.554   1.784   2.252
 5913TIP3    H117745   2.634   1.783   2.304
 5913TIP3    H217746   2.551   1.873   2.216
 5914TIP3   OH217747   3.043   3.186   0.274
 5914TIP3    H117748   3.031   3.098   0.308
 5914TIP3    H217749   3.135   3.207   0.292
 5915TIP3   OH217750   2.752   5.513   3.359
 5915TIP3    H117751   2.758   5.588   3.300
 5915TIP3    H217752   2.711   5.547   3.438
 5916TIP3   OH217753   0.155   4.161   0.359
 5916TIP3    H117754   0.224   4.105   0.395
 5916TIP3    H217755   0.180   4.250   0.386
 5917TIP3   OH217756   5.252   1.495   4.514
 5917TIP3    H117757   5.267   1.456   4.601
 5917TIP3    H217758   5.300   1.437   4.454
 5918TIP3   OH217759   4.853   1.186   0.007
 5918TIP3    H117760   4.791   1.259   0.014
 5918TIP3    H217761   4.808   1.114   0.050
 5919TIP3   OH217762   2.773   3.419   1.344
 5919TIP3    H117763   2.699   3.469   1.380
 5919TIP3    H217764   2.734   3.366   1.274
 5920TIP3   OH217765   3.473   3.839   5.026
 5920TIP3    H117766   3.388   3.883   5.023
 5920TIP3    H217767   3.510   3.867   5.110
 5921TIP3   OH217768   0.396   2.527   1.609
 5921TIP3    H117769   0.437   2.534   1.696
 5921TIP3    H217770   0.401   2.616   1.574
 5922TIP3   OH217771   1.959   1.819   0.038
 5922TIP3    H117772   1.993   1.776  -0.040
 5922TIP3    H217773   1.870   1.844   0.013
 5923TIP3   OH217774   2.902   2.867   2.881
 5923TIP3    H117775   2.995   2.869   2.906
 5923TIP3    H217776   2.883   2.957   2.856
 5924TIP3   OH217777   1.766   3.131   1.695
 5924TIP3    H117778   1.782   3.041   1.667
 5924TIP3    H217779   1.831   3.183   1.647
 5925TIP3   OH217780   2.755   5.794   0.834
 5925TIP3    H117781   2.730   5.883   0.859
 5925TIP3    H217782   2.830   5.806   0.775
 5926TIP3   OH217783   4.762   3.307   0.852
 5926TIP3    H117784   4.681   3.354   0.874
 5926TIP3    H217785   4.807   3.364   0.790
 5927TIP3   OH217786   3.228   1.877   3.670
 5927TIP3    H117787   3.215   1.970   3.690
 5927TIP3    H217788   3.194   1.831   3.747
 5928TIP3   OH217789   3.156   2.417   3.328
 5928TIP3    H117790   3.072   2.385   3.361
 5928TIP3    H217791   3.221   2.361   3.371
 5929TIP3   OH217792   5.482   5.920   1.151
 5929TIP3    H117793   5.488   5.949   1.060
 5929TIP3    H217794   5.454   5.998   1.199
 5930TIP3   OH217795   2.463   4.228   3.445
 5930TIP3    H117796   2.520   4.288   3.495
 5930TIP3    H217797   2.472   4.144   3.489
 5931TIP3   OH217798   5.533   0.360   1.496
 5931TIP3    H117799   5.483   0.280   1.514
 5931TIP3    H217800   5.570   0.384   1.581
 5932TIP3   OH217801   5.487   5.519   2.773
 5932TIP3    H117802   5.405   5.497   2.818
 5932TIP3    H217803   5.555   5.505   2.838
 5933TIP3   OH217804   2.573   0.227   1.946
 5933TIP3    H117805   2.581   0.282   2.024
 5933TIP3    H217806   2.525   0.150   1.977
 5934TIP3   OH217807   0.958   1.617   1.281
 5934TIP3    H117808   1.013   1.568   1.220
 5934TIP3    H217809   0.997   1.601   1.367
 5935TIP3   OH217810   3.234   3.167   1.792
 5935TIP3    H117811   3.285   3.209   1.861
 5935TIP3    H217812   3.298   3.121   1.738
 5936TIP3   OH217813   5.786   4.928   3.689
 5936TIP3    H117814   5.849   4.930   3.761
 5936TIP3    H217815   5.701   4.945   3.731
 5937TIP3   OH217816   5.314   1.559   3.725
 5937TIP3    H117817   5.401   1.567   3.687
 5937TIP3    H217818   5.282   1.474   3.693
 5938TIP3   OH217819   2.732   2.032   1.933
 5938TIP3    H117820   2.771   2.060   1.850
 5938TIP3    H217821   2.752   1.938   1.938
 5939TIP3   OH217822   0.199   3.912   5.060
 5939TIP3    H117823   0.119   3.862   5.074
 5939TIP3    H217824   0.268   3.846   5.051
 5940TIP3   OH217825   5.363   2.435   2.401
 5940TIP3    H117826   5.411   2.383   2.337
 5940TIP3    H217827   5.316   2.500   2.349
 5941TIP3   OH217828   4.240   2.427   2.238
 5941TIP3    H117829   4.286   2.353   2.278
 5941TIP3    H217830   4.177   2.387   2.178
 5942TIP3   OH217831   3.187   2.162   2.318
 5942TIP3    H117832   3.142   2.197   2.395
 5942TIP3    H217833   3.128   2.179   2.245
 5943TIP3   OH217834   0.962   5.086   1.654
 5943TIP3    H117835   0.895   5.143   1.691
 5943TIP3    H217836   1.027   5.077   1.724
 5944TIP3   OH217837   3.364   0.948   2.086
 5944TIP3    H117838   3.296   0.891   2.048
 5944TIP3    H217839   3.315   1.009   2.141
 5945TIP3   OH217840   1.442   5.561   1.885
 5945TIP3    H117841   1.468   5.603   1.803
 5945TIP3    H217842   1.348   5.580   1.893
 5946TIP3   OH217843   1.954   1.215   3.198
 5946TIP3    H117844   1.952   1.252   3.286
 5946TIP3    H217845   1.953   1.292   3.140
 5947TIP3   OH217846   0.786   0.757   4.709
 5947TIP3    H117847   0.769   0.697   4.636
 5947TIP3    H217848   0.859   0.811   4.678
 5948TIP3   OH217849   1.581   4.132   4.440
 5948TIP3    H117850   1.594   4.131   4.345
 5948TIP3    H217851   1.601   4.042   4.468
 5949TIP3   OH217852   6.178   3.120   4.262
 5949TIP3    H117853   6.084   3.117   4.276
 5949TIP3    H217854   6.198   3.043   4.209
 5950TIP3   OH217855   3.902   3.606   3.996
 5950TIP3    H117856   3.852   3.602   4.078
 5950TIP3    H217857   3.993   3.608   4.023
 5951TIP3   OH217858   1.541   5.656   4.520
 5951TIP3    H117859   1.585   5.619   4.444
 5951TIP3    H217860   1.536   5.584   4.583
 5952TIP3   OH217861   4.983   0.732   4.643
 5952TIP3    H117862   4.904   0.786   4.634
 5952TIP3    H217863   4.972   0.665   4.575
 5953TIP3   OH217864   2.152   2.373   3.969
 5953TIP3    H117865   2.109   2.453   3.998
 5953TIP3    H217866   2.231   2.367   4.022
 5954TIP3   OH217867   4.272   3.198   1.857
 5954TIP3    H117868   4.301   3.281   1.895
 5954TIP3    H217869   4.334   3.134   1.890
 5955TIP3   OH217870   1.297   3.180   4.995
 5955TIP3    H117871   1.331   3.196   4.907
 5955TIP3    H217872   1.366   3.131   5.039
 5956TIP3   OH217873   2.543   2.291   4.811
 5956TIP3    H117874   2.586   2.206   4.821
 5956TIP3    H217875   2.572   2.341   4.887
 5957TIP3   OH217876   2.593   2.069   2.177
 5957TIP3    H117877   2.657   2.088   2.110
 5957TIP3    H217878   2.588   2.148   2.230
 5958TIP3   OH217879   6.123   3.234   3.927
 5958TIP3    H117880   6.080   3.179   3.993
 5958TIP3    H217881   6.132   3.177   3.851
 5959TIP3   OH217882   3.249   5.505   3.855
 5959TIP3    H117883   3.297   5.565   3.798
 5959TIP3    H217884   3.186   5.561   3.902
 5960TIP3   OH217885   3.994   3.152   3.494
 5960TIP3    H117886   3.988   3.081   3.430
 5960TIP3    H217887   4.050   3.217   3.452
 5961TIP3   OH217888   2.428   0.513   2.284
 5961TIP3    H117889   2.498   0.470   2.333
 5961TIP3    H217890   2.397   0.446   2.223
 5962TIP3   OH217891   1.751   1.549   0.483
 5962TIP3    H117892   1.671   1.505   0.454
 5962TIP3    H217893   1.777   1.605   0.409
 5963TIP3   OH217894   6.062   1.165   2.015
 5963TIP3    H117895   6.089   1.081   2.054
 5963TIP3    H217896   6.028   1.216   2.088
 5964TIP3   OH217897   1.286   1.013   0.084
 5964TIP3    H117898   1.257   1.103   0.071
 5964TIP3    H217899   1.366   1.022   0.138
 5965TIP3   OH217900   4.371   5.736   0.748
 5965TIP3    H117901   4.331   5.706   0.829
 5965TIP3    H217902   4.300   5.776   0.698
 5966TIP3   OH217903   5.027   5.963   4.684
 5966TIP3    H117904   4.977   5.904   4.739
 5966TIP3    H217905   5.115   5.926   4.682
 5967TIP3   OH217906   1.018   3.696   4.816
 5967TIP3    H117907   1.084   3.766   4.812
 5967TIP3    H217908   0.947   3.733   4.868
 5968TIP3   OH217909   4.736   5.605   4.201
 5968TIP3    H117910   4.708   5.544   4.133
 5968TIP3    H217911   4.676   5.590   4.274
 5969TIP3   OH217912   1.532   1.891   0.279
 5969TIP3    H117913   1.625   1.910   0.267
 5969TIP3    H217914   1.528   1.795   0.286
 5970TIP3   OH217915   1.207   0.444   1.240
 5970TIP3    H117916   1.244   0.430   1.327
 5970TIP3    H217917   1.116   0.470   1.256
 5971TIP3   OH217918   2.636   3.570   4.349
 5971TIP3    H117919   2.609   3.499   4.408
 5971TIP3    H217920   2.606   3.542   4.263
 5972TIP3   OH217921   4.030   1.955   1.235
 5972TIP3    H117922   4.100   1.916   1.287
 5972TIP3    H217923   4.075   2.004   1.166
 5973TIP3   OH217924   5.855   1.919   4.042
 5973TIP3    H117925   5.792   1.915   4.114
 5973TIP3    H217926   5.906   1.998   4.059
 5974TIP3   OH217927   1.941   3.262   3.920
 5974TIP3    H117928   1.985   3.338   3.883
 5974TIP3    H217929   1.902   3.294   4.001
 5975TIP3   OH217930   4.787   4.313   1.064
 5975TIP3    H117931   4.791   4.245   1.131
 5975TIP3    H217932   4.864   4.297   1.010
 5976TIP3   OH217933   4.187   2.884   2.079
 5976TIP3    H117934   4.270   2.839   2.095
 5976TIP3    H217935   4.207   2.977   2.093
 5977TIP3   OH217936   5.863   3.699   3.979
 5977TIP3    H117937   5.956   3.708   3.998
 5977TIP3    H217938   5.855   3.611   3.940
 5978TIP3   OH217939   2.122   0.724   3.044
 5978TIP3    H117940   2.038   0.684   3.022
 5978TIP3    H217941   2.101   0.817   3.056
 5979TIP3   OH217942   0.709   3.201   2.246
 5979TIP3    H117943   0.621   3.197   2.282
 5979TIP3    H217944   0.767   3.183   2.320
 5980TIP3   OH217945   1.090   2.249   4.174
 5980TIP3    H117946   1.171   2.297   4.193
 5980TIP3    H217947   1.087   2.245   4.079
 5981TIP3   OH217948   5.555   3.753   0.713
 5981TIP3    H117949   5.593   3.691   0.775
 5981TIP3    H217950   5.500   3.810   0.766
 5982TIP3   OH217951   3.647   2.142   5.208
 5982TIP3    H117952   3.596   2.201   5.153
 5982TIP3    H217953   3.678   2.074   5.148
 5983TIP3   OH217954   0.576   4.871   3.450
 5983TIP3    H117955   0.615   4.788   3.424
 5983TIP3    H217956   0.649   4.923   3.484
 5984TIP3   OH217957   6.207   5.849   0.139
 5984TIP3    H117958   6.244   5.905   0.071
 5984TIP3    H217959   6.112   5.853   0.124
 5985TIP3   OH217960   0.631   2.967   2.076
 5985TIP3    H117961   0.620   3.052   2.120
 5985TIP3    H217962   0.724   2.962   2.056
 5986TIP3   OH217963   4.208   4.327   0.335
 5986TIP3    H117964   4.244   4.381   0.265
 5986TIP3    H217965   4.265   4.345   0.411
 5987TIP3   OH217966   4.944   1.059   3.574
 5987TIP3    H117967   4.983   1.146   3.585
 5987TIP3    H217968   4.850   1.075   3.571
 5988TIP3   OH217969   3.678   3.363   0.971
 5988TIP3    H117970   3.673   3.394   1.061
 5988TIP3    H217971   3.595   3.391   0.932
 5989TIP3   OH217972   3.155   5.346   4.819
 5989TIP3    H117973   3.080   5.398   4.789
 5989TIP3    H217974   3.182   5.390   4.900
 5990TIP3   OH217975   2.199   1.615   1.066
 5990TIP3    H117976   2.207   1.695   1.120
 5990TIP3    H217977   2.237   1.546   1.120
 5991TIP3   OH217978   2.946   0.142   2.018
 5991TIP3    H117979   2.937   0.194   2.098
 5991TIP3    H217980   2.992   0.199   1.957
 5992TIP3   OH217981   1.945   4.070   1.910
 5992TIP3    H117982   2.009   4.140   1.904
 5992TIP3    H217983   1.986   3.996   1.864
 5993TIP3   OH217984   0.394   3.334   0.090
 5993TIP3    H117985   0.472   3.308   0.138
 5993TIP3    H217986   0.412   3.423   0.060
 5994TIP3   OH217987   2.726   2.232   2.604
 5994TIP3    H117988   2.682   2.288   2.540
 5994TIP3    H217989   2.715   2.143   2.571
 5995TIP3   OH217990   5.972   5.350   4.706
 5995TIP3    H117991   5.934   5.282   4.763
 5995TIP3    H217992   6.059   5.316   4.684
 5996TIP3   OH217993   5.596   0.926   1.374
 5996TIP3    H117994   5.616   0.854   1.434
 5996TIP3    H217995   5.660   0.994   1.397
 5997TIP3   OH217996   4.457   2.846   0.743
 5997TIP3    H117997   4.389   2.786   0.712
 5997TIP3    H217998   4.416   2.897   0.812
 5998TIP3   OH217999   1.177   3.240   4.655
 5998TIP3    H118000   1.114   3.311   4.662
 5998TIP3    H218001   1.144   3.172   4.714
 5999TIP3   OH218002   2.432   1.432   4.982
 5999TIP3    H118003   2.435   1.523   5.014
 5999TIP3    H218004   2.342   1.404   4.999
 6000TIP3   OH218005   5.416   5.717   4.831
 6000TIP3    H118006   5.414   5.797   4.883
 6000TIP3    H218007   5.498   5.723   4.781
 6001TIP3   OH218008   4.036   1.650   0.311
 6001TIP3    H118009   4.106   1.598   0.349
 6001TIP3    H218010   4.064   1.741   0.325
 6002TIP3   OH218011   3.382   1.370   3.907
 6002TIP3    H118012   3.381   1.402   3.817
 6002TIP3    H218013   3.457   1.414   3.947
 6003TIP3   OH218014   0.045   0.479   0.717
 6003TIP3    H118015   0.119   0.517   0.671
 6003TIP3    H218016   0.081   0.450   0.801
 6004TIP3   OH218017   1.281   2.298   0.687
 6004TIP3    H118018   1.373   2.298   0.662
 6004TIP3    H218019   1.239   2.360   0.627
 6005TIP3   OH218020   5.328   1.277   1.735
 6005TIP3    H118021   5.273   1.298   1.659
 6005TIP3    H218022   5.363   1.190   1.717
 6006TIP3   OH218023   1.074   4.142   4.931
 6006TIP3    H118024   0.988   4.124   4.893
 6006TIP3    H218025   1.058   4.209   4.997
 6007TIP3   OH218026   2.334   2.853   2.003
 6007TIP3    H118027   2.366   2.927   2.055
 6007TIP3    H218028   2.362   2.871   1.914
 6008TIP3   OH218029   1.421   4.159   0.573
 6008TIP3    H118030   1.472   4.239   0.583
 6008TIP3    H218031   1.382   4.144   0.660
 6009TIP3   OH218032   3.985   5.806   1.247
 6009TIP3    H118033   3.972   5.714   1.224
 6009TIP3    H218034   4.046   5.838   1.180
 6010TIP3   OH218035   0.710   1.914   2.623
 6010TIP3    H118036   0.778   1.980   2.610
 6010TIP3    H218037   0.743   1.858   2.693
 6011TIP3   OH218038   3.857   0.145   2.707
 6011TIP3    H118039   3.865   0.057   2.668
 6011TIP3    H218040   3.837   0.129   2.799
 6012TIP3   OH218041   4.771   3.765   2.626
 6012TIP3    H118042   4.792   3.672   2.630
 6012TIP3    H218043   4.851   3.809   2.654
 6013TIP3   OH218044   2.113   3.664   3.553
 6013TIP3    H118045   2.132   3.691   3.643
 6013TIP3    H218046   2.185   3.607   3.529
 6014TIP3   OH218047   4.198   5.239   1.106
 6014TIP3    H118048   4.208   5.154   1.149
 6014TIP3    H218049   4.104   5.250   1.095
 6015TIP3   OH218050   5.826   0.111   2.722
 6015TIP3    H118051   5.839   0.187   2.778
 6015TIP3    H218052   5.768   0.053   2.773
 6016TIP3   OH218053   5.341   0.046   2.856
 6016TIP3    H118054   5.329   0.122   2.799
 6016TIP3    H218055   5.355  -0.027   2.796
 6017TIP3   OH218056   1.864   2.830   0.389
 6017TIP3    H118057   1.886   2.914   0.429
 6017TIP3    H218058   1.870   2.845   0.295
 6018TIP3   OH218059   2.160   4.635   0.921
 6018TIP3    H118060   2.251   4.605   0.926
 6018TIP3    H218061   2.146   4.684   1.002
 6019TIP3   OH218062   3.879   1.499   3.436
 6019TIP3    H118063   3.819   1.550   3.490
 6019TIP3    H218064   3.889   1.416   3.482
 6020TIP3   OH218065   0.441   3.203   3.715
 6020TIP3    H118066   0.503   3.149   3.764
 6020TIP3    H218067   0.489   3.283   3.693
 6021TIP3   OH218068   3.381   4.503   2.459
 6021TIP3    H118069   3.377   4.573   2.524
 6021TIP3    H218070   3.467   4.512   2.419
 6022TIP3   OH218071   3.502   4.262   4.276
 6022TIP3    H118072   3.530   4.278   4.186
 6022TIP3    H218073   3.583   4.241   4.323
 6023TIP3   OH218074   3.379   3.901   1.162
 6023TIP3    H118075   3.446   3.861   1.108
 6023TIP3    H218076   3.337   3.828   1.207
 6024TIP3   OH218077   1.435   3.868   0.518
 6024TIP3    H118078   1.414   3.960   0.502
 6024TIP3    H218079   1.484   3.869   0.601
 6025TIP3   OH218080   4.734   3.256   4.773
 6025TIP3    H118081   4.804   3.283   4.832
 6025TIP3    H218082   4.771   3.266   4.685
 6026TIP3   OH218083   3.154   2.632   5.128
 6026TIP3    H118084   3.218   2.686   5.081
 6026TIP3    H218085   3.087   2.694   5.157
 6027TIP3   OH218086   2.703   2.723   2.954
 6027TIP3    H118087   2.780   2.752   2.905
 6027TIP3    H218088   2.721   2.632   2.976
 6028TIP3   OH218089   0.435   4.732   2.613
 6028TIP3    H118090   0.367   4.798   2.619
 6028TIP3    H218091   0.443   4.714   2.520
 6029TIP3   OH218092   5.328   3.519   0.214
 6029TIP3    H118093   5.394   3.566   0.162
 6029TIP3    H218094   5.372   3.438   0.241
 6030TIP3   OH218095   1.405   3.921   4.997
 6030TIP3    H118096   1.326   3.909   4.944
 6030TIP3    H218097   1.373   3.924   5.087
 6031TIP3   OH218098   6.180   3.679   4.621
 6031TIP3    H118099   6.173   3.653   4.713
 6031TIP3    H218100   6.253   3.741   4.620
 6032TIP3   OH218101   4.257   0.916   1.221
 6032TIP3    H118102   4.245   1.007   1.247
 6032TIP3    H218103   4.277   0.870   1.303
 6033TIP3   OH218104   5.164   0.931   3.022
 6033TIP3    H118105   5.196   0.922   2.932
 6033TIP3    H218106   5.084   0.983   3.014
 6034TIP3   OH218107   2.068   3.921   3.952
 6034TIP3    H118108   2.016   3.848   3.918
 6034TIP3    H218109   2.143   3.879   3.993
 6035TIP3   OH218110   4.773   4.095   0.431
 6035TIP3    H118111   4.835   4.070   0.500
 6035TIP3    H218112   4.828   4.111   0.354
 6036TIP3   OH218113   3.964   4.878   4.611
 6036TIP3    H118114   3.892   4.904   4.668
 6036TIP3    H218115   3.925   4.870   4.524
 6037TIP3   OH218116   2.121   5.510   3.975
 6037TIP3    H118117   2.216   5.522   3.982
 6037TIP3    H218118   2.091   5.582   3.919
 6038TIP3   OH218119   5.979   2.696   0.135
 6038TIP3    H118120   5.897   2.694   0.185
 6038TIP3    H218121   6.047   2.680   0.200
 6039TIP3   OH218122   4.722   0.476   3.471
 6039TIP3    H118123   4.808   0.511   3.496
 6039TIP3    H218124   4.725   0.473   3.375
 6040TIP3   OH218125   5.764   2.490   2.427
 6040TIP3    H118126   5.755   2.461   2.518
 6040TIP3    H218127   5.692   2.552   2.415
 6041TIP3   OH218128   1.304   1.998   4.345
 6041TIP3    H118129   1.278   2.088   4.327
 6041TIP3    H218130   1.379   1.982   4.288
 6042TIP3   OH218131   4.753   2.863   4.030
 6042TIP3    H118132   4.700   2.910   3.967
 6042TIP3    H218133   4.699   2.858   4.109
 6043TIP3   OH218134   6.052   4.214   4.366
 6043TIP3    H118135   5.996   4.176   4.433
 6043TIP3    H218136   6.019   4.179   4.284
 6044TIP3   OH218137   5.590   1.602   1.579
 6044TIP3    H118138   5.630   1.689   1.584
 6044TIP3    H218139   5.498   1.620   1.558
 6045TIP3   OH218140   2.518   2.585   0.334
 6045TIP3    H118141   2.601   2.620   0.366
 6045TIP3    H218142   2.535   2.492   0.321
 6046TIP3   OH218143   1.392   4.410   2.084
 6046TIP3    H118144   1.450   4.447   2.017
 6046TIP3    H218145   1.447   4.404   2.163
 6047TIP3   OH218146   3.422   3.158   4.679
 6047TIP3    H118147   3.346   3.173   4.622
 6047TIP3    H218148   3.484   3.111   4.624
 6048TIP3   OH218149   2.343   4.100   0.522
 6048TIP3    H118150   2.280   4.028   0.519
 6048TIP3    H218151   2.289   4.179   0.509
 6049TIP3   OH218152   6.105   3.332   5.060
 6049TIP3    H118153   6.031   3.393   5.066
 6049TIP3    H218154   6.138   3.326   5.149
 6050TIP3   OH218155   1.952   2.140   2.611
 6050TIP3    H118156   1.898   2.179   2.680
 6050TIP3    H218157   1.945   2.202   2.538
 6051TIP3   OH218158   5.044   2.653   3.248
 6051TIP3    H118159   5.054   2.628   3.339
 6051TIP3    H218160   5.098   2.732   3.239
 6052TIP3   OH218161   1.683   2.593   4.663
 6052TIP3    H118162   1.592   2.574   4.688
 6052TIP3    H218163   1.733   2.579   4.743
 6053TIP3   OH218164   3.370   1.561   0.371
 6053TIP3    H118165   3.376   1.614   0.292
 6053TIP3    H218166   3.390   1.472   0.341
 6054TIP3   OH218167   2.960   0.606   1.834
 6054TIP3    H118168   2.875   0.632   1.799
 6054TIP3    H218169   2.947   0.516   1.865
 6055TIP3   OH218170   0.370   3.994   0.434
 6055TIP3    H118171   0.442   3.985   0.496
 6055TIP3    H218172   0.400   3.947   0.356
 6056TIP3   OH218173   6.046   3.890   2.546
 6056TIP3    H118174   5.998   3.934   2.475
 6056TIP3    H218175   6.117   3.951   2.567
 6057TIP3   OH218176   4.300   4.773   1.631
 6057TIP3    H118177   4.284   4.865   1.609
 6057TIP3    H218178   4.353   4.777   1.711
 6058TIP3   OH218179   5.136   1.070   0.451
 6058TIP3    H118180   5.198   1.136   0.420
 6058TIP3    H218181   5.070   1.121   0.499
 6059TIP3   OH218182   2.282   3.727   3.769
 6059TIP3    H118183   2.320   3.785   3.835
 6059TIP3    H218184   2.315   3.640   3.793
 6060TIP3   OH218185   0.918   3.277   4.895
 6060TIP3    H118186   0.965   3.203   4.856
 6060TIP3    H218187   0.933   3.349   4.834
 6061TIP3   OH218188   5.091   0.152   0.936
 6061TIP3    H118189   5.078   0.190   0.848
 6061TIP3    H218190   5.148   0.077   0.921
 6062TIP3   OH218191   3.849   0.544   3.870
 6062TIP3    H118192   3.815   0.463   3.910
 6062TIP3    H218193   3.797   0.614   3.910
 6063TIP3   OH218194   2.850   0.560   2.178
 6063TIP3    H118195   2.924   0.501   2.162
 6063TIP3    H218196   2.881   0.645   2.147
 6064TIP3   OH218197   3.951   3.005   3.267
 6064TIP3    H118198   4.040   2.972   3.256
 6064TIP3    H218199   3.895   2.933   3.239
 6065TIP3   OH218200   1.202   0.736   0.204
 6065TIP3    H118201   1.275   0.733   0.266
 6065TIP3    H218202   1.212   0.820   0.159
 6066TIP3   OH218203   2.802   2.857   2.084
 6066TIP3    H118204   2.843   2.943   2.074
 6066TIP3    H218205   2.775   2.833   1.996
 6067TIP3   OH218206   5.707   5.738   1.623
 6067TIP3    H118207   5.674   5.828   1.616
 6067TIP3    H218208   5.664   5.692   1.550
 6068TIP3   OH218209   3.264   4.161   4.358
 6068TIP3    H118210   3.285   4.112   4.438
 6068TIP3    H218211   3.349   4.186   4.322
 6069TIP3   OH218212   3.106   2.123   4.664
 6069TIP3    H118213   3.135   2.213   4.682
 6069TIP3    H218214   3.051   2.100   4.739
 6070TIP3   OH218215   4.250   4.588   0.799
 6070TIP3    H118216   4.270   4.658   0.737
 6070TIP3    H218217   4.207   4.632   0.872
 6071TIP3   OH218218   3.448   2.820   2.615
 6071TIP3    H118219   3.474   2.890   2.674
 6071TIP3    H218220   3.394   2.762   2.668
 6072TIP3   OH218221   0.553   5.035   5.112
 6072TIP3    H118222   0.602   5.117   5.123
 6072TIP3    H218223   0.545   5.026   5.017
 6073TIP3   OH218224   1.554   3.648   3.096
 6073TIP3    H118225   1.613   3.592   3.146
 6073TIP3    H218226   1.497   3.688   3.161
 6074TIP3   OH218227   2.587   4.006   0.668
 6074TIP3    H118228   2.576   4.048   0.582
 6074TIP3    H218229   2.538   4.061   0.728
 6075TIP3   OH218230   1.761   0.894   0.483
 6075TIP3    H118231   1.673   0.864   0.504
 6075TIP3    H218232   1.783   0.850   0.401
 6076TIP3   OH218233   0.624   0.792   1.364
 6076TIP3    H118234   0.646   0.709   1.322
 6076TIP3    H218235   0.608   0.769   1.455
 6077TIP3   OH218236   0.670   0.239   0.489
 6077TIP3    H118237   0.668   0.250   0.394
 6077TIP3    H218238   0.763   0.241   0.512
 6078TIP3   OH218239   3.441   0.475   0.494
 6078TIP3    H118240   3.405   0.407   0.439
 6078TIP3    H218241   3.448   0.435   0.581
 6079TIP3   OH218242   0.055   5.600   1.627
 6079TIP3    H118243  -0.034   5.623   1.600
 6079TIP3    H218244   0.108   5.611   1.547
 6080TIP3   OH218245   2.581   2.473   1.702
 6080TIP3    H118246   2.596   2.389   1.743
 6080TIP3    H218247   2.543   2.528   1.770
 6081TIP3   OH218248   3.537   1.712   1.733
 6081TIP3    H118249   3.460   1.675   1.689
 6081TIP3    H218250   3.535   1.805   1.709
 6082TIP3   OH218251   1.483   0.872   2.833
 6082TIP3    H118252   1.472   0.924   2.913
 6082TIP3    H218253   1.429   0.917   2.768
 6083TIP3   OH218254   0.713   3.320   3.233
 6083TIP3    H118255   0.620   3.338   3.245
 6083TIP3    H218256   0.754   3.347   3.315
 6084TIP3   OH218257   4.292   4.812   0.251
 6084TIP3    H118258   4.353   4.866   0.201
 6084TIP3    H218259   4.207   4.830   0.211
 6085TIP3   OH218260   3.400   4.102   0.965
 6085TIP3    H118261   3.396   4.037   1.035
 6085TIP3    H218262   3.342   4.172   0.994
 6086TIP3   OH218263   0.631   3.332   4.989
 6086TIP3    H118264   0.565   3.262   4.991
 6086TIP3    H218265   0.700   3.298   4.932
 6087TIP3   OH218266   4.827   1.626   1.127
 6087TIP3    H118267   4.829   1.531   1.117
 6087TIP3    H218268   4.913   1.656   1.097
 6088TIP3   OH218269   1.881   1.185   2.582
 6088TIP3    H118270   1.950   1.221   2.526
 6088TIP3    H218271   1.818   1.257   2.590
 6089TIP3   OH218272   3.379   3.770   0.039
 6089TIP3    H118273   3.421   3.764  -0.047
 6089TIP3    H218274   3.297   3.816   0.022
 6090TIP3   OH218275   3.287   5.024   1.274
 6090TIP3    H118276   3.303   4.999   1.183
 6090TIP3    H218277   3.209   4.975   1.299
 6091TIP3   OH218278   0.400   2.690   1.881
 6091TIP3    H118279   0.368   2.650   1.962
 6091TIP3    H218280   0.359   2.777   1.880
 6092TIP3   OH218281   0.963   4.693   1.651
 6092TIP3    H118282   0.914   4.616   1.623
 6092TIP3    H218283   1.005   4.725   1.571
 6093TIP3   OH218284   4.628   4.042   5.163
 6093TIP3    H118285   4.704   4.014   5.112
 6093TIP3    H218286   4.573   3.963   5.169
 6094TIP3   OH218287   5.580   1.326   3.051
 6094TIP3    H118288   5.600   1.233   3.063
 6094TIP3    H218289   5.485   1.330   3.047
 6095TIP3   OH218290   0.706   3.592   2.901
 6095TIP3    H118291   0.765   3.547   2.961
 6095TIP3    H218292   0.759   3.662   2.862
 6096TIP3   OH218293   4.104   3.377   2.540
 6096TIP3    H118294   4.119   3.284   2.519
 6096TIP3    H218295   4.036   3.376   2.607
 6097TIP3   OH218296   4.636   1.016   3.917
 6097TIP3    H118297   4.732   1.015   3.923
 6097TIP3    H218298   4.614   1.108   3.903
 6098TIP3   OH218299   0.256   4.503   1.436
 6098TIP3    H118300   0.290   4.468   1.353
 6098TIP3    H218301   0.164   4.478   1.436
 6099TIP3   OH218302   0.503   2.202   4.087
 6099TIP3    H118303   0.438   2.270   4.066
 6099TIP3    H218304   0.585   2.236   4.052
 6100TIP3   OH218305   5.680   1.749   2.287
 6100TIP3    H118306   5.607   1.716   2.234
 6100TIP3    H218307   5.653   1.733   2.377
 6101TIP3   OH218308   0.900   4.127   4.450
 6101TIP3    H118309   0.908   4.091   4.538
 6101TIP3    H218310   0.922   4.055   4.392
 6102TIP3   OH218311   3.266   4.084   2.727
 6102TIP3    H118312   3.205   4.058   2.797
 6102TIP3    H218313   3.347   4.105   2.773
 6103TIP3   OH218314   2.752   2.217   4.029
 6103TIP3    H118315   2.721   2.303   4.000
 6103TIP3    H218316   2.812   2.236   4.101
 6104TIP3   OH218317   5.084   1.428   2.884
 6104TIP3    H118318   5.020   1.418   2.954
 6104TIP3    H218319   5.075   1.348   2.832
 6105TIP3   OH218320   5.717   0.657   4.414
 6105TIP3    H118321   5.744   0.749   4.405
 6105TIP3    H218322   5.638   0.651   4.361
 6106TIP3   OH218323   1.016   1.668   2.312
 6106TIP3    H118324   0.993   1.678   2.220
 6106TIP3    H218325   0.937   1.695   2.359
 6107TIP3   OH218326   5.345   0.005   4.162
 6107TIP3    H118327   5.388  -0.053   4.225
 6107TIP3    H218328   5.418   0.051   4.119
 6108TIP3   OH218329   1.218   0.115   0.924
 6108TIP3    H118330   1.260   0.179   0.983
 6108TIP3    H218331   1.138   0.158   0.896
 6109TIP3   OH218332   1.033   5.917   0.362
 6109TIP3    H118333   1.058   6.010   0.354
 6109TIP3    H218334   0.943   5.913   0.331
 6110TIP3   OH218335   5.486   2.590   1.062
 6110TIP3    H118336   5.482   2.638   0.979
 6110TIP3    H218337   5.394   2.578   1.087
 6111TIP3   OH218338   2.585   3.521   1.536
 6111TIP3    H118339   2.498   3.484   1.548
 6111TIP3    H218340   2.633   3.498   1.616
 6112TIP3   OH218341   4.323   0.562   4.876
 6112TIP3    H118342   4.404   0.602   4.845
 6112TIP3    H218343   4.332   0.561   4.972
 6113TIP3   OH218344  -0.005   0.141   2.970
 6113TIP3    H118345  -0.019   0.134   2.875
 6113TIP3    H218346   0.073   0.195   2.979
 6114TIP3   OH218347   0.540   0.741   3.537
 6114TIP3    H118348   0.465   0.721   3.594
 6114TIP3    H218349   0.546   0.666   3.478
 6115TIP3   OH218350   1.018   0.123   2.943
 6115TIP3    H118351   0.959   0.055   2.912
 6115TIP3    H218352   1.011   0.193   2.878
 6116TIP3   OH218353   4.434   3.185   5.034
 6116TIP3    H118354   4.514   3.237   5.039
 6116TIP3    H218355   4.428   3.160   4.942
 6117TIP3   OH218356   0.619   3.711   1.587
 6117TIP3    H118357   0.647   3.802   1.600
 6117TIP3    H218358   0.563   3.715   1.509
 6118TIP3   OH218359   2.016   2.608   0.213
 6118TIP3    H118360   1.947   2.672   0.194
 6118TIP3    H218361   1.973   2.544   0.270
 6119TIP3   OH218362   4.904   1.196   3.940
 6119TIP3    H118363   4.835   1.253   3.906
 6119TIP3    H218364   4.946   1.247   4.008
 6120TIP3   OH218365   2.483   4.906   4.322
 6120TIP3    H118366   2.429   4.888   4.245
 6120TIP3    H218367   2.540   4.978   4.295
 6121TIP3   OH218368   4.122   1.183   1.317
 6121TIP3    H118369   4.085   1.207   1.232
 6121TIP3    H218370   4.119   1.263   1.369
 6122TIP3   OH218371   5.026   4.711   4.882
 6122TIP3    H118372   5.080   4.718   4.803
 6122TIP3    H218373   4.983   4.796   4.889
 6123TIP3   OH218374   1.669   0.668   2.792
 6123TIP3    H118375   1.607   0.595   2.802
 6123TIP3    H218376   1.615   0.746   2.805
 6124TIP3   OH218377   4.942   5.223   2.723
 6124TIP3    H118378   4.922   5.158   2.655
 6124TIP3    H218379   4.926   5.176   2.806
 6125TIP3   OH218380   0.740   5.470  -0.002
 6125TIP3    H118381   0.653   5.470   0.038
 6125TIP3    H218382   0.799   5.444   0.068
 6126TIP3   OH218383   0.013   2.411   3.977
 6126TIP3    H118384   0.076   2.357   4.024
 6126TIP3    H218385  -0.050   2.349   3.941
 6127TIP3   OH218386   5.811   1.427   2.880
 6127TIP3    H118387   5.845   1.355   2.828
 6127TIP3    H218388   5.744   1.387   2.936
 6128TIP3   OH218389   0.814   3.059   4.581
 6128TIP3    H118390   0.752   3.002   4.626
 6128TIP3    H218391   0.797   3.146   4.617
 6129TIP3   OH218392   5.354   3.946   4.102
 6129TIP3    H118393   5.283   4.008   4.089
 6129TIP3    H218394   5.336   3.875   4.041
 6130TIP3   OH218395   3.060   1.317   0.045
 6130TIP3    H118396   3.059   1.312  -0.050
 6130TIP3    H218397   2.973   1.350   0.068
 6131TIP3   OH218398   0.748   2.381   1.999
 6131TIP3    H118399   0.724   2.403   1.910
 6131TIP3    H218400   0.697   2.440   2.054
 6132TIP3   OH218401   0.564   0.577   2.911
 6132TIP3    H118402   0.552   0.620   2.996
 6132TIP3    H218403   0.608   0.494   2.933
 6133TIP3   OH218404   6.372   0.665   0.172
 6133TIP3    H118405   6.323   0.628   0.099
 6133TIP3    H218406   6.306   0.687   0.237
 6134TIP3   OH218407   5.514   3.913   4.639
 6134TIP3    H118408   5.509   3.884   4.548
 6134TIP3    H218409   5.595   3.876   4.672
 6135TIP3   OH218410   0.194   2.177   4.921
 6135TIP3    H118411   0.236   2.224   4.993
 6135TIP3    H218412   0.210   2.232   4.844
 6136TIP3   OH218413   5.440   0.173   3.258
 6136TIP3    H118414   5.489   0.141   3.182
 6136TIP3    H218415   5.480   0.257   3.279
 6137TIP3   OH218416   3.859   1.009   0.574
 6137TIP3    H118417   3.888   1.088   0.620
 6137TIP3    H218418   3.880   1.026   0.482
 6138TIP3   OH218419   0.528   3.077   5.048
 6138TIP3    H118420   0.513   3.013   4.978
 6138TIP3    H218421   0.541   3.024   5.127
 6139TIP3   OH218422   2.323   3.303   0.412
 6139TIP3    H118423   2.413   3.334   0.403
 6139TIP3    H218424   2.314   3.235   0.345
 6140TIP3   OH218425   4.068   1.673   3.289
 6140TIP3    H118426   4.017   1.614   3.345
 6140TIP3    H218427   4.044   1.761   3.318
 6141TIP3   OH218428   3.753   5.703   3.602
 6141TIP3    H118429   3.786   5.732   3.517
 6141TIP3    H218430   3.680   5.762   3.621
 6142TIP3   OH218431   6.105   5.809   2.325
 6142TIP3    H118432   6.106   5.744   2.255
 6142TIP3    H218433   6.127   5.891   2.281
 6143TIP3   OH218434   3.783   0.454   0.056
 6143TIP3    H118435   3.754   0.431   0.144
 6143TIP3    H218436   3.865   0.501   0.070
 6144TIP3   OH218437   5.006   1.523   3.532
 6144TIP3    H118438   5.071   1.454   3.522
 6144TIP3    H218439   4.987   1.551   3.443
 6145TIP3   OH218440   1.645   1.155   4.474
 6145TIP3    H118441   1.673   1.105   4.398
 6145TIP3    H218442   1.628   1.243   4.440
 6146TIP3   OH218443   1.004   4.966   4.265
 6146TIP3    H118444   0.925   4.957   4.211
 6146TIP3    H218445   0.974   4.953   4.355
 6147TIP3   OH218446   4.798   2.534   4.529
 6147TIP3    H118447   4.870   2.593   4.507
 6147TIP3    H218448   4.823   2.497   4.614
 6148TIP3   OH218449   3.678   5.141   0.454
 6148TIP3    H118450   3.605   5.086   0.426
 6148TIP3    H218451   3.665   5.153   0.548
 6149TIP3   OH218452   5.681   4.800   5.079
 6149TIP3    H118453   5.585   4.799   5.081
 6149TIP3    H218454   5.707   4.812   5.170
 6150TIP3   OH218455   0.463   5.242   2.199
 6150TIP3    H118456   0.492   5.322   2.243
 6150TIP3    H218457   0.463   5.175   2.267
 6151TIP3   OH218458   0.657   3.403   0.758
 6151TIP3    H118459   0.722   3.473   0.751
 6151TIP3    H218460   0.703   3.324   0.730
 6152TIP3   OH218461   1.735   1.838   5.132
 6152TIP3    H118462   1.671   1.907   5.149
 6152TIP3    H218463   1.781   1.866   5.052
 6153TIP3   OH218464   4.642   3.857   1.119
 6153TIP3    H118465   4.604   3.832   1.035
 6153TIP3    H218466   4.690   3.779   1.148
 6154TIP3   OH218467   1.602   2.633   1.683
 6154TIP3    H118468   1.545   2.699   1.644
 6154TIP3    H218469   1.600   2.652   1.777
 6155TIP3   OH218470   4.713   2.965   2.332
 6155TIP3    H118471   4.764   2.906   2.387
 6155TIP3    H218472   4.622   2.954   2.361
 6156TIP3   OH218473   2.914   0.526   1.355
 6156TIP3    H118474   2.981   0.550   1.419
 6156TIP3    H218475   2.862   0.605   1.344
 6157TIP3   OH218476   3.909   3.583   3.396
 6157TIP3    H118477   3.952   3.570   3.311
 6157TIP3    H218478   3.918   3.677   3.413
 6158TIP3   OH218479   2.838   0.981   0.709
 6158TIP3    H118480   2.915   1.008   0.660
 6158TIP3    H218481   2.863   0.989   0.801
 6159TIP3   OH218482   5.303   2.569   4.054
 6159TIP3    H118483   5.234   2.603   3.997
 6159TIP3    H218484   5.268   2.580   4.142
 6160TIP3   OH218485   3.043   0.364   0.577
 6160TIP3    H118486   3.050   0.456   0.600
 6160TIP3    H218487   2.966   0.333   0.625
 6161TIP3   OH218488   5.333   1.085   3.467
 6161TIP3    H118489   5.348   0.991   3.453
 6161TIP3    H218490   5.381   1.106   3.547
 6162TIP3   OH218491   2.303   3.818   4.640
 6162TIP3    H118492   2.208   3.817   4.626
 6162TIP3    H218493   2.321   3.904   4.679
 6163TIP3   OH218494   0.271   0.829   2.368
 6163TIP3    H118495   0.231   0.746   2.394
 6163TIP3    H218496   0.363   0.821   2.393
 6164TIP3   OH218497   0.624   5.609   3.301
 6164TIP3    H118498   0.695   5.673   3.299
 6164TIP3    H218499   0.563   5.638   3.233
 6165TIP3   OH218500   5.533   3.420   0.049
 6165TIP3    H118501   5.484   3.483  -0.004
 6165TIP3    H218502   5.594   3.379  -0.013
 6166TIP3   OH218503   3.318   4.790   0.253
 6166TIP3    H118504   3.253   4.752   0.195
 6166TIP3    H218505   3.389   4.726   0.256
 6167TIP3   OH218506   1.901   3.468   0.818
 6167TIP3    H118507   1.968   3.505   0.761
 6167TIP3    H218508   1.829   3.445   0.760
 6168TIP3   OH218509   0.473   0.958   4.159
 6168TIP3    H118510   0.544   0.944   4.221
 6168TIP3    H218511   0.466   1.053   4.151
 6169TIP3   OH218512   4.378   2.636   5.072
 6169TIP3    H118513   4.420   2.705   5.123
 6169TIP3    H218514   4.301   2.678   5.034
 6170TIP3   OH218515   2.973   3.401   2.887
 6170TIP3    H118516   3.042   3.337   2.870
 6170TIP3    H218517   2.993   3.474   2.827
 6171TIP3   OH218518   1.774   1.852   3.862
 6171TIP3    H118519   1.809   1.941   3.860
 6171TIP3    H218520   1.717   1.846   3.786
 6172TIP3   OH218521   1.088   5.730   4.333
 6172TIP3    H118522   1.119   5.727   4.423
 6172TIP3    H218523   1.110   5.644   4.297
 6173TIP3   OH218524   5.009   0.052   3.219
 6173TIP3    H118525   4.927   0.085   3.255
 6173TIP3    H218526   5.064   0.129   3.207
 6174TIP3   OH218527   3.795   4.635   1.653
 6174TIP3    H118528   3.842   4.718   1.650
 6174TIP3    H218529   3.863   4.569   1.659
 6175TIP3   OH218530   4.309   5.181   3.148
 6175TIP3    H118531   4.261   5.148   3.072
 6175TIP3    H218532   4.244   5.182   3.218
 6176TIP3   OH218533   1.508   2.492   5.110
 6176TIP3    H118534   1.489   2.583   5.087
 6176TIP3    H218535   1.603   2.487   5.112
 6177TIP3   OH218536   5.536   1.198   2.023
 6177TIP3    H118537   5.599   1.205   1.952
 6177TIP3    H218538   5.580   1.143   2.088
 6178TIP3   OH218539   5.992   0.499   2.100
 6178TIP3    H118540   6.087   0.510   2.095
 6178TIP3    H218541   5.961   0.506   2.010
 6179TIP3   OH218542   2.839   2.742   1.434
 6179TIP3    H118543   2.782   2.671   1.404
 6179TIP3    H218544   2.796   2.776   1.512
 6180TIP3   OH218545   1.329   1.761   2.283
 6180TIP3    H118546   1.351   1.837   2.338
 6180TIP3    H218547   1.343   1.686   2.341
 6181TIP3   OH218548   0.456   3.385   3.323
 6181TIP3    H118549   0.465   3.436   3.404
 6181TIP3    H218550   0.440   3.296   3.353
 6182TIP3   OH218551   3.430   2.298   4.793
 6182TIP3    H118552   3.393   2.342   4.717
 6182TIP3    H218553   3.370   2.317   4.864
 6183TIP3   OH218554   4.920   2.891   1.413
 6183TIP3    H118555   4.881   2.905   1.500
 6183TIP3    H218556   4.850   2.849   1.362
 6184TIP3   OH218557   4.838   0.160   0.641
 6184TIP3    H118558   4.908   0.096   0.625
 6184TIP3    H218559   4.882   0.245   0.635
 6185TIP3   OH218560   4.319   1.648   0.947
 6185TIP3    H118561   4.348   1.696   1.024
 6185TIP3    H218562   4.224   1.639   0.958
 6186TIP3   OH218563   5.918   5.912   0.035
 6186TIP3    H118564   5.854   5.967  -0.010
 6186TIP3    H218565   5.914   5.828  -0.011
 6187TIP3   OH218566   2.434   2.720   0.860
 6187TIP3    H118567   2.386   2.796   0.825
 6187TIP3    H218568   2.366   2.660   0.890
 6188TIP3   OH218569   5.711   3.289   3.811
 6188TIP3    H118570   5.678   3.240   3.887
 6188TIP3    H218571   5.774   3.230   3.771
 6189TIP3   OH218572   2.431   2.078   1.662
 6189TIP3    H118573   2.472   2.124   1.735
 6189TIP3    H218574   2.369   2.142   1.626
 6190TIP3   OH218575   4.653   4.160   1.964
 6190TIP3    H118576   4.683   4.083   2.013
 6190TIP3    H218577   4.695   4.151   1.879
 6191TIP3   OH218578   2.250   2.328   1.632
 6191TIP3    H118579   2.235   2.312   1.725
 6191TIP3    H218580   2.275   2.420   1.627
 6192TIP3   OH218581   4.566   1.635   0.694
 6192TIP3    H118582   4.563   1.586   0.776
 6192TIP3    H218583   4.576   1.726   0.721
 6193TIP3   OH218584   2.056   3.424   2.925
 6193TIP3    H118585   2.039   3.518   2.929
 6193TIP3    H218586   2.112   3.406   3.000
 6194TIP3   OH218587   4.984   4.242   2.054
 6194TIP3    H118588   4.990   4.332   2.084
 6194TIP3    H218589   4.925   4.200   2.117
 6195TIP3   OH218590   1.566   3.416   1.573
 6195TIP3    H118591   1.576   3.397   1.667
 6195TIP3    H218592   1.533   3.335   1.535
 6196TIP3   OH218593   0.362   4.386   1.948
 6196TIP3    H118594   0.389   4.441   1.875
 6196TIP3    H218595   0.328   4.307   1.906
 6197TIP3   OH218596   3.813   5.671   4.245
 6197TIP3    H118597   3.812   5.765   4.225
 6197TIP3    H218598   3.850   5.631   4.166
 6198TIP3   OH218599   0.645   1.822   0.886
 6198TIP3    H118600   0.563   1.794   0.926
 6198TIP3    H218601   0.660   1.910   0.922
 6199TIP3   OH218602   3.096   2.557   1.132
 6199TIP3    H118603   3.003   2.573   1.115
 6199TIP3    H218604   3.097   2.503   1.210
 6200TIP3   OH218605   4.791   4.152   2.265
 6200TIP3    H118606   4.821   4.231   2.309
 6200TIP3    H218607   4.714   4.125   2.315
 6201TIP3   OH218608   1.765   3.398   2.693
 6201TIP3    H118609   1.770   3.309   2.727
 6201TIP3    H218610   1.790   3.453   2.767
 6202TIP3   OH218611   5.427   1.430   1.152
 6202TIP3    H118612   5.406   1.411   1.060
 6202TIP3    H218613   5.414   1.524   1.160
 6203TIP3   OH218614   3.326   1.702   1.158
 6203TIP3    H118615   3.278   1.745   1.229
 6203TIP3    H218616   3.355   1.774   1.102
 6204TIP3   OH218617   1.234   4.891   3.268
 6204TIP3    H118618   1.250   4.939   3.187
 6204TIP3    H218619   1.218   4.958   3.333
 6205TIP3   OH218620   0.177   5.308   2.338
 6205TIP3    H118621   0.273   5.310   2.337
 6205TIP3    H218622   0.156   5.224   2.379
 6206TIP3   OH218623   5.767   4.553   2.502
 6206TIP3    H118624   5.790   4.595   2.585
 6206TIP3    H218625   5.849   4.550   2.452
 6207TIP3   OH218626   4.006   4.143   1.730
 6207TIP3    H118627   3.938   4.145   1.663
 6207TIP3    H218628   4.078   4.093   1.690
 6208TIP3   OH218629   1.909   5.415   2.889
 6208TIP3    H118630   1.823   5.439   2.857
 6208TIP3    H218631   1.948   5.363   2.819
 6209TIP3   OH218632   3.191   1.799   1.373
 6209TIP3    H118633   3.207   1.892   1.390
 6209TIP3    H218634   3.150   1.767   1.454
 6210TIP3   OH218635   0.204   1.124   1.933
 6210TIP3    H118636   0.165   1.209   1.947
 6210TIP3    H218637   0.158   1.065   1.993
 6211TIP3   OH218638   3.299   1.757   0.728
 6211TIP3    H118639   3.241   1.824   0.693
 6211TIP3    H218640   3.255   1.725   0.807
 6212TIP3   OH218641   4.711   3.648   0.720
 6212TIP3    H118642   4.788   3.649   0.777
 6212TIP3    H218643   4.744   3.616   0.636
 6213TIP3   OH218644   5.268   2.204   4.791
 6213TIP3    H118645   5.217   2.164   4.720
 6213TIP3    H218646   5.204   2.221   4.860
 6214TIP3   OH218647   4.435   0.836   4.829
 6214TIP3    H118648   4.371   0.846   4.900
 6214TIP3    H218649   4.385   0.849   4.749
 6215TIP3   OH218650   4.413   4.916   4.725
 6215TIP3    H118651   4.352   4.846   4.749
 6215TIP3    H218652   4.455   4.884   4.645
 6216TIP3   OH218653   0.345   5.174   3.621
 6216TIP3    H118654   0.270   5.134   3.577
 6216TIP3    H218655   0.418   5.164   3.560
 6217TIP3   OH218656   1.937   1.291   2.290
 6217TIP3    H118657   2.020   1.323   2.256
 6217TIP3    H218658   1.920   1.344   2.368
 6218TIP3   OH218659   4.057   4.128   4.970
 6218TIP3    H118660   4.115   4.092   5.037
 6218TIP3    H218661   4.086   4.218   4.958
 6219TIP3   OH218662   1.860   3.417   4.860
 6219TIP3    H118663   1.798   3.485   4.834
 6219TIP3    H218664   1.946   3.455   4.843
 6220TIP3   OH218665   0.161   4.431   3.540
 6220TIP3    H118666   0.240   4.483   3.556
 6220TIP3    H218667   0.111   4.438   3.621
 6221TIP3   OH218668   1.755   3.698   0.911
 6221TIP3    H118669   1.815   3.629   0.884
 6221TIP3    H218670   1.810   3.776   0.922
 6222TIP3   OH218671   1.657   0.254   4.151
 6222TIP3    H118672   1.696   0.326   4.199
 6222TIP3    H218673   1.711   0.245   4.072
 6223TIP3   OH218674   5.299   5.035   2.781
 6223TIP3    H118675   5.383   5.037   2.826
 6223TIP3    H218676   5.236   5.011   2.850
 6224TIP3   OH218677   1.604   3.880   4.540
 6224TIP3    H118678   1.602   3.802   4.594
 6224TIP3    H218679   1.645   3.852   4.458
 6225TIP3   OH218680   4.090   1.063   4.029
 6225TIP3    H118681   4.045   1.104   4.102
 6225TIP3    H218682   4.045   1.096   3.951
 6226TIP3   OH218683   4.433   3.201   2.622
 6226TIP3    H118684   4.417   3.145   2.698
 6226TIP3    H218685   4.371   3.171   2.556
 6227TIP3   OH218686   5.055   5.603   0.411
 6227TIP3    H118687   4.997   5.579   0.340
 6227TIP3    H218688   5.075   5.521   0.456
 6228TIP3   OH218689   0.982   0.478   2.353
 6228TIP3    H118690   0.955   0.453   2.442
 6228TIP3    H218691   1.074   0.453   2.349
 6229TIP3   OH218692   6.006   2.356   2.478
 6229TIP3    H118693   6.028   2.290   2.413
 6229TIP3    H218694   5.939   2.410   2.437
 6230TIP3   OH218695   0.630   3.901   1.064
 6230TIP3    H118696   0.618   3.948   1.147
 6230TIP3    H218697   0.545   3.859   1.048
 6231TIP3   OH218698   5.660   1.536   1.078
 6231TIP3    H118699   5.592   1.551   1.143
 6231TIP3    H218700   5.696   1.450   1.101
 6232TIP3   OH218701   5.941   0.931   0.285
 6232TIP3    H118702   5.889   0.994   0.335
 6232TIP3    H218703   5.935   0.849   0.335
 6233TIP3   OH218704   0.407   4.489   3.308
 6233TIP3    H118705   0.385   4.462   3.219
 6233TIP3    H218706   0.398   4.584   3.307
 6234TIP3   OH218707   3.255   3.598   3.530
 6234TIP3    H118708   3.162   3.583   3.516
 6234TIP3    H218709   3.267   3.588   3.625
 6235TIP3   OH218710   1.723   2.757   4.176
 6235TIP3    H118711   1.678   2.827   4.128
 6235TIP3    H218712   1.692   2.766   4.266
 6236TIP3   OH218713   5.497   1.467   1.839
 6236TIP3    H118714   5.530   1.497   1.754
 6236TIP3    H218715   5.451   1.386   1.820
 6237TIP3   OH218716   0.475   3.198   2.411
 6237TIP3    H118717   0.437   3.271   2.361
 6237TIP3    H218718   0.430   3.120   2.378
 6238TIP3   OH218719   5.912   3.769   1.908
 6238TIP3    H118720   6.007   3.765   1.899
 6238TIP3    H218721   5.898   3.806   1.996
 6239TIP3   OH218722   1.900   2.397   0.359
 6239TIP3    H118723   1.871   2.339   0.289
 6239TIP3    H218724   1.964   2.346   0.408
 6240TIP3   OH218725   4.136   4.054   1.086
 6240TIP3    H118726   4.081   4.098   1.151
 6240TIP3    H218727   4.074   4.009   1.029
 6241TIP3   OH218728   5.990   0.344   4.536
 6241TIP3    H118729   5.894   0.349   4.538
 6241TIP3    H218730   6.009   0.280   4.467
 6242TIP3   OH218731   0.425   4.407   3.038
 6242TIP3    H118732   0.395   4.479   2.982
 6242TIP3    H218733   0.520   4.412   3.035
 6243TIP3   OH218734   1.575   5.993   4.046
 6243TIP3    H118735   1.639   5.947   4.099
 6243TIP3    H218736   1.620   6.008   3.962
 6244TIP3   OH218737   1.936   5.281   3.637
 6244TIP3    H118738   1.967   5.371   3.648
 6244TIP3    H218739   2.011   5.234   3.600
 6245TIP3   OH218740   4.204   5.131   4.521
 6245TIP3    H118741   4.263   5.205   4.529
 6245TIP3    H218742   4.205   5.090   4.608
 6246TIP3   OH218743   3.628   0.099   2.285
 6246TIP3    H118744   3.569   0.165   2.248
 6246TIP3    H218745   3.710   0.110   2.237
 6247TIP3   OH218746   1.783   4.396   1.351
 6247TIP3    H118747   1.694   4.402   1.316
 6247TIP3    H218748   1.786   4.310   1.394
 6248TIP3   OH218749   5.563   4.535   2.127
 6248TIP3    H118750   5.550   4.444   2.154
 6248TIP3    H218751   5.481   4.559   2.084
 6249TIP3   OH218752   6.295   5.247   2.753
 6249TIP3    H118753   6.296   5.171   2.811
 6249TIP3    H218754   6.281   5.322   2.811
 6250TIP3   OH218755   2.464   4.486   4.972
 6250TIP3    H118756   2.475   4.394   4.999
 6250TIP3    H218757   2.551   4.511   4.940
 6251TIP3   OH218758   6.154   0.229   3.879
 6251TIP3    H118759   6.247   0.245   3.893
 6251TIP3    H218760   6.112   0.258   3.959
 6252TIP3   OH218761   2.354   0.045   4.070
 6252TIP3    H118762   2.392   0.125   4.106
 6252TIP3    H218763   2.345   0.063   3.976
 6253TIP3   OH218764   6.161   1.797   0.105
 6253TIP3    H118765   6.205   1.882   0.104
 6253TIP3    H218766   6.092   1.806   0.040
 6254TIP3   OH218767   3.790   2.894   4.118
 6254TIP3    H118768   3.835   2.823   4.072
 6254TIP3    H218769   3.818   2.885   4.209
 6255TIP3   OH218770   6.153   0.587   3.434
 6255TIP3    H118771   6.192   0.658   3.484
 6255TIP3    H218772   6.161   0.614   3.343
 6256TIP3   OH218773   1.059   1.244   2.394
 6256TIP3    H118774   1.031   1.258   2.303
 6256TIP3    H218775   0.981   1.210   2.438
 6257TIP3   OH218776   5.754   1.049   3.711
 6257TIP3    H118777   5.701   1.067   3.789
 6257TIP3    H218778   5.844   1.064   3.740
 6258TIP3   OH218779   1.067   3.053   4.450
 6258TIP3    H118780   0.973   3.065   4.464
 6258TIP3    H218781   1.108   3.128   4.492
 6259TIP3   OH218782   3.540   3.779   4.198
 6259TIP3    H118783   3.480   3.765   4.272
 6259TIP3    H218784   3.612   3.719   4.214
 6260TIP3   OH218785   4.397   5.180   4.063
 6260TIP3    H118786   4.462   5.114   4.039
 6260TIP3    H218787   4.328   5.171   3.996
 6261TIP3   OH218788   3.395   5.786   3.411
 6261TIP3    H118789   3.301   5.778   3.394
 6261TIP3    H218790   3.406   5.878   3.435
 6262TIP3   OH218791   3.377   0.466   0.769
 6262TIP3    H118792   3.375   0.553   0.731
 6262TIP3    H218793   3.296   0.460   0.820
 6263TIP3   OH218794   1.969   2.643   1.319
 6263TIP3    H118795   1.963   2.644   1.415
 6263TIP3    H218796   2.023   2.566   1.300
 6264TIP3   OH218797   5.849   2.329   3.406
 6264TIP3    H118798   5.830   2.292   3.319
 6264TIP3    H218799   5.908   2.402   3.388
 6265TIP3   OH218800   6.345   4.247   3.241
 6265TIP3    H118801   6.341   4.342   3.230
 6265TIP3    H218802   6.352   4.212   3.152
 6266TIP3   OH218803   1.338   3.050   0.153
 6266TIP3    H118804   1.307   3.083   0.069
 6266TIP3    H218805   1.431   3.071   0.154
 6267TIP3   OH218806   3.627   5.131   4.032
 6267TIP3    H118807   3.606   5.198   3.967
 6267TIP3    H218808   3.606   5.048   3.989
 6268TIP3   OH218809   2.321   4.824   4.085
 6268TIP3    H118810   2.380   4.886   4.043
 6268TIP3    H218811   2.243   4.823   4.030
 6269TIP3   OH218812   4.069   0.773   2.436
 6269TIP3    H118813   4.115   0.831   2.498
 6269TIP3    H218814   4.072   0.687   2.477
 6270TIP3   OH218815   1.339   3.853   1.556
 6270TIP3    H118816   1.377   3.793   1.620
 6270TIP3    H218817   1.413   3.903   1.523
 6271TIP3   OH218818   2.504   3.763   0.837
 6271TIP3    H118819   2.562   3.836   0.815
 6271TIP3    H218820   2.544   3.687   0.794
 6272TIP3   OH218821   2.649   3.115   3.689
 6272TIP3    H118822   2.702   3.058   3.633
 6272TIP3    H218823   2.591   3.161   3.628
 6273TIP3   OH218824   4.662   1.592   2.880
 6273TIP3    H118825   4.721   1.574   2.807
 6273TIP3    H218826   4.676   1.685   2.899
 6274TIP3   OH218827   5.949   0.503   4.779
 6274TIP3    H118828   5.917   0.427   4.730
 6274TIP3    H218829   6.038   0.478   4.804
 6275TIP3   OH218830   5.223   0.434   5.086
 6275TIP3    H118831   5.191   0.435   4.995
 6275TIP3    H218832   5.143   0.426   5.138
 6276TIP3   OH218833   3.383   0.300   3.478
 6276TIP3    H118834   3.449   0.272   3.414
 6276TIP3    H218835   3.303   0.312   3.426
 6277TIP3   OH218836   4.944   1.989   0.907
 6277TIP3    H118837   4.947   1.943   0.823
 6277TIP3    H218838   5.033   1.981   0.942
 6278TIP3   OH218839   2.717   4.147   2.087
 6278TIP3    H118840   2.688   4.133   2.177
 6278TIP3    H218841   2.686   4.235   2.066
 6279TIP3   OH218842   0.269   5.926   1.342
 6279TIP3    H118843   0.315   5.992   1.290
 6279TIP3    H218844   0.235   5.975   1.417
 6280TIP3   OH218845   2.746   1.872   0.656
 6280TIP3    H118846   2.700   1.789   0.667
 6280TIP3    H218847   2.712   1.908   0.574
 6281TIP3   OH218848   1.116   3.617   0.347
 6281TIP3    H118849   1.108   3.601   0.253
 6281TIP3    H218850   1.209   3.605   0.366
 6282TIP3   OH218851   2.858   2.902   0.321
 6282TIP3    H118852   2.836   2.830   0.381
 6282TIP3    H218853   2.792   2.969   0.338
 6283TIP3   OH218854   4.888   2.460   2.713
 6283TIP3    H118855   4.914   2.537   2.763
 6283TIP3    H218856   4.958   2.396   2.729
 6284TIP3   OH218857   2.781   3.301   0.286
 6284TIP3    H118858   2.731   3.219   0.290
 6284TIP3    H218859   2.872   3.272   0.288
 6285TIP3   OH218860   0.145   0.560   2.995
 6285TIP3    H118861   0.115   0.533   3.081
 6285TIP3    H218862   0.068   0.599   2.954
 6286TIP3   OH218863   4.361   4.373   1.953
 6286TIP3    H118864   4.402   4.362   1.867
 6286TIP3    H218865   4.415   4.322   2.012
 6287TIP3   OH218866   2.634   3.680   2.963
 6287TIP3    H118867   2.652   3.590   2.938
 6287TIP3    H218868   2.716   3.711   3.001
 6288TIP3   OH218869   3.471   2.062   1.994
 6288TIP3    H118870   3.450   2.011   2.072
 6288TIP3    H218871   3.388   2.072   1.948
 6289TIP3   OH218872   1.404   0.324   3.906
 6289TIP3    H118873   1.309   0.310   3.905
 6289TIP3    H218874   1.442   0.236   3.903
 6290TIP3   OH218875   3.037   1.508   2.050
 6290TIP3    H118876   3.128   1.477   2.050
 6290TIP3    H218877   2.987   1.435   2.088
 6291TIP3   OH218878   3.791   4.947   2.843
 6291TIP3    H118879   3.716   4.936   2.783
 6291TIP3    H218880   3.858   4.988   2.789
 6292TIP3   OH218881   2.972   1.242   1.079
 6292TIP3    H118882   3.040   1.236   1.012
 6292TIP3    H218883   2.907   1.176   1.054
 6293TIP3   OH218884   4.069   1.627   3.617
 6293TIP3    H118885   4.004   1.568   3.654
 6293TIP3    H218886   4.018   1.696   3.574
 6294TIP3   OH218887   2.652   0.550   0.433
 6294TIP3    H118888   2.721   0.612   0.411
 6294TIP3    H218889   2.603   0.592   0.504
 6295TIP3   OH218890   3.673   2.798   2.416
 6295TIP3    H118891   3.695   2.889   2.435
 6295TIP3    H218892   3.597   2.779   2.472
 6296TIP3   OH218893   2.903   4.104   2.431
 6296TIP3    H118894   2.915   4.079   2.523
 6296TIP3    H218895   2.815   4.075   2.409
 6297TIP3   OH218896   5.731   0.415   4.518
 6297TIP3    H118897   5.726   0.509   4.503
 6297TIP3    H218898   5.717   0.376   4.432
 6298TIP3   OH218899   1.542   3.283   2.537
 6298TIP3    H118900   1.616   3.343   2.550
 6298TIP3    H218901   1.465   3.340   2.535
 6299TIP3   OH218902   0.385   2.786   1.164
 6299TIP3    H118903   0.451   2.762   1.099
 6299TIP3    H218904   0.302   2.789   1.115
 6300TIP3   OH218905   2.928   3.891   0.171
 6300TIP3    H118906   2.939   3.978   0.210
 6300TIP3    H218907   2.838   3.866   0.192
 6301TIP3   OH218908   1.926   4.929   3.362
 6301TIP3    H118909   2.014   4.921   3.399
 6301TIP3    H218910   1.877   4.981   3.425
 6302TIP3   OH218911   2.810   4.714   0.567
 6302TIP3    H118912   2.876   4.658   0.525
 6302TIP3    H218913   2.848   4.802   0.564
 6303TIP3   OH218914   5.428   4.247   5.066
 6303TIP3    H118915   5.466   4.183   5.126
 6303TIP3    H218916   5.384   4.309   5.124
 6304TIP3   OH218917   5.451   5.981   2.521
 6304TIP3    H118918   5.515   6.017   2.460
 6304TIP3    H218919   5.500   5.915   2.571
 6305TIP3   OH218920   6.341   2.435   0.195
 6305TIP3    H118921   6.343   2.420   0.290
 6305TIP3    H218922   6.290   2.516   0.185
 6306TIP3   OH218923   2.634   4.887   0.104
 6306TIP3    H118924   2.561   4.847   0.056
 6306TIP3    H218925   2.668   4.816   0.158
 6307TIP3   OH218926   4.478   4.697   4.286
 6307TIP3    H118927   4.419   4.773   4.290
 6307TIP3    H218928   4.443   4.644   4.214
 6308TIP3   OH218929   2.253   4.894   2.002
 6308TIP3    H118930   2.161   4.909   1.979
 6308TIP3    H218931   2.290   4.849   1.926
 6309TIP3   OH218932   1.091   1.723   0.376
 6309TIP3    H118933   1.121   1.715   0.466
 6309TIP3    H218934   1.074   1.633   0.348
 6310TIP3   OH218935   3.263   2.311   0.244
 6310TIP3    H118936   3.325   2.251   0.203
 6310TIP3    H218937   3.189   2.255   0.271
 6311TIP3   OH218938   5.023   3.924   1.737
 6311TIP3    H118939   5.109   3.882   1.746
 6311TIP3    H218940   4.967   3.855   1.700
 6312TIP3   OH218941   2.434   3.976   1.668
 6312TIP3    H118942   2.492   3.915   1.624
 6312TIP3    H218943   2.484   4.006   1.744
 6313TIP3   OH218944   3.393   1.400   1.331
 6313TIP3    H118945   3.429   1.330   1.277
 6313TIP3    H218946   3.344   1.355   1.399
 6314TIP3   OH218947   0.924   4.972   5.191
 6314TIP3    H118948   0.994   5.034   5.213
 6314TIP3    H218949   0.912   4.983   5.096
 6315TIP3   OH218950   6.057   4.047   0.644
 6315TIP3    H118951   6.039   4.032   0.551
 6315TIP3    H218952   6.150   4.028   0.654
 6316TIP3   OH218953   1.290   0.705   3.962
 6316TIP3    H118954   1.238   0.663   3.894
 6316TIP3    H218955   1.362   0.643   3.978
 6317TIP3   OH218956   4.912   3.265   3.055
 6317TIP3    H118957   4.944   3.353   3.034
 6317TIP3    H218958   4.848   3.247   2.986
 6318TIP3   OH218959   3.417   3.144   2.033
 6318TIP3    H118960   3.416   3.055   1.997
 6318TIP3    H218961   3.329   3.155   2.070
 6319TIP3   OH218962   2.254   3.161   1.202
 6319TIP3    H118963   2.210   3.099   1.145
 6319TIP3    H218964   2.219   3.246   1.177
 6320TIP3   OH218965   4.998   3.675   3.301
 6320TIP3    H118966   4.928   3.737   3.284
 6320TIP3    H218967   4.958   3.608   3.356
 6321TIP3   OH218968   5.891   0.387   3.738
 6321TIP3    H118969   5.890   0.393   3.834
 6321TIP3    H218970   5.907   0.294   3.720
 6322TIP3   OH218971   3.550   5.373   1.551
 6322TIP3    H118972   3.620   5.360   1.616
 6322TIP3    H218973   3.517   5.461   1.569
 6323TIP3   OH218974   1.840   0.462   0.574
 6323TIP3    H118975   1.878   0.546   0.600
 6323TIP3    H218976   1.859   0.403   0.647
 6324TIP3   OH218977   5.525   3.422   2.527
 6324TIP3    H118978   5.534   3.492   2.591
 6324TIP3    H218979   5.590   3.442   2.460
 6325TIP3   OH218980   2.653   3.295   1.121
 6325TIP3    H118981   2.639   3.203   1.098
 6325TIP3    H218982   2.666   3.338   1.036
 6326TIP3   OH218983   6.003   5.122   1.005
 6326TIP3    H118984   5.930   5.176   1.036
 6326TIP3    H218985   6.014   5.148   0.913
 6327TIP3   OH218986   4.355   2.419   3.267
 6327TIP3    H118987   4.277   2.364   3.252
 6327TIP3    H218988   4.428   2.357   3.266
 6328TIP3   OH218989   5.032   3.843   0.385
 6328TIP3    H118990   5.121   3.813   0.365
 6328TIP3    H218991   5.044   3.928   0.427
 6329TIP3   OH218992   5.209   1.887   2.507
 6329TIP3    H118993   5.290   1.879   2.557
 6329TIP3    H218994   5.237   1.917   2.421
 6330TIP3   OH218995   3.649   4.266   3.285
 6330TIP3    H118996   3.630   4.283   3.193
 6330TIP3    H218997   3.744   4.263   3.290
 6331TIP3   OH218998   2.507   2.845   3.588
 6331TIP3    H118999   2.553   2.882   3.664
 6331TIP3    H219000   2.454   2.775   3.624
 6332TIP3   OH219001   5.895   2.942   0.036
 6332TIP3    H119002   5.915   2.941   0.130
 6332TIP3    H219003   5.871   2.852   0.015
 6333TIP3   OH219004   4.951   1.460   3.246
 6333TIP3    H119005   4.914   1.416   3.169
 6333TIP3    H219006   5.034   1.414   3.262
 6334TIP3   OH219007   3.917   3.774   2.339
 6334TIP3    H119008   3.860   3.718   2.391
 6334TIP3    H219009   3.863   3.849   2.315
 6335TIP3   OH219010   0.282   1.680   2.155
 6335TIP3    H119011   0.288   1.677   2.250
 6335TIP3    H219012   0.205   1.627   2.134
 6336TIP3   OH219013   2.946   1.323   5.106
 6336TIP3    H119014   2.888   1.365   5.043
 6336TIP3    H219015   3.034   1.343   5.074
 6337TIP3   OH219016   2.069   2.108   3.450
 6337TIP3    H119017   2.142   2.168   3.465
 6337TIP3    H219018   2.109   2.031   3.410
 6338TIP3   OH219019   0.748   5.077   3.882
 6338TIP3    H119020   0.719   5.137   3.951
 6338TIP3    H219021   0.721   4.990   3.912
 6339TIP3   OH219022   2.619   3.399   0.872
 6339TIP3    H119023   2.524   3.385   0.874
 6339TIP3    H219024   2.632   3.465   0.804
 6340TIP3   OH219025   0.273   3.777   0.096
 6340TIP3    H119026   0.263   3.780   0.000
 6340TIP3    H219027   0.210   3.711   0.124
 6341TIP3   OH219028   3.734   2.831   3.714
 6341TIP3    H119029   3.654   2.867   3.674
 6341TIP3    H219030   3.740   2.742   3.680
 6342TIP3   OH219031   5.707   2.407   0.069
 6342TIP3    H119032   5.796   2.405   0.034
 6342TIP3    H219033   5.705   2.338   0.135
 6343TIP3   OH219034   0.405   0.377   0.539
 6343TIP3    H119035   0.359   0.445   0.589
 6343TIP3    H219036   0.381   0.394   0.448
 6344TIP3   OH219037   2.799   1.488   4.932
 6344TIP3    H119038   2.725   1.540   4.964
 6344TIP3    H219039   2.839   1.543   4.865
 6345TIP3   OH219040   0.688   4.108   0.242
 6345TIP3    H119041   0.639   4.027   0.224
 6345TIP3    H219042   0.736   4.089   0.323
 6346TIP3   OH219043   2.607   5.303   3.257
 6346TIP3    H119044   2.644   5.364   3.321
 6346TIP3    H219045   2.637   5.335   3.172
 6347TIP3   OH219046   0.415   1.410   2.259
 6347TIP3    H119047   0.411   1.384   2.351
 6347TIP3    H219048   0.476   1.484   2.258
 6348TIP3   OH219049   0.584   2.504   1.150
 6348TIP3    H119050   0.571   2.427   1.094
 6348TIP3    H219051   0.669   2.489   1.191
 6349TIP3   OH219052   2.917   0.112   3.333
 6349TIP3    H119053   2.852   0.120   3.402
 6349TIP3    H219054   2.865   0.110   3.252
 6350TIP3   OH219055   1.543   4.176   1.370
 6350TIP3    H119056   1.635   4.152   1.374
 6350TIP3    H219057   1.514   4.175   1.461
 6351TIP3   OH219058   5.327   3.591   3.301
 6351TIP3    H119059   5.268   3.660   3.272
 6351TIP3    H219060   5.270   3.524   3.337
 6352TIP3   OH219061   2.567   0.668   2.032
 6352TIP3    H119062   2.544   0.673   2.125
 6352TIP3    H219063   2.657   0.698   2.028
 6353TIP3   OH219064   1.227   2.396   2.852
 6353TIP3    H119065   1.205   2.379   2.944
 6353TIP3    H219066   1.236   2.491   2.847
 6354TIP3   OH219067   1.163   4.809   2.058
 6354TIP3    H119068   1.218   4.850   1.991
 6354TIP3    H219069   1.142   4.723   2.023
 6355TIP3   OH219070   0.893   2.063   0.133
 6355TIP3    H119071   0.820   2.002   0.144
 6355TIP3    H219072   0.870   2.114   0.055
 6356TIP3   OH219073   2.544   3.056   2.087
 6356TIP3    H119074   2.619   3.065   2.028
 6356TIP3    H219075   2.564   3.114   2.160
 6357TIP3   OH219076   0.219   0.731   0.430
 6357TIP3    H119077   0.132   0.693   0.416
 6357TIP3    H219078   0.202   0.821   0.456
 6358TIP3   OH219079   4.086   3.051   0.266
 6358TIP3    H119080   4.118   3.016   0.349
 6358TIP3    H219081   4.008   3.102   0.290
 6359TIP3   OH219082   6.127   4.769   0.467
 6359TIP3    H119083   6.060   4.836   0.453
 6359TIP3    H219084   6.090   4.690   0.427
 6360TIP3   OH219085   1.135   5.613   0.583
 6360TIP3    H119086   1.055   5.569   0.555
 6360TIP3    H219087   1.108   5.703   0.600
 6361TIP3   OH219088   4.764   4.461   1.413
 6361TIP3    H119089   4.714   4.493   1.488
 6361TIP3    H219090   4.704   4.471   1.338
 6362TIP3   OH219091   1.018   5.248   3.880
 6362TIP3    H119092   0.931   5.209   3.877
 6362TIP3    H219093   1.035   5.275   3.790
 6363TIP3   OH219094   4.925   3.375   3.857
 6363TIP3    H119095   4.914   3.309   3.926
 6363TIP3    H219096   4.875   3.341   3.783
 6364TIP3   OH219097   1.382   4.057   2.549
 6364TIP3    H119098   1.427   4.128   2.504
 6364TIP3    H219099   1.377   4.086   2.641
 6365TIP3   OH219100   5.681   0.039   4.558
 6365TIP3    H119101   5.695  -0.012   4.638
 6365TIP3    H219102   5.596   0.009   4.525
 6366TIP3   OH219103   0.334   1.796   2.392
 6366TIP3    H119104   0.400   1.729   2.374
 6366TIP3    H219105   0.336   1.807   2.487
 6367TIP3   OH219106   5.124   5.503   4.536
 6367TIP3    H119107   5.087   5.481   4.451
 6367TIP3    H219108   5.218   5.494   4.524
 6368TIP3   OH219109   6.173   1.566   4.195
 6368TIP3    H119110   6.110   1.526   4.256
 6368TIP3    H219111   6.167   1.512   4.116
 6369TIP3   OH219112   2.107   3.458   3.798
 6369TIP3    H119113   2.196   3.449   3.832
 6369TIP3    H219114   2.107   3.408   3.717
 6370TIP3   OH219115   1.712   2.847   4.753
 6370TIP3    H119116   1.746   2.786   4.687
 6370TIP3    H219117   1.630   2.879   4.715
 6371TIP3   OH219118   2.086   1.676   3.992
 6371TIP3    H119119   2.174   1.657   4.025
 6371TIP3    H219120   2.083   1.631   3.907
 6372TIP3   OH219121   0.700   4.275   2.240
 6372TIP3    H119122   0.666   4.202   2.292
 6372TIP3    H219123   0.789   4.247   2.216
 6373TIP3   OH219124   5.080   1.315   4.914
 6373TIP3    H119125   5.028   1.235   4.925
 6373TIP3    H219126   5.027   1.383   4.956
 6374TIP3   OH219127   2.200   1.181   2.731
 6374TIP3    H119128   2.130   1.235   2.770
 6374TIP3    H219129   2.281   1.221   2.764
 6375TIP3   OH219130   6.012   4.697   1.474
 6375TIP3    H119131   6.010   4.642   1.396
 6375TIP3    H219132   6.076   4.655   1.531
 6376TIP3   OH219133   2.521   1.708   4.761
 6376TIP3    H119134   2.569   1.702   4.844
 6376TIP3    H219135   2.435   1.741   4.785
 6377TIP3   OH219136   2.549   4.081   1.893
 6377TIP3    H119137   2.502   4.006   1.930
 6377TIP3    H219138   2.614   4.104   1.959
 6378TIP3   OH219139   2.339   1.373   3.843
 6378TIP3    H119140   2.244   1.363   3.840
 6378TIP3    H219141   2.373   1.285   3.823
 6379TIP3   OH219142   3.989   2.155   4.081
 6379TIP3    H119143   4.017   2.233   4.129
 6379TIP3    H219144   4.062   2.136   4.022
 6380TIP3   OH219145   0.884   2.940   1.981
 6380TIP3    H119146   0.928   2.863   2.016
 6380TIP3    H219147   0.888   2.929   1.886
 6381TIP3   OH219148   4.077   1.064   4.858
 6381TIP3    H119149   3.999   1.078   4.911
 6381TIP3    H219150   4.105   0.974   4.879
 6382TIP3   OH219151   0.282   4.163   3.002
 6382TIP3    H119152   0.348   4.102   2.970
 6382TIP3    H219153   0.330   4.244   3.019
 6383TIP3   OH219154   4.885   2.219   4.476
 6383TIP3    H119155   4.929   2.241   4.558
 6383TIP3    H219156   4.878   2.302   4.429
 6384TIP3   OH219157   3.068   0.265   3.018
 6384TIP3    H119158   2.978   0.234   3.017
 6384TIP3    H219159   3.061   0.360   3.013
 6385TIP3   OH219160   0.327   0.608   5.043
 6385TIP3    H119161   0.383   0.639   5.115
 6385TIP3    H219162   0.377   0.627   4.964
 6386TIP3   OH219163   0.195   2.221   2.984
 6386TIP3    H119164   0.188   2.304   3.030
 6386TIP3    H219165   0.251   2.167   3.040
 6387TIP3   OH219166   3.078   1.201   0.307
 6387TIP3    H119167   3.112   1.239   0.227
 6387TIP3    H219168   3.153   1.200   0.367
 6388TIP3   OH219169   1.501   1.419   1.629
 6388TIP3    H119170   1.515   1.397   1.721
 6388TIP3    H219171   1.588   1.411   1.589
 6389TIP3   OH219172   5.881   3.585   4.633
 6389TIP3    H119173   5.826   3.621   4.564
 6389TIP3    H219174   5.970   3.608   4.606
 6390TIP3   OH219175   2.214   1.304   1.293
 6390TIP3    H119176   2.173   1.290   1.208
 6390TIP3    H219177   2.293   1.355   1.274
 6391TIP3   OH219178   2.048   5.676   1.547
 6391TIP3    H119179   1.972   5.727   1.518
 6391TIP3    H219180   2.100   5.663   1.467
 6392TIP3   OH219181   0.447   5.522   0.364
 6392TIP3    H119182   0.470   5.505   0.273
 6392TIP3    H219183   0.367   5.575   0.359
 6393TIP3   OH219184   6.022   4.359   2.610
 6393TIP3    H119185   6.062   4.343   2.696
 6393TIP3    H219186   6.066   4.437   2.578
 6394TIP3   OH219187   2.234   4.641   5.036
 6394TIP3    H119188   2.218   4.646   5.131
 6394TIP3    H219189   2.303   4.575   5.027
 6395TIP3   OH219190   2.331   3.599   5.114
 6395TIP3    H119191   2.418   3.625   5.084
 6395TIP3    H219192   2.291   3.680   5.144
 6396TIP3   OH219193   4.678   4.117   1.606
 6396TIP3    H119194   4.717   4.171   1.674
 6396TIP3    H219195   4.625   4.178   1.555
 6397TIP3   OH219196   4.554   4.237   0.878
 6397TIP3    H119197   4.614   4.166   0.855
 6397TIP3    H219198   4.468   4.208   0.847
 6398TIP3   OH219199   2.071   5.080   4.965
 6398TIP3    H119200   2.140   5.022   4.932
 6398TIP3    H219201   2.119   5.148   5.014
 6399TIP3   OH219202   4.184   3.084   4.279
 6399TIP3    H119203   4.183   3.030   4.358
 6399TIP3    H219204   4.118   3.151   4.294
 6400TIP3   OH219205   3.679   4.045   1.483
 6400TIP3    H119206   3.773   4.045   1.464
 6400TIP3    H219207   3.675   4.042   1.579
 6401TIP3   OH219208   2.152   0.797   3.546
 6401TIP3    H119209   2.080   0.756   3.595
 6401TIP3    H219210   2.114   0.876   3.509
 6402TIP3   OH219211   4.869   3.684   1.701
 6402TIP3    H119212   4.893   3.617   1.636
 6402TIP3    H219213   4.859   3.635   1.782
 6403TIP3   OH219214   3.139   1.620   0.921
 6403TIP3    H119215   3.191   1.616   1.001
 6403TIP3    H219216   3.084   1.697   0.931
 6404TIP3   OH219217   4.007   4.558   1.122
 6404TIP3    H119218   4.094   4.522   1.140
 6404TIP3    H219219   4.024   4.644   1.082
 6405TIP3   OH219220   2.561   3.791   1.533
 6405TIP3    H119221   2.578   3.697   1.524
 6405TIP3    H219222   2.647   3.832   1.526
 6406TIP3   OH219223   6.316   4.932   1.436
 6406TIP3    H119224   6.309   4.849   1.389
 6406TIP3    H219225   6.254   4.924   1.509
 6407TIP3   OH219226   0.850   4.453   1.557
 6407TIP3    H119227   0.799   4.468   1.477
 6407TIP3    H219228   0.934   4.420   1.525
 6408TIP3   OH219229   6.094   1.511   5.031
 6408TIP3    H119230   6.005   1.513   5.067
 6408TIP3    H219231   6.123   1.420   5.041
 6409TIP3   OH219232   2.479   0.343   3.469
 6409TIP3    H119233   2.409   0.408   3.481
 6409TIP3    H219234   2.433   0.260   3.462
 6410TIP3   OH219235   5.913   0.586   2.978
 6410TIP3    H119236   5.900   0.507   2.925
 6410TIP3    H219237   5.829   0.633   2.972
 6411TIP3   OH219238   2.680   5.490   3.718
 6411TIP3    H119239   2.766   5.493   3.676
 6411TIP3    H219240   2.695   5.444   3.801
 6412TIP3   OH219241   2.766   4.608   0.825
 6412TIP3    H119242   2.687   4.612   0.879
 6412TIP3    H219243   2.748   4.665   0.751
 6413TIP3   OH219244   6.336   1.316   1.955
 6413TIP3    H119245   6.247   1.344   1.979
 6413TIP3    H219246   6.359   1.373   1.882
 6414TIP3   OH219247   4.716   5.918   1.293
 6414TIP3    H119248   4.627   5.894   1.267
 6414TIP3    H219249   4.763   5.931   1.211
 6415TIP3   OH219250   3.309   0.309   3.970
 6415TIP3    H119251   3.343   0.320   3.881
 6415TIP3    H219252   3.285   0.397   3.998
 6416TIP3   OH219253   3.263   3.241   2.422
 6416TIP3    H119254   3.287   3.153   2.452
 6416TIP3    H219255   3.224   3.227   2.336
 6417TIP3   OH219256   2.730   4.005   2.932
 6417TIP3    H119257   2.760   3.983   2.844
 6417TIP3    H219258   2.634   3.999   2.926
 6418TIP3   OH219259   2.661   2.418   3.847
 6418TIP3    H119260   2.644   2.508   3.875
 6418TIP3    H219261   2.630   2.415   3.757
 6419TIP3   OH219262   4.558   1.947   1.621
 6419TIP3    H119263   4.618   1.905   1.560
 6419TIP3    H219264   4.611   1.967   1.698
 6420TIP3   OH219265   3.295   4.009   1.746
 6420TIP3    H119266   3.242   4.058   1.684
 6420TIP3    H219267   3.346   3.949   1.692
 6421TIP3   OH219268   3.113   3.420   0.528
 6421TIP3    H119269   3.031   3.451   0.490
 6421TIP3    H219270   3.175   3.491   0.513
 6422TIP3   OH219271   6.315   5.512   4.694
 6422TIP3    H119272   6.303   5.425   4.732
 6422TIP3    H219273   6.324   5.496   4.600
 6423TIP3   OH219274   4.099   2.416   4.975
 6423TIP3    H119275   4.017   2.369   4.993
 6423TIP3    H219276   4.073   2.488   4.918
 6424TIP3   OH219277   3.133   4.527   1.133
 6424TIP3    H119278   3.077   4.603   1.147
 6424TIP3    H219279   3.222   4.562   1.136
 6425TIP3   OH219280   1.137   0.539   3.807
 6425TIP3    H119281   1.065   0.544   3.870
 6425TIP3    H219282   1.106   0.479   3.740
 6426TIP3   OH219283   4.650   5.872   3.287
 6426TIP3    H119284   4.716   5.882   3.218
 6426TIP3    H219285   4.698   5.884   3.369
 6427TIP3   OH219286   3.065   4.772   1.953
 6427TIP3    H119287   3.048   4.701   1.891
 6427TIP3    H219288   3.027   4.849   1.912
 6428TIP3   OH219289   1.632   3.984   2.260
 6428TIP3    H119290   1.594   3.972   2.173
 6428TIP3    H219291   1.658   3.895   2.286
 6429TIP3   OH219292   0.953   0.152   3.578
 6429TIP3    H119293   0.984   0.243   3.586
 6429TIP3    H219294   0.933   0.142   3.485
 6430TIP3   OH219295   3.747   5.646   4.992
 6430TIP3    H119296   3.715   5.561   4.962
 6430TIP3    H219297   3.797   5.681   4.918
 6431TIP3   OH219298   5.436   0.370   3.676
 6431TIP3    H119299   5.390   0.290   3.649
 6431TIP3    H219300   5.383   0.404   3.749
 6432TIP3   OH219301   0.685   4.708   4.997
 6432TIP3    H119302   0.681   4.795   4.958
 6432TIP3    H219303   0.772   4.705   5.039
 6433TIP3   OH219304   4.738   2.795   0.277
 6433TIP3    H119305   4.709   2.820   0.189
 6433TIP3    H219306   4.696   2.860   0.334
 6434TIP3   OH219307   5.801   2.910   3.570
 6434TIP3    H119308   5.813   2.818   3.594
 6434TIP3    H219309   5.859   2.958   3.629
 6435TIP3   OH219310   1.252   1.584   3.727
 6435TIP3    H119311   1.194   1.586   3.803
 6435TIP3    H219312   1.245   1.494   3.694
 6436TIP3   OH219313   1.165   4.674   3.000
 6436TIP3    H119314   1.235   4.635   3.051
 6436TIP3    H219315   1.209   4.729   2.935
 6437TIP3   OH219316   1.468   4.800   0.783
 6437TIP3    H119317   1.394   4.849   0.747
 6437TIP3    H219318   1.432   4.756   0.860
 6438TIP3   OH219319   0.140   1.536   2.471
 6438TIP3    H119320   0.145   1.534   2.376
 6438TIP3    H219321   0.209   1.476   2.500
 6439TIP3   OH219322   5.975   4.280   0.747
 6439TIP3    H119323   6.054   4.303   0.797
 6439TIP3    H219324   5.993   4.191   0.716
 6440TIP3   OH219325   4.295   3.594   5.069
 6440TIP3    H119326   4.359   3.632   5.129
 6440TIP3    H219327   4.313   3.500   5.071
 6441TIP3   OH219328   3.564   4.877   3.935
 6441TIP3    H119329   3.658   4.887   3.920
 6441TIP3    H219330   3.555   4.790   3.974
 6442TIP3   OH219331   6.085   2.248   3.578
 6442TIP3    H119332   5.996   2.259   3.544
 6442TIP3    H219333   6.128   2.331   3.560
 6443TIP3   OH219334   1.513   4.066   4.764
 6443TIP3    H119335   1.492   3.988   4.815
 6443TIP3    H219336   1.513   4.036   4.673
 6444TIP3   OH219337   0.222   2.905   1.997
 6444TIP3    H119338   0.185   2.881   2.082
 6444TIP3    H219339   0.151   2.952   1.953
 6445TIP3   OH219340   1.907   4.839   1.302
 6445TIP3    H119341   1.912   4.762   1.357
 6445TIP3    H219342   1.868   4.907   1.358
 6446TIP3   OH219343   3.951   1.074   0.326
 6446TIP3    H119344   3.911   1.058   0.241
 6446TIP3    H219345   3.965   1.168   0.329
 6447TIP3   OH219346   4.632   4.521   2.411
 6447TIP3    H119347   4.681   4.444   2.441
 6447TIP3    H219348   4.638   4.583   2.483
 6448TIP3   OH219349   6.215   2.203   1.235
 6448TIP3    H119350   6.199   2.285   1.187
 6448TIP3    H219351   6.139   2.193   1.292
 6449TIP3   OH219352   2.845   3.117   2.858
 6449TIP3    H119353   2.775   3.168   2.818
 6449TIP3    H219354   2.846   3.146   2.950
 6450TIP3   OH219355   1.035   2.466   2.254
 6450TIP3    H119356   0.955   2.431   2.293
 6450TIP3    H219357   1.032   2.560   2.272
 6451TIP3   OH219358   1.613   1.704   2.512
 6451TIP3    H119359   1.550   1.634   2.496
 6451TIP3    H219360   1.658   1.677   2.593
 6452TIP3   OH219361   0.772   0.707   3.216
 6452TIP3    H119362   0.802   0.691   3.305
 6452TIP3    H219363   0.702   0.643   3.203
 6453TIP3   OH219364   1.592   6.007   0.629
 6453TIP3    H119365   1.653   5.941   0.664
 6453TIP3    H219366   1.603   6.000   0.534
 6454TIP3   OH219367   5.654   1.709   3.959
 6454TIP3    H119368   5.732   1.765   3.965
 6454TIP3    H219369   5.597   1.741   4.029
 6455TIP3   OH219370   2.200   2.808   4.833
 6455TIP3    H119371   2.151   2.765   4.903
 6455TIP3    H219372   2.135   2.861   4.787
 6456TIP3   OH219373   2.127   2.281   2.883
 6456TIP3    H119374   2.048   2.329   2.858
 6456TIP3    H219375   2.094   2.207   2.934
 6457TIP3   OH219376   3.018   1.584   3.063
 6457TIP3    H119377   2.939   1.615   3.109
 6457TIP3    H219378   3.089   1.603   3.124
 6458TIP3   OH219379   2.292   2.296   0.258
 6458TIP3    H119380   2.379   2.301   0.299
 6458TIP3    H219381   2.241   2.239   0.315
 6459TIP3   OH219382   5.696   5.677   3.004
 6459TIP3    H119383   5.687   5.582   2.998
 6459TIP3    H219384   5.769   5.699   2.945
 6460TIP3   OH219385   5.195   4.726   4.627
 6460TIP3    H119386   5.154   4.813   4.628
 6460TIP3    H219387   5.288   4.743   4.638
 6461TIP3   OH219388   1.293   4.332   5.114
 6461TIP3    H119389   1.303   4.297   5.203
 6461TIP3    H219390   1.357   4.284   5.062
 6462TIP3   OH219391   3.435   4.590   1.150
 6462TIP3    H119392   3.510   4.548   1.107
 6462TIP3    H219393   3.423   4.542   1.231
 6463TIP3   OH219394   4.161   0.258   3.890
 6463TIP3    H119395   4.186   0.200   3.961
 6463TIP3    H219396   4.245   0.290   3.854
 6464TIP3   OH219397   0.890   4.133   3.365
 6464TIP3    H119398   0.821   4.081   3.407
 6464TIP3    H219399   0.956   4.069   3.341
 6465TIP3   OH219400   5.714   1.346   4.906
 6465TIP3    H119401   5.790   1.306   4.948
 6465TIP3    H219402   5.652   1.359   4.978
 6466TIP3   OH219403   4.981   5.335   4.789
 6466TIP3    H119404   5.033   5.388   4.728
 6466TIP3    H219405   5.037   5.325   4.866
 6467TIP3   OH219406   2.152   4.081   0.954
 6467TIP3    H119407   2.234   4.065   0.908
 6467TIP3    H219408   2.156   4.173   0.979
 6468TIP3   OH219409   2.390   1.319   4.700
 6468TIP3    H119410   2.425   1.231   4.712
 6468TIP3    H219411   2.444   1.374   4.756
 6469TIP3   OH219412   0.432   3.259   1.553
 6469TIP3    H119413   0.375   3.202   1.604
 6469TIP3    H219414   0.438   3.339   1.605
 6470TIP3   OH219415   0.225   0.495   2.042
 6470TIP3    H119416   0.195   0.444   1.967
 6470TIP3    H219417   0.283   0.436   2.090
 6471TIP3   OH219418   2.881   1.120   2.851
 6471TIP3    H119419   2.831   1.173   2.912
 6471TIP3    H219420   2.816   1.077   2.796
 6472TIP3   OH219421   1.273   4.483   0.850
 6472TIP3    H119422   1.208   4.542   0.811
 6472TIP3    H219423   1.324   4.538   0.908
 6473TIP3   OH219424   0.308   2.503   1.323
 6473TIP3    H119425   0.336   2.583   1.367
 6473TIP3    H219426   0.385   2.446   1.327
 6474TIP3   OH219427   0.941   2.053   4.324
 6474TIP3    H119428   0.968   2.129   4.272
 6474TIP3    H219429   0.888   2.091   4.395
 6475TIP3   OH219430   5.396   4.132   3.530
 6475TIP3    H119431   5.354   4.209   3.570
 6475TIP3    H219432   5.472   4.167   3.484
 6476TIP3   OH219433   2.791   5.069   2.243
 6476TIP3    H119434   2.787   5.147   2.187
 6476TIP3    H219435   2.865   5.019   2.208
 6477TIP3   OH219436   1.199   4.878   2.787
 6477TIP3    H119437   1.133   4.822   2.745
 6477TIP3    H219438   1.277   4.869   2.733
 6478TIP3   OH219439   2.403   4.168   3.973
 6478TIP3    H119440   2.478   4.219   3.942
 6478TIP3    H219441   2.379   4.209   4.056
 6479TIP3   OH219442   1.975   2.773   1.072
 6479TIP3    H119443   1.993   2.730   1.156
 6479TIP3    H219444   2.015   2.859   1.080
 6480TIP3   OH219445   3.963   4.329   3.940
 6480TIP3    H119446   3.931   4.409   3.982
 6480TIP3    H219447   4.058   4.335   3.945
 6481TIP3   OH219448   0.318   4.099   3.750
 6481TIP3    H119449   0.359   4.185   3.757
 6481TIP3    H219450   0.387   4.037   3.771
 6482TIP3   OH219451   3.922   1.591   4.245
 6482TIP3    H119452   3.897   1.498   4.248
 6482TIP3    H219453   3.841   1.637   4.223
 6483TIP3   OH219454   2.724   5.959   2.735
 6483TIP3    H119455   2.708   6.048   2.765
 6483TIP3    H219456   2.805   5.932   2.778
 6484TIP3   OH219457   0.940   5.557   3.789
 6484TIP3    H119458   0.992   5.533   3.866
 6484TIP3    H219459   0.916   5.648   3.804
 6485TIP3   OH219460   3.740   3.628   2.785
 6485TIP3    H119461   3.782   3.695   2.840
 6485TIP3    H219462   3.717   3.558   2.846
 6486TIP3   OH219463   3.594   4.473   4.940
 6486TIP3    H119464   3.510   4.447   4.903
 6486TIP3    H219465   3.640   4.517   4.868
 6487TIP3   OH219466   0.575   1.016   3.489
 6487TIP3    H119467   0.553   0.923   3.499
 6487TIP3    H219468   0.633   1.035   3.563
 6488TIP3   OH219469   0.030   5.441   0.732
 6488TIP3    H119470   0.119   5.421   0.760
 6488TIP3    H219471   0.011   5.376   0.663
 6489TIP3   OH219472   1.608   4.408   3.591
 6489TIP3    H119473   1.658   4.426   3.511
 6489TIP3    H219474   1.531   4.466   3.585
 6490TIP3   OH219475   1.287   5.025   3.014
 6490TIP3    H119476   1.267   4.957   2.949
 6490TIP3    H219477   1.341   5.088   2.966
 6491TIP3   OH219478   1.979   4.611   3.603
 6491TIP3    H119479   1.906   4.671   3.615
 6491TIP3    H219480   2.051   4.667   3.572
 6492TIP3   OH219481   6.169   3.848   1.372
 6492TIP3    H119482   6.080   3.814   1.367
 6492TIP3    H219483   6.210   3.820   1.290
 6493TIP3   OH219484   2.467   2.717   4.934
 6493TIP3    H119485   2.387   2.664   4.939
 6493TIP3    H219486   2.468   2.750   4.844
 6494TIP3   OH219487   3.146   2.796   2.604
 6494TIP3    H119488   3.137   2.877   2.654
 6494TIP3    H219489   3.082   2.805   2.533
 6495TIP3   OH219490   3.542   3.825   0.836
 6495TIP3    H119491   3.483   3.885   0.789
 6495TIP3    H219492   3.566   3.760   0.770
 6496TIP3   OH219493   1.952   4.866   3.824
 6496TIP3    H119494   1.957   4.897   3.915
 6496TIP3    H219495   2.000   4.783   3.824
 6497TIP3   OH219496   4.271   1.889   0.601
 6497TIP3    H119497   4.213   1.885   0.525
 6497TIP3    H219498   4.285   1.983   0.615
 6498TIP3   OH219499   0.200   0.816   1.123
 6498TIP3    H119500   0.156   0.899   1.103
 6498TIP3    H219501   0.281   0.819   1.072
 6499TIP3   OH219502   4.647   4.451   5.112
 6499TIP3    H119503   4.574   4.478   5.057
 6499TIP3    H219504   4.724   4.490   5.070
 6500TIP3   OH219505   5.730   3.374   0.812
 6500TIP3    H119506   5.765   3.303   0.866
 6500TIP3    H219507   5.720   3.336   0.725
 6501TIP3   OH219508   1.756   5.070   2.137
 6501TIP3    H119509   1.744   4.977   2.120
 6501TIP3    H219510   1.806   5.073   2.218
 6502TIP3   OH219511   6.152   5.211   3.151
 6502TIP3    H119512   6.133   5.156   3.227
 6502TIP3    H219513   6.190   5.291   3.188
 6503TIP3   OH219514   0.780   1.581   4.122
 6503TIP3    H119515   0.774   1.676   4.130
 6503TIP3    H219516   0.701   1.556   4.073
 6504TIP3   OH219517   1.758   3.845   1.450
 6504TIP3    H119518   1.799   3.774   1.401
 6504TIP3    H219519   1.718   3.802   1.525
 6505TIP3   OH219520   2.298   5.662   2.847
 6505TIP3    H119521   2.284   5.663   2.752
 6505TIP3    H219522   2.237   5.728   2.881
 6506TIP3   OH219523   1.725   1.149   1.577
 6506TIP3    H119524   1.758   1.084   1.638
 6506TIP3    H219525   1.749   1.233   1.617
 6507TIP3   OH219526   1.997   0.272   2.027
 6507TIP3    H119527   1.908   0.306   2.026
 6507TIP3    H219528   2.015   0.250   1.935
 6508TIP3   OH219529   6.206   3.179   2.044
 6508TIP3    H119530   6.300   3.199   2.043
 6508TIP3    H219531   6.169   3.240   1.980
 6509TIP3   OH219532   0.444   3.265   2.665
 6509TIP3    H119533   0.506   3.337   2.669
 6509TIP3    H219534   0.475   3.210   2.594
 6510TIP3   OH219535   0.824   2.627   2.444
 6510TIP3    H119536   0.865   2.601   2.527
 6510TIP3    H219537   0.847   2.720   2.434
 6511TIP3   OH219538   5.859   4.915   1.431
 6511TIP3    H119539   5.946   4.878   1.450
 6511TIP3    H219540   5.801   4.839   1.429
 6512TIP3   OH219541   2.857   1.170   2.327
 6512TIP3    H119542   2.869   1.205   2.416
 6512TIP3    H219543   2.786   1.107   2.335
 6513TIP3   OH219544   2.659   3.613   2.216
 6513TIP3    H119545   2.606   3.558   2.158
 6513TIP3    H219546   2.727   3.554   2.248
 6514TIP3   OH219547   5.291   3.011   4.197
 6514TIP3    H119548   5.299   2.972   4.110
 6514TIP3    H219549   5.348   2.958   4.252
 6515TIP3   OH219550   0.885   3.882   1.620
 6515TIP3    H119551   0.891   3.838   1.706
 6515TIP3    H219552   0.919   3.817   1.558
 6516TIP3   OH219553   2.684   1.183   4.133
 6516TIP3    H119554   2.672   1.088   4.122
 6516TIP3    H219555   2.727   1.192   4.218
 6517TIP3   OH219556   6.065   0.710   0.712
 6517TIP3    H119557   5.997   0.751   0.765
 6517TIP3    H219558   6.144   0.759   0.732
 6518TIP3   OH219559   5.997   1.419   3.101
 6518TIP3    H119560   6.089   1.416   3.074
 6518TIP3    H219561   5.948   1.413   3.018
 6519TIP3   OH219562   1.554   5.451   4.711
 6519TIP3    H119563   1.512   5.459   4.797
 6519TIP3    H219564   1.548   5.358   4.690
 6520TIP3   OH219565   1.336   3.243   2.866
 6520TIP3    H119566   1.386   3.173   2.823
 6520TIP3    H219567   1.265   3.197   2.912
 6521TIP3   OH219568   4.419   3.579   4.300
 6521TIP3    H119569   4.398   3.499   4.251
 6521TIP3    H219570   4.482   3.625   4.245
 6522TIP3   OH219571   2.279   2.472   4.277
 6522TIP3    H119572   2.194   2.446   4.312
 6522TIP3    H219573   2.313   2.534   4.342
 6523TIP3   OH219574   5.417   0.624   2.296
 6523TIP3    H119575   5.431   0.531   2.312
 6523TIP3    H219576   5.490   0.667   2.340
 6524TIP3   OH219577   0.068   0.674   5.145
 6524TIP3    H119578   0.088   0.726   5.222
 6524TIP3    H219579   0.153   0.660   5.102
 6525TIP3   OH219580   6.009   4.923   3.528
 6525TIP3    H119581   6.075   4.942   3.594
 6525TIP3    H219582   5.928   4.912   3.577
 6526TIP3   OH219583   3.057   1.205   3.065
 6526TIP3    H119584   3.007   1.245   3.137
 6526TIP3    H219585   2.991   1.163   3.010
 6527TIP3   OH219586   3.694   2.109   4.880
 6527TIP3    H119587   3.731   2.025   4.855
 6527TIP3    H219588   3.702   2.163   4.802
 6528TIP3   OH219589   0.442   1.220   0.327
 6528TIP3    H119590   0.357   1.179   0.311
 6528TIP3    H219591   0.495   1.150   0.366
 6529TIP3   OH219592   5.247   1.721   0.287
 6529TIP3    H119593   5.292   1.745   0.206
 6529TIP3    H219594   5.156   1.749   0.273
 6530TIP3   OH219595   5.159   0.803   1.003
 6530TIP3    H119596   5.132   0.895   0.994
 6530TIP3    H219597   5.208   0.802   1.085
 6531TIP3   OH219598   5.615   0.480   3.974
 6531TIP3    H119599   5.583   0.474   4.063
 6531TIP3    H219600   5.693   0.425   3.972
 6532TIP3   OH219601   3.933   0.919   0.904
 6532TIP3    H119602   3.892   0.860   0.841
 6532TIP3    H219603   3.908   1.007   0.875
 6533TIP3   OH219604   6.287   1.369   0.998
 6533TIP3    H119605   6.351   1.299   0.980
 6533TIP3    H219606   6.314   1.441   0.942
 6534TIP3   OH219607   1.437   3.082   3.714
 6534TIP3    H119608   1.427   3.174   3.738
 6534TIP3    H219609   1.360   3.062   3.661
 6535TIP3   OH219610   0.552   5.171   3.455
 6535TIP3    H119611   0.613   5.102   3.482
 6535TIP3    H219612   0.608   5.242   3.424
 6536TIP3   OH219613   4.773   1.099   1.063
 6536TIP3    H119614   4.828   1.113   0.986
 6536TIP3    H219615   4.819   1.033   1.115
 6537TIP3   OH219616   6.208   1.612   1.143
 6537TIP3    H119617   6.262   1.546   1.100
 6537TIP3    H219618   6.122   1.603   1.102
 6538TIP3   OH219619   5.448   4.726   0.276
 6538TIP3    H119620   5.365   4.678   0.276
 6538TIP3    H219621   5.437   4.793   0.209
 6539TIP3   OH219622   4.941   0.566   2.219
 6539TIP3    H119623   4.934   0.624   2.295
 6539TIP3    H219624   4.853   0.562   2.183
 6540TIP3   OH219625   5.366   0.849   1.210
 6540TIP3    H119626   5.425   0.875   1.281
 6540TIP3    H219627   5.421   0.853   1.131
 6541TIP3   OH219628   0.118   3.891   4.240
 6541TIP3    H119629   0.185   3.957   4.223
 6541TIP3    H219630   0.035   3.938   4.226
 6542TIP3   OH219631   4.224   1.339   2.033
 6542TIP3    H119632   4.250   1.415   2.086
 6542TIP3    H219633   4.304   1.310   1.991
 6543TIP3   OH219634   0.485   4.769   3.025
 6543TIP3    H119635   0.517   4.720   2.949
 6543TIP3    H219636   0.458   4.854   2.989
 6544TIP3   OH219637   5.677   1.726   4.495
 6544TIP3    H119638   5.688   1.701   4.587
 6544TIP3    H219639   5.630   1.652   4.456
 6545TIP3   OH219640   3.868   5.340   2.181
 6545TIP3    H119641   3.831   5.353   2.094
 6545TIP3    H219642   3.882   5.428   2.215
 6546TIP3   OH219643   4.160   3.179   2.820
 6546TIP3    H119644   4.068   3.153   2.827
 6546TIP3    H219645   4.169   3.251   2.882
 6547TIP3   OH219646   5.765   4.122   1.226
 6547TIP3    H119647   5.824   4.112   1.300
 6547TIP3    H219648   5.804   4.193   1.174
 6548TIP3   OH219649   2.349   2.512   0.012
 6548TIP3    H119650   2.391   2.428   0.031
 6548TIP3    H219651   2.422   2.574   0.005
 6549TIP3   OH219652   0.240   2.511   3.115
 6549TIP3    H119653   0.164   2.525   3.060
 6549TIP3    H219654   0.206   2.508   3.204
 6550TIP3   OH219655   1.248   5.447   3.135
 6550TIP3    H119656   1.281   5.491   3.057
 6550TIP3    H219657   1.264   5.509   3.206
 6551TIP3   OH219658   2.357   5.955   0.533
 6551TIP3    H119659   2.329   6.011   0.605
 6551TIP3    H219660   2.276   5.918   0.497
 6552TIP3   OH219661   1.826   3.796   4.913
 6552TIP3    H119662   1.914   3.819   4.884
 6552TIP3    H219663   1.797   3.729   4.851
 6553TIP3   OH219664   0.600   2.294   0.533
 6553TIP3    H119665   0.590   2.253   0.619
 6553TIP3    H219666   0.570   2.227   0.471
 6554TIP3   OH219667   3.723   1.438   3.214
 6554TIP3    H119668   3.781   1.453   3.289
 6554TIP3    H219669   3.781   1.431   3.139
 6555TIP3   OH219670   4.962   5.016   1.460
 6555TIP3    H119671   4.986   5.040   1.550
 6555TIP3    H219672   4.968   4.920   1.459
 6556TIP3   OH219673   0.854   3.168   2.503
 6556TIP3    H119674   0.877   3.260   2.515
 6556TIP3    H219675   0.805   3.145   2.581
 6557TIP3   OH219676   5.961   0.921   3.348
 6557TIP3    H119677   5.880   0.879   3.377
 6557TIP3    H219678   6.010   0.937   3.429
 6558TIP3   OH219679   1.564   4.049   0.870
 6558TIP3    H119680   1.546   3.961   0.837
 6558TIP3    H219681   1.482   4.096   0.858
 6559TIP3   OH219682   5.288   2.252   1.317
 6559TIP3    H119683   5.382   2.264   1.332
 6559TIP3    H219684   5.275   2.280   1.226
 6560TIP3   OH219685   3.877   2.282   5.026
 6560TIP3    H119686   3.815   2.217   4.993
 6560TIP3    H219687   3.825   2.340   5.080
 6561TIP3   OH219688   2.292   1.332   3.302
 6561TIP3    H119689   2.282   1.237   3.300
 6561TIP3    H219690   2.325   1.355   3.215
 6562TIP3   OH219691   0.437   0.913   0.242
 6562TIP3    H119692   0.438   0.946   0.332
 6562TIP3    H219693   0.506   0.847   0.240
 6563TIP3   OH219694   4.436   3.396   4.526
 6563TIP3    H119695   4.430   3.475   4.473
 6563TIP3    H219696   4.501   3.342   4.482
 6564TIP3   OH219697   3.487   4.469   2.869
 6564TIP3    H119698   3.460   4.514   2.949
 6564TIP3    H219699   3.409   4.469   2.814
 6565TIP3   OH219700   3.813   4.358   4.205
 6565TIP3    H119701   3.745   4.315   4.152
 6565TIP3    H219702   3.894   4.312   4.183
 6566TIP3   OH219703   0.216   1.291   0.903
 6566TIP3    H119704   0.225   1.373   0.853
 6566TIP3    H219705   0.290   1.292   0.963
 6567TIP3   OH219706   0.931   5.725   4.595
 6567TIP3    H119707   0.853   5.713   4.649
 6567TIP3    H219708   0.999   5.675   4.640
 6568TIP3   OH219709   6.113   4.280   1.814
 6568TIP3    H119710   6.146   4.337   1.884
 6568TIP3    H219711   6.039   4.235   1.855
 6569TIP3   OH219712   6.084   5.283   0.791
 6569TIP3    H119713   6.051   5.365   0.828
 6569TIP3    H219714   6.163   5.308   0.743
 6570TIP3   OH219715   2.474   4.371   4.155
 6570TIP3    H119716   2.504   4.442   4.097
 6570TIP3    H219717   2.537   4.300   4.140
 6571TIP3   OH219718   4.172   2.283   0.788
 6571TIP3    H119719   4.093   2.259   0.837
 6571TIP3    H219720   4.140   2.337   0.716
 6572TIP3   OH219721   3.325   3.564   1.558
 6572TIP3    H119722   3.386   3.635   1.578
 6572TIP3    H219723   3.370   3.485   1.589
 6573TIP3   OH219724   0.983   3.607   0.908
 6573TIP3    H119725   1.067   3.630   0.948
 6573TIP3    H219726   0.934   3.689   0.905
 6574TIP3   OH219727   4.079   0.348   1.324
 6574TIP3    H119728   4.040   0.428   1.358
 6574TIP3    H219729   4.171   0.354   1.349
 6575TIP3   OH219730   1.650   0.705   0.904
 6575TIP3    H119731   1.605   0.656   0.973
 6575TIP3    H219732   1.646   0.796   0.934
 6576TIP3   OH219733   6.139   1.027   4.758
 6576TIP3    H119734   6.150   1.110   4.803
 6576TIP3    H219735   6.046   1.005   4.771
 6577TIP3   OH219736   5.784   4.697   3.992
 6577TIP3    H119737   5.851   4.629   3.995
 6577TIP3    H219738   5.722   4.673   4.060
 6578TIP3   OH219739   3.612   3.010   4.470
 6578TIP3    H119740   3.657   3.072   4.527
 6578TIP3    H219741   3.682   2.971   4.418
 6579TIP3   OH219742   0.590   2.003   0.372
 6579TIP3    H119743   0.683   2.006   0.350
 6579TIP3    H219744   0.588   1.975   0.463
 6580TIP3   OH219745   0.729   4.377   1.934
 6580TIP3    H119746   0.709   4.331   2.015
 6580TIP3    H219747   0.735   4.308   1.868
 6581TIP3   OH219748   1.438   2.768   0.223
 6581TIP3    H119749   1.406   2.711   0.153
 6581TIP3    H219750   1.413   2.856   0.196
 6582TIP3   OH219751   6.158   2.752   2.788
 6582TIP3    H119752   6.143   2.675   2.733
 6582TIP3    H219753   6.242   2.787   2.757
 6583TIP3   OH219754   2.409   4.304   1.782
 6583TIP3    H119755   2.457   4.228   1.816
 6583TIP3    H219756   2.404   4.288   1.688
 6584TIP3   OH219757   4.716   4.759   3.287
 6584TIP3    H119758   4.778   4.689   3.309
 6584TIP3    H219759   4.699   4.804   3.370
 6585TIP3   OH219760   5.239   5.184   0.255
 6585TIP3    H119761   5.269   5.151   0.340
 6585TIP3    H219762   5.231   5.279   0.268
 6586TIP3   OH219763   3.463   0.698   2.189
 6586TIP3    H119764   3.474   0.771   2.129
 6586TIP3    H219765   3.368   0.695   2.205
 6587TIP3   OH219766   2.330   3.689   4.377
 6587TIP3    H119767   2.404   3.733   4.335
 6587TIP3    H219768   2.318   3.737   4.459
 6588TIP3   OH219769   3.217   1.018   2.817
 6588TIP3    H119770   3.303   0.990   2.786
 6588TIP3    H219771   3.232   1.104   2.855
 6589TIP3   OH219772   0.091   5.509   3.767
 6589TIP3    H119773   0.109   5.583   3.709
 6589TIP3    H219774   0.060   5.549   3.848
 6590TIP3   OH219775   6.251   4.158   4.648
 6590TIP3    H119776   6.327   4.119   4.605
 6590TIP3    H219777   6.247   4.247   4.613
 6591TIP3   OH219778   0.833   4.934   0.604
 6591TIP3    H119779   0.925   4.936   0.631
 6591TIP3    H219780   0.800   5.021   0.627
 6592TIP3   OH219781   2.514   4.597   3.834
 6592TIP3    H119782   2.537   4.517   3.881
 6592TIP3    H219783   2.422   4.612   3.856
 6593TIP3   OH219784   5.830   2.758   2.258
 6593TIP3    H119785   5.835   2.834   2.199
 6593TIP3    H219786   5.857   2.684   2.204
 6594TIP3   OH219787   4.080   0.119   0.409
 6594TIP3    H119788   4.035   0.064   0.473
 6594TIP3    H219789   4.139   0.174   0.460
 6595TIP3   OH219790   0.155   2.760   2.260
 6595TIP3    H119791   0.168   2.757   2.355
 6595TIP3    H219792   0.063   2.783   2.249
 6596TIP3   OH219793   3.172   1.644   3.280
 6596TIP3    H119794   3.144   1.732   3.304
 6596TIP3    H219795   3.260   1.636   3.316
 6597TIP3   OH219796   5.863   1.839   1.272
 6597TIP3    H119797   5.911   1.769   1.226
 6597TIP3    H219798   5.784   1.852   1.220
 6598TIP3   OH219799   5.218   5.424   0.830
 6598TIP3    H119800   5.199   5.342   0.875
 6598TIP3    H219801   5.308   5.446   0.855
 6599TIP3   OH219802   1.319   1.567   4.486
 6599TIP3    H119803   1.383   1.584   4.416
 6599TIP3    H219804   1.356   1.493   4.535
 6600TIP3   OH219805   3.938   5.635   4.781
 6600TIP3    H119806   4.030   5.636   4.805
 6600TIP3    H219807   3.918   5.543   4.763
 6601TIP3   OH219808   3.073   3.934   4.622
 6601TIP3    H119809   2.984   3.900   4.636
 6601TIP3    H219810   3.124   3.857   4.597
 6602TIP3   OH219811   4.746   4.460   2.161
 6602TIP3    H119812   4.729   4.500   2.246
 6602TIP3    H219813   4.671   4.403   2.146
 6603TIP3   OH219814   3.534   2.112   4.594
 6603TIP3    H119815   3.534   2.193   4.543
 6603TIP3    H219816   3.507   2.139   4.681
 6604TIP3   OH219817   5.933   5.946   1.613
 6604TIP3    H119818   5.908   5.976   1.700
 6604TIP3    H219819   6.027   5.931   1.619
 6605TIP3   OH219820   6.115   5.385   4.271
 6605TIP3    H119821   6.041   5.380   4.210
 6605TIP3    H219822   6.083   5.342   4.350
 6606TIP3   OH219823   5.031   1.096   2.224
 6606TIP3    H119824   5.023   1.166   2.160
 6606TIP3    H219825   5.125   1.084   2.235
 6607TIP3   OH219826   3.267   3.187   1.265
 6607TIP3    H119827   3.281   3.096   1.239
 6607TIP3    H219828   3.208   3.181   1.340
 6608TIP3   OH219829   2.583   5.672   2.871
 6608TIP3    H119830   2.497   5.691   2.908
 6608TIP3    H219831   2.581   5.711   2.784
 6609TIP3   OH219832   1.155   1.909   2.671
 6609TIP3    H119833   1.138   1.924   2.578
 6609TIP3    H219834   1.226   1.845   2.672
 6610TIP3   OH219835   0.652   1.878   5.031
 6610TIP3    H119836   0.643   1.849   5.122
 6610TIP3    H219837   0.674   1.971   5.037
 6611TIP3   OH219838   1.183   3.496   3.172
 6611TIP3    H119839   1.241   3.549   3.227
 6611TIP3    H219840   1.180   3.411   3.216
 6612TIP3   OH219841   2.821   0.619   3.349
 6612TIP3    H119842   2.884   0.616   3.420
 6612TIP3    H219843   2.805   0.527   3.327
 6613TIP3   OH219844   1.264   2.698   3.864
 6613TIP3    H119845   1.237   2.785   3.892
 6613TIP3    H219846   1.285   2.707   3.771
 6614TIP3   OH219847   6.309   2.074   2.697
 6614TIP3    H119848   6.367   2.084   2.773
 6614TIP3    H219849   6.348   2.002   2.647
 6615TIP3   OH219850   1.718   5.342   1.046
 6615TIP3    H119851   1.760   5.272   1.097
 6615TIP3    H219852   1.789   5.377   0.992
 6616TIP3   OH219853   3.507   1.053   1.879
 6616TIP3    H119854   3.559   0.975   1.895
 6616TIP3    H219855   3.457   1.066   1.960
 6617TIP3   OH219856   4.857   5.620   2.276
 6617TIP3    H119857   4.785   5.679   2.254
 6617TIP3    H219858   4.927   5.643   2.215
 6618TIP3   OH219859   0.672   2.719   1.535
 6618TIP3    H119860   0.681   2.681   1.448
 6618TIP3    H219861   0.699   2.810   1.525
 6619TIP3   OH219862   3.563   4.403   4.653
 6619TIP3    H119863   3.546   4.323   4.603
 6619TIP3    H219864   3.477   4.430   4.685
 6620TIP3   OH219865   5.008   4.181   0.934
 6620TIP3    H119866   4.992   4.088   0.949
 6620TIP3    H219867   5.070   4.183   0.861
 6621TIP3   OH219868   3.856   5.887   0.216
 6621TIP3    H119869   3.827   5.815   0.160
 6621TIP3    H219870   3.796   5.884   0.291
 6622TIP3   OH219871   4.008   4.647   2.312
 6622TIP3    H119872   3.958   4.729   2.316
 6622TIP3    H219873   4.036   4.640   2.221
 6623TIP3   OH219874   5.759   4.681   0.711
 6623TIP3    H119875   5.697   4.675   0.639
 6623TIP3    H219876   5.782   4.774   0.716
 6624TIP3   OH219877   3.453   4.979   0.120
 6624TIP3    H119878   3.427   4.916   0.186
 6624TIP3    H219879   3.389   4.968   0.050
 6625TIP3   OH219880   0.470   4.217   3.380
 6625TIP3    H119881   0.455   4.307   3.354
 6625TIP3    H219882   0.382   4.182   3.396
 6626TIP3   OH219883   2.509   4.228   4.922
 6626TIP3    H119884   2.463   4.176   4.857
 6626TIP3    H219885   2.572   4.167   4.962
 6627TIP3   OH219886   4.849   1.767   4.064
 6627TIP3    H119887   4.888   1.714   4.134
 6627TIP3    H219888   4.922   1.820   4.032
 6628TIP3   OH219889   5.651   3.942   1.411
 6628TIP3    H119890   5.669   4.012   1.348
 6628TIP3    H219891   5.636   3.864   1.358
 6629TIP3   OH219892   2.153   4.670   2.220
 6629TIP3    H119893   2.178   4.581   2.243
 6629TIP3    H219894   2.121   4.663   2.130
 6630TIP3   OH219895   5.175   1.314   3.521
 6630TIP3    H119896   5.141   1.305   3.610
 6630TIP3    H219897   5.232   1.238   3.509
 6631TIP3   OH219898   1.076   4.018   0.881
 6631TIP3    H119899   1.050   4.097   0.928
 6631TIP3    H219900   1.009   3.953   0.905
 6632TIP3   OH219901   3.011   4.189   2.087
 6632TIP3    H119902   2.985   4.264   2.034
 6632TIP3    H219903   2.932   4.136   2.096
 6633TIP3   OH219904   0.053   4.248   2.545
 6633TIP3    H119905   0.015   4.300   2.474
 6633TIP3    H219906   0.111   4.309   2.592
 6634TIP3   OH219907   0.638   5.184   4.855
 6634TIP3    H119908   0.588   5.265   4.861
 6634TIP3    H219909   0.712   5.205   4.799
 6635TIP3   OH219910   6.101   4.148   2.333
 6635TIP3    H119911   6.178   4.122   2.282
 6635TIP3    H219912   6.116   4.241   2.353
 6636TIP3   OH219913   3.986   5.378   0.074
 6636TIP3    H119914   4.059   5.320   0.095
 6636TIP3    H219915   3.917   5.352   0.135
 6637TIP3   OH219916   1.003   4.258   1.769
 6637TIP3    H119917   1.058   4.318   1.719
 6637TIP3    H219918   1.060   4.182   1.785
 6638TIP3   OH219919   0.682   5.787   2.313
 6638TIP3    H119920   0.731   5.861   2.350
 6638TIP3    H219921   0.742   5.749   2.249
 6639TIP3   OH219922   3.321   1.240   2.481
 6639TIP3    H119923   3.329   1.303   2.553
 6639TIP3    H219924   3.411   1.212   2.464
 6640TIP3   OH219925   0.901   0.155   0.630
 6640TIP3    H119926   0.918   0.067   0.664
 6640TIP3    H219927   0.948   0.159   0.547
 6641TIP3   OH219928   1.891   5.041   0.153
 6641TIP3    H119929   1.893   5.075   0.243
 6641TIP3    H219930   1.846   4.957   0.161
 6642TIP3   OH219931   3.653   4.228   4.041
 6642TIP3    H119932   3.675   4.135   4.041
 6642TIP3    H219933   3.619   4.245   3.953
 6643TIP3   OH219934   5.928   5.572   1.593
 6643TIP3    H119935   5.860   5.637   1.613
 6643TIP3    H219936   5.883   5.488   1.604
 6644TIP3   OH219937   5.001   1.141   1.637
 6644TIP3    H119938   5.011   1.236   1.639
 6644TIP3    H219939   4.952   1.120   1.717
 6645TIP3   OH219940   1.950   2.805   3.508
 6645TIP3    H119941   1.966   2.848   3.593
 6645TIP3    H219942   1.886   2.862   3.465
   6.34593   5.98300   5.18144   0.00000   0.00000  -2.11532   0.00000  -2.11532  -2.99150
